<event>
 5    1  0.1267616E-004  0.9118800E+02  0.7818608E-02  0.1130116E+00
         25   -1    0    0    0    0  0.00000000000E+00  0.00000000000E+00  0.99999998245E-14  0.12500000000E+03  0.12500000000E+03 0.  0.
        -13    1    3    3    0    0 -0.32870040968E+02  0.33894413313E+02 -0.75472868670E+01  0.47814679233E+02  0.10566000000E+00 0.  1.
         23    2    1    0    0    0 -0.18894936068E+02 -0.11168593310E+02 -0.18551390927E+02  0.96261346745E+02  0.91871305022E+02 0.  0.
         13    1    3    3    0    0  0.13975104900E+02 -0.45063006623E+02 -0.11004104060E+02  0.48446667512E+02  0.10566000000E+00 0. -1.
         22    1    1    0    0    0  0.18894936068E+02  0.11168593310E+02  0.18551390927E+02  0.28738653255E+02  0.00000000000E+00 0.  1.
</event>
<event>
 5    1  0.1267616E-004  0.9118800E+02  0.7818608E-02  0.1130116E+00
         25   -1    0    0    0    0  0.00000000000E+00  0.00000000000E+00  0.99999998245E-14  0.12500000000E+03  0.12500000000E+03 0.  0.
        -13    1    3    3    0    0 -0.26295119861E+02 -0.98053486993E+01  0.35357475497E+02  0.45141338363E+02  0.10566000000E+00 0.  1.
         23    2    1    0    0    0 -0.21566877668E+02  0.51497909995E+01 -0.15226998818E+02  0.98101820644E+02  0.94342223638E+02 0.  0.
         13    1    3    3    0    0  0.47282421937E+01  0.14955139699E+02 -0.50584474315E+02  0.52960482281E+02  0.10566000000E+00 0. -1.
         22    1    1    0    0    0  0.21566877668E+02 -0.51497909995E+01  0.15226998818E+02  0.26898179356E+02  0.00000000000E+00 0. -1.
</event>
<event>
 5    1  0.1267616E-004  0.9118800E+02  0.7818608E-02  0.1130116E+00
         25   -1    0    0    0    0  0.00000000000E+00  0.00000000000E+00  0.99999998245E-14  0.12500000000E+03  0.12500000000E+03 0.  0.
        -13    1    3    3    0    0 -0.11093864798E+02 -0.28801617581E+01  0.23585628059E+02  0.26223313728E+02  0.10566000000E+00 0.  1.
         23    2    1    0    0    0  0.33588786784E+02 -0.35227476539E+01 -0.17530644014E+02  0.86948195467E+02  0.78179593673E+02 0.  0.
         13    1    3    3    0    0  0.44682651582E+02 -0.64258589579E+00 -0.41116272073E+02  0.60724881739E+02  0.10566000000E+00 0. -1.
         22    1    1    0    0    0 -0.33588786784E+02  0.35227476539E+01  0.17530644014E+02  0.38051804533E+02  0.00000000000E+00 0. -1.
</event>
<event>
 5    1  0.1267616E-004  0.9118800E+02  0.7818608E-02  0.1130116E+00
         25   -1    0    0    0    0  0.00000000000E+00  0.00000000000E+00  0.99999998245E-14  0.12500000000E+03  0.12500000000E+03 0.  0.
        -13    1    3    3    0    0  0.46703287389E+02 -0.24299396649E+02 -0.84064769678E+01  0.53313579410E+02  0.10566000000E+00 0.  1.
         23    2    1    0    0    0  0.55017040858E+01 -0.27570179396E+02 -0.11195900486E+02  0.94738940410E+02  0.89776027438E+02 0.  0.
         13    1    3    3    0    0 -0.41201583303E+02 -0.32707827471E+01 -0.27894235184E+01  0.41425361001E+02  0.10566000000E+00 0. -1.
         22    1    1    0    0    0 -0.55017040858E+01  0.27570179396E+02  0.11195900486E+02  0.30261059590E+02  0.00000000000E+00 0.  1.
</event>
<event>
 5    1  0.1267616E-004  0.9118800E+02  0.7818608E-02  0.1130116E+00
         25   -1    0    0    0    0  0.00000000000E+00  0.00000000000E+00  0.99999998245E-14  0.12500000000E+03  0.12500000000E+03 0.  0.
        -13    1    3    3    0    0 -0.45130523089E+02 -0.85205697184E+01 -0.11318618346E+02  0.47302077205E+02  0.10566000000E+00 0.  1.
         23    2    1    0    0    0  0.56666055322E+01  0.11107875023E+02  0.13038332909E+02  0.10695856350E+03  0.10542599716E+03 0.  0.
         13    1    3    3    0    0  0.50797128621E+02  0.19628444741E+02  0.24356951255E+02  0.59656486299E+02  0.10566000000E+00 0. -1.
         22    1    1    0    0    0 -0.56666055322E+01 -0.11107875023E+02 -0.13038332909E+02  0.18041436495E+02  0.00000000000E+00 0. -1.
</event>
<event>
 5    1  0.1267616E-004  0.9118800E+02  0.7818608E-02  0.1130116E+00
         25   -1    0    0    0    0  0.00000000000E+00  0.00000000000E+00  0.99999998245E-14  0.12500000000E+03  0.12500000000E+03 0.  0.
        -13    1    3    3    0    0 -0.22889372802E+02  0.46627988748E+02  0.13903118343E+02  0.53771745235E+02  0.10566000000E+00 0.  1.
         23    2    1    0    0    0 -0.47609895139E+01  0.26568145850E+02 -0.15627901021E+02  0.93810824227E+02  0.88474324280E+02 0.  0.
         13    1    3    3    0    0  0.18128383288E+02 -0.20059842898E+02 -0.29531019365E+02  0.40039078991E+02  0.10566000000E+00 0. -1.
         22    1    1    0    0    0  0.47609895139E+01 -0.26568145850E+02  0.15627901021E+02  0.31189175773E+02  0.00000000000E+00 0.  1.
</event>
<event>
 5    1  0.1267616E-004  0.9118800E+02  0.7818608E-02  0.1130116E+00
         25   -1    0    0    0    0  0.00000000000E+00  0.00000000000E+00  0.99999998245E-14  0.12500000000E+03  0.12500000000E+03 0.  0.
        -13    1    3    3    0    0  0.12771865956E+02 -0.44702796024E+02 -0.35916646777E+02  0.58749274141E+02  0.10566000000E+00 0.  1.
         23    2    1    0    0    0  0.10150801281E+02 -0.93729948988E+01 -0.26030779024E+02  0.95529790353E+02  0.90870498998E+02 0.  0.
         13    1    3    3    0    0 -0.26210646748E+01  0.35329801125E+02  0.98858677526E+01  0.36780516212E+02  0.10566000000E+00 0. -1.
         22    1    1    0    0    0 -0.10150801281E+02  0.93729948988E+01  0.26030779024E+02  0.29470209647E+02  0.00000000000E+00 0.  1.
</event>
<event>
 5    1  0.1267616E-004  0.9118800E+02  0.7818608E-02  0.1130116E+00
         25   -1    0    0    0    0  0.00000000000E+00  0.00000000000E+00  0.99999998245E-14  0.12500000000E+03  0.12500000000E+03 0.  0.
        -13    1    3    3    0    0  0.32239439831E+02  0.34284458837E+01 -0.69356037232E+00  0.32428812989E+02  0.10566000000E+00 0. -1.
         23    2    1    0    0    0 -0.26839758711E+02  0.22372240028E+01  0.15794755533E+02  0.93777378053E+02  0.88427057585E+02 0.  0.
         13    1    3    3    0    0 -0.59079198543E+02 -0.11912218809E+01  0.16488315905E+02  0.61348565064E+02  0.10566000000E+00 0.  1.
         22    1    1    0    0    0  0.26839758711E+02 -0.22372240028E+01 -0.15794755533E+02  0.31222621947E+02  0.00000000000E+00 0.  1.
</event>
<event>
 5    1  0.1267616E-004  0.9118800E+02  0.7818608E-02  0.1130116E+00
         25   -1    0    0    0    0  0.00000000000E+00  0.00000000000E+00  0.99999998245E-14  0.12500000000E+03  0.12500000000E+03 0.  0.
        -13    1    3    3    0    0 -0.51761478039E+02  0.27394852865E+02 -0.22213638250E+01  0.58606093485E+02  0.10566000000E+00 0.  1.
         23    2    1    0    0    0 -0.22148761016E+02  0.97855362560E+01 -0.16285128868E+02  0.95819017209E+02  0.91267487652E+02 0.  0.
         13    1    3    3    0    0  0.29612717023E+02 -0.17609316609E+02 -0.14063765043E+02  0.37212923724E+02  0.10566000000E+00 0. -1.
         22    1    1    0    0    0  0.22148761016E+02 -0.97855362560E+01  0.16285128868E+02  0.29180982791E+02  0.00000000000E+00 0.  1.
</event>
<event>
 5    1  0.1267616E-004  0.9118800E+02  0.7818608E-02  0.1130116E+00
         25   -1    0    0    0    0  0.00000000000E+00  0.00000000000E+00  0.99999998245E-14  0.12500000000E+03  0.12500000000E+03 0.  0.
        -13    1    3    3    0    0 -0.50247201017E+02  0.20214329066E+02 -0.22813133337E+02  0.58769469339E+02  0.10566000000E+00 0. -1.
         23    2    1    0    0    0 -0.26571977495E+02  0.29556932193E+01  0.33574368780E+01  0.98054156298E+02  0.94279048969E+02 0.  0.
         13    1    3    3    0    0  0.23675223522E+02 -0.17258635846E+02  0.26170570215E+02  0.39284686960E+02  0.10566000000E+00 0.  1.
         22    1    1    0    0    0  0.26571977495E+02 -0.29556932193E+01 -0.33574368780E+01  0.26945843702E+02  0.00000000000E+00 0. -1.
</event>
<event>
 5    1  0.1267616E-004  0.9118800E+02  0.7818608E-02  0.1130116E+00
         25   -1    0    0    0    0  0.00000000000E+00  0.00000000000E+00  0.99999998245E-14  0.12500000000E+03  0.12500000000E+03 0.  0.
        -13    1    3    3    0    0  0.31224913239E+02  0.19961745776E+02 -0.23038619184E+02  0.43637777661E+02  0.10566000000E+00 0. -1.
         23    2    1    0    0    0  0.17096792983E+02 -0.23498070017E+02  0.22259322928E+01  0.95855285224E+02  0.91317146834E+02 0.  0.
         13    1    3    3    0    0 -0.14128120256E+02 -0.43459815793E+02  0.25264551477E+02  0.52217507563E+02  0.10566000000E+00 0.  1.
         22    1    1    0    0    0 -0.17096792983E+02  0.23498070017E+02 -0.22259322928E+01  0.29144714776E+02  0.00000000000E+00 0.  1.
</event>
<event>
 5    1  0.1267616E-004  0.9118800E+02  0.7818608E-02  0.1130116E+00
         25   -1    0    0    0    0  0.00000000000E+00  0.00000000000E+00  0.99999998245E-14  0.12500000000E+03  0.12500000000E+03 0.  0.
        -13    1    3    3    0    0 -0.45506301191E+02  0.76964368679E+01 -0.76339333802E+00  0.46158991778E+02  0.10566000000E+00 0.  1.
         23    2    1    0    0    0  0.15269433307E+02 -0.62119995553E+01  0.22449110844E+00  0.10851379582E+03  0.10725413258E+03 0.  0.
         13    1    3    3    0    0  0.60775734498E+02 -0.13908436423E+02  0.98788444647E+00  0.62354804043E+02  0.10566000000E+00 0. -1.
         22    1    1    0    0    0 -0.15269433307E+02  0.62119995553E+01 -0.22449110844E+00  0.16486204180E+02  0.00000000000E+00 0. -1.
</event>
<event>
 5    1  0.1267616E-004  0.9118800E+02  0.7818608E-02  0.1130116E+00
         25   -1    0    0    0    0  0.00000000000E+00  0.00000000000E+00  0.99999998245E-14  0.12500000000E+03  0.12500000000E+03 0.  0.
        -13    1    3    3    0    0 -0.43728000175E+02  0.39125240132E+02  0.15123376739E+01  0.58696002794E+02  0.10566000000E+00 0.  1.
         23    2    1    0    0    0 -0.95146431653E+01  0.27974005160E+02 -0.42789476966E+01  0.95143965557E+02  0.90338205590E+02 0.  0.
         13    1    3    3    0    0  0.34213357010E+02 -0.11151234972E+02 -0.57912853705E+01  0.36447962763E+02  0.10566000000E+00 0. -1.
         22    1    1    0    0    0  0.95146431653E+01 -0.27974005160E+02  0.42789476966E+01  0.29856034443E+02  0.00000000000E+00 0.  1.
</event>
<event>
 5    1  0.1267616E-004  0.9118800E+02  0.7818608E-02  0.1130116E+00
         25   -1    0    0    0    0  0.00000000000E+00  0.00000000000E+00  0.99999998245E-14  0.12500000000E+03  0.12500000000E+03 0.  0.
        -13    1    3    3    0    0 -0.91254334764E+01 -0.57760622581E+02 -0.21166653450E+00  0.58477508701E+02  0.10566000000E+00 0.  1.
         23    2    1    0    0    0 -0.11912377711E+02 -0.22548039496E+02  0.13229517603E+02  0.96271286770E+02  0.91884828413E+02 0.  0.
         13    1    3    3    0    0 -0.27869442346E+01  0.35212583085E+02  0.13441184138E+02  0.37793778070E+02  0.10566000000E+00 0. -1.
         22    1    1    0    0    0  0.11912377711E+02  0.22548039496E+02 -0.13229517603E+02  0.28728713230E+02  0.00000000000E+00 0.  1.
</event>
<event>
 5    1  0.1267616E-004  0.9118800E+02  0.7818608E-02  0.1130116E+00
         25   -1    0    0    0    0  0.00000000000E+00  0.00000000000E+00  0.99999998245E-14  0.12500000000E+03  0.12500000000E+03 0.  0.
        -13    1    3    3    0    0 -0.15583427004E+02 -0.15197365849E+02  0.48927162004E+02  0.53550737359E+02  0.10566000000E+00 0. -1.
         23    2    1    0    0    0 -0.25169509723E+02  0.54058845705E+01  0.12751958433E+02  0.96271264359E+02  0.91884797925E+02 0.  0.
         13    1    3    3    0    0 -0.95860827188E+01  0.20603250419E+02 -0.36175203571E+02  0.42720527000E+02  0.10566000000E+00 0.  1.
         22    1    1    0    0    0  0.25169509723E+02 -0.54058845705E+01 -0.12751958433E+02  0.28728735641E+02  0.00000000000E+00 0.  1.
</event>
<event>
 5    1  0.1267616E-004  0.9118800E+02  0.7818608E-02  0.1130116E+00
         25   -1    0    0    0    0  0.00000000000E+00  0.00000000000E+00  0.99999998245E-14  0.12500000000E+03  0.12500000000E+03 0.  0.
        -13    1    3    3    0    0  0.10182206168E+02  0.38880647503E+02  0.34155750763E+01  0.40336824241E+02  0.10566000000E+00 0.  1.
         23    2    1    0    0    0  0.21693689693E+01 -0.13168693647E+02  0.24529845044E+02  0.97074492807E+02  0.92971087989E+02 0.  0.
         13    1    3    3    0    0 -0.80128371985E+01 -0.52049341149E+02  0.21114269968E+02  0.56737668567E+02  0.10566000000E+00 0. -1.
         22    1    1    0    0    0 -0.21693689693E+01  0.13168693647E+02 -0.24529845044E+02  0.27925507193E+02  0.00000000000E+00 0. -1.
</event>
<event>
 5    1  0.1267616E-004  0.9118800E+02  0.7818608E-02  0.1130116E+00
         25   -1    0    0    0    0  0.00000000000E+00  0.00000000000E+00  0.99999998245E-14  0.12500000000E+03  0.12500000000E+03 0.  0.
        -13    1    3    3    0    0 -0.27342439285E+02 -0.17390665374E+02  0.11346408835E+02  0.34333604321E+02  0.10566000000E+00 0.  1.
         23    2    1    0    0    0  0.81723435018E+01  0.24385243795E+02 -0.15064305325E+02  0.95194621153E+02  0.90408270022E+02 0.  0.
         13    1    3    3    0    0  0.35514782787E+02  0.41775909170E+02 -0.26410714160E+02  0.60861016832E+02  0.10566000000E+00 0. -1.
         22    1    1    0    0    0 -0.81723435018E+01 -0.24385243795E+02  0.15064305325E+02  0.29805378847E+02  0.00000000000E+00 0. -1.
</event>
<event>
 5    1  0.1267616E-004  0.9118800E+02  0.7818608E-02  0.1130116E+00
         25   -1    0    0    0    0  0.00000000000E+00  0.00000000000E+00  0.99999998245E-14  0.12500000000E+03  0.12500000000E+03 0.  0.
        -13    1    3    3    0    0  0.14338001367E+02 -0.59139112460E+02 -0.14299242803E+01  0.60869275939E+02  0.10566000000E+00 0.  1.
         23    2    1    0    0    0  0.12653434358E+02 -0.25820401473E+02  0.72591073276E+01  0.95343682419E+02  0.90614130271E+02 0.  0.
         13    1    3    3    0    0 -0.16845670094E+01  0.33318710987E+02  0.86890316079E+01  0.34474406480E+02  0.10566000000E+00 0. -1.
         22    1    1    0    0    0 -0.12653434358E+02  0.25820401473E+02 -0.72591073276E+01  0.29656317581E+02  0.00000000000E+00 0.  1.
</event>
<event>
 5    1  0.1267616E-004  0.9118800E+02  0.7818608E-02  0.1130116E+00
         25   -1    0    0    0    0  0.00000000000E+00  0.00000000000E+00  0.99999998245E-14  0.12500000000E+03  0.12500000000E+03 0.  0.
        -13    1    3    3    0    0 -0.32388318236E+01  0.65296919913E+01 -0.43298737928E+02  0.43908071915E+02  0.10566000000E+00 0.  1.
         23    2    1    0    0    0 -0.23845750784E+02 -0.22525455575E+02 -0.23358066983E+02  0.84730715521E+02  0.74549841584E+02 0.  0.
         13    1    3    3    0    0 -0.20606918961E+02 -0.29055147566E+02  0.19940670946E+02  0.40822643605E+02  0.10566000000E+00 0. -1.
         22    1    1    0    0    0  0.23845750784E+02  0.22525455575E+02  0.23358066983E+02  0.40269284479E+02  0.00000000000E+00 0.  1.
</event>
<event>
 5    1  0.1267616E-004  0.9118800E+02  0.7818608E-02  0.1130116E+00
         25   -1    0    0    0    0  0.00000000000E+00  0.00000000000E+00  0.99999998245E-14  0.12500000000E+03  0.12500000000E+03 0.  0.
        -13    1    3    3    0    0 -0.16635647307E+02 -0.28693739391E+02  0.67198605999E+01  0.33841441046E+02  0.10566000000E+00 0. -1.
         23    2    1    0    0    0  0.21996981762E+02  0.18475573736E+02 -0.47548934801E+01  0.95882598957E+02  0.91354527743E+02 0.  0.
         13    1    3    3    0    0  0.38632629070E+02  0.47169313126E+02 -0.11474754080E+02  0.62041157911E+02  0.10566000000E+00 0.  1.
         22    1    1    0    0    0 -0.21996981762E+02 -0.18475573736E+02  0.47548934801E+01  0.29117401043E+02  0.00000000000E+00 0.  1.
</event>
<event>
 5    1  0.1267616E-004  0.9118800E+02  0.7818608E-02  0.1130116E+00
         25   -1    0    0    0    0  0.00000000000E+00  0.00000000000E+00  0.99999998245E-14  0.12500000000E+03  0.12500000000E+03 0.  0.
        -13    1    3    3    0    0  0.25887945637E+02  0.49184772043E+02 -0.97344156490E+01  0.56427808236E+02  0.10566000000E+00 0. -1.
         23    2    1    0    0    0 -0.64495100808E+01  0.28569066057E+02 -0.70723557205E+01  0.94870182027E+02  0.89958576615E+02 0.  0.
         13    1    3    3    0    0 -0.32337455718E+02 -0.20615705986E+02  0.26620599285E+01  0.38442373791E+02  0.10566000000E+00 0.  1.
         22    1    1    0    0    0  0.64495100808E+01 -0.28569066057E+02  0.70723557205E+01  0.30129817973E+02  0.00000000000E+00 0. -1.
</event>
<event>
 5    1  0.1267616E-004  0.9118800E+02  0.7818608E-02  0.1130116E+00
         25   -1    0    0    0    0  0.00000000000E+00  0.00000000000E+00  0.99999998245E-14  0.12500000000E+03  0.12500000000E+03 0.  0.
        -13    1    3    3    0    0  0.42543415735E+02  0.28627149876E+02 -0.30037732922E+02  0.59428381229E+02  0.10566000000E+00 0.  1.
         23    2    1    0    0    0  0.13275143624E+02  0.78765530732E+01 -0.24944042229E+02  0.95666149771E+02  0.91057879630E+02 0.  0.
         13    1    3    3    0    0 -0.29268272111E+02 -0.20750596802E+02  0.50936906930E+01  0.36237768542E+02  0.10566000000E+00 0. -1.
         22    1    1    0    0    0 -0.13275143624E+02 -0.78765530732E+01  0.24944042229E+02  0.29333850229E+02  0.00000000000E+00 0.  1.
</event>
<event>
 5    1  0.1267616E-004  0.9118800E+02  0.7818608E-02  0.1130116E+00
         25   -1    0    0    0    0  0.00000000000E+00  0.00000000000E+00  0.99999998245E-14  0.12500000000E+03  0.12500000000E+03 0.  0.
        -13    1    3    3    0    0 -0.41425183246E+02  0.53178552142E+01  0.79078008912E+01  0.42507291963E+02  0.10566000000E+00 0. -1.
         23    2    1    0    0    0 -0.98068723207E+00  0.28080129272E+02 -0.13746166750E+02  0.93720413882E+02  0.88346496651E+02 0.  0.
         13    1    3    3    0    0  0.40444496014E+02  0.22762274058E+02 -0.21653967641E+02  0.51213121919E+02  0.10566000000E+00 0.  1.
         22    1    1    0    0    0  0.98068723207E+00 -0.28080129272E+02  0.13746166750E+02  0.31279586118E+02  0.00000000000E+00 0.  1.
</event>
<event>
 5    1  0.1267616E-004  0.9118800E+02  0.7818608E-02  0.1130116E+00
         25   -1    0    0    0    0  0.00000000000E+00  0.00000000000E+00  0.99999998245E-14  0.12500000000E+03  0.12500000000E+03 0.  0.
        -13    1    3    3    0    0 -0.75599919766E+01  0.32232635717E+01  0.49125146197E+02  0.49807971848E+02  0.10566000000E+00 0. -1.
         23    2    1    0    0    0 -0.92013121661E+01  0.29312923197E+02  0.28276428414E+02  0.83245143806E+02  0.72015872914E+02 0.  0.
         13    1    3    3    0    0 -0.16413201894E+01  0.26089659625E+02 -0.20848717783E+02  0.33437171958E+02  0.10566000000E+00 0.  1.
         22    1    1    0    0    0  0.92013121661E+01 -0.29312923197E+02 -0.28276428414E+02  0.41754856194E+02  0.00000000000E+00 0. -1.
</event>
<event>
 5    1  0.1267616E-004  0.9118800E+02  0.7818608E-02  0.1130116E+00
         25   -1    0    0    0    0  0.00000000000E+00  0.00000000000E+00  0.99999998245E-14  0.12500000000E+03  0.12500000000E+03 0.  0.
        -13    1    3    3    0    0  0.53526538076E+02  0.45736085327E+00  0.11506899028E+01  0.53540962903E+02  0.10566000000E+00 0.  1.
         23    2    1    0    0    0  0.18825981109E+02  0.17016412887E+02 -0.15306820236E+02  0.95364301628E+02  0.90642569508E+02 0.  0.
         13    1    3    3    0    0 -0.34700556967E+02  0.16559052034E+02 -0.16457510139E+02  0.41823338725E+02  0.10566000000E+00 0. -1.
         22    1    1    0    0    0 -0.18825981109E+02 -0.17016412887E+02  0.15306820236E+02  0.29635698372E+02  0.00000000000E+00 0.  1.
</event>
<event>
 5    1  0.1267616E-004  0.9118800E+02  0.7818608E-02  0.1130116E+00
         25   -1    0    0    0    0  0.00000000000E+00  0.00000000000E+00  0.99999998245E-14  0.12500000000E+03  0.12500000000E+03 0.  0.
        -13    1    3    3    0    0  0.13958372137E+02 -0.15032894909E+02  0.44870012181E+02  0.49337138539E+02  0.10566000000E+00 0.  1.
         23    2    1    0    0    0 -0.18730048584E+02 -0.18612267303E+02  0.11460986690E+02  0.96214840107E+02  0.91808006333E+02 0.  0.
         13    1    3    3    0    0 -0.32688420721E+02 -0.35793723942E+01 -0.33409025492E+02  0.46877701568E+02  0.10566000000E+00 0. -1.
         22    1    1    0    0    0  0.18730048584E+02  0.18612267303E+02 -0.11460986690E+02  0.28785159893E+02  0.00000000000E+00 0.  1.
</event>
<event>
 5    1  0.1267616E-004  0.9118800E+02  0.7818608E-02  0.1130116E+00
         25   -1    0    0    0    0  0.00000000000E+00  0.00000000000E+00  0.99999998245E-14  0.12500000000E+03  0.12500000000E+03 0.  0.
        -13    1    3    3    0    0 -0.82537383732E+01 -0.29934576686E+02 -0.13897561808E+02  0.34019942192E+02  0.10566000000E+00 0.  1.
         23    2    1    0    0    0  0.12546395805E+02  0.23775072744E+02 -0.19355153088E+02  0.91874661017E+02  0.85695188046E+02 0.  0.
         13    1    3    3    0    0  0.20800134178E+02  0.53709649430E+02 -0.54575912799E+01  0.57854718825E+02  0.10566000000E+00 0. -1.
         22    1    1    0    0    0 -0.12546395805E+02 -0.23775072744E+02  0.19355153088E+02  0.33125338983E+02  0.00000000000E+00 0. -1.
</event>
<event>
 5    1  0.1267616E-004  0.9118800E+02  0.7818608E-02  0.1130116E+00
         25   -1    0    0    0    0  0.00000000000E+00  0.00000000000E+00  0.99999998245E-14  0.12500000000E+03  0.12500000000E+03 0.  0.
        -13    1    3    3    0    0 -0.34841002676E+02 -0.26696817912E+01  0.24110771411E+02  0.42454247495E+02  0.10566000000E+00 0. -1.
         23    2    1    0    0    0 -0.20566443181E+02  0.11885250349E+02 -0.21844747613E+02  0.92728793651E+02  0.86932148327E+02 0.  0.
         13    1    3    3    0    0  0.14274559495E+02  0.14554932140E+02 -0.45955519024E+02  0.50274546156E+02  0.10566000000E+00 0.  1.
         22    1    1    0    0    0  0.20566443181E+02 -0.11885250349E+02  0.21844747613E+02  0.32271206349E+02  0.00000000000E+00 0.  1.
</event>
<event>
 5    1  0.1267616E-004  0.9118800E+02  0.7818608E-02  0.1130116E+00
         25   -1    0    0    0    0  0.00000000000E+00  0.00000000000E+00  0.99999998245E-14  0.12500000000E+03  0.12500000000E+03 0.  0.
        -13    1    3    3    0    0 -0.19605835776E+01 -0.80047783947E+01  0.32654627636E+02  0.33678720807E+02  0.10566000000E+00 0.  1.
         23    2    1    0    0    0  0.10490006426E+02  0.16081577203E+02 -0.22670768624E+02  0.95291060097E+02  0.90541509952E+02 0.  0.
         13    1    3    3    0    0  0.12450590004E+02  0.24086355597E+02 -0.55325396260E+02  0.61612339290E+02  0.10566000000E+00 0. -1.
         22    1    1    0    0    0 -0.10490006426E+02 -0.16081577203E+02  0.22670768624E+02  0.29708939903E+02  0.00000000000E+00 0. -1.
</event>
<event>
 5    1  0.1267616E-004  0.9118800E+02  0.7818608E-02  0.1130116E+00
         25   -1    0    0    0    0  0.00000000000E+00  0.00000000000E+00  0.99999998245E-14  0.12500000000E+03  0.12500000000E+03 0.  0.
        -13    1    3    3    0    0  0.33433622471E+02 -0.25105650338E+02 -0.27027418660E+02  0.49785472920E+02  0.10566000000E+00 0.  1.
         23    2    1    0    0    0  0.27631843349E+02  0.13663604830E+02 -0.93529539737E+01  0.92786794449E+02  0.87015507883E+02 0.  0.
         13    1    3    3    0    0 -0.58017791212E+01  0.38769255168E+02  0.17674464687E+02  0.43001321529E+02  0.10566000000E+00 0. -1.
         22    1    1    0    0    0 -0.27631843349E+02 -0.13663604830E+02  0.93529539737E+01  0.32213205551E+02  0.00000000000E+00 0.  1.
</event>
<event>
 5    1  0.1267616E-004  0.9118800E+02  0.7818608E-02  0.1130116E+00
         25   -1    0    0    0    0  0.00000000000E+00  0.00000000000E+00  0.99999998245E-14  0.12500000000E+03  0.12500000000E+03 0.  0.
        -13    1    3    3    0    0 -0.25574464158E+02 -0.24534886036E+02  0.67173153497E+01  0.36071419979E+02  0.10566000000E+00 0. -1.
         23    2    1    0    0    0 -0.53082449803E+01  0.24104132022E+02 -0.18175844869E+02  0.94347953054E+02  0.89229974019E+02 0.  0.
         13    1    3    3    0    0  0.20266219177E+02  0.48639018059E+02 -0.24893160218E+02  0.58276533074E+02  0.10566000000E+00 0.  1.
         22    1    1    0    0    0  0.53082449803E+01 -0.24104132022E+02  0.18175844869E+02  0.30652046946E+02  0.00000000000E+00 0.  1.
</event>
<event>
 5    1  0.1267616E-004  0.9118800E+02  0.7818608E-02  0.1130116E+00
         25   -1    0    0    0    0  0.00000000000E+00  0.00000000000E+00  0.99999998245E-14  0.12500000000E+03  0.12500000000E+03 0.  0.
        -13    1    3    3    0    0  0.15473404508E+02  0.53787655196E+02  0.13565126356E+01  0.55985617699E+02  0.10566000000E+00 0. -1.
         23    2    1    0    0    0  0.21826289852E+02  0.14610504941E+02 -0.93951157049E+01  0.97105162082E+02  0.93012313811E+02 0.  0.
         13    1    3    3    0    0  0.63528853448E+01 -0.39177150255E+02 -0.10751628341E+02  0.41119544384E+02  0.10566000000E+00 0.  1.
         22    1    1    0    0    0 -0.21826289852E+02 -0.14610504941E+02  0.93951157049E+01  0.27894837918E+02  0.00000000000E+00 0. -1.
</event>
<event>
 5    1  0.1267616E-004  0.9118800E+02  0.7818608E-02  0.1130116E+00
         25   -1    0    0    0    0  0.00000000000E+00  0.00000000000E+00  0.99999998245E-14  0.12500000000E+03  0.12500000000E+03 0.  0.
        -13    1    3    3    0    0 -0.25521144538E+02 -0.32012428158E+02  0.32759600563E+02  0.52434024909E+02  0.10566000000E+00 0. -1.
         23    2    1    0    0    0 -0.77685546865E+01  0.12021425053E+02  0.17687253312E+02  0.10224688962E+03  0.99683109929E+02 0.  0.
         13    1    3    3    0    0  0.17752589852E+02  0.44033853211E+02 -0.15072347251E+02  0.49812864711E+02  0.10566000000E+00 0.  1.
         22    1    1    0    0    0  0.77685546865E+01 -0.12021425053E+02 -0.17687253312E+02  0.22753110379E+02  0.00000000000E+00 0.  1.
</event>
<event>
 5    1  0.1267616E-004  0.9118800E+02  0.7818608E-02  0.1130116E+00
         25   -1    0    0    0    0  0.00000000000E+00  0.00000000000E+00  0.99999998245E-14  0.12500000000E+03  0.12500000000E+03 0.  0.
        -13    1    3    3    0    0  0.24588036960E+02  0.54558732114E+02 -0.21264277915E+01  0.59881213002E+02  0.10566000000E+00 0.  1.
         23    2    1    0    0    0 -0.35956307507E-01  0.28971450919E+02 -0.53501604159E+01  0.95538661305E+02  0.90882700919E+02 0.  0.
         13    1    3    3    0    0 -0.24623993267E+02 -0.25587281195E+02 -0.32237326244E+01  0.35657448303E+02  0.10566000000E+00 0. -1.
         22    1    1    0    0    0  0.35956307507E-01 -0.28971450919E+02  0.53501604159E+01  0.29461338695E+02  0.00000000000E+00 0.  1.
</event>
<event>
 5    1  0.1267616E-004  0.9118800E+02  0.7818608E-02  0.1130116E+00
         25   -1    0    0    0    0  0.00000000000E+00  0.00000000000E+00  0.99999998245E-14  0.12500000000E+03  0.12500000000E+03 0.  0.
        -13    1    3    3    0    0  0.15474914178E+02  0.37925962552E+02  0.17925796676E+01  0.41000928163E+02  0.10566000000E+00 0.  1.
         23    2    1    0    0    0  0.30401518173E+02 -0.10045140131E+02 -0.75542431383E+01  0.92102830868E+02  0.86027366094E+02 0.  0.
         13    1    3    3    0    0  0.14926603995E+02 -0.47971102684E+02 -0.93468228060E+01  0.51101902705E+02  0.10566000000E+00 0. -1.
         22    1    1    0    0    0 -0.30401518173E+02  0.10045140131E+02  0.75542431383E+01  0.32897169132E+02  0.00000000000E+00 0. -1.
</event>
<event>
 5    1  0.1267616E-004  0.9118800E+02  0.7818608E-02  0.1130116E+00
         25   -1    0    0    0    0  0.00000000000E+00  0.00000000000E+00  0.99999998245E-14  0.12500000000E+03  0.12500000000E+03 0.  0.
        -13    1    3    3    0    0  0.41061016810E+02 -0.16136720740E+02 -0.14445350139E+02  0.46422840956E+02  0.10566000000E+00 0.  1.
         23    2    1    0    0    0  0.94347462626E+01  0.23596238875E+02 -0.10957545549E+02  0.97325738844E+02  0.93308277827E+02 0.  0.
         13    1    3    3    0    0 -0.31626270547E+02  0.39732959615E+02  0.34878045904E+01  0.50902897888E+02  0.10566000000E+00 0. -1.
         22    1    1    0    0    0 -0.94347462626E+01 -0.23596238875E+02  0.10957545549E+02  0.27674261156E+02  0.00000000000E+00 0. -1.
</event>
<event>
 5    1  0.1267616E-004  0.9118800E+02  0.7818608E-02  0.1130116E+00
         25   -1    0    0    0    0  0.00000000000E+00  0.00000000000E+00  0.99999998245E-14  0.12500000000E+03  0.12500000000E+03 0.  0.
        -13    1    3    3    0    0  0.22082933341E+02 -0.81131765673E+01 -0.26210035090E+02  0.35220117581E+02  0.10566000000E+00 0. -1.
         23    2    1    0    0    0 -0.24843150317E+01  0.11077198353E+02  0.26338079097E+02  0.96319509156E+02  0.91950406682E+02 0.  0.
         13    1    3    3    0    0 -0.24567248373E+02  0.19190374920E+02  0.52548114187E+02  0.61099391575E+02  0.10566000000E+00 0.  1.
         22    1    1    0    0    0  0.24843150317E+01 -0.11077198353E+02 -0.26338079097E+02  0.28680490844E+02  0.00000000000E+00 0.  1.
</event>
<event>
 5    1  0.1267616E-004  0.9118800E+02  0.7818608E-02  0.1130116E+00
         25   -1    0    0    0    0  0.00000000000E+00  0.00000000000E+00  0.99999998245E-14  0.12500000000E+03  0.12500000000E+03 0.  0.
        -13    1    3    3    0    0 -0.23454941106E+02 -0.18728678337E+02 -0.32950144200E+02  0.44571524781E+02  0.10566000000E+00 0. -1.
         23    2    1    0    0    0 -0.24227090526E+02  0.15377624430E+02  0.52938346192E+01  0.95820419239E+02  0.91269407852E+02 0.  0.
         13    1    3    3    0    0 -0.77214941980E+00  0.34106302767E+02  0.38243978819E+02  0.51248894457E+02  0.10566000000E+00 0.  1.
         22    1    1    0    0    0  0.24227090526E+02 -0.15377624430E+02 -0.52938346192E+01  0.29179580761E+02  0.00000000000E+00 0.  1.
</event>
<event>
 5    1  0.1267616E-004  0.9118800E+02  0.7818608E-02  0.1130116E+00
         25   -1    0    0    0    0  0.00000000000E+00  0.00000000000E+00  0.99999998245E-14  0.12500000000E+03  0.12500000000E+03 0.  0.
        -13    1    3    3    0    0 -0.32876625851E+02 -0.46959738201E+02  0.15474708445E+02  0.59376487811E+02  0.10566000000E+00 0. -1.
         23    2    1    0    0    0 -0.10564680780E+02 -0.19289780063E+02  0.20080147117E+02  0.95218791107E+02  0.90441681634E+02 0.  0.
         13    1    3    3    0    0  0.22311945072E+02  0.27669958138E+02  0.46054386719E+01  0.35842303297E+02  0.10566000000E+00 0.  1.
         22    1    1    0    0    0  0.10564680780E+02  0.19289780063E+02 -0.20080147117E+02  0.29781208893E+02  0.00000000000E+00 0. -1.
</event>
<event>
 5    1  0.1267616E-004  0.9118800E+02  0.7818608E-02  0.1130116E+00
         25   -1    0    0    0    0  0.00000000000E+00  0.00000000000E+00  0.99999998245E-14  0.12500000000E+03  0.12500000000E+03 0.  0.
        -13    1    3    3    0    0  0.21780647976E+02 -0.58859655631E+01  0.24371356878E+02  0.33211675914E+02  0.10566000000E+00 0.  1.
         23    2    1    0    0    0 -0.18956120322E+02  0.10911848535E+02 -0.19722339820E+02  0.95548792485E+02  0.90896634268E+02 0.  0.
         13    1    3    3    0    0 -0.40736768298E+02  0.16797814099E+02 -0.44093696698E+02  0.62337116571E+02  0.10566000000E+00 0. -1.
         22    1    1    0    0    0  0.18956120322E+02 -0.10911848535E+02  0.19722339820E+02  0.29451207515E+02  0.00000000000E+00 0. -1.
</event>
<event>
 5    1  0.1267616E-004  0.9118800E+02  0.7818608E-02  0.1130116E+00
         25   -1    0    0    0    0  0.00000000000E+00  0.00000000000E+00  0.99999998245E-14  0.12500000000E+03  0.12500000000E+03 0.  0.
        -13    1    3    3    0    0 -0.10235899658E+01  0.71780961942E+01  0.52883786384E+02  0.53378636436E+02  0.10566000000E+00 0.  1.
         23    2    1    0    0    0  0.15558312633E+02  0.19784393523E+02  0.17826372629E+02  0.94157450168E+02  0.88962703095E+02 0.  0.
         13    1    3    3    0    0  0.16581902599E+02  0.12606297328E+02 -0.35057413755E+02  0.40778813732E+02  0.10566000000E+00 0. -1.
         22    1    1    0    0    0 -0.15558312633E+02 -0.19784393523E+02 -0.17826372629E+02  0.30842549832E+02  0.00000000000E+00 0.  1.
</event>
<event>
 5    1  0.1267616E-004  0.9118800E+02  0.7818608E-02  0.1130116E+00
         25   -1    0    0    0    0  0.00000000000E+00  0.00000000000E+00  0.99999998245E-14  0.12500000000E+03  0.12500000000E+03 0.  0.
        -13    1    3    3    0    0  0.42436017566E+02 -0.33330873871E+01  0.11788525705E+01  0.42583164699E+02  0.10566000000E+00 0. -1.
         23    2    1    0    0    0 -0.42444710869E-02  0.24642119706E+02  0.16106721939E+02  0.95560900604E+02  0.90913283688E+02 0.  0.
         13    1    3    3    0    0 -0.42440262037E+02  0.27975207093E+02  0.14927869368E+02  0.52977735905E+02  0.10566000000E+00 0.  1.
         22    1    1    0    0    0  0.42444710869E-02 -0.24642119706E+02 -0.16106721939E+02  0.29439099396E+02  0.00000000000E+00 0. -1.
</event>
<event>
 5    1  0.1267616E-004  0.9118800E+02  0.7818608E-02  0.1130116E+00
         25   -1    0    0    0    0  0.00000000000E+00  0.00000000000E+00  0.99999998245E-14  0.12500000000E+03  0.12500000000E+03 0.  0.
        -13    1    3    3    0    0  0.20994501989E+02  0.19813930784E+02  0.53581590133E+02  0.60863444958E+02  0.10566000000E+00 0. -1.
         23    2    1    0    0    0  0.19289446615E+02  0.74234441266E+01  0.22087893743E+02  0.94749953332E+02  0.89791360013E+02 0.  0.
         13    1    3    3    0    0 -0.17050553743E+01 -0.12390486658E+02 -0.31493696390E+02  0.33886508374E+02  0.10566000000E+00 0.  1.
         22    1    1    0    0    0 -0.19289446615E+02 -0.74234441266E+01 -0.22087893743E+02  0.30250046668E+02  0.00000000000E+00 0. -1.
</event>
<event>
 5    1  0.1267616E-004  0.9118800E+02  0.7818608E-02  0.1130116E+00
         25   -1    0    0    0    0  0.00000000000E+00  0.00000000000E+00  0.99999998245E-14  0.12500000000E+03  0.12500000000E+03 0.  0.
        -13    1    3    3    0    0 -0.88460974259E+01 -0.58380486289E+02  0.17529043021E+02  0.61593937464E+02  0.10566000000E+00 0. -1.
         23    2    1    0    0    0  0.18194393738E+01 -0.27348854203E+02  0.12809740768E+02  0.94745088921E+02  0.89784587933E+02 0.  0.
         13    1    3    3    0    0  0.10665536800E+02  0.31031632086E+02 -0.47193022533E+01  0.33151151457E+02  0.10566000000E+00 0.  1.
         22    1    1    0    0    0 -0.18194393738E+01  0.27348854203E+02 -0.12809740768E+02  0.30254911079E+02  0.00000000000E+00 0. -1.
</event>
<event>
 5    1  0.1267616E-004  0.9118800E+02  0.7818608E-02  0.1130116E+00
         25   -1    0    0    0    0  0.00000000000E+00  0.00000000000E+00  0.99999998245E-14  0.12500000000E+03  0.12500000000E+03 0.  0.
        -13    1    3    3    0    0  0.26862507863E+02 -0.31842413272E+02  0.25998573243E+02  0.49106726488E+02  0.10566000000E+00 0.  1.
         23    2    1    0    0    0 -0.33495670227E+01  0.54795534434E+01  0.27112297862E+02  0.97137448062E+02  0.93055693085E+02 0.  0.
         13    1    3    3    0    0 -0.30212074886E+02  0.37321966715E+02  0.11137246189E+01  0.48030721574E+02  0.10566000000E+00 0. -1.
         22    1    1    0    0    0  0.33495670227E+01 -0.54795534434E+01 -0.27112297862E+02  0.27862551938E+02  0.00000000000E+00 0.  1.
</event>
<event>
 5    1  0.1267616E-004  0.9118800E+02  0.7818608E-02  0.1130116E+00
         25   -1    0    0    0    0  0.00000000000E+00  0.00000000000E+00  0.99999998245E-14  0.12500000000E+03  0.12500000000E+03 0.  0.
        -13    1    3    3    0    0  0.32285885976E+02 -0.11125767191E+02 -0.66270259821E+01  0.34786344537E+02  0.10566000000E+00 0. -1.
         23    2    1    0    0    0  0.16461697375E+02  0.35149654647E+02  0.70104500102E+01  0.85558497600E+02  0.75925123641E+02 0.  0.
         13    1    3    3    0    0 -0.15824188601E+02  0.46275421837E+02  0.13637475992E+02  0.50772153062E+02  0.10566000000E+00 0.  1.
         22    1    1    0    0    0 -0.16461697375E+02 -0.35149654647E+02 -0.70104500102E+01  0.39441502400E+02  0.00000000000E+00 0. -1.
</event>
<event>
 5    1  0.1267616E-004  0.9118800E+02  0.7818608E-02  0.1130116E+00
         25   -1    0    0    0    0  0.00000000000E+00  0.00000000000E+00  0.99999998245E-14  0.12500000000E+03  0.12500000000E+03 0.  0.
        -13    1    3    3    0    0 -0.53106367741E+00  0.38377987234E+02  0.95589963713E+01  0.39554235026E+02  0.10566000000E+00 0.  1.
         23    2    1    0    0    0 -0.23433689837E+02 -0.32793026978E+01 -0.18685240174E+02  0.94849878177E+02  0.89930359414E+02 0.  0.
         13    1    3    3    0    0 -0.22902626160E+02 -0.41657289932E+02 -0.28244236545E+02  0.55295643152E+02  0.10566000000E+00 0. -1.
         22    1    1    0    0    0  0.23433689837E+02  0.32793026978E+01  0.18685240174E+02  0.30150121823E+02  0.00000000000E+00 0. -1.
</event>
<event>
 5    1  0.1267616E-004  0.9118800E+02  0.7818608E-02  0.1130116E+00
         25   -1    0    0    0    0  0.00000000000E+00  0.00000000000E+00  0.99999998245E-14  0.12500000000E+03  0.12500000000E+03 0.  0.
        -13    1    3    3    0    0  0.19758315030E+02 -0.32228812193E+02  0.36232826050E+02  0.52363309634E+02  0.10566000000E+00 0. -1.
         23    2    1    0    0    0  0.10016641583E+00  0.62088417227E+01  0.28006882726E+02  0.96312978041E+02  0.91941527670E+02 0.  0.
         13    1    3    3    0    0 -0.19658148614E+02  0.38437653916E+02 -0.82259433245E+01  0.43949668407E+02  0.10566000000E+00 0.  1.
         22    1    1    0    0    0 -0.10016641583E+00 -0.62088417227E+01 -0.28006882726E+02  0.28687021959E+02  0.00000000000E+00 0.  1.
</event>
<event>
 5    1  0.1267616E-004  0.9118800E+02  0.7818608E-02  0.1130116E+00
         25   -1    0    0    0    0  0.00000000000E+00  0.00000000000E+00  0.99999998245E-14  0.12500000000E+03  0.12500000000E+03 0.  0.
        -13    1    3    3    0    0 -0.48592992150E+02 -0.29977423603E+02 -0.19186597546E+02  0.60233391914E+02  0.10566000000E+00 0.  1.
         23    2    1    0    0    0 -0.19047292041E+02 -0.23801429421E+02 -0.33166276524E+01  0.94335567907E+02  0.89212622296E+02 0.  0.
         13    1    3    3    0    0  0.29545700109E+02  0.61759941826E+01  0.15869969894E+02  0.34102175994E+02  0.10566000000E+00 0. -1.
         22    1    1    0    0    0  0.19047292041E+02  0.23801429421E+02  0.33166276524E+01  0.30664432093E+02  0.00000000000E+00 0.  1.
</event>
<event>
 5    1  0.1267616E-004  0.9118800E+02  0.7818608E-02  0.1130116E+00
         25   -1    0    0    0    0  0.00000000000E+00  0.00000000000E+00  0.99999998245E-14  0.12500000000E+03  0.12500000000E+03 0.  0.
        -13    1    3    3    0    0 -0.17748376707E+01 -0.42063980996E+02  0.14720921922E+02  0.44600955733E+02  0.10566000000E+00 0.  1.
         23    2    1    0    0    0 -0.25900680139E+01  0.79499519619E+01  0.27523893678E+02  0.96234136347E+02  0.91834275119E+02 0.  0.
         13    1    3    3    0    0 -0.81523034323E+00  0.50013932958E+02  0.12802971756E+02  0.51633180614E+02  0.10566000000E+00 0. -1.
         22    1    1    0    0    0  0.25900680139E+01 -0.79499519619E+01 -0.27523893678E+02  0.28765863653E+02  0.00000000000E+00 0. -1.
</event>
<event>
 5    1  0.1267616E-004  0.9118800E+02  0.7818608E-02  0.1130116E+00
         25   -1    0    0    0    0  0.00000000000E+00  0.00000000000E+00  0.99999998245E-14  0.12500000000E+03  0.12500000000E+03 0.  0.
        -13    1    3    3    0    0 -0.38948880590E+02  0.29653076406E+01 -0.24229413948E+02  0.45966118097E+02  0.10566000000E+00 0.  1.
         23    2    1    0    0    0 -0.15354757584E+02 -0.18342892102E+02  0.15231904362E+02  0.96640853652E+02  0.92386218739E+02 0.  0.
         13    1    3    3    0    0  0.23594123006E+02 -0.21308199742E+02  0.39461318310E+02  0.50674735555E+02  0.10566000000E+00 0. -1.
         22    1    1    0    0    0  0.15354757584E+02  0.18342892102E+02 -0.15231904362E+02  0.28359146348E+02  0.00000000000E+00 0. -1.
</event>
<event>
 5    1  0.1267616E-004  0.9118800E+02  0.7818608E-02  0.1130116E+00
         25   -1    0    0    0    0  0.00000000000E+00  0.00000000000E+00  0.99999998245E-14  0.12500000000E+03  0.12500000000E+03 0.  0.
        -13    1    3    3    0    0 -0.13534921882E+02  0.13260608591E+01  0.41359775004E+02  0.43538427856E+02  0.10566000000E+00 0.  1.
         23    2    1    0    0    0 -0.33279125669E+01  0.30916612228E+02  0.19818043553E+01  0.93841703156E+02  0.88517940492E+02 0.  0.
         13    1    3    3    0    0  0.10207009315E+02  0.29590551369E+02 -0.39377970648E+02  0.50303275300E+02  0.10566000000E+00 0. -1.
         22    1    1    0    0    0  0.33279125669E+01 -0.30916612228E+02 -0.19818043553E+01  0.31158296844E+02  0.00000000000E+00 0. -1.
</event>
<event>
 5    1  0.1267616E-004  0.9118800E+02  0.7818608E-02  0.1130116E+00
         25   -1    0    0    0    0  0.00000000000E+00  0.00000000000E+00  0.99999998245E-14  0.12500000000E+03  0.12500000000E+03 0.  0.
        -13    1    3    3    0    0  0.27978099791E+02  0.83521404128E+01 -0.37129086987E+02  0.47234654459E+02  0.10566000000E+00 0. -1.
         23    2    1    0    0    0  0.77685926545E+01  0.27051936860E+02  0.38374370902E+01  0.96594292067E+02  0.92323198693E+02 0.  0.
         13    1    3    3    0    0 -0.20209507136E+02  0.18699796448E+02  0.40966524077E+02  0.49359637608E+02  0.10566000000E+00 0.  1.
         22    1    1    0    0    0 -0.77685926545E+01 -0.27051936860E+02 -0.38374370902E+01  0.28405707933E+02  0.00000000000E+00 0. -1.
</event>
<event>
 5    1  0.1267616E-004  0.9118800E+02  0.7818608E-02  0.1130116E+00
         25   -1    0    0    0    0  0.00000000000E+00  0.00000000000E+00  0.99999998245E-14  0.12500000000E+03  0.12500000000E+03 0.  0.
        -13    1    3    3    0    0  0.13515627668E+02  0.24275046547E+02 -0.20386197377E+02  0.34460967538E+02  0.10566000000E+00 0.  1.
         23    2    1    0    0    0  0.66583813652E+01 -0.17700983045E+02  0.23003679217E+02  0.95220340824E+02  0.90443823481E+02 0.  0.
         13    1    3    3    0    0 -0.68572463026E+01 -0.41976029593E+02  0.43389876594E+02  0.60759373285E+02  0.10566000000E+00 0. -1.
         22    1    1    0    0    0 -0.66583813652E+01  0.17700983045E+02 -0.23003679217E+02  0.29779659176E+02  0.00000000000E+00 0. -1.
</event>
<event>
 5    1  0.1267616E-004  0.9118800E+02  0.7818608E-02  0.1130116E+00
         25   -1    0    0    0    0  0.00000000000E+00  0.00000000000E+00  0.99999998245E-14  0.12500000000E+03  0.12500000000E+03 0.  0.
        -13    1    3    3    0    0  0.55308115344E+02  0.12519667252E+02  0.16794737735E+02  0.59142235929E+02  0.10566000000E+00 0.  1.
         23    2    1    0    0    0  0.23868226580E+02 -0.90514985174E+01  0.76367681863E+01  0.98355261424E+02  0.94677427911E+02 0.  0.
         13    1    3    3    0    0 -0.31439888765E+02 -0.21571165769E+02 -0.91579695491E+01  0.39213025495E+02  0.10566000000E+00 0. -1.
         22    1    1    0    0    0 -0.23868226580E+02  0.90514985174E+01 -0.76367681863E+01  0.26644738576E+02  0.00000000000E+00 0.  1.
</event>
<event>
 5    1  0.1267616E-004  0.9118800E+02  0.7818608E-02  0.1130116E+00
         25   -1    0    0    0    0  0.00000000000E+00  0.00000000000E+00  0.99999998245E-14  0.12500000000E+03  0.12500000000E+03 0.  0.
        -13    1    3    3    0    0  0.20946499652E+01 -0.17295001334E+02  0.48707542224E+02  0.51729493165E+02  0.10566000000E+00 0. -1.
         23    2    1    0    0    0 -0.17578669064E+02  0.10625450321E+02  0.19674235580E+02  0.96557332294E+02  0.92273143837E+02 0.  0.
         13    1    3    3    0    0 -0.19673319029E+02  0.27920451656E+02 -0.29033306644E+02  0.44827839129E+02  0.10566000000E+00 0.  1.
         22    1    1    0    0    0  0.17578669064E+02 -0.10625450321E+02 -0.19674235580E+02  0.28442667706E+02  0.00000000000E+00 0. -1.
</event>
<event>
 5    1  0.1267616E-004  0.9118800E+02  0.7818608E-02  0.1130116E+00
         25   -1    0    0    0    0  0.00000000000E+00  0.00000000000E+00  0.99999998245E-14  0.12500000000E+03  0.12500000000E+03 0.  0.
        -13    1    3    3    0    0 -0.14117476016E+01  0.25840542915E+02 -0.15525520043E+02  0.30179125667E+02  0.10566000000E+00 0.  1.
         23    2    1    0    0    0 -0.17460081462E+01 -0.28187232723E+02  0.15807066545E+02  0.92635946086E+02  0.86798539857E+02 0.  0.
         13    1    3    3    0    0 -0.33426054462E+00 -0.54027775638E+02  0.31332586588E+02  0.62456820418E+02  0.10566000000E+00 0. -1.
         22    1    1    0    0    0  0.17460081462E+01  0.28187232723E+02 -0.15807066545E+02  0.32364053914E+02  0.00000000000E+00 0. -1.
</event>
<event>
 5    1  0.1267616E-004  0.9118800E+02  0.7818608E-02  0.1130116E+00
         25   -1    0    0    0    0  0.00000000000E+00  0.00000000000E+00  0.99999998245E-14  0.12500000000E+03  0.12500000000E+03 0.  0.
        -13    1    3    3    0    0  0.31371581045E+02 -0.58228918791E+01  0.21015357847E+02  0.38206525576E+02  0.10566000000E+00 0.  1.
         23    2    1    0    0    0 -0.18374459258E+02 -0.15386444095E+02 -0.11517134599E+02  0.98410381645E+02  0.94750173673E+02 0.  0.
         13    1    3    3    0    0 -0.49746040303E+02 -0.95635522160E+01 -0.32532492446E+02  0.60203856069E+02  0.10566000000E+00 0. -1.
         22    1    1    0    0    0  0.18374459258E+02  0.15386444095E+02  0.11517134599E+02  0.26589618355E+02  0.00000000000E+00 0. -1.
</event>
<event>
 5    1  0.1267616E-004  0.9118800E+02  0.7818608E-02  0.1130116E+00
         25   -1    0    0    0    0  0.00000000000E+00  0.00000000000E+00  0.99999998245E-14  0.12500000000E+03  0.12500000000E+03 0.  0.
        -13    1    3    3    0    0  0.30405190789E+02 -0.15380840003E+01  0.20462046977E+02  0.36681710154E+02  0.10566000000E+00 0.  1.
         23    2    1    0    0    0 -0.18924837001E+02  0.23230376623E+02  0.16764927877E+01  0.94989827031E+02  0.90124673412E+02 0.  0.
         13    1    3    3    0    0 -0.49330027790E+02  0.24768460624E+02 -0.18785554189E+02  0.58308116876E+02  0.10566000000E+00 0. -1.
         22    1    1    0    0    0  0.18924837001E+02 -0.23230376623E+02 -0.16764927877E+01  0.30010172969E+02  0.00000000000E+00 0. -1.
</event>
<event>
 5    1  0.1267616E-004  0.9118800E+02  0.7818608E-02  0.1130116E+00
         25   -1    0    0    0    0  0.00000000000E+00  0.00000000000E+00  0.99999998245E-14  0.12500000000E+03  0.12500000000E+03 0.  0.
        -13    1    3    3    0    0 -0.18537058808E+02 -0.44928235214E+02  0.56110895853E+01  0.48925089259E+02  0.10566000000E+00 0.  1.
         23    2    1    0    0    0 -0.30079941802E+02 -0.11481933508E+01  0.64750929308E+01  0.94209610668E+02  0.89035962773E+02 0.  0.
         13    1    3    3    0    0 -0.11542882994E+02  0.43780041863E+02  0.86400334549E+00  0.45284521408E+02  0.10566000000E+00 0. -1.
         22    1    1    0    0    0  0.30079941802E+02  0.11481933508E+01 -0.64750929308E+01  0.30790389332E+02  0.00000000000E+00 0.  1.
</event>
<event>
 5    1  0.1267616E-004  0.9118800E+02  0.7818608E-02  0.1130116E+00
         25   -1    0    0    0    0  0.00000000000E+00  0.00000000000E+00  0.99999998245E-14  0.12500000000E+03  0.12500000000E+03 0.  0.
        -13    1    3    3    0    0  0.62634888451E+01 -0.11593951003E+02  0.33179848637E+02  0.35701043570E+02  0.10566000000E+00 0.  1.
         23    2    1    0    0    0  0.37560824901E+02  0.11211917469E+02  0.14342047991E+01  0.85775267955E+02  0.76281170604E+02 0.  0.
         13    1    3    3    0    0  0.31297336056E+02  0.22805868472E+02 -0.31745643838E+02  0.50074224385E+02  0.10566000000E+00 0. -1.
         22    1    1    0    0    0 -0.37560824901E+02 -0.11211917469E+02 -0.14342047991E+01  0.39224732045E+02  0.00000000000E+00 0. -1.
</event>
<event>
 5    1  0.1267616E-004  0.9118800E+02  0.7818608E-02  0.1130116E+00
         25   -1    0    0    0    0  0.00000000000E+00  0.00000000000E+00  0.99999998245E-14  0.12500000000E+03  0.12500000000E+03 0.  0.
        -13    1    3    3    0    0 -0.32441362933E+01 -0.42194331670E+02  0.33729564701E+01  0.42453198287E+02  0.10566000000E+00 0. -1.
         23    2    1    0    0    0 -0.23653724277E+02  0.51622198252E+01  0.16544787567E+02  0.95676337518E+02  0.91071863819E+02 0.  0.
         13    1    3    3    0    0 -0.20409587984E+02  0.47356551495E+02  0.13171831097E+02  0.53223139232E+02  0.10566000000E+00 0.  1.
         22    1    1    0    0    0  0.23653724277E+02 -0.51622198252E+01 -0.16544787567E+02  0.29323662482E+02  0.00000000000E+00 0.  1.
</event>
<event>
 5    1  0.1267616E-004  0.9118800E+02  0.7818608E-02  0.1130116E+00
         25   -1    0    0    0    0  0.00000000000E+00  0.00000000000E+00  0.99999998245E-14  0.12500000000E+03  0.12500000000E+03 0.  0.
        -13    1    3    3    0    0 -0.28228975875E+02 -0.13571910326E+02  0.91904202034E+01  0.32642714600E+02  0.10566000000E+00 0.  1.
         23    2    1    0    0    0  0.26732929937E+02 -0.18085273607E+02  0.17295626342E+02  0.88382171623E+02  0.80439684893E+02 0.  0.
         13    1    3    3    0    0  0.54961905813E+02 -0.45133632811E+01  0.81052061385E+01  0.55739457024E+02  0.10566000000E+00 0. -1.
         22    1    1    0    0    0 -0.26732929937E+02  0.18085273607E+02 -0.17295626342E+02  0.36617828377E+02  0.00000000000E+00 0. -1.
</event>
<event>
 5    1  0.1267616E-004  0.9118800E+02  0.7818608E-02  0.1130116E+00
         25   -1    0    0    0    0  0.00000000000E+00  0.00000000000E+00  0.99999998245E-14  0.12500000000E+03  0.12500000000E+03 0.  0.
        -13    1    3    3    0    0  0.13086803757E+02  0.15294167080E+02 -0.30277137849E+02  0.36357835739E+02  0.10566000000E+00 0. -1.
         23    2    1    0    0    0 -0.32020386024E+02 -0.51327339192E+01 -0.42643280415E+01  0.92291674267E+02  0.86301324247E+02 0.  0.
         13    1    3    3    0    0 -0.45107189781E+02 -0.20426900999E+02  0.26012809808E+02  0.55933838528E+02  0.10566000000E+00 0.  1.
         22    1    1    0    0    0  0.32020386024E+02  0.51327339192E+01  0.42643280415E+01  0.32708325733E+02  0.00000000000E+00 0.  1.
</event>
<event>
 5    1  0.1267616E-004  0.9118800E+02  0.7818608E-02  0.1130116E+00
         25   -1    0    0    0    0  0.00000000000E+00  0.00000000000E+00  0.99999998245E-14  0.12500000000E+03  0.12500000000E+03 0.  0.
        -13    1    3    3    0    0  0.45751827150E+02 -0.34542287533E+02 -0.17187504215E+02  0.59848314769E+02  0.10566000000E+00 0. -1.
         23    2    1    0    0    0  0.21127801182E+02 -0.17873638960E+02  0.49077222117E+01  0.96894187617E+02  0.92728350056E+02 0.  0.
         13    1    3    3    0    0 -0.24624025968E+02  0.16668648573E+02  0.22095226426E+02  0.37045872847E+02  0.10566000000E+00 0.  1.
         22    1    1    0    0    0 -0.21127801182E+02  0.17873638960E+02 -0.49077222117E+01  0.28105812383E+02  0.00000000000E+00 0. -1.
</event>
<event>
 5    1  0.1267616E-004  0.9118800E+02  0.7818608E-02  0.1130116E+00
         25   -1    0    0    0    0  0.00000000000E+00  0.00000000000E+00  0.99999998245E-14  0.12500000000E+03  0.12500000000E+03 0.  0.
        -13    1    3    3    0    0 -0.21087886927E+02 -0.22012907270E+02  0.38473942065E+02  0.49086886677E+02  0.10566000000E+00 0.  1.
         23    2    1    0    0    0 -0.19293003631E+02  0.17280099563E+02  0.12348853206E+02  0.96306516323E+02  0.91932742159E+02 0.  0.
         13    1    3    3    0    0  0.17948832960E+01  0.39293006833E+02 -0.26125088860E+02  0.47219629647E+02  0.10566000000E+00 0. -1.
         22    1    1    0    0    0  0.19293003631E+02 -0.17280099563E+02 -0.12348853206E+02  0.28693483677E+02  0.00000000000E+00 0.  1.
</event>
<event>
 5    1  0.1267616E-004  0.9118800E+02  0.7818608E-02  0.1130116E+00
         25   -1    0    0    0    0  0.00000000000E+00  0.00000000000E+00  0.99999998245E-14  0.12500000000E+03  0.12500000000E+03 0.  0.
        -13    1    3    3    0    0  0.40064139229E+02 -0.11165533182E+02 -0.26072415830E+02  0.49087538282E+02  0.10566000000E+00 0. -1.
         23    2    1    0    0    0  0.11852007229E+02 -0.17682134178E+02  0.14725506061E+02  0.99116250789E+02  0.95676866051E+02 0.  0.
         13    1    3    3    0    0 -0.28212131999E+02 -0.65166009964E+01  0.40797921891E+02  0.50028712507E+02  0.10566000000E+00 0.  1.
         22    1    1    0    0    0 -0.11852007229E+02  0.17682134178E+02 -0.14725506061E+02  0.25883749211E+02  0.00000000000E+00 0. -1.
</event>
<event>
 5    1  0.1267616E-004  0.9118800E+02  0.7818608E-02  0.1130116E+00
         25   -1    0    0    0    0  0.00000000000E+00  0.00000000000E+00  0.99999998245E-14  0.12500000000E+03  0.12500000000E+03 0.  0.
        -13    1    3    3    0    0  0.31060373795E+02  0.29191713692E+02  0.21900311396E+02  0.47922205415E+02  0.10566000000E+00 0.  1.
         23    2    1    0    0    0  0.51981928942E+01 -0.11332801056E+02  0.25994390587E+02  0.96170120861E+02  0.91747099220E+02 0.  0.
         13    1    3    3    0    0 -0.25862180901E+02 -0.40524514748E+02  0.40940791919E+01  0.48247915447E+02  0.10566000000E+00 0. -1.
         22    1    1    0    0    0 -0.51981928942E+01  0.11332801056E+02 -0.25994390587E+02  0.28829879139E+02  0.00000000000E+00 0. -1.
</event>
<event>
 5    1  0.1267616E-004  0.9118800E+02  0.7818608E-02  0.1130116E+00
         25   -1    0    0    0    0  0.00000000000E+00  0.00000000000E+00  0.99999998245E-14  0.12500000000E+03  0.12500000000E+03 0.  0.
        -13    1    3    3    0    0 -0.13202189651E+02 -0.30985137166E+02 -0.37064658659E+02  0.50081699476E+02  0.10566000000E+00 0. -1.
         23    2    1    0    0    0  0.21014313400E+02 -0.17422476941E+02 -0.93864706598E+01  0.96133931652E+02  0.91697780305E+02 0.  0.
         13    1    3    3    0    0  0.34216503051E+02  0.13562660225E+02  0.27678187999E+02  0.46052232176E+02  0.10566000000E+00 0.  1.
         22    1    1    0    0    0 -0.21014313400E+02  0.17422476941E+02  0.93864706598E+01  0.28866068348E+02  0.00000000000E+00 0.  1.
</event>
<event>
 5    1  0.1267616E-004  0.9118800E+02  0.7818608E-02  0.1130116E+00
         25   -1    0    0    0    0  0.00000000000E+00  0.00000000000E+00  0.99999998245E-14  0.12500000000E+03  0.12500000000E+03 0.  0.
        -13    1    3    3    0    0 -0.43802806872E+02  0.17606506604E+02  0.29555583689E+02  0.55697564183E+02  0.10566000000E+00 0. -1.
         23    2    1    0    0    0 -0.27303856820E+02 -0.86997145025E+01  0.36983232964E+01  0.96106000192E+02  0.91659696967E+02 0.  0.
         13    1    3    3    0    0  0.16498950051E+02 -0.26306221107E+02 -0.25857260392E+02  0.40408436010E+02  0.10566000000E+00 0.  1.
         22    1    1    0    0    0  0.27303856820E+02  0.86997145025E+01 -0.36983232964E+01  0.28893999808E+02  0.00000000000E+00 0. -1.
</event>
<event>
 5    1  0.1267616E-004  0.9118800E+02  0.7818608E-02  0.1130116E+00
         25   -1    0    0    0    0  0.00000000000E+00  0.00000000000E+00  0.99999998245E-14  0.12500000000E+03  0.12500000000E+03 0.  0.
        -13    1    3    3    0    0 -0.53971506871E+02  0.92362043213E+01 -0.26323937007E+02  0.60755179596E+02  0.10566000000E+00 0.  1.
         23    2    1    0    0    0 -0.24829456774E+02  0.13908953712E+02 -0.82315093656E+01  0.95373682924E+02  0.90655505796E+02 0.  0.
         13    1    3    3    0    0  0.29142050097E+02  0.46727493903E+01  0.18092427641E+02  0.34618503329E+02  0.10566000000E+00 0. -1.
         22    1    1    0    0    0  0.24829456774E+02 -0.13908953712E+02  0.82315093656E+01  0.29626317076E+02  0.00000000000E+00 0.  1.
</event>
<event>
 5    1  0.1267616E-004  0.9118800E+02  0.7818608E-02  0.1130116E+00
         25   -1    0    0    0    0  0.00000000000E+00  0.00000000000E+00  0.99999998245E-14  0.12500000000E+03  0.12500000000E+03 0.  0.
        -13    1    3    3    0    0  0.43984962571E+02 -0.27444001575E+02  0.55439771223E+01  0.52140166869E+02  0.10566000000E+00 0. -1.
         23    2    1    0    0    0  0.35922935971E+00 -0.26237223547E+02  0.11800613427E+02  0.96228913430E+02  0.91827165683E+02 0.  0.
         13    1    3    3    0    0 -0.43625733211E+02  0.12067780282E+01  0.62566363049E+01  0.44088746561E+02  0.10566000000E+00 0.  1.
         22    1    1    0    0    0 -0.35922935971E+00  0.26237223547E+02 -0.11800613427E+02  0.28771086570E+02  0.00000000000E+00 0. -1.
</event>
<event>
 4    1  0.1267616E-004  0.9118800E+02  0.7818608E-02  0.1130116E+00
         25   -1    0    0    0    0  0.00000000000E+00  0.00000000000E+00  0.99999998245E-14  0.12500000000E+03  0.12500000000E+03 0.  0.
        -13    1    1    0    0    0  0.15782979523E+02 -0.11630716525E+02  0.59963194837E+01  0.20502268677E+02  0.10566000000E+00 0. -1.
         13    1    1    0    0    0 -0.19688741549E+02 -0.22922782109E+02  0.37916028170E+02  0.48484397899E+02  0.10566000000E+00 0.  1.
         22    1    1    0    0    0  0.39057620255E+01  0.34553498633E+02 -0.43912347654E+02  0.56013333424E+02  0.00000000000E+00 0.  1.
</event>
<event>
 5    1  0.1267616E-004  0.9118800E+02  0.7818608E-02  0.1130116E+00
         25   -1    0    0    0    0  0.00000000000E+00  0.00000000000E+00  0.99999998245E-14  0.12500000000E+03  0.12500000000E+03 0.  0.
        -13    1    3    3    0    0 -0.57408489064E+02 -0.35812917715E+01 -0.21601397929E+01  0.57560729976E+02  0.10566000000E+00 0. -1.
         23    2    1    0    0    0 -0.23585044242E+02 -0.18867642676E+02 -0.26415740799E+01  0.94681356137E+02  0.89695813917E+02 0.  0.
         13    1    3    3    0    0  0.33823444822E+02 -0.15286350905E+02 -0.48143428696E+00  0.37120626161E+02  0.10566000000E+00 0.  1.
         22    1    1    0    0    0  0.23585044242E+02  0.18867642676E+02  0.26415740799E+01  0.30318643863E+02  0.00000000000E+00 0. -1.
</event>
<event>
 5    1  0.1267616E-004  0.9118800E+02  0.7818608E-02  0.1130116E+00
         25   -1    0    0    0    0  0.00000000000E+00  0.00000000000E+00  0.99999998245E-14  0.12500000000E+03  0.12500000000E+03 0.  0.
        -13    1    3    3    0    0  0.32847725908E+02 -0.68868493449E+01  0.14842627882E+02  0.36697636950E+02  0.10566000000E+00 0. -1.
         23    2    1    0    0    0 -0.20679716257E+02 -0.18273805389E+02 -0.83984393958E+01  0.96153571934E+02  0.91724549514E+02 0.  0.
         13    1    3    3    0    0 -0.53527442165E+02 -0.11386956044E+02 -0.23241067278E+02  0.59455934985E+02  0.10566000000E+00 0.  1.
         22    1    1    0    0    0  0.20679716257E+02  0.18273805389E+02  0.83984393958E+01  0.28846428066E+02  0.00000000000E+00 0.  1.
</event>
<event>
 5    1  0.1267616E-004  0.9118800E+02  0.7818608E-02  0.1130116E+00
         25   -1    0    0    0    0  0.00000000000E+00  0.00000000000E+00  0.99999998245E-14  0.12500000000E+03  0.12500000000E+03 0.  0.
        -13    1    3    3    0    0  0.37660086266E+02  0.18141837863E+02 -0.22638637933E+02  0.47538694451E+02  0.10566000000E+00 0.  1.
         23    2    1    0    0    0  0.15848303739E+02  0.11680635215E+02  0.20667394889E+02  0.96456223411E+02  0.92136072484E+02 0.  0.
         13    1    3    3    0    0 -0.21811782528E+02 -0.64612026475E+01  0.43306032823E+02  0.48917528960E+02  0.10566000000E+00 0. -1.
         22    1    1    0    0    0 -0.15848303739E+02 -0.11680635215E+02 -0.20667394889E+02  0.28543776589E+02  0.00000000000E+00 0. -1.
</event>
<event>
 5    1  0.1267616E-004  0.9118800E+02  0.7818608E-02  0.1130116E+00
         25   -1    0    0    0    0  0.00000000000E+00  0.00000000000E+00  0.99999998245E-14  0.12500000000E+03  0.12500000000E+03 0.  0.
        -13    1    3    3    0    0 -0.32390134513E+02 -0.94914656302E+01 -0.34308945088E+01  0.33926257305E+02  0.10566000000E+00 0. -1.
         23    2    1    0    0    0  0.28963322771E+02 -0.17051887936E+01  0.13395794096E+01  0.95955616588E+02  0.91454382875E+02 0.  0.
         13    1    3    3    0    0  0.61353457284E+02  0.77862768366E+01  0.47704739184E+01  0.62029359283E+02  0.10566000000E+00 0.  1.
         22    1    1    0    0    0 -0.28963322771E+02  0.17051887936E+01 -0.13395794096E+01  0.29044383412E+02  0.00000000000E+00 0.  1.
</event>
<event>
 5    1  0.1267616E-004  0.9118800E+02  0.7818608E-02  0.1130116E+00
         25   -1    0    0    0    0  0.00000000000E+00  0.00000000000E+00  0.99999998245E-14  0.12500000000E+03  0.12500000000E+03 0.  0.
        -13    1    3    3    0    0 -0.42621142112E+01 -0.36181722998E+02  0.39748002455E+02  0.53918434323E+02  0.10566000000E+00 0. -1.
         23    2    1    0    0    0  0.20003464801E+02 -0.21745304164E+02  0.13329610120E+02  0.92585877103E+02  0.86726404721E+02 0.  0.
         13    1    3    3    0    0  0.24265579012E+02  0.14436418834E+02 -0.26418392335E+02  0.38667442780E+02  0.10566000000E+00 0.  1.
         22    1    1    0    0    0 -0.20003464801E+02  0.21745304164E+02 -0.13329610120E+02  0.32414122897E+02  0.00000000000E+00 0. -1.
</event>
<event>
 5    1  0.1267616E-004  0.9118800E+02  0.7818608E-02  0.1130116E+00
         25   -1    0    0    0    0  0.00000000000E+00  0.00000000000E+00  0.99999998245E-14  0.12500000000E+03  0.12500000000E+03 0.  0.
        -13    1    3    3    0    0 -0.46777752755E+02 -0.10509724935E+02  0.39722754327E+02  0.62261712524E+02  0.10566000000E+00 0.  1.
         23    2    1    0    0    0 -0.21400027095E+02 -0.87452780937E+01  0.18506705623E+02  0.95386840736E+02  0.90673646579E+02 0.  0.
         13    1    3    3    0    0  0.25377725661E+02  0.17644468410E+01 -0.21216048704E+02  0.33125128212E+02  0.10566000000E+00 0. -1.
         22    1    1    0    0    0  0.21400027095E+02  0.87452780937E+01 -0.18506705623E+02  0.29613159264E+02  0.00000000000E+00 0.  1.
</event>
<event>
 5    1  0.1267616E-004  0.9118800E+02  0.7818608E-02  0.1130116E+00
         25   -1    0    0    0    0  0.00000000000E+00  0.00000000000E+00  0.99999998245E-14  0.12500000000E+03  0.12500000000E+03 0.  0.
        -13    1    3    3    0    0  0.34580790724E+02  0.22087599475E+02 -0.32862385619E+02  0.52570340405E+02  0.10566000000E+00 0.  1.
         23    2    1    0    0    0  0.18602294869E+02 -0.14274386394E+02 -0.19584965242E+02  0.94448824166E+02  0.89371170080E+02 0.  0.
         13    1    3    3    0    0 -0.15978495855E+02 -0.36361985869E+02  0.13277420377E+02  0.41878483760E+02  0.10566000000E+00 0. -1.
         22    1    1    0    0    0 -0.18602294869E+02  0.14274386394E+02  0.19584965242E+02  0.30551175834E+02  0.00000000000E+00 0.  1.
</event>
<event>
 5    1  0.1267616E-004  0.9118800E+02  0.7818608E-02  0.1130116E+00
         25   -1    0    0    0    0  0.00000000000E+00  0.00000000000E+00  0.99999998245E-14  0.12500000000E+03  0.12500000000E+03 0.  0.
        -13    1    3    3    0    0  0.38631642147E+02  0.42380638974E+02  0.22662701713E+02  0.61661426741E+02  0.10566000000E+00 0. -1.
         23    2    1    0    0    0  0.17143444078E+02  0.15729821389E+02  0.16575145321E+02  0.96433229125E+02  0.92104871105E+02 0.  0.
         13    1    3    3    0    0 -0.21488198069E+02 -0.26650817585E+02 -0.60875563924E+01  0.34771802384E+02  0.10566000000E+00 0.  1.
         22    1    1    0    0    0 -0.17143444078E+02 -0.15729821389E+02 -0.16575145321E+02  0.28566770875E+02  0.00000000000E+00 0. -1.
</event>
<event>
 5    1  0.1267616E-004  0.9118800E+02  0.7818608E-02  0.1130116E+00
         25   -1    0    0    0    0  0.00000000000E+00  0.00000000000E+00  0.99999998245E-14  0.12500000000E+03  0.12500000000E+03 0.  0.
        -13    1    3    3    0    0  0.29442697604E+02  0.39112718010E+01  0.31153476314E+02  0.43043242672E+02  0.10566000000E+00 0.  1.
         23    2    1    0    0    0 -0.91670180746E+00  0.29304507165E+02 -0.32718451169E+01  0.95499161828E+02  0.90828357120E+02 0.  0.
         13    1    3    3    0    0 -0.30359399412E+02  0.25393235364E+02 -0.34425321430E+02  0.52455919156E+02  0.10566000000E+00 0. -1.
         22    1    1    0    0    0  0.91670180746E+00 -0.29304507165E+02  0.32718451169E+01  0.29500838172E+02  0.00000000000E+00 0. -1.
</event>
<event>
 5    1  0.1267616E-004  0.9118800E+02  0.7818608E-02  0.1130116E+00
         25   -1    0    0    0    0  0.00000000000E+00  0.00000000000E+00  0.99999998245E-14  0.12500000000E+03  0.12500000000E+03 0.  0.
        -13    1    3    3    0    0 -0.39734508958E+02  0.89245387905E+00 -0.19584406189E+02  0.44307875213E+02  0.10566000000E+00 0.  1.
         23    2    1    0    0    0  0.87545755053E+01  0.17789103606E+02 -0.21579254659E+02  0.95695409387E+02  0.91098037008E+02 0.  0.
         13    1    3    3    0    0  0.48489084463E+02  0.16896649727E+02 -0.19948484695E+01  0.51387534174E+02  0.10566000000E+00 0. -1.
         22    1    1    0    0    0 -0.87545755053E+01 -0.17789103606E+02  0.21579254659E+02  0.29304590613E+02  0.00000000000E+00 0.  1.
</event>
<event>
 5    1  0.1267616E-004  0.9118800E+02  0.7818608E-02  0.1130116E+00
         25   -1    0    0    0    0  0.00000000000E+00  0.00000000000E+00  0.99999998245E-14  0.12500000000E+03  0.12500000000E+03 0.  0.
        -13    1    3    3    0    0 -0.10960354707E+02  0.28900612479E+02  0.98842866226E+01  0.32451272133E+02  0.10566000000E+00 0.  1.
         23    2    1    0    0    0  0.94830672878E+01 -0.28815833606E+02 -0.10291565593E+01  0.94646417101E+02  0.89647109687E+02 0.  0.
         13    1    3    3    0    0  0.20443421995E+02 -0.57716446085E+02 -0.10913443182E+02  0.62195144968E+02  0.10566000000E+00 0. -1.
         22    1    1    0    0    0 -0.94830672878E+01  0.28815833606E+02  0.10291565593E+01  0.30353582899E+02  0.00000000000E+00 0. -1.
</event>
<event>
 5    1  0.1267616E-004  0.9118800E+02  0.7818608E-02  0.1130116E+00
         25   -1    0    0    0    0  0.00000000000E+00  0.00000000000E+00  0.99999998245E-14  0.12500000000E+03  0.12500000000E+03 0.  0.
        -13    1    3    3    0    0 -0.39669121313E+02  0.28378186309E+02  0.48982167498E+00  0.48777164055E+02  0.10566000000E+00 0.  1.
         23    2    1    0    0    0 -0.29099772877E+02  0.23375778933E+02 -0.27186696379E+02  0.78822729810E+02  0.63880219571E+02 0.  0.
         13    1    3    3    0    0  0.10569348436E+02 -0.50024073758E+01 -0.27676518054E+02  0.30045565755E+02  0.10566000000E+00 0. -1.
         22    1    1    0    0    0  0.29099772877E+02 -0.23375778933E+02  0.27186696379E+02  0.46177270190E+02  0.00000000000E+00 0.  1.
</event>
<event>
 5    1  0.1267616E-004  0.9118800E+02  0.7818608E-02  0.1130116E+00
         25   -1    0    0    0    0  0.00000000000E+00  0.00000000000E+00  0.99999998245E-14  0.12500000000E+03  0.12500000000E+03 0.  0.
        -13    1    3    3    0    0  0.15579149592E+02 -0.33154741257E+02 -0.20455689279E+02  0.41957039430E+02  0.10566000000E+00 0. -1.
         23    2    1    0    0    0  0.48515562833E+01  0.15571289028E+02 -0.28176165308E+02  0.92443910987E+02  0.86521544986E+02 0.  0.
         13    1    3    3    0    0 -0.10727593309E+02  0.48726030284E+02 -0.77204760297E+01  0.50486871557E+02  0.10566000000E+00 0.  1.
         22    1    1    0    0    0 -0.48515562833E+01 -0.15571289028E+02  0.28176165308E+02  0.32556089013E+02  0.00000000000E+00 0.  1.
</event>
<event>
 5    1  0.1267616E-004  0.9118800E+02  0.7818608E-02  0.1130116E+00
         25   -1    0    0    0    0  0.00000000000E+00  0.00000000000E+00  0.99999998245E-14  0.12500000000E+03  0.12500000000E+03 0.  0.
        -13    1    3    3    0    0 -0.69630843384E+01 -0.17389369126E+02 -0.23833991021E+02  0.30314105531E+02  0.10566000000E+00 0.  1.
         23    2    1    0    0    0  0.17742670089E+02  0.22288383238E+02  0.16523147954E+02  0.92066904373E+02  0.85975148114E+02 0.  0.
         13    1    3    3    0    0  0.24705754428E+02  0.39677752365E+02  0.40357138975E+02  0.61752798842E+02  0.10566000000E+00 0. -1.
         22    1    1    0    0    0 -0.17742670089E+02 -0.22288383238E+02 -0.16523147954E+02  0.32933095627E+02  0.00000000000E+00 0. -1.
</event>
<event>
 5    1  0.1267616E-004  0.9118800E+02  0.7818608E-02  0.1130116E+00
         25   -1    0    0    0    0  0.00000000000E+00  0.00000000000E+00  0.99999998245E-14  0.12500000000E+03  0.12500000000E+03 0.  0.
        -13    1    3    3    0    0 -0.42075410167E+02  0.48615277822E+01  0.26911028528E+02  0.50181562486E+02  0.10566000000E+00 0.  1.
         23    2    1    0    0    0 -0.27209808650E+02  0.80904409642E+00 -0.14351185555E+02  0.94226882414E+02  0.89060207744E+02 0.  0.
         13    1    3    3    0    0  0.14865601516E+02 -0.40524836858E+01 -0.41262214083E+02  0.44045319928E+02  0.10566000000E+00 0. -1.
         22    1    1    0    0    0  0.27209808650E+02 -0.80904409642E+00  0.14351185555E+02  0.30773117586E+02  0.00000000000E+00 0. -1.
</event>
<event>
 5    1  0.1267616E-004  0.9118800E+02  0.7818608E-02  0.1130116E+00
         25   -1    0    0    0    0  0.00000000000E+00  0.00000000000E+00  0.99999998245E-14  0.12500000000E+03  0.12500000000E+03 0.  0.
        -13    1    3    3    0    0  0.21223959220E+02 -0.22240375577E+02  0.26300071722E+02  0.40457331689E+02  0.10566000000E+00 0.  1.
         23    2    1    0    0    0 -0.17530445602E+02  0.16790013253E+02  0.14544770625E+02  0.96702095120E+02  0.92469042279E+02 0.  0.
         13    1    3    3    0    0 -0.38754404822E+02  0.39030388831E+02 -0.11755301097E+02  0.56244763430E+02  0.10566000000E+00 0. -1.
         22    1    1    0    0    0  0.17530445602E+02 -0.16790013253E+02 -0.14544770625E+02  0.28297904880E+02  0.00000000000E+00 0. -1.
</event>
<event>
 5    1  0.1267616E-004  0.9118800E+02  0.7818608E-02  0.1130116E+00
         25   -1    0    0    0    0  0.00000000000E+00  0.00000000000E+00  0.99999998245E-14  0.12500000000E+03  0.12500000000E+03 0.  0.
        -13    1    3    3    0    0  0.46824867862E+02  0.41349281767E+01  0.78992967647E+01  0.47666297683E+02  0.10566000000E+00 0. -1.
         23    2    1    0    0    0  0.58685787385E+01 -0.16762606326E+02  0.22889967071E+02  0.96028017331E+02  0.91553286849E+02 0.  0.
         13    1    3    3    0    0 -0.40956289124E+02 -0.20897534503E+02  0.14990670306E+02  0.48361719649E+02  0.10566000000E+00 0.  1.
         22    1    1    0    0    0 -0.58685787385E+01  0.16762606326E+02 -0.22889967071E+02  0.28971982669E+02  0.00000000000E+00 0.  1.
</event>
<event>
 5    1  0.1267616E-004  0.9118800E+02  0.7818608E-02  0.1130116E+00
         25   -1    0    0    0    0  0.00000000000E+00  0.00000000000E+00  0.99999998245E-14  0.12500000000E+03  0.12500000000E+03 0.  0.
        -13    1    3    3    0    0 -0.71601768004E+01  0.15340890337E+02 -0.56885619830E+02  0.59351461276E+02  0.10566000000E+00 0.  1.
         23    2    1    0    0    0  0.45272366393E+01  0.17805990442E+02 -0.21391318333E+02  0.96801814469E+02  0.92603745158E+02 0.  0.
         13    1    3    3    0    0  0.11687413440E+02  0.24651001055E+01  0.35494301497E+02  0.37450353193E+02  0.10566000000E+00 0. -1.
         22    1    1    0    0    0 -0.45272366393E+01 -0.17805990442E+02  0.21391318333E+02  0.28198185531E+02  0.00000000000E+00 0.  1.
</event>
<event>
 5    1  0.1267616E-004  0.9118800E+02  0.7818608E-02  0.1130116E+00
         25   -1    0    0    0    0  0.00000000000E+00  0.00000000000E+00  0.99999998245E-14  0.12500000000E+03  0.12500000000E+03 0.  0.
        -13    1    3    3    0    0 -0.14799585205E+02 -0.47826942538E+01  0.33821192422E+02  0.37226148168E+02  0.10566000000E+00 0.  1.
         23    2    1    0    0    0  0.29482506740E+02  0.42522427433E+01 -0.23596070098E+01  0.95119111170E+02  0.90303808294E+02 0.  0.
         13    1    3    3    0    0  0.44282091945E+02  0.90349369971E+01 -0.36180799431E+02  0.57892963002E+02  0.10566000000E+00 0. -1.
         22    1    1    0    0    0 -0.29482506740E+02 -0.42522427433E+01  0.23596070098E+01  0.29880888830E+02  0.00000000000E+00 0. -1.
</event>
<event>
 5    1  0.1267616E-004  0.9118800E+02  0.7818608E-02  0.1130116E+00
         25   -1    0    0    0    0  0.00000000000E+00  0.00000000000E+00  0.99999998245E-14  0.12500000000E+03  0.12500000000E+03 0.  0.
        -13    1    3    3    0    0 -0.24257735448E+02  0.25418850678E+02  0.14273090744E+02  0.37924767400E+02  0.10566000000E+00 0.  1.
         23    2    1    0    0    0  0.28535911147E+02  0.37537585839E+01  0.33928847909E+01  0.96018961446E+02  0.91540921786E+02 0.  0.
         13    1    3    3    0    0  0.52793646595E+02 -0.21665092095E+02 -0.10880205953E+02  0.58094194046E+02  0.10566000000E+00 0. -1.
         22    1    1    0    0    0 -0.28535911147E+02 -0.37537585839E+01 -0.33928847909E+01  0.28981038554E+02  0.00000000000E+00 0. -1.
</event>
<event>
 5    1  0.1267616E-004  0.9118800E+02  0.7818608E-02  0.1130116E+00
         25   -1    0    0    0    0  0.00000000000E+00  0.00000000000E+00  0.99999998245E-14  0.12500000000E+03  0.12500000000E+03 0.  0.
        -13    1    3    3    0    0  0.29005429701E+02 -0.31838395892E+02  0.83796945736E+01  0.43877429851E+02  0.10566000000E+00 0. -1.
         23    2    1    0    0    0  0.17336658847E+02  0.13588387783E+02  0.23145207692E+02  0.93048401267E+02  0.87390504728E+02 0.  0.
         13    1    3    3    0    0 -0.11668770854E+02  0.45426783675E+02  0.14765513119E+02  0.49170971416E+02  0.10566000000E+00 0.  1.
         22    1    1    0    0    0 -0.17336658847E+02 -0.13588387783E+02 -0.23145207692E+02  0.31951598733E+02  0.00000000000E+00 0.  1.
</event>
<event>
 5    1  0.1267616E-004  0.9118800E+02  0.7818608E-02  0.1130116E+00
         25   -1    0    0    0    0  0.00000000000E+00  0.00000000000E+00  0.99999998245E-14  0.12500000000E+03  0.12500000000E+03 0.  0.
        -13    1    3    3    0    0  0.24692682416E+00 -0.21382970726E+02 -0.29204617425E+02  0.36196867999E+02  0.10566000000E+00 0.  1.
         23    2    1    0    0    0 -0.45538332917E+01  0.22127302039E+02  0.14581713508E+02  0.98111689119E+02  0.94355298102E+02 0.  0.
         13    1    3    3    0    0 -0.48007601159E+01  0.43510272766E+02  0.43786330933E+02  0.61914821121E+02  0.10566000000E+00 0. -1.
         22    1    1    0    0    0  0.45538332917E+01 -0.22127302039E+02 -0.14581713508E+02  0.26888310881E+02  0.00000000000E+00 0. -1.
</event>
<event>
 5    1  0.1267616E-004  0.9118800E+02  0.7818608E-02  0.1130116E+00
         25   -1    0    0    0    0  0.00000000000E+00  0.00000000000E+00  0.99999998245E-14  0.12500000000E+03  0.12500000000E+03 0.  0.
        -13    1    3    3    0    0  0.86754268717E+01 -0.55687598020E+02 -0.20518644499E+02  0.59978308919E+02  0.10566000000E+00 0. -1.
         23    2    1    0    0    0 -0.82087875832E+01 -0.28222130804E+02 -0.82701924765E+01  0.94466920491E+02  0.89396477128E+02 0.  0.
         13    1    3    3    0    0 -0.16884214455E+02  0.27465467217E+02  0.12248452023E+02  0.34488611572E+02  0.10566000000E+00 0.  1.
         22    1    1    0    0    0  0.82087875832E+01  0.28222130804E+02  0.82701924765E+01  0.30533079509E+02  0.00000000000E+00 0. -1.
</event>
<event>
 5    1  0.1267616E-004  0.9118800E+02  0.7818608E-02  0.1130116E+00
         25   -1    0    0    0    0  0.00000000000E+00  0.00000000000E+00  0.99999998245E-14  0.12500000000E+03  0.12500000000E+03 0.  0.
        -13    1    3    3    0    0  0.31021507422E+02 -0.96294561278E+01  0.10677331286E+02  0.34191766779E+02  0.10566000000E+00 0. -1.
         23    2    1    0    0    0 -0.20054244758E+02  0.21630675636E+02  0.92332181895E+01  0.94091891365E+02  0.88870539782E+02 0.  0.
         13    1    3    3    0    0 -0.51075752180E+02  0.31260131764E+02 -0.14441130962E+01  0.59900124585E+02  0.10566000000E+00 0.  1.
         22    1    1    0    0    0  0.20054244758E+02 -0.21630675636E+02 -0.92332181895E+01  0.30908108635E+02  0.00000000000E+00 0.  1.
</event>
<event>
 5    1  0.1267616E-004  0.9118800E+02  0.7818608E-02  0.1130116E+00
         25   -1    0    0    0    0  0.00000000000E+00  0.00000000000E+00  0.99999998245E-14  0.12500000000E+03  0.12500000000E+03 0.  0.
        -13    1    3    3    0    0 -0.30024630115E+01  0.28598511798E+02 -0.28211138730E+02  0.40283609243E+02  0.10566000000E+00 0. -1.
         23    2    1    0    0    0  0.13248186385E+02 -0.22329304267E+02 -0.13538920887E+02  0.95718356428E+02  0.91129518307E+02 0.  0.
         13    1    3    3    0    0  0.16250649396E+02 -0.50927816065E+02  0.14672217843E+02  0.55434747184E+02  0.10566000000E+00 0.  1.
         22    1    1    0    0    0 -0.13248186385E+02  0.22329304267E+02  0.13538920887E+02  0.29281643572E+02  0.00000000000E+00 0.  1.
</event>
<event>
 5    1  0.1267616E-004  0.9118800E+02  0.7818608E-02  0.1130116E+00
         25   -1    0    0    0    0  0.00000000000E+00  0.00000000000E+00  0.99999998245E-14  0.12500000000E+03  0.12500000000E+03 0.  0.
        -13    1    3    3    0    0  0.53238286588E+02 -0.16735772332E+02 -0.16556479705E+02  0.58211076426E+02  0.10566000000E+00 0. -1.
         23    2    1    0    0    0  0.37109268548E+02  0.10485468729E+01  0.85005237886E+00  0.87866189910E+02  0.79633833749E+02 0.  0.
         13    1    3    3    0    0 -0.16129018040E+02  0.17784319205E+02  0.17406532084E+02  0.29655113484E+02  0.10566000000E+00 0.  1.
         22    1    1    0    0    0 -0.37109268548E+02 -0.10485468729E+01 -0.85005237886E+00  0.37133810090E+02  0.00000000000E+00 0. -1.
</event>
<event>
 5    1  0.1267616E-004  0.9118800E+02  0.7818608E-02  0.1130116E+00
         25   -1    0    0    0    0  0.00000000000E+00  0.00000000000E+00  0.99999998245E-14  0.12500000000E+03  0.12500000000E+03 0.  0.
        -13    1    3    3    0    0  0.18564790831E+02  0.27099446021E+02  0.12055458378E+02  0.34991094209E+02  0.10566000000E+00 0. -1.
         23    2    1    0    0    0 -0.18840943747E+02 -0.58999014023E+01 -0.22038865439E+02  0.95411123920E+02  0.90707116480E+02 0.  0.
         13    1    3    3    0    0 -0.37405734578E+02 -0.32999347423E+02 -0.34094323817E+02  0.60420029711E+02  0.10566000000E+00 0.  1.
         22    1    1    0    0    0  0.18840943747E+02  0.58999014023E+01  0.22038865439E+02  0.29588876080E+02  0.00000000000E+00 0.  1.
</event>
<event>
 5    1  0.1267616E-004  0.9118800E+02  0.7818608E-02  0.1130116E+00
         25   -1    0    0    0    0  0.00000000000E+00  0.00000000000E+00  0.99999998245E-14  0.12500000000E+03  0.12500000000E+03 0.  0.
        -13    1    3    3    0    0 -0.21462262669E+02  0.16264252324E+02 -0.48690263547E+02  0.55640880213E+02  0.10566000000E+00 0. -1.
         23    2    1    0    0    0 -0.11772949633E+02 -0.13230615176E+02 -0.23214733256E+02  0.95801106850E+02  0.91242954318E+02 0.  0.
         13    1    3    3    0    0  0.96893130356E+01 -0.29494867501E+02  0.25475530291E+02  0.40160226638E+02  0.10566000000E+00 0.  1.
         22    1    1    0    0    0  0.11772949633E+02  0.13230615176E+02  0.23214733256E+02  0.29198893150E+02  0.00000000000E+00 0. -1.
</event>
<event>
 5    1  0.1267616E-004  0.9118800E+02  0.7818608E-02  0.1130116E+00
         25   -1    0    0    0    0  0.00000000000E+00  0.00000000000E+00  0.99999998245E-14  0.12500000000E+03  0.12500000000E+03 0.  0.
        -13    1    3    3    0    0 -0.31090849623E+02  0.26651843497E+02  0.45798639602E+02  0.61436863897E+02  0.10566000000E+00 0. -1.
         23    2    1    0    0    0 -0.19665024640E+02  0.83882900869E+01  0.15591650595E+02  0.98539157743E+02  0.94919910639E+02 0.  0.
         13    1    3    3    0    0  0.11425824984E+02 -0.18263553410E+02 -0.30206989007E+02  0.37102293846E+02  0.10566000000E+00 0.  1.
         22    1    1    0    0    0  0.19665024640E+02 -0.83882900869E+01 -0.15591650595E+02  0.26460842257E+02  0.00000000000E+00 0. -1.
</event>
<event>
 5    1  0.1267616E-004  0.9118800E+02  0.7818608E-02  0.1130116E+00
         25   -1    0    0    0    0  0.00000000000E+00  0.00000000000E+00  0.99999998245E-14  0.12500000000E+03  0.12500000000E+03 0.  0.
        -13    1    3    3    0    0  0.11476213991E+02 -0.12176535965E+02 -0.49491471945E+02  0.52243549602E+02  0.10566000000E+00 0.  1.
         23    2    1    0    0    0  0.27423855977E+02 -0.25305016669E+01 -0.10380924265E+02  0.95568131151E+02  0.90923224689E+02 0.  0.
         13    1    3    3    0    0  0.15947641986E+02  0.96460342978E+01  0.39110547680E+02  0.43324581549E+02  0.10566000000E+00 0. -1.
         22    1    1    0    0    0 -0.27423855977E+02  0.25305016669E+01  0.10380924265E+02  0.29431868849E+02  0.00000000000E+00 0.  1.
</event>
<event>
 5    1  0.1267616E-004  0.9118800E+02  0.7818608E-02  0.1130116E+00
         25   -1    0    0    0    0  0.00000000000E+00  0.00000000000E+00  0.99999998245E-14  0.12500000000E+03  0.12500000000E+03 0.  0.
        -13    1    3    3    0    0 -0.13642086730E+02 -0.25835311934E+02 -0.25877178207E+02  0.39028315222E+02  0.10566000000E+00 0. -1.
         23    2    1    0    0    0 -0.33723618036E+01 -0.14699677380E+02  0.27022225066E+02  0.94054015014E+02  0.88817249189E+02 0.  0.
         13    1    3    3    0    0  0.10269724927E+02  0.11135634554E+02  0.52899403273E+02  0.55025699792E+02  0.10566000000E+00 0.  1.
         22    1    1    0    0    0  0.33723618036E+01  0.14699677380E+02 -0.27022225066E+02  0.30945984986E+02  0.00000000000E+00 0.  1.
</event>
<event>
 5    1  0.1267616E-004  0.9118800E+02  0.7818608E-02  0.1130116E+00
         25   -1    0    0    0    0  0.00000000000E+00  0.00000000000E+00  0.99999998245E-14  0.12500000000E+03  0.12500000000E+03 0.  0.
        -13    1    3    3    0    0 -0.50583195921E+02 -0.74008139703E+01 -0.57305512535E+01  0.51442026970E+02  0.10566000000E+00 0. -1.
         23    2    1    0    0    0 -0.85489970612E+01 -0.75357809345E+01 -0.24880907393E+02  0.97633361592E+02  0.93719477154E+02 0.  0.
         13    1    3    3    0    0  0.42034198860E+02 -0.13496696420E+00 -0.19150356140E+02  0.46191334622E+02  0.10566000000E+00 0.  1.
         22    1    1    0    0    0  0.85489970612E+01  0.75357809345E+01  0.24880907393E+02  0.27366638408E+02  0.00000000000E+00 0. -1.
</event>
<event>
 5    1  0.1267616E-004  0.9118800E+02  0.7818608E-02  0.1130116E+00
         25   -1    0    0    0    0  0.00000000000E+00  0.00000000000E+00  0.99999998245E-14  0.12500000000E+03  0.12500000000E+03 0.  0.
        -13    1    3    3    0    0 -0.33734906253E+02 -0.32460235855E+02 -0.25130638642E+02  0.53134461268E+02  0.10566000000E+00 0. -1.
         23    2    1    0    0    0  0.57793892554E+01 -0.26764687893E+02 -0.92832810817E+01  0.96087560362E+02  0.91634546381E+02 0.  0.
         13    1    3    3    0    0  0.39514295508E+02  0.56955479617E+01  0.15847357560E+02  0.42953099094E+02  0.10566000000E+00 0.  1.
         22    1    1    0    0    0 -0.57793892554E+01  0.26764687893E+02  0.92832810817E+01  0.28912439638E+02  0.00000000000E+00 0.  1.
</event>
<event>
 5    1  0.1267616E-004  0.9118800E+02  0.7818608E-02  0.1130116E+00
         25   -1    0    0    0    0  0.00000000000E+00  0.00000000000E+00  0.99999998245E-14  0.12500000000E+03  0.12500000000E+03 0.  0.
        -13    1    3    3    0    0 -0.23121297676E+01  0.27815219899E+02 -0.55819959002E+02  0.62409225193E+02  0.10566000000E+00 0. -1.
         23    2    1    0    0    0 -0.32241907926E+01  0.12867913522E+02 -0.23975221466E+02  0.97599455315E+02  0.93674243145E+02 0.  0.
         13    1    3    3    0    0 -0.91206102504E+00 -0.14947306377E+02  0.31844737537E+02  0.35190230122E+02  0.10566000000E+00 0.  1.
         22    1    1    0    0    0  0.32241907926E+01 -0.12867913522E+02  0.23975221466E+02  0.27400544685E+02  0.00000000000E+00 0. -1.
</event>
<event>
 5    1  0.1267616E-004  0.9118800E+02  0.7818608E-02  0.1130116E+00
         25   -1    0    0    0    0  0.00000000000E+00  0.00000000000E+00  0.99999998245E-14  0.12500000000E+03  0.12500000000E+03 0.  0.
        -13    1    3    3    0    0 -0.29805374862E+02  0.23277703398E+02 -0.29142916771E+02  0.47744451071E+02  0.10566000000E+00 0.  1.
         23    2    1    0    0    0 -0.41194596080E+02  0.82360365054E+01  0.62212521400E+00  0.82985549113E+02  0.71563868525E+02 0.  0.
         13    1    3    3    0    0 -0.11389221218E+02 -0.15041666892E+02  0.29765041985E+02  0.35241098042E+02  0.10566000000E+00 0. -1.
         22    1    1    0    0    0  0.41194596080E+02 -0.82360365054E+01 -0.62212521400E+00  0.42014450887E+02  0.00000000000E+00 0.  1.
</event>
<event>
 5    1  0.1267616E-004  0.9118800E+02  0.7818608E-02  0.1130116E+00
         25   -1    0    0    0    0  0.00000000000E+00  0.00000000000E+00  0.99999998245E-14  0.12500000000E+03  0.12500000000E+03 0.  0.
        -13    1    3    3    0    0 -0.56488222558E+02  0.12441691761E+02  0.10776678825E+02  0.58837598117E+02  0.10566000000E+00 0. -1.
         23    2    1    0    0    0 -0.20747993806E+02  0.37757337261E+01  0.19104224251E+02  0.96544652587E+02  0.92255965372E+02 0.  0.
         13    1    3    3    0    0  0.35740228752E+02 -0.86659580345E+01  0.83275454265E+01  0.37707054470E+02  0.10566000000E+00 0.  1.
         22    1    1    0    0    0  0.20747993806E+02 -0.37757337261E+01 -0.19104224251E+02  0.28455347413E+02  0.00000000000E+00 0. -1.
</event>
<event>
 5    1  0.1267616E-004  0.9118800E+02  0.7818608E-02  0.1130116E+00
         25   -1    0    0    0    0  0.00000000000E+00  0.00000000000E+00  0.99999998245E-14  0.12500000000E+03  0.12500000000E+03 0.  0.
        -13    1    3    3    0    0 -0.67777869094E+01 -0.29532180606E+02  0.35932080130E+02  0.47002272639E+02  0.10566000000E+00 0.  1.
         23    2    1    0    0    0  0.24397819721E+02 -0.21613745118E+02  0.42871884260E+01  0.92124666241E+02  0.86059087610E+02 0.  0.
         13    1    3    3    0    0  0.31175606631E+02  0.79184354883E+01 -0.31644891704E+02  0.45122393602E+02  0.10566000000E+00 0. -1.
         22    1    1    0    0    0 -0.24397819721E+02  0.21613745118E+02 -0.42871884260E+01  0.32875333759E+02  0.00000000000E+00 0.  1.
</event>
<event>
 5    1  0.1267616E-004  0.9118800E+02  0.7818608E-02  0.1130116E+00
         25   -1    0    0    0    0  0.00000000000E+00  0.00000000000E+00  0.99999998245E-14  0.12500000000E+03  0.12500000000E+03 0.  0.
        -13    1    3    3    0    0  0.77245475165E+01  0.31075566904E+02  0.14944270000E+02  0.35336975856E+02  0.10566000000E+00 0.  1.
         23    2    1    0    0    0  0.77394153938E+01 -0.27701617082E+02 -0.93809216245E+00  0.96222262832E+02  0.91818112092E+02 0.  0.
         13    1    3    3    0    0  0.14867877292E-01 -0.58777183986E+02 -0.15882362163E+02  0.60885286977E+02  0.10566000000E+00 0. -1.
         22    1    1    0    0    0 -0.77394153938E+01  0.27701617082E+02  0.93809216245E+00  0.28777737168E+02  0.00000000000E+00 0. -1.
</event>
<event>
 5    1  0.1267616E-004  0.9118800E+02  0.7818608E-02  0.1130116E+00
         25   -1    0    0    0    0  0.00000000000E+00  0.00000000000E+00  0.99999998245E-14  0.12500000000E+03  0.12500000000E+03 0.  0.
        -13    1    3    3    0    0 -0.19674111847E+02  0.26797740282E+02  0.79333777286E+01  0.34178051545E+02  0.10566000000E+00 0. -1.
         23    2    1    0    0    0  0.18685472157E+02 -0.21615091523E+02  0.20734549048E+00  0.96427249985E+02  0.92096756166E+02 0.  0.
         13    1    3    3    0    0  0.38359584003E+02 -0.48412831805E+02 -0.77260322381E+01  0.62249198440E+02  0.10566000000E+00 0.  1.
         22    1    1    0    0    0 -0.18685472157E+02  0.21615091523E+02 -0.20734549048E+00  0.28572750015E+02  0.00000000000E+00 0.  1.
</event>
<event>
 5    1  0.1267616E-004  0.9118800E+02  0.7818608E-02  0.1130116E+00
         25   -1    0    0    0    0  0.00000000000E+00  0.00000000000E+00  0.99999998245E-14  0.12500000000E+03  0.12500000000E+03 0.  0.
        -13    1    3    3    0    0  0.51391724611E+02  0.10746326320E+02 -0.33473968841E+02  0.62266448766E+02  0.10566000000E+00 0. -1.
         23    2    1    0    0    0  0.24150956820E+02  0.71161346448E+01 -0.12188330243E+02  0.97027451283E+02  0.92907818943E+02 0.  0.
         13    1    3    3    0    0 -0.27240767791E+02 -0.36301916754E+01  0.21285638598E+02  0.34761002517E+02  0.10566000000E+00 0.  1.
         22    1    1    0    0    0 -0.24150956820E+02 -0.71161346448E+01  0.12188330243E+02  0.27972548717E+02  0.00000000000E+00 0. -1.
</event>
<event>
 5    1  0.1267616E-004  0.9118800E+02  0.7818608E-02  0.1130116E+00
         25   -1    0    0    0    0  0.00000000000E+00  0.00000000000E+00  0.99999998245E-14  0.12500000000E+03  0.12500000000E+03 0.  0.
        -13    1    3    3    0    0  0.33739109106E+01  0.37824972148E+02 -0.53076965603E+01  0.38344420710E+02  0.10566000000E+00 0. -1.
         23    2    1    0    0    0  0.21894744678E+02 -0.17304158627E+02 -0.57657774103E+01  0.96503369683E+02  0.92200013127E+02 0.  0.
         13    1    3    3    0    0  0.18520833767E+02 -0.55129130775E+02 -0.45808084996E+00  0.58158948972E+02  0.10566000000E+00 0.  1.
         22    1    1    0    0    0 -0.21894744678E+02  0.17304158627E+02  0.57657774103E+01  0.28496630317E+02  0.00000000000E+00 0.  1.
</event>
<event>
 5    1  0.1267616E-004  0.9118800E+02  0.7818608E-02  0.1130116E+00
         25   -1    0    0    0    0  0.00000000000E+00  0.00000000000E+00  0.99999998245E-14  0.12500000000E+03  0.12500000000E+03 0.  0.
        -13    1    3    3    0    0  0.13435438489E+02  0.19087677622E+02 -0.32383308097E+02  0.39919171481E+02  0.10566000000E+00 0.  1.
         23    2    1    0    0    0 -0.27161026119E+02  0.83613729030E+01  0.50068927064E+01  0.96143408530E+02  0.91710698027E+02 0.  0.
         13    1    3    3    0    0 -0.40596464608E+02 -0.10726304719E+02  0.37390200804E+02  0.56224237049E+02  0.10566000000E+00 0. -1.
         22    1    1    0    0    0  0.27161026119E+02 -0.83613729030E+01 -0.50068927064E+01  0.28856591470E+02  0.00000000000E+00 0. -1.
</event>
<event>
 5    1  0.1267616E-004  0.9118800E+02  0.7818608E-02  0.1130116E+00
         25   -1    0    0    0    0  0.00000000000E+00  0.00000000000E+00  0.99999998245E-14  0.12500000000E+03  0.12500000000E+03 0.  0.
        -13    1    3    3    0    0  0.29673988545E-01  0.17315476061E+02  0.30615132473E+02  0.35172774871E+02  0.10566000000E+00 0.  1.
         23    2    1    0    0    0 -0.12547489520E+02 -0.14720277840E+02 -0.20513344632E+02  0.96805614372E+02  0.92608874267E+02 0.  0.
         13    1    3    3    0    0 -0.12577163508E+02 -0.32035753901E+02 -0.51128477104E+02  0.61632839501E+02  0.10566000000E+00 0. -1.
         22    1    1    0    0    0  0.12547489520E+02  0.14720277840E+02  0.20513344632E+02  0.28194385628E+02  0.00000000000E+00 0. -1.
</event>
<event>
 5    1  0.1267616E-004  0.9118800E+02  0.7818608E-02  0.1130116E+00
         25   -1    0    0    0    0  0.00000000000E+00  0.00000000000E+00  0.99999998245E-14  0.12500000000E+03  0.12500000000E+03 0.  0.
        -13    1    3    3    0    0 -0.48062982731E+02  0.86250179199E+01 -0.34222374714E+02  0.59629047772E+02  0.10566000000E+00 0. -1.
         23    2    1    0    0    0 -0.15625022361E+02  0.14840111216E+02 -0.20037057755E+02  0.95574604367E+02  0.90932123542E+02 0.  0.
         13    1    3    3    0    0  0.32437960371E+02  0.62150932959E+01  0.14185316959E+02  0.35945556595E+02  0.10566000000E+00 0.  1.
         22    1    1    0    0    0  0.15625022361E+02 -0.14840111216E+02  0.20037057755E+02  0.29425395633E+02  0.00000000000E+00 0. -1.
</event>
<event>
 5    1  0.1267616E-004  0.9118800E+02  0.7818608E-02  0.1130116E+00
         25   -1    0    0    0    0  0.00000000000E+00  0.00000000000E+00  0.99999998245E-14  0.12500000000E+03  0.12500000000E+03 0.  0.
        -13    1    3    3    0    0 -0.12868285663E+02  0.32652409321E+02  0.25621896391E+02  0.43454175278E+02  0.10566000000E+00 0.  1.
         23    2    1    0    0    0  0.73569344805E+01 -0.14986857592E+02  0.24662495111E+02  0.95217974372E+02  0.90440552812E+02 0.  0.
         13    1    3    3    0    0  0.20225220143E+02 -0.47639266912E+02 -0.95940128086E+00  0.51763799094E+02  0.10566000000E+00 0. -1.
         22    1    1    0    0    0 -0.73569344805E+01  0.14986857592E+02 -0.24662495111E+02  0.29782025628E+02  0.00000000000E+00 0.  1.
</event>
<event>
 5    1  0.1267616E-004  0.9118800E+02  0.7818608E-02  0.1130116E+00
         25   -1    0    0    0    0  0.00000000000E+00  0.00000000000E+00  0.99999998245E-14  0.12500000000E+03  0.12500000000E+03 0.  0.
        -13    1    3    3    0    0 -0.26704871304E+02  0.20907302186E+02  0.16301655805E+02  0.37630048925E+02  0.10566000000E+00 0.  1.
         23    2    1    0    0    0  0.19696743518E+02 -0.12780376646E+02  0.18643361778E+02  0.95018761352E+02  0.90164795447E+02 0.  0.
         13    1    3    3    0    0  0.46401614822E+02 -0.33687678832E+02  0.23417059738E+01  0.57388712428E+02  0.10566000000E+00 0. -1.
         22    1    1    0    0    0 -0.19696743518E+02  0.12780376646E+02 -0.18643361778E+02  0.29981238648E+02  0.00000000000E+00 0. -1.
</event>
<event>
 5    1  0.1267616E-004  0.9118800E+02  0.7818608E-02  0.1130116E+00
         25   -1    0    0    0    0  0.00000000000E+00  0.00000000000E+00  0.99999998245E-14  0.12500000000E+03  0.12500000000E+03 0.  0.
        -13    1    3    3    0    0  0.20959254336E+02  0.36002978841E+01  0.26993846330E+02  0.34364682319E+02  0.10566000000E+00 0.  1.
         23    2    1    0    0    0 -0.11692727784E+02 -0.21572594348E+02 -0.17376032004E+02  0.94933021467E+02  0.90045851468E+02 0.  0.
         13    1    3    3    0    0 -0.32651982119E+02 -0.25172892232E+02 -0.44369878334E+02  0.60568339147E+02  0.10566000000E+00 0. -1.
         22    1    1    0    0    0  0.11692727784E+02  0.21572594348E+02  0.17376032004E+02  0.30066978533E+02  0.00000000000E+00 0. -1.
</event>
<event>
 5    1  0.1267616E-004  0.9118800E+02  0.7818608E-02  0.1130116E+00
         25   -1    0    0    0    0  0.00000000000E+00  0.00000000000E+00  0.99999998245E-14  0.12500000000E+03  0.12500000000E+03 0.  0.
        -13    1    3    3    0    0 -0.12649247230E+02  0.35210808830E+02 -0.27050917668E+02  0.46168905387E+02  0.10566000000E+00 0. -1.
         23    2    1    0    0    0 -0.29510231185E+02 -0.48594212462E+01 -0.58937522745E+01  0.94517151785E+02  0.89466686237E+02 0.  0.
         13    1    3    3    0    0 -0.16860983955E+02 -0.40070230076E+02  0.21157165393E+02  0.48348246398E+02  0.10566000000E+00 0.  1.
         22    1    1    0    0    0  0.29510231185E+02  0.48594212462E+01  0.58937522745E+01  0.30482848215E+02  0.00000000000E+00 0.  1.
</event>
<event>
 5    1  0.1267616E-004  0.9118800E+02  0.7818608E-02  0.1130116E+00
         25   -1    0    0    0    0  0.00000000000E+00  0.00000000000E+00  0.99999998245E-14  0.12500000000E+03  0.12500000000E+03 0.  0.
        -13    1    3    3    0    0  0.21370071985E+02 -0.68896233438E+01 -0.15560509504E+02  0.27318263241E+02  0.10566000000E+00 0.  1.
         23    2    1    0    0    0 -0.18370518824E+02 -0.22453113567E+02  0.25376308859E+02  0.86456838194E+02  0.77389983516E+02 0.  0.
         13    1    3    3    0    0 -0.39740590809E+02 -0.15563490223E+02  0.40936818363E+02  0.59138574953E+02  0.10566000000E+00 0. -1.
         22    1    1    0    0    0  0.18370518824E+02  0.22453113567E+02 -0.25376308859E+02  0.38543161806E+02  0.00000000000E+00 0. -1.
</event>
<event>
 5    1  0.1267616E-004  0.9118800E+02  0.7818608E-02  0.1130116E+00
         25   -1    0    0    0    0  0.00000000000E+00  0.00000000000E+00  0.99999998245E-14  0.12500000000E+03  0.12500000000E+03 0.  0.
        -13    1    3    3    0    0 -0.13228989177E+02  0.33523362394E+02  0.27214907914E+01  0.36141937649E+02  0.10566000000E+00 0.  1.
         23    2    1    0    0    0  0.40190191079E+01 -0.21040110406E+02 -0.18018123883E+02  0.97009080959E+02  0.92883099861E+02 0.  0.
         13    1    3    3    0    0  0.17248008285E+02 -0.54563472800E+02 -0.20739614674E+02  0.60867143310E+02  0.10566000000E+00 0. -1.
         22    1    1    0    0    0 -0.40190191079E+01  0.21040110406E+02  0.18018123883E+02  0.27990919041E+02  0.00000000000E+00 0. -1.
</event>
<event>
 5    1  0.1267616E-004  0.9118800E+02  0.7818608E-02  0.1130116E+00
         25   -1    0    0    0    0  0.00000000000E+00  0.00000000000E+00  0.99999998245E-14  0.12500000000E+03  0.12500000000E+03 0.  0.
        -13    1    3    3    0    0  0.19894345160E+02  0.42033461039E+02 -0.27812195748E+02  0.54186033372E+02  0.10566000000E+00 0.  1.
         23    2    1    0    0    0 -0.18687118075E+01  0.31165858926E+02  0.32158289083E+01  0.93612989916E+02  0.88194373284E+02 0.  0.
         13    1    3    3    0    0 -0.21763056967E+02 -0.10867602113E+02  0.31028024656E+02  0.39426956544E+02  0.10566000000E+00 0. -1.
         22    1    1    0    0    0  0.18687118075E+01 -0.31165858926E+02 -0.32158289083E+01  0.31387010084E+02  0.00000000000E+00 0.  1.
</event>
<event>
 5    1  0.1267616E-004  0.9118800E+02  0.7818608E-02  0.1130116E+00
         25   -1    0    0    0    0  0.00000000000E+00  0.00000000000E+00  0.99999998245E-14  0.12500000000E+03  0.12500000000E+03 0.  0.
        -13    1    3    3    0    0  0.37793103534E+02  0.58609522602E+01 -0.24134424776E+02  0.45223346398E+02  0.10566000000E+00 0.  1.
         23    2    1    0    0    0 -0.13971980628E+02  0.10147970598E+02 -0.21760817344E+02  0.97219958218E+02  0.93166461533E+02 0.  0.
         13    1    3    3    0    0 -0.51765084162E+02  0.42870183381E+01  0.23736074327E+01  0.51996611820E+02  0.10566000000E+00 0. -1.
         22    1    1    0    0    0  0.13971980628E+02 -0.10147970598E+02  0.21760817344E+02  0.27780041782E+02  0.00000000000E+00 0. -1.
</event>
<event>
 5    1  0.1267616E-004  0.9118800E+02  0.7818608E-02  0.1130116E+00
         25   -1    0    0    0    0  0.00000000000E+00  0.00000000000E+00  0.99999998245E-14  0.12500000000E+03  0.12500000000E+03 0.  0.
        -13    1    3    3    0    0  0.24286505684E+02 -0.25309796318E+02 -0.46998767054E+00  0.35080652794E+02  0.10566000000E+00 0.  1.
         23    2    1    0    0    0 -0.67379477264E+01  0.25996894702E+02 -0.11041302714E+02  0.95962974682E+02  0.91464439377E+02 0.  0.
         13    1    3    3    0    0 -0.31024453410E+02  0.51306691019E+02 -0.10571315043E+02  0.60882321889E+02  0.10566000000E+00 0. -1.
         22    1    1    0    0    0  0.67379477264E+01 -0.25996894702E+02  0.11041302714E+02  0.29037025318E+02  0.00000000000E+00 0. -1.
</event>
<event>
 5    1  0.1267616E-004  0.9118800E+02  0.7818608E-02  0.1130116E+00
         25   -1    0    0    0    0  0.00000000000E+00  0.00000000000E+00  0.99999998245E-14  0.12500000000E+03  0.12500000000E+03 0.  0.
        -13    1    3    3    0    0  0.31056469050E+02  0.30185510763E+00  0.59133689603E+01  0.31616047869E+02  0.10566000000E+00 0.  1.
         23    2    1    0    0    0 -0.24063006180E+02  0.15958461436E+02 -0.14811307846E+02  0.92548873703E+02  0.86673054785E+02 0.  0.
         13    1    3    3    0    0 -0.55119475230E+02  0.15656606328E+02 -0.20724676806E+02  0.60932825834E+02  0.10566000000E+00 0. -1.
         22    1    1    0    0    0  0.24063006180E+02 -0.15958461436E+02  0.14811307846E+02  0.32451126297E+02  0.00000000000E+00 0. -1.
</event>
<event>
 5    1  0.1267616E-004  0.9118800E+02  0.7818608E-02  0.1130116E+00
         25   -1    0    0    0    0  0.00000000000E+00  0.00000000000E+00  0.99999998245E-14  0.12500000000E+03  0.12500000000E+03 0.  0.
        -13    1    3    3    0    0 -0.33926528303E+02  0.41432952580E+02  0.21455413140E+02  0.57689208689E+02  0.10566000000E+00 0.  1.
         23    2    1    0    0    0 -0.47911802448E+01  0.18479175871E+02  0.23362989736E+02  0.94829407721E+02  0.89901901706E+02 0.  0.
         13    1    3    3    0    0  0.29135348058E+02 -0.22953776709E+02  0.19075765966E+01  0.37140199032E+02  0.10566000000E+00 0. -1.
         22    1    1    0    0    0  0.47911802448E+01 -0.18479175871E+02 -0.23362989736E+02  0.30170592279E+02  0.00000000000E+00 0.  1.
</event>
<event>
 5    1  0.1267616E-004  0.9118800E+02  0.7818608E-02  0.1130116E+00
         25   -1    0    0    0    0  0.00000000000E+00  0.00000000000E+00  0.99999998245E-14  0.12500000000E+03  0.12500000000E+03 0.  0.
        -13    1    3    3    0    0 -0.27639409135E+02  0.26523732521E+02  0.31111218047E+02  0.49349411107E+02  0.10566000000E+00 0.  1.
         23    2    1    0    0    0  0.13753936005E+02  0.62199712518E+01  0.24915219532E+02  0.95868797444E+02  0.91335641242E+02 0.  0.
         13    1    3    3    0    0  0.41393345140E+02 -0.20303761269E+02 -0.61959985150E+01  0.46519386337E+02  0.10566000000E+00 0. -1.
         22    1    1    0    0    0 -0.13753936005E+02 -0.62199712518E+01 -0.24915219532E+02  0.29131202556E+02  0.00000000000E+00 0.  1.
</event>
<event>
 5    1  0.1267616E-004  0.9118800E+02  0.7818608E-02  0.1130116E+00
         25   -1    0    0    0    0  0.00000000000E+00  0.00000000000E+00  0.99999998245E-14  0.12500000000E+03  0.12500000000E+03 0.  0.
        -13    1    3    3    0    0 -0.46283392070E+02 -0.14436583241E+02 -0.38576407747E+02  0.61957386290E+02  0.10566000000E+00 0.  1.
         23    2    1    0    0    0 -0.18787910694E+02 -0.11312970451E+02 -0.20263442800E+02  0.95140730036E+02  0.90333728524E+02 0.  0.
         13    1    3    3    0    0  0.27495481376E+02  0.31236127904E+01  0.18312964947E+02  0.33183343746E+02  0.10566000000E+00 0. -1.
         22    1    1    0    0    0  0.18787910694E+02  0.11312970451E+02  0.20263442800E+02  0.29859269964E+02  0.00000000000E+00 0.  1.
</event>
<event>
 5    1  0.1267616E-004  0.9118800E+02  0.7818608E-02  0.1130116E+00
         25   -1    0    0    0    0  0.00000000000E+00  0.00000000000E+00  0.99999998245E-14  0.12500000000E+03  0.12500000000E+03 0.  0.
        -13    1    3    3    0    0 -0.32193747139E+02  0.63999666988E+01  0.27172893191E+02  0.42611902293E+02  0.10566000000E+00 0.  1.
         23    2    1    0    0    0  0.10534010103E+02 -0.12961746422E+02 -0.12571620249E+02  0.10409502751E+03  0.10197429518E+03 0.  0.
         13    1    3    3    0    0  0.42727757241E+02 -0.19361713121E+02 -0.39744513440E+02  0.61483125217E+02  0.10566000000E+00 0. -1.
         22    1    1    0    0    0 -0.10534010103E+02  0.12961746422E+02  0.12571620249E+02  0.20904972490E+02  0.00000000000E+00 0.  1.
</event>
<event>
 5    1  0.1267616E-004  0.9118800E+02  0.7818608E-02  0.1130116E+00
         25   -1    0    0    0    0  0.00000000000E+00  0.00000000000E+00  0.99999998245E-14  0.12500000000E+03  0.12500000000E+03 0.  0.
        -13    1    3    3    0    0  0.38046690488E+02  0.11985070005E+01  0.12123145672E+02  0.39949579486E+02  0.10566000000E+00 0. -1.
         23    2    1    0    0    0 -0.42934375137E+01 -0.21599676808E+02 -0.17882980864E+02  0.96631343908E+02  0.92373351011E+02 0.  0.
         13    1    3    3    0    0 -0.42340128002E+02 -0.22798183808E+02 -0.30006126536E+02  0.56681764421E+02  0.10566000000E+00 0.  1.
         22    1    1    0    0    0  0.42934375137E+01  0.21599676808E+02  0.17882980864E+02  0.28368656092E+02  0.00000000000E+00 0.  1.
</event>
<event>
 5    1  0.1267616E-004  0.9118800E+02  0.7818608E-02  0.1130116E+00
         25   -1    0    0    0    0  0.00000000000E+00  0.00000000000E+00  0.99999998245E-14  0.12500000000E+03  0.12500000000E+03 0.  0.
        -13    1    3    3    0    0  0.43370194788E+02  0.68929535925E+01  0.19255241522E+02  0.47950621427E+02  0.10566000000E+00 0. -1.
         23    2    1    0    0    0 -0.35549227916E+01  0.22834308831E+02  0.14456152025E+02  0.97741543198E+02  0.93863655370E+02 0.  0.
         13    1    3    3    0    0 -0.46925117580E+02  0.15941355239E+02 -0.47990894967E+01  0.49790921770E+02  0.10566000000E+00 0.  1.
         22    1    1    0    0    0  0.35549227916E+01 -0.22834308831E+02 -0.14456152025E+02  0.27258456802E+02  0.00000000000E+00 0. -1.
</event>
<event>
 5    1  0.1267616E-004  0.9118800E+02  0.7818608E-02  0.1130116E+00
         25   -1    0    0    0    0  0.00000000000E+00  0.00000000000E+00  0.99999998245E-14  0.12500000000E+03  0.12500000000E+03 0.  0.
        -13    1    3    3    0    0  0.23134410630E+02 -0.31417525502E+02  0.84726343152E+01  0.39925662927E+02  0.10566000000E+00 0. -1.
         23    2    1    0    0    0  0.13803674781E+02  0.23010763915E+02 -0.69880525016E+01  0.97271502543E+02  0.93235592109E+02 0.  0.
         13    1    3    3    0    0 -0.93307358488E+01  0.54428289418E+02 -0.15460686817E+02  0.57345839617E+02  0.10566000000E+00 0.  1.
         22    1    1    0    0    0 -0.13803674781E+02 -0.23010763915E+02  0.69880525016E+01  0.27728497457E+02  0.00000000000E+00 0.  1.
</event>
<event>
 5    1  0.1267616E-004  0.9118800E+02  0.7818608E-02  0.1130116E+00
         25   -1    0    0    0    0  0.00000000000E+00  0.00000000000E+00  0.99999998245E-14  0.12500000000E+03  0.12500000000E+03 0.  0.
        -13    1    3    3    0    0  0.45127934658E+02  0.41688647819E+02 -0.10231083999E+02  0.62282903652E+02  0.10566000000E+00 0.  1.
         23    2    1    0    0    0  0.20976510003E+02  0.19468373523E+02 -0.84948245551E+01  0.95147134413E+02  0.90342590196E+02 0.  0.
         13    1    3    3    0    0 -0.24151424655E+02 -0.22220274296E+02  0.17362594435E+01  0.32864230761E+02  0.10566000000E+00 0. -1.
         22    1    1    0    0    0 -0.20976510003E+02 -0.19468373523E+02  0.84948245551E+01  0.29852865587E+02  0.00000000000E+00 0.  1.
</event>
<event>
 5    1  0.1267616E-004  0.9118800E+02  0.7818608E-02  0.1130116E+00
         25   -1    0    0    0    0  0.00000000000E+00  0.00000000000E+00  0.99999998245E-14  0.12500000000E+03  0.12500000000E+03 0.  0.
        -13    1    3    3    0    0 -0.28060717975E+02  0.94717433687E+01  0.29879209664E+02  0.42070133704E+02  0.10566000000E+00 0. -1.
         23    2    1    0    0    0 -0.11797329908E+00  0.27801380114E+02 -0.11201333141E+02  0.95026669887E+02  0.90175758781E+02 0.  0.
         13    1    3    3    0    0  0.27942744676E+02  0.18329636745E+02 -0.41080542805E+02  0.52956536183E+02  0.10566000000E+00 0.  1.
         22    1    1    0    0    0  0.11797329908E+00 -0.27801380114E+02  0.11201333141E+02  0.29973330113E+02  0.00000000000E+00 0.  1.
</event>
<event>
 5    1  0.1267616E-004  0.9118800E+02  0.7818608E-02  0.1130116E+00
         25   -1    0    0    0    0  0.00000000000E+00  0.00000000000E+00  0.99999998245E-14  0.12500000000E+03  0.12500000000E+03 0.  0.
        -13    1    3    3    0    0  0.45755179561E+02 -0.13926220365E+02  0.25783563080E+01  0.47897130974E+02  0.10566000000E+00 0. -1.
         23    2    1    0    0    0  0.84013895445E+01 -0.66287635713E+01 -0.26907433753E+02  0.96042551149E+02  0.91573128085E+02 0.  0.
         13    1    3    3    0    0 -0.37353790016E+02  0.72974567934E+01 -0.29485790061E+02  0.48145420175E+02  0.10566000000E+00 0.  1.
         22    1    1    0    0    0 -0.84013895445E+01  0.66287635713E+01  0.26907433753E+02  0.28957448851E+02  0.00000000000E+00 0. -1.
</event>
<event>
 5    1  0.1267616E-004  0.9118800E+02  0.7818608E-02  0.1130116E+00
         25   -1    0    0    0    0  0.00000000000E+00  0.00000000000E+00  0.99999998245E-14  0.12500000000E+03  0.12500000000E+03 0.  0.
        -13    1    3    3    0    0  0.36058242672E+02 -0.29387190871E+02  0.11244746975E+02  0.47856654192E+02  0.10566000000E+00 0. -1.
         23    2    1    0    0    0  0.20438537143E+01 -0.24119276034E+02 -0.19429134013E+02  0.93961184576E+02  0.88686504858E+02 0.  0.
         13    1    3    3    0    0 -0.34014388958E+02  0.52679148369E+01 -0.30673880989E+02  0.46104530383E+02  0.10566000000E+00 0.  1.
         22    1    1    0    0    0 -0.20438537143E+01  0.24119276034E+02  0.19429134013E+02  0.31038815424E+02  0.00000000000E+00 0.  1.
</event>
<event>
 5    1  0.1267616E-004  0.9118800E+02  0.7818608E-02  0.1130116E+00
         25   -1    0    0    0    0  0.00000000000E+00  0.00000000000E+00  0.99999998245E-14  0.12500000000E+03  0.12500000000E+03 0.  0.
        -13    1    3    3    0    0  0.24232389104E+02  0.14794950694E+02  0.18415716434E+02  0.33841528092E+02  0.10566000000E+00 0. -1.
         23    2    1    0    0    0 -0.24152093561E+02  0.12466274121E+02 -0.16181206858E+02  0.93368321745E+02  0.87846914780E+02 0.  0.
         13    1    3    3    0    0 -0.48384482665E+02 -0.23286765735E+01 -0.34596923292E+02  0.59526793654E+02  0.10566000000E+00 0.  1.
         22    1    1    0    0    0  0.24152093561E+02 -0.12466274121E+02  0.16181206858E+02  0.31631678255E+02  0.00000000000E+00 0.  1.
</event>
<event>
 5    1  0.1267616E-004  0.9118800E+02  0.7818608E-02  0.1130116E+00
         25   -1    0    0    0    0  0.00000000000E+00  0.00000000000E+00  0.99999998245E-14  0.12500000000E+03  0.12500000000E+03 0.  0.
        -13    1    3    3    0    0  0.74032203829E+01 -0.70328571976E+01  0.29807656422E+02  0.31508352826E+02  0.10566000000E+00 0.  1.
         23    2    1    0    0    0 -0.22700505844E+02 -0.17205103648E+02 -0.19722025596E+02  0.90354843763E+02  0.83448852243E+02 0.  0.
         13    1    3    3    0    0 -0.30103726227E+02 -0.10172246450E+02 -0.49529682019E+02  0.58846490936E+02  0.10566000000E+00 0. -1.
         22    1    1    0    0    0  0.22700505844E+02  0.17205103648E+02  0.19722025596E+02  0.34645156237E+02  0.00000000000E+00 0. -1.
</event>
<event>
 5    1  0.1267616E-004  0.9118800E+02  0.7818608E-02  0.1130116E+00
         25   -1    0    0    0    0  0.00000000000E+00  0.00000000000E+00  0.99999998245E-14  0.12500000000E+03  0.12500000000E+03 0.  0.
        -13    1    3    3    0    0 -0.23861806625E+02 -0.55097973889E+02 -0.15963759007E+02  0.62129101939E+02  0.10566000000E+00 0.  1.
         23    2    1    0    0    0 -0.11272343537E+02 -0.25993555032E+02 -0.25742060791E+01  0.96550796691E+02  0.92264289802E+02 0.  0.
         13    1    3    3    0    0  0.12589463089E+02  0.29104418858E+02  0.13389552928E+02  0.34421694751E+02  0.10566000000E+00 0. -1.
         22    1    1    0    0    0  0.11272343537E+02  0.25993555032E+02  0.25742060791E+01  0.28449203309E+02  0.00000000000E+00 0.  1.
</event>
<event>
 5    1  0.1267616E-004  0.9118800E+02  0.7818608E-02  0.1130116E+00
         25   -1    0    0    0    0  0.00000000000E+00  0.00000000000E+00  0.99999998245E-14  0.12500000000E+03  0.12500000000E+03 0.  0.
        -13    1    3    3    0    0  0.19830834881E+02  0.24823485190E+02  0.12365934771E+02  0.34093913472E+02  0.10566000000E+00 0.  1.
         23    2    1    0    0    0  0.13562491487E+02 -0.22842300700E+02 -0.19738684198E+02  0.91904267186E+02  0.85738362456E+02 0.  0.
         13    1    3    3    0    0 -0.62683433932E+01 -0.47665785890E+02 -0.32104618969E+02  0.57810353714E+02  0.10566000000E+00 0. -1.
         22    1    1    0    0    0 -0.13562491487E+02  0.22842300700E+02  0.19738684198E+02  0.33095732814E+02  0.00000000000E+00 0. -1.
</event>
<event>
 5    1  0.1267616E-004  0.9118800E+02  0.7818608E-02  0.1130116E+00
         25   -1    0    0    0    0  0.00000000000E+00  0.00000000000E+00  0.99999998245E-14  0.12500000000E+03  0.12500000000E+03 0.  0.
        -13    1    3    3    0    0 -0.33215020212E+02  0.40524509301E+02 -0.71023548279E+01  0.52876535722E+02  0.10566000000E+00 0. -1.
         23    2    1    0    0    0  0.79970309896E+01  0.27274651211E+02 -0.42619618180E+01  0.96259376801E+02  0.91868624679E+02 0.  0.
         13    1    3    3    0    0  0.41212051202E+02 -0.13249858090E+02  0.28403930099E+01  0.43382841080E+02  0.10566000000E+00 0.  1.
         22    1    1    0    0    0 -0.79970309896E+01 -0.27274651211E+02  0.42619618180E+01  0.28740623199E+02  0.00000000000E+00 0. -1.
</event>
<event>
 5    1  0.1267616E-004  0.9118800E+02  0.7818608E-02  0.1130116E+00
         25   -1    0    0    0    0  0.00000000000E+00  0.00000000000E+00  0.99999998245E-14  0.12500000000E+03  0.12500000000E+03 0.  0.
        -13    1    3    3    0    0  0.40969537117E+02  0.19683540568E+02  0.77306158554E+01  0.46105512972E+02  0.10566000000E+00 0. -1.
         23    2    1    0    0    0  0.12932773313E+02 -0.84396760931E+01 -0.23674336594E+02  0.96734137705E+02  0.92512347426E+02 0.  0.
         13    1    3    3    0    0 -0.28036763804E+02 -0.28123216662E+02 -0.31404952449E+02  0.50628624733E+02  0.10566000000E+00 0.  1.
         22    1    1    0    0    0 -0.12932773313E+02  0.84396760931E+01  0.23674336594E+02  0.28265862295E+02  0.00000000000E+00 0.  1.
</event>
<event>
 5    1  0.1267616E-004  0.9118800E+02  0.7818608E-02  0.1130116E+00
         25   -1    0    0    0    0  0.00000000000E+00  0.00000000000E+00  0.99999998245E-14  0.12500000000E+03  0.12500000000E+03 0.  0.
        -13    1    3    3    0    0 -0.10360787349E+01  0.27417799737E+02  0.55017178412E+02  0.61479348452E+02  0.10566000000E+00 0. -1.
         23    2    1    0    0    0 -0.55999893761E+01  0.72726890133E+01  0.28290121909E+02  0.95258061864E+02  0.90495941710E+02 0.  0.
         13    1    3    3    0    0 -0.45639106413E+01 -0.20145110724E+02 -0.26727056503E+02  0.33778713412E+02  0.10566000000E+00 0.  1.
         22    1    1    0    0    0  0.55999893761E+01 -0.72726890133E+01 -0.28290121909E+02  0.29741938136E+02  0.00000000000E+00 0. -1.
</event>
<event>
 5    1  0.1267616E-004  0.9118800E+02  0.7818608E-02  0.1130116E+00
         25   -1    0    0    0    0  0.00000000000E+00  0.00000000000E+00  0.99999998245E-14  0.12500000000E+03  0.12500000000E+03 0.  0.
        -13    1    3    3    0    0 -0.13350510305E+02 -0.43273097292E+02 -0.25451065118E+02  0.51947713658E+02  0.10566000000E+00 0. -1.
         23    2    1    0    0    0 -0.26718344509E+02 -0.75899129654E+01 -0.10327814680E+01  0.97205335949E+02  0.93146840995E+02 0.  0.
         13    1    3    3    0    0 -0.13367834204E+02  0.35683184326E+02  0.24418283650E+02  0.45257622291E+02  0.10566000000E+00 0.  1.
         22    1    1    0    0    0  0.26718344509E+02  0.75899129654E+01  0.10327814680E+01  0.27794664051E+02  0.00000000000E+00 0.  1.
</event>
<event>
 5    1  0.1267616E-004  0.9118800E+02  0.7818608E-02  0.1130116E+00
         25   -1    0    0    0    0  0.00000000000E+00  0.00000000000E+00  0.99999998245E-14  0.12500000000E+03  0.12500000000E+03 0.  0.
        -13    1    3    3    0    0 -0.19742480247E+02 -0.30361432412E+01 -0.27994583223E+02  0.34390282725E+02  0.10566000000E+00 0.  1.
         23    2    1    0    0    0  0.19791191549E+02  0.40520111953E+01  0.19726904177E+02  0.96764192838E+02  0.92552948140E+02 0.  0.
         13    1    3    3    0    0  0.39533671796E+02  0.70881544366E+01  0.47721487400E+02  0.62373910113E+02  0.10566000000E+00 0. -1.
         22    1    1    0    0    0 -0.19791191549E+02 -0.40520111953E+01 -0.19726904177E+02  0.28235807162E+02  0.00000000000E+00 0. -1.
</event>
<event>
 5    1  0.1267616E-004  0.9118800E+02  0.7818608E-02  0.1130116E+00
         25   -1    0    0    0    0  0.00000000000E+00  0.00000000000E+00  0.99999998245E-14  0.12500000000E+03  0.12500000000E+03 0.  0.
        -13    1    3    3    0    0 -0.38590695841E+02  0.86865173163E+01 -0.10101158128E+02  0.40825751042E+02  0.10566000000E+00 0.  1.
         23    2    1    0    0    0  0.16791566096E+02  0.99039615447E+01 -0.19968299069E+02  0.97093403756E+02  0.92996510359E+02 0.  0.
         13    1    3    3    0    0  0.55382261936E+02  0.12174442285E+01 -0.98671409409E+01  0.56267652714E+02  0.10566000000E+00 0. -1.
         22    1    1    0    0    0 -0.16791566096E+02 -0.99039615447E+01  0.19968299069E+02  0.27906596244E+02  0.00000000000E+00 0. -1.
</event>
<event>
 5    1  0.1267616E-004  0.9118800E+02  0.7818608E-02  0.1130116E+00
         25   -1    0    0    0    0  0.00000000000E+00  0.00000000000E+00  0.99999998245E-14  0.12500000000E+03  0.12500000000E+03 0.  0.
        -13    1    3    3    0    0 -0.16167674665E+02  0.57972002800E+01 -0.41487263594E+02  0.44902176336E+02  0.10566000000E+00 0. -1.
         23    2    1    0    0    0 -0.11058408654E+02 -0.25706335390E+02 -0.29133707672E+00  0.97014486633E+02  0.92890374411E+02 0.  0.
         13    1    3    3    0    0  0.51092660111E+01 -0.31503535670E+02  0.41195926517E+02  0.52112310297E+02  0.10566000000E+00 0.  1.
         22    1    1    0    0    0  0.11058408654E+02  0.25706335390E+02  0.29133707672E+00  0.27985513367E+02  0.00000000000E+00 0. -1.
</event>
<event>
 5    1  0.1267616E-004  0.9118800E+02  0.7818608E-02  0.1130116E+00
         25   -1    0    0    0    0  0.00000000000E+00  0.00000000000E+00  0.99999998245E-14  0.12500000000E+03  0.12500000000E+03 0.  0.
        -13    1    3    3    0    0  0.26131912830E+02 -0.28239416811E+02 -0.30597536300E+02  0.49158538644E+02  0.10566000000E+00 0. -1.
         23    2    1    0    0    0  0.23393112969E+02  0.13857199596E+02 -0.11098254720E+02  0.95632824908E+02  0.91012121320E+02 0.  0.
         13    1    3    3    0    0 -0.27387998612E+01  0.42096616407E+02  0.19499281579E+02  0.46474286264E+02  0.10566000000E+00 0.  1.
         22    1    1    0    0    0 -0.23393112969E+02 -0.13857199596E+02  0.11098254720E+02  0.29367175092E+02  0.00000000000E+00 0. -1.
</event>
<event>
 5    1  0.1267616E-004  0.9118800E+02  0.7818608E-02  0.1130116E+00
         25   -1    0    0    0    0  0.00000000000E+00  0.00000000000E+00  0.99999998245E-14  0.12500000000E+03  0.12500000000E+03 0.  0.
        -13    1    3    3    0    0  0.20899060679E+02 -0.33624063816E+02  0.19000906823E+02  0.43913483452E+02  0.10566000000E+00 0. -1.
         23    2    1    0    0    0  0.22914827806E+02 -0.19701385360E+01 -0.20234868023E+02  0.94366347538E+02  0.89255738664E+02 0.  0.
         13    1    3    3    0    0  0.20157671274E+01  0.31653925280E+02 -0.39235774846E+02  0.50452864087E+02  0.10566000000E+00 0.  1.
         22    1    1    0    0    0 -0.22914827806E+02  0.19701385360E+01  0.20234868023E+02  0.30633652462E+02  0.00000000000E+00 0.  1.
</event>
<event>
 5    1  0.1267616E-004  0.9118800E+02  0.7818608E-02  0.1130116E+00
         25   -1    0    0    0    0  0.00000000000E+00  0.00000000000E+00  0.99999998245E-14  0.12500000000E+03  0.12500000000E+03 0.  0.
        -13    1    3    3    0    0 -0.31922513273E+02  0.53302611426E+02 -0.65608527703E+01  0.62476164988E+02  0.10566000000E+00 0.  1.
         23    2    1    0    0    0 -0.14755310706E+02  0.25158281558E+02 -0.18859649352E+01  0.95773040036E+02  0.91204495553E+02 0.  0.
         13    1    3    3    0    0  0.17167202567E+02 -0.28144329867E+02  0.46748878351E+01  0.33296875048E+02  0.10566000000E+00 0. -1.
         22    1    1    0    0    0  0.14755310706E+02 -0.25158281558E+02  0.18859649352E+01  0.29226959964E+02  0.00000000000E+00 0.  1.
</event>
<event>
 5    1  0.1267616E-004  0.9118800E+02  0.7818608E-02  0.1130116E+00
         25   -1    0    0    0    0  0.00000000000E+00  0.00000000000E+00  0.99999998245E-14  0.12500000000E+03  0.12500000000E+03 0.  0.
        -13    1    3    3    0    0 -0.92930303268E+01 -0.34570843773E+02  0.37332918625E+02  0.51722931364E+02  0.10566000000E+00 0.  1.
         23    2    1    0    0    0  0.21638648701E+02 -0.14110532774E+02  0.12988928693E+02  0.96085461764E+02  0.91631683609E+02 0.  0.
         13    1    3    3    0    0  0.30931679028E+02  0.20460310999E+02 -0.24343989931E+02  0.44362530400E+02  0.10566000000E+00 0. -1.
         22    1    1    0    0    0 -0.21638648701E+02  0.14110532774E+02 -0.12988928693E+02  0.28914538236E+02  0.00000000000E+00 0.  1.
</event>
<event>
 5    1  0.1267616E-004  0.9118800E+02  0.7818608E-02  0.1130116E+00
         25   -1    0    0    0    0  0.00000000000E+00  0.00000000000E+00  0.99999998245E-14  0.12500000000E+03  0.12500000000E+03 0.  0.
        -13    1    3    3    0    0 -0.81076040284E+01  0.34364984465E+02 -0.26052206984E+02  0.43879540256E+02  0.10566000000E+00 0. -1.
         23    2    1    0    0    0  0.12393222540E+02  0.19653853749E+02  0.18646065269E+02  0.95208362211E+02  0.90427266645E+02 0.  0.
         13    1    3    3    0    0  0.20500826569E+02 -0.14711130716E+02  0.44698272252E+02  0.51328821955E+02  0.10566000000E+00 0.  1.
         22    1    1    0    0    0 -0.12393222540E+02 -0.19653853749E+02 -0.18646065269E+02  0.29791637789E+02  0.00000000000E+00 0.  1.
</event>
<event>
 5    1  0.1267616E-004  0.9118800E+02  0.7818608E-02  0.1130116E+00
         25   -1    0    0    0    0  0.00000000000E+00  0.00000000000E+00  0.99999998245E-14  0.12500000000E+03  0.12500000000E+03 0.  0.
        -13    1    3    3    0    0  0.59003098772E+01  0.36372396171E+02  0.49188087420E+01  0.37174866555E+02  0.10566000000E+00 0. -1.
         23    2    1    0    0    0  0.61451639512E+01 -0.20060770032E+02  0.20444498611E+02  0.95705374935E+02  0.91111710190E+02 0.  0.
         13    1    3    3    0    0  0.24485407400E+00 -0.56433166203E+02  0.15525689869E+02  0.58530508380E+02  0.10566000000E+00 0.  1.
         22    1    1    0    0    0 -0.61451639512E+01  0.20060770032E+02 -0.20444498611E+02  0.29294625065E+02  0.00000000000E+00 0.  1.
</event>
<event>
 5    1  0.1267616E-004  0.9118800E+02  0.7818608E-02  0.1130116E+00
         25   -1    0    0    0    0  0.00000000000E+00  0.00000000000E+00  0.99999998245E-14  0.12500000000E+03  0.12500000000E+03 0.  0.
        -13    1    3    3    0    0  0.46403517199E+02 -0.19032837586E+02 -0.29684028366E+02  0.58281112026E+02  0.10566000000E+00 0.  1.
         23    2    1    0    0    0  0.14607705965E+02 -0.13178444479E+02 -0.28161017241E+02  0.90647425650E+02  0.83885972680E+02 0.  0.
         13    1    3    3    0    0 -0.31795811233E+02  0.58543931070E+01  0.15230111244E+01  0.32366313623E+02  0.10566000000E+00 0. -1.
         22    1    1    0    0    0 -0.14607705965E+02  0.13178444479E+02  0.28161017241E+02  0.34352574350E+02  0.00000000000E+00 0.  1.
</event>
<event>
 5    1  0.1267616E-004  0.9118800E+02  0.7818608E-02  0.1130116E+00
         25   -1    0    0    0    0  0.00000000000E+00  0.00000000000E+00  0.99999998245E-14  0.12500000000E+03  0.12500000000E+03 0.  0.
        -13    1    3    3    0    0 -0.22804429231E+01 -0.24355850197E+02 -0.47878265631E+02  0.53765670670E+02  0.10566000000E+00 0.  1.
         23    2    1    0    0    0 -0.47710762217E+01 -0.26624772282E+02 -0.41370478315E+01  0.97636578574E+02  0.93723767762E+02 0.  0.
         13    1    3    3    0    0 -0.24906332986E+01 -0.22689220852E+01  0.43741217800E+02  0.43870907904E+02  0.10566000000E+00 0. -1.
         22    1    1    0    0    0  0.47710762217E+01  0.26624772282E+02  0.41370478315E+01  0.27363421426E+02  0.00000000000E+00 0. -1.
</event>
<event>
 5    1  0.1267616E-004  0.9118800E+02  0.7818608E-02  0.1130116E+00
         25   -1    0    0    0    0  0.00000000000E+00  0.00000000000E+00  0.99999998245E-14  0.12500000000E+03  0.12500000000E+03 0.  0.
        -13    1    3    3    0    0 -0.66691287673E+01 -0.25453185214E+02  0.54448127343E+02  0.60472734775E+02  0.10566000000E+00 0.  1.
         23    2    1    0    0    0  0.79490328927E+01 -0.84000587603E+01  0.24495889100E+02  0.97911317974E+02  0.94089475997E+02 0.  0.
         13    1    3    3    0    0  0.14618161660E+02  0.17053126453E+02 -0.29952238242E+02  0.37438583199E+02  0.10566000000E+00 0. -1.
         22    1    1    0    0    0 -0.79490328927E+01  0.84000587603E+01 -0.24495889100E+02  0.27088682026E+02  0.00000000000E+00 0.  1.
</event>
<event>
 5    1  0.1267616E-004  0.9118800E+02  0.7818608E-02  0.1130116E+00
         25   -1    0    0    0    0  0.00000000000E+00  0.00000000000E+00  0.99999998245E-14  0.12500000000E+03  0.12500000000E+03 0.  0.
        -13    1    3    3    0    0 -0.92831322093E+01  0.35606208193E+02  0.76072215450E+01  0.37574720081E+02  0.10566000000E+00 0.  1.
         23    2    1    0    0    0  0.21075015368E+02  0.48469450807E+01 -0.25170063065E+02  0.91815949252E+02  0.85609504805E+02 0.  0.
         13    1    3    3    0    0  0.30358147577E+02 -0.30759263112E+02 -0.32777284610E+02  0.54241229171E+02  0.10566000000E+00 0. -1.
         22    1    1    0    0    0 -0.21075015368E+02 -0.48469450807E+01  0.25170063065E+02  0.33184050748E+02  0.00000000000E+00 0. -1.
</event>
<event>
 5    1  0.1267616E-004  0.9118800E+02  0.7818608E-02  0.1130116E+00
         25   -1    0    0    0    0  0.00000000000E+00  0.00000000000E+00  0.99999998245E-14  0.12500000000E+03  0.12500000000E+03 0.  0.
        -13    1    3    3    0    0 -0.56686275319E+02 -0.16134989717E+01  0.25384529620E+02  0.62131495206E+02  0.10566000000E+00 0. -1.
         23    2    1    0    0    0 -0.24403421832E+02  0.37986857759E+01  0.12613092318E+02  0.97268301376E+02  0.93231300238E+02 0.  0.
         13    1    3    3    0    0  0.32282853488E+02  0.54121847476E+01 -0.12771437301E+02  0.35136806170E+02  0.10566000000E+00 0.  1.
         22    1    1    0    0    0  0.24403421832E+02 -0.37986857759E+01 -0.12613092318E+02  0.27731698624E+02  0.00000000000E+00 0. -1.
</event>
<event>
 5    1  0.1267616E-004  0.9118800E+02  0.7818608E-02  0.1130116E+00
         25   -1    0    0    0    0  0.00000000000E+00  0.00000000000E+00  0.99999998245E-14  0.12500000000E+03  0.12500000000E+03 0.  0.
        -13    1    3    3    0    0  0.36082627906E+02  0.40989588323E+02 -0.15733273357E+02  0.56830004769E+02  0.10566000000E+00 0.  1.
         23    2    1    0    0    0  0.28240314553E+02  0.68017765369E+01  0.15053904806E+01  0.95913134741E+02  0.91396300172E+02 0.  0.
         13    1    3    3    0    0 -0.78423133533E+01 -0.34187811786E+02  0.17238663837E+02  0.39083129972E+02  0.10566000000E+00 0. -1.
         22    1    1    0    0    0 -0.28240314553E+02 -0.68017765369E+01 -0.15053904806E+01  0.29086865259E+02  0.00000000000E+00 0.  1.
</event>
<event>
 5    1  0.1267616E-004  0.9118800E+02  0.7818608E-02  0.1130116E+00
         25   -1    0    0    0    0  0.00000000000E+00  0.00000000000E+00  0.99999998245E-14  0.12500000000E+03  0.12500000000E+03 0.  0.
        -13    1    3    3    0    0 -0.50887948511E+02 -0.18416862368E+02  0.22512422659E+02  0.58613858951E+02  0.10566000000E+00 0.  1.
         23    2    1    0    0    0 -0.19957431413E+02 -0.18777255928E+02 -0.11719954354E+01  0.97572678183E+02  0.93638504610E+02 0.  0.
         13    1    3    3    0    0  0.30930517098E+02 -0.36039355954E+00 -0.23684418094E+02  0.38958819232E+02  0.10566000000E+00 0. -1.
         22    1    1    0    0    0  0.19957431413E+02  0.18777255928E+02  0.11719954354E+01  0.27427321817E+02  0.00000000000E+00 0.  1.
</event>
<event>
 5    1  0.1267616E-004  0.9118800E+02  0.7818608E-02  0.1130116E+00
         25   -1    0    0    0    0  0.00000000000E+00  0.00000000000E+00  0.99999998245E-14  0.12500000000E+03  0.12500000000E+03 0.  0.
        -13    1    3    3    0    0 -0.25257264320E+02  0.11901235920E+02  0.15795418973E+02  0.32079202638E+02  0.10566000000E+00 0. -1.
         23    2    1    0    0    0  0.30161695849E+02  0.13658458168E+02 -0.54255108570E+01  0.91448285527E+02  0.85070978493E+02 0.  0.
         13    1    3    3    0    0  0.55418960169E+02  0.17572222482E+01 -0.21220929830E+02  0.59369082889E+02  0.10566000000E+00 0.  1.
         22    1    1    0    0    0 -0.30161695849E+02 -0.13658458168E+02  0.54255108570E+01  0.33551714473E+02  0.00000000000E+00 0.  1.
</event>
<event>
 5    1  0.1267616E-004  0.9118800E+02  0.7818608E-02  0.1130116E+00
         25   -1    0    0    0    0  0.00000000000E+00  0.00000000000E+00  0.99999998245E-14  0.12500000000E+03  0.12500000000E+03 0.  0.
        -13    1    3    3    0    0  0.39778341071E+02  0.37450431669E+02  0.62418995905E+01  0.54989305552E+02  0.10566000000E+00 0.  1.
         23    2    1    0    0    0  0.11410010985E+01  0.27881964145E+02  0.10849532665E+02  0.95059756729E+02  0.90221611503E+02 0.  0.
         13    1    3    3    0    0 -0.38637339972E+02 -0.95684675238E+01  0.46076330744E+01  0.40070451176E+02  0.10566000000E+00 0. -1.
         22    1    1    0    0    0 -0.11410010985E+01 -0.27881964145E+02 -0.10849532665E+02  0.29940243271E+02  0.00000000000E+00 0.  1.
</event>
<event>
 5    1  0.1267616E-004  0.9118800E+02  0.7818608E-02  0.1130116E+00
         25   -1    0    0    0    0  0.00000000000E+00  0.00000000000E+00  0.99999998245E-14  0.12500000000E+03  0.12500000000E+03 0.  0.
        -13    1    3    3    0    0 -0.29075258771E+02 -0.17813850916E+02 -0.20360676874E+02  0.39714887433E+02  0.10566000000E+00 0. -1.
         23    2    1    0    0    0  0.37904392988E+01  0.23394110952E+02 -0.22298401296E+02  0.92459708704E+02  0.86544365362E+02 0.  0.
         13    1    3    3    0    0  0.32865698070E+02  0.41207961867E+02 -0.19377244222E+01  0.52744821270E+02  0.10566000000E+00 0.  1.
         22    1    1    0    0    0 -0.37904392988E+01 -0.23394110952E+02  0.22298401296E+02  0.32540291296E+02  0.00000000000E+00 0.  1.
</event>
<event>
 5    1  0.1267616E-004  0.9118800E+02  0.7818608E-02  0.1130116E+00
         25   -1    0    0    0    0  0.00000000000E+00  0.00000000000E+00  0.99999998245E-14  0.12500000000E+03  0.12500000000E+03 0.  0.
        -13    1    3    3    0    0  0.40152745692E+02  0.11799160470E+02  0.37462798384E+01  0.42017959863E+02  0.10566000000E+00 0. -1.
         23    2    1    0    0    0 -0.12421857458E+02  0.25633522560E+02  0.26338610960E+01  0.96393755125E+02  0.92051283431E+02 0.  0.
         13    1    3    3    0    0 -0.52574603150E+02  0.13834362090E+02 -0.11124187424E+01  0.54375795262E+02  0.10566000000E+00 0.  1.
         22    1    1    0    0    0  0.12421857458E+02 -0.25633522560E+02 -0.26338610960E+01  0.28606244875E+02  0.00000000000E+00 0.  1.
</event>
<event>
 5    1  0.1267616E-004  0.9118800E+02  0.7818608E-02  0.1130116E+00
         25   -1    0    0    0    0  0.00000000000E+00  0.00000000000E+00  0.99999998245E-14  0.12500000000E+03  0.12500000000E+03 0.  0.
        -13    1    3    3    0    0 -0.27210694963E+02  0.17688401863E+02 -0.48106649337E+01  0.32809375824E+02  0.10566000000E+00 0.  1.
         23    2    1    0    0    0  0.27779210568E+02 -0.10866136017E+02 -0.49011644795E+01  0.94771224554E+02  0.89820967143E+02 0.  0.
         13    1    3    3    0    0  0.54989905531E+02 -0.28554537880E+02 -0.90499545756E-01  0.61961848730E+02  0.10566000000E+00 0. -1.
         22    1    1    0    0    0 -0.27779210568E+02  0.10866136017E+02  0.49011644795E+01  0.30228775446E+02  0.00000000000E+00 0. -1.
</event>
<event>
 5    1  0.1267616E-004  0.9118800E+02  0.7818608E-02  0.1130116E+00
         25   -1    0    0    0    0  0.00000000000E+00  0.00000000000E+00  0.99999998245E-14  0.12500000000E+03  0.12500000000E+03 0.  0.
        -13    1    3    3    0    0 -0.49986995558E+02 -0.13132778698E+02  0.23568599851E+02  0.56803694107E+02  0.10566000000E+00 0. -1.
         23    2    1    0    0    0 -0.26604953261E+02  0.11489171891E+02  0.47242111585E+01  0.95637732038E+02  0.91018860736E+02 0.  0.
         13    1    3    3    0    0  0.23382042297E+02  0.24621950589E+02 -0.18844388692E+02  0.38834037931E+02  0.10566000000E+00 0.  1.
         22    1    1    0    0    0  0.26604953261E+02 -0.11489171891E+02 -0.47242111585E+01  0.29362267962E+02  0.00000000000E+00 0. -1.
</event>
<event>
 5    1  0.1267616E-004  0.9118800E+02  0.7818608E-02  0.1130116E+00
         25   -1    0    0    0    0  0.00000000000E+00  0.00000000000E+00  0.99999998245E-14  0.12500000000E+03  0.12500000000E+03 0.  0.
        -13    1    3    3    0    0  0.25580920459E+02 -0.29222742144E+02 -0.21551210379E+02  0.44416415690E+02  0.10566000000E+00 0. -1.
         23    2    1    0    0    0  0.62456837480E+01 -0.17766770355E+02  0.23573153186E+02  0.94827823323E+02  0.89899698724E+02 0.  0.
         13    1    3    3    0    0 -0.19335236711E+02  0.11455971789E+02  0.45124363565E+02  0.50411407632E+02  0.10566000000E+00 0.  1.
         22    1    1    0    0    0 -0.62456837480E+01  0.17766770355E+02 -0.23573153186E+02  0.30172176677E+02  0.00000000000E+00 0.  1.
</event>
<event>
 5    1  0.1267616E-004  0.9118800E+02  0.7818608E-02  0.1130116E+00
         25   -1    0    0    0    0  0.00000000000E+00  0.00000000000E+00  0.99999998245E-14  0.12500000000E+03  0.12500000000E+03 0.  0.
        -13    1    3    3    0    0  0.39342501970E+01  0.40137639570E+02  0.34839912432E+02  0.53294831806E+02  0.10566000000E+00 0.  1.
         23    2    1    0    0    0 -0.38747695136E+01 -0.24632424035E+01  0.27372996759E+02  0.97244597761E+02  0.93199514163E+02 0.  0.
         13    1    3    3    0    0 -0.78090197107E+01 -0.42600881974E+02 -0.74669156733E+01  0.43949765955E+02  0.10566000000E+00 0. -1.
         22    1    1    0    0    0  0.38747695136E+01  0.24632424035E+01 -0.27372996759E+02  0.27755402239E+02  0.00000000000E+00 0.  1.
</event>
<event>
 5    1  0.1267616E-004  0.9118800E+02  0.7818608E-02  0.1130116E+00
         25   -1    0    0    0    0  0.00000000000E+00  0.00000000000E+00  0.99999998245E-14  0.12500000000E+03  0.12500000000E+03 0.  0.
        -13    1    3    3    0    0  0.68810717888E+01 -0.51137996002E+01  0.31394176365E+02  0.32543902179E+02  0.10566000000E+00 0. -1.
         23    2    1    0    0    0 -0.48973007010E+01  0.93827839272E+01 -0.28137835548E+02  0.94937432284E+02  0.90051974275E+02 0.  0.
         13    1    3    3    0    0 -0.11778372490E+02  0.14496583527E+02 -0.59532011913E+02  0.62393530105E+02  0.10566000000E+00 0.  1.
         22    1    1    0    0    0  0.48973007010E+01 -0.93827839272E+01  0.28137835548E+02  0.30062567716E+02  0.00000000000E+00 0.  1.
</event>
<event>
 5    1  0.1267616E-004  0.9118800E+02  0.7818608E-02  0.1130116E+00
         25   -1    0    0    0    0  0.00000000000E+00  0.00000000000E+00  0.99999998245E-14  0.12500000000E+03  0.12500000000E+03 0.  0.
        -13    1    3    3    0    0 -0.13961778853E+02  0.34879710099E+02  0.49349880193E+02  0.62023763869E+02  0.10566000000E+00 0. -1.
         23    2    1    0    0    0 -0.69762895930E+01  0.11434825033E+02  0.25535098403E+02  0.96164863613E+02  0.91739936251E+02 0.  0.
         13    1    3    3    0    0  0.69854892602E+01 -0.23444885067E+02 -0.23814781790E+02  0.34141099744E+02  0.10566000000E+00 0.  1.
         22    1    1    0    0    0  0.69762895930E+01 -0.11434825033E+02 -0.25535098403E+02  0.28835136387E+02  0.00000000000E+00 0. -1.
</event>
<event>
 5    1  0.1267616E-004  0.9118800E+02  0.7818608E-02  0.1130116E+00
         25   -1    0    0    0    0  0.00000000000E+00  0.00000000000E+00  0.99999998245E-14  0.12500000000E+03  0.12500000000E+03 0.  0.
        -13    1    3    3    0    0  0.20727245731E+02 -0.27772470180E+01  0.37972796979E+02  0.43350620423E+02  0.10566000000E+00 0. -1.
         23    2    1    0    0    0 -0.21537732268E+02  0.15119219808E+02  0.15567965278E+02  0.94425071353E+02  0.89337941761E+02 0.  0.
         13    1    3    3    0    0 -0.42264978000E+02  0.17896466826E+02 -0.22404831701E+02  0.51074450930E+02  0.10566000000E+00 0.  1.
         22    1    1    0    0    0  0.21537732268E+02 -0.15119219808E+02 -0.15567965278E+02  0.30574928647E+02  0.00000000000E+00 0.  1.
</event>
<event>
 5    1  0.1267616E-004  0.9118800E+02  0.7818608E-02  0.1130116E+00
         25   -1    0    0    0    0  0.00000000000E+00  0.00000000000E+00  0.99999998245E-14  0.12500000000E+03  0.12500000000E+03 0.  0.
        -13    1    3    3    0    0 -0.17044356550E+02  0.19949611639E+01 -0.57271604834E+02  0.59787438853E+02  0.10566000000E+00 0. -1.
         23    2    1    0    0    0 -0.71650273116E+01 -0.12047169044E+02 -0.25509049398E+02  0.95893583189E+02  0.91369556184E+02 0.  0.
         13    1    3    3    0    0  0.98793292387E+01 -0.14042130208E+02  0.31762555436E+02  0.36106144337E+02  0.10566000000E+00 0.  1.
         22    1    1    0    0    0  0.71650273116E+01  0.12047169044E+02  0.25509049398E+02  0.29106416811E+02  0.00000000000E+00 0. -1.
</event>
<event>
 5    1  0.1267616E-004  0.9118800E+02  0.7818608E-02  0.1130116E+00
         25   -1    0    0    0    0  0.00000000000E+00  0.00000000000E+00  0.99999998245E-14  0.12500000000E+03  0.12500000000E+03 0.  0.
        -13    1    3    3    0    0  0.93775350105E+01 -0.48705969218E+02 -0.30333309070E+02  0.58140608902E+02  0.10566000000E+00 0.  1.
         23    2    1    0    0    0  0.14183669601E+02 -0.25695886327E+02 -0.11322552766E+01  0.95627613997E+02  0.91004964146E+02 0.  0.
         13    1    3    3    0    0  0.48061345906E+01  0.23010082891E+02  0.29201053793E+02  0.37487005095E+02  0.10566000000E+00 0. -1.
         22    1    1    0    0    0 -0.14183669601E+02  0.25695886327E+02  0.11322552766E+01  0.29372386003E+02  0.00000000000E+00 0.  1.
</event>
<event>
 5    1  0.1267616E-004  0.9118800E+02  0.7818608E-02  0.1130116E+00
         25   -1    0    0    0    0  0.00000000000E+00  0.00000000000E+00  0.99999998245E-14  0.12500000000E+03  0.12500000000E+03 0.  0.
        -13    1    3    3    0    0  0.42660518853E+01  0.20903951798E+02  0.54193603982E+02  0.58242014698E+02  0.10566000000E+00 0.  1.
         23    2    1    0    0    0  0.12029596436E+02 -0.34124502751E+01  0.25180803132E+02  0.96885433425E+02  0.92716548449E+02 0.  0.
         13    1    3    3    0    0  0.77635445502E+01 -0.24316402073E+02 -0.29012800850E+02  0.38643418727E+02  0.10566000000E+00 0. -1.
         22    1    1    0    0    0 -0.12029596436E+02  0.34124502751E+01 -0.25180803132E+02  0.28114566575E+02  0.00000000000E+00 0.  1.
</event>
<event>
 5    1  0.1267616E-004  0.9118800E+02  0.7818608E-02  0.1130116E+00
         25   -1    0    0    0    0  0.00000000000E+00  0.00000000000E+00  0.99999998245E-14  0.12500000000E+03  0.12500000000E+03 0.  0.
        -13    1    3    3    0    0 -0.44385001877E+02 -0.43306045574E+02  0.44151367828E+01  0.62168694467E+02  0.10566000000E+00 0.  1.
         23    2    1    0    0    0 -0.20202841504E+02 -0.17016858744E+02 -0.21926235615E+01  0.98494606503E+02  0.94861222982E+02 0.  0.
         13    1    3    3    0    0  0.24182160373E+02  0.26289186829E+02 -0.66077603443E+01  0.36325912036E+02  0.10566000000E+00 0. -1.
         22    1    1    0    0    0  0.20202841504E+02  0.17016858744E+02  0.21926235615E+01  0.26505393497E+02  0.00000000000E+00 0.  1.
</event>
<event>
 5    1  0.1267616E-004  0.9118800E+02  0.7818608E-02  0.1130116E+00
         25   -1    0    0    0    0  0.00000000000E+00  0.00000000000E+00  0.99999998245E-14  0.12500000000E+03  0.12500000000E+03 0.  0.
        -13    1    3    3    0    0 -0.32122097018E+02  0.64144896146E+01  0.48534411821E+02  0.58554035631E+02  0.10566000000E+00 0.  1.
         23    2    1    0    0    0 -0.24287095865E+02 -0.64733582657E+01  0.14022051889E+02  0.96218316034E+02  0.91812738813E+02 0.  0.
         13    1    3    3    0    0  0.78350011531E+01 -0.12887847880E+02 -0.34512359933E+02  0.37664280402E+02  0.10566000000E+00 0. -1.
         22    1    1    0    0    0  0.24287095865E+02  0.64733582657E+01 -0.14022051889E+02  0.28781683966E+02  0.00000000000E+00 0.  1.
</event>
<event>
 5    1  0.1267616E-004  0.9118800E+02  0.7818608E-02  0.1130116E+00
         25   -1    0    0    0    0  0.00000000000E+00  0.00000000000E+00  0.99999998245E-14  0.12500000000E+03  0.12500000000E+03 0.  0.
        -13    1    3    3    0    0 -0.24685743257E+01 -0.14747458326E+02  0.53628394790E+02  0.55674026961E+02  0.10566000000E+00 0.  1.
         23    2    1    0    0    0 -0.20468823579E+02  0.24564444575E+00  0.23617625590E+02  0.93745795188E+02  0.88382400947E+02 0.  0.
         13    1    3    3    0    0 -0.18000249253E+02  0.14993102772E+02 -0.30010769200E+02  0.38071768227E+02  0.10566000000E+00 0. -1.
         22    1    1    0    0    0  0.20468823579E+02 -0.24564444575E+00 -0.23617625590E+02  0.31254204812E+02  0.00000000000E+00 0.  1.
</event>
<event>
 5    1  0.1267616E-004  0.9118800E+02  0.7818608E-02  0.1130116E+00
         25   -1    0    0    0    0  0.00000000000E+00  0.00000000000E+00  0.99999998245E-14  0.12500000000E+03  0.12500000000E+03 0.  0.
        -13    1    3    3    0    0 -0.33766253312E+02  0.19796588874E+02  0.11692802244E+02  0.40850918987E+02  0.10566000000E+00 0. -1.
         23    2    1    0    0    0  0.18037838556E+02  0.22644215160E+02 -0.55477627411E+01  0.95522860190E+02  0.90860965477E+02 0.  0.
         13    1    3    3    0    0  0.51804091868E+02  0.28476262855E+01 -0.17240564985E+02  0.54671941202E+02  0.10566000000E+00 0.  1.
         22    1    1    0    0    0 -0.18037838556E+02 -0.22644215160E+02  0.55477627411E+01  0.29477139810E+02  0.00000000000E+00 0.  1.
</event>
<event>
 5    1  0.1267616E-004  0.9118800E+02  0.7818608E-02  0.1130116E+00
         25   -1    0    0    0    0  0.00000000000E+00  0.00000000000E+00  0.99999998245E-14  0.12500000000E+03  0.12500000000E+03 0.  0.
        -13    1    3    3    0    0 -0.47210506488E+01 -0.35721591588E+02  0.19620314584E+01  0.36085747274E+02  0.10566000000E+00 0.  1.
         23    2    1    0    0    0  0.17343763331E+02  0.16171473943E+02 -0.17269918203E+02  0.95664479369E+02  0.91055586551E+02 0.  0.
         13    1    3    3    0    0  0.22064813980E+02  0.51893065531E+02 -0.19231949662E+02  0.59578732095E+02  0.10566000000E+00 0. -1.
         22    1    1    0    0    0 -0.17343763331E+02 -0.16171473943E+02  0.17269918203E+02  0.29335520631E+02  0.00000000000E+00 0. -1.
</event>
<event>
 5    1  0.1267616E-004  0.9118800E+02  0.7818608E-02  0.1130116E+00
         25   -1    0    0    0    0  0.00000000000E+00  0.00000000000E+00  0.99999998245E-14  0.12500000000E+03  0.12500000000E+03 0.  0.
        -13    1    3    3    0    0 -0.39590607079E+02  0.42241102183E+02  0.22860962685E+02  0.62244370520E+02  0.10566000000E+00 0. -1.
         23    2    1    0    0    0 -0.20688358976E+02  0.18571966779E+02  0.75151828580E+01  0.96200622914E+02  0.91788647056E+02 0.  0.
         13    1    3    3    0    0  0.18902248102E+02 -0.23669135404E+02 -0.15345779827E+02  0.33956252394E+02  0.10566000000E+00 0.  1.
         22    1    1    0    0    0  0.20688358976E+02 -0.18571966779E+02 -0.75151828580E+01  0.28799377086E+02  0.00000000000E+00 0. -1.
</event>
<event>
 5    1  0.1267616E-004  0.9118800E+02  0.7818608E-02  0.1130116E+00
         25   -1    0    0    0    0  0.00000000000E+00  0.00000000000E+00  0.99999998245E-14  0.12500000000E+03  0.12500000000E+03 0.  0.
        -13    1    3    3    0    0 -0.46507575723E+02 -0.29257509553E+02  0.22000939657E+02  0.59186222845E+02  0.10566000000E+00 0. -1.
         23    2    1    0    0    0 -0.11264832890E+02 -0.19760403956E+02  0.18171943670E+02  0.95886608557E+02  0.91360013897E+02 0.  0.
         13    1    3    3    0    0  0.35242742833E+02  0.94971055968E+01 -0.38289959863E+01  0.36700385712E+02  0.10566000000E+00 0.  1.
         22    1    1    0    0    0  0.11264832890E+02  0.19760403956E+02 -0.18171943670E+02  0.29113391443E+02  0.00000000000E+00 0. -1.
</event>
<event>
 5    1  0.1267616E-004  0.9118800E+02  0.7818608E-02  0.1130116E+00
         25   -1    0    0    0    0  0.00000000000E+00  0.00000000000E+00  0.99999998245E-14  0.12500000000E+03  0.12500000000E+03 0.  0.
        -13    1    3    3    0    0  0.46696206244E+02  0.25559981768E+02  0.28940745556E+02  0.60592295409E+02  0.10566000000E+00 0. -1.
         23    2    1    0    0    0  0.13921633458E+02  0.16630059856E+02  0.19463290699E+02  0.95859127435E+02  0.91322406116E+02 0.  0.
         13    1    3    3    0    0 -0.32774572786E+02 -0.89299219116E+01 -0.94774548563E+01  0.35266832027E+02  0.10566000000E+00 0.  1.
         22    1    1    0    0    0 -0.13921633458E+02 -0.16630059856E+02 -0.19463290699E+02  0.29140872565E+02  0.00000000000E+00 0. -1.
</event>
<event>
 5    1  0.1267616E-004  0.9118800E+02  0.7818608E-02  0.1130116E+00
         25   -1    0    0    0    0  0.00000000000E+00  0.00000000000E+00  0.99999998245E-14  0.12500000000E+03  0.12500000000E+03 0.  0.
        -13    1    3    3    0    0  0.27558913708E+02 -0.28558139108E+02 -0.11266760727E+02  0.41255449281E+02  0.10566000000E+00 0.  1.
         23    2    1    0    0    0  0.17664264584E+02  0.22312778680E+02  0.60673207670E+01  0.95901912141E+02  0.91380950068E+02 0.  0.
         13    1    3    3    0    0 -0.98946491235E+01  0.50870917788E+02  0.17334081494E+02  0.54646462860E+02  0.10566000000E+00 0. -1.
         22    1    1    0    0    0 -0.17664264584E+02 -0.22312778680E+02 -0.60673207670E+01  0.29098087859E+02  0.00000000000E+00 0. -1.
</event>
<event>
 5    1  0.1267616E-004  0.9118800E+02  0.7818608E-02  0.1130116E+00
         25   -1    0    0    0    0  0.00000000000E+00  0.00000000000E+00  0.99999998245E-14  0.12500000000E+03  0.12500000000E+03 0.  0.
        -13    1    3    3    0    0 -0.42086762544E+02 -0.46932030694E+01 -0.55301783933E+01  0.42707326931E+02  0.10566000000E+00 0.  1.
         23    2    1    0    0    0  0.11412292266E+01 -0.22916668748E+02  0.18601109659E+02  0.95462271733E+02  0.90777573955E+02 0.  0.
         13    1    3    3    0    0  0.43227991771E+02 -0.18223465679E+02  0.24131288052E+02  0.52754944801E+02  0.10566000000E+00 0. -1.
         22    1    1    0    0    0 -0.11412292266E+01  0.22916668748E+02 -0.18601109659E+02  0.29537728267E+02  0.00000000000E+00 0. -1.
</event>
<event>
 5    1  0.1267616E-004  0.9118800E+02  0.7818608E-02  0.1130116E+00
         25   -1    0    0    0    0  0.00000000000E+00  0.00000000000E+00  0.99999998245E-14  0.12500000000E+03  0.12500000000E+03 0.  0.
        -13    1    3    3    0    0  0.34485617523E+02  0.95481604052E+01 -0.24899534302E+02  0.43593843093E+02  0.10566000000E+00 0.  1.
         23    2    1    0    0    0  0.16112745836E+02  0.12294715462E+02  0.22627508024E+02  0.94622628059E+02  0.89613933150E+02 0.  0.
         13    1    3    3    0    0 -0.18372871688E+02  0.27465550573E+01  0.47527042327E+02  0.51028784966E+02  0.10566000000E+00 0. -1.
         22    1    1    0    0    0 -0.16112745836E+02 -0.12294715462E+02 -0.22627508024E+02  0.30377371941E+02  0.00000000000E+00 0. -1.
</event>
<event>
 5    1  0.1267616E-004  0.9118800E+02  0.7818608E-02  0.1130116E+00
         25   -1    0    0    0    0  0.00000000000E+00  0.00000000000E+00  0.99999998245E-14  0.12500000000E+03  0.12500000000E+03 0.  0.
        -13    1    3    3    0    0 -0.17277057726E+02  0.29843632641E+02  0.62678695258E+01  0.35049058266E+02  0.10566000000E+00 0.  1.
         23    2    1    0    0    0 -0.62323578398E+01 -0.27912442590E+02 -0.74815436947E+01  0.95437858135E+02  0.90743950398E+02 0.  0.
         13    1    3    3    0    0  0.11044699886E+02 -0.57756075231E+02 -0.13749413220E+02  0.60388799869E+02  0.10566000000E+00 0. -1.
         22    1    1    0    0    0  0.62323578398E+01  0.27912442590E+02  0.74815436947E+01  0.29562141865E+02  0.00000000000E+00 0. -1.
</event>
<event>
 5    1  0.1267616E-004  0.9118800E+02  0.7818608E-02  0.1130116E+00
         25   -1    0    0    0    0  0.00000000000E+00  0.00000000000E+00  0.99999998245E-14  0.12500000000E+03  0.12500000000E+03 0.  0.
        -13    1    3    3    0    0 -0.25979003233E+02  0.59037710760E+01 -0.50356116540E+02  0.56969401953E+02  0.10566000000E+00 0. -1.
         23    2    1    0    0    0 -0.11511115454E+02 -0.15866852839E+02 -0.21746637416E+02  0.95722379931E+02  0.91135037076E+02 0.  0.
         13    1    3    3    0    0  0.14467887778E+02 -0.21770623915E+02  0.28609479124E+02  0.38752977978E+02  0.10566000000E+00 0.  1.
         22    1    1    0    0    0  0.11511115454E+02  0.15866852839E+02  0.21746637416E+02  0.29277620069E+02  0.00000000000E+00 0. -1.
</event>
<event>
 5    1  0.1267616E-004  0.9118800E+02  0.7818608E-02  0.1130116E+00
         25   -1    0    0    0    0  0.00000000000E+00  0.00000000000E+00  0.99999998245E-14  0.12500000000E+03  0.12500000000E+03 0.  0.
        -13    1    3    3    0    0  0.14103404533E+02 -0.29659381030E+02  0.48615839584E+02  0.58669378086E+02  0.10566000000E+00 0.  1.
         23    2    1    0    0    0  0.60247016862E+01 -0.23368559770E+02  0.95641899559E+01  0.99041179811E+02  0.95578736927E+02 0.  0.
         13    1    3    3    0    0 -0.80787028466E+01  0.62908212608E+01 -0.39051649628E+02  0.40371801725E+02  0.10566000000E+00 0. -1.
         22    1    1    0    0    0 -0.60247016862E+01  0.23368559770E+02 -0.95641899559E+01  0.25958820189E+02  0.00000000000E+00 0.  1.
</event>
<event>
 5    1  0.1267616E-004  0.9118800E+02  0.7818608E-02  0.1130116E+00
         25   -1    0    0    0    0  0.00000000000E+00  0.00000000000E+00  0.99999998245E-14  0.12500000000E+03  0.12500000000E+03 0.  0.
        -13    1    3    3    0    0  0.14592478418E+02  0.28891187781E+02 -0.34610323691E+02  0.47386990069E+02  0.10566000000E+00 0. -1.
         23    2    1    0    0    0  0.23108282881E+02  0.13393296585E+02  0.10854310865E+02  0.96169648017E+02  0.91746454995E+02 0.  0.
         13    1    3    3    0    0  0.85158044630E+01 -0.15497891196E+02  0.45464634556E+02  0.48782657948E+02  0.10566000000E+00 0.  1.
         22    1    1    0    0    0 -0.23108282881E+02 -0.13393296585E+02 -0.10854310865E+02  0.28830351983E+02  0.00000000000E+00 0. -1.
</event>
<event>
 5    1  0.1267616E-004  0.9118800E+02  0.7818608E-02  0.1130116E+00
         25   -1    0    0    0    0  0.00000000000E+00  0.00000000000E+00  0.99999998245E-14  0.12500000000E+03  0.12500000000E+03 0.  0.
        -13    1    3    3    0    0 -0.18004777166E+02  0.18552874502E+02  0.31704001628E+02  0.40908874787E+02  0.10566000000E+00 0.  1.
         23    2    1    0    0    0  0.26744816833E+02 -0.49834191195E+01  0.88917232619E+01  0.96378636718E+02  0.92030751271E+02 0.  0.
         13    1    3    3    0    0  0.44749593999E+02 -0.23536293621E+02 -0.22812278366E+02  0.55469761932E+02  0.10566000000E+00 0. -1.
         22    1    1    0    0    0 -0.26744816833E+02  0.49834191195E+01 -0.88917232619E+01  0.28621363282E+02  0.00000000000E+00 0. -1.
</event>
<event>
 5    1  0.1267616E-004  0.9118800E+02  0.7818608E-02  0.1130116E+00
         25   -1    0    0    0    0  0.00000000000E+00  0.00000000000E+00  0.99999998245E-14  0.12500000000E+03  0.12500000000E+03 0.  0.
        -13    1    3    3    0    0 -0.16544944936E+02 -0.31133180004E+01  0.29355680805E+02  0.33840731545E+02  0.10566000000E+00 0. -1.
         23    2    1    0    0    0  0.82958650411E+00  0.93334389361E+01 -0.28225072713E+02  0.95260194591E+02  0.90498887549E+02 0.  0.
         13    1    3    3    0    0  0.17374531441E+02  0.12446756936E+02 -0.57580753518E+02  0.61419463045E+02  0.10566000000E+00 0.  1.
         22    1    1    0    0    0 -0.82958650411E+00 -0.93334389361E+01  0.28225072713E+02  0.29739805409E+02  0.00000000000E+00 0.  1.
</event>
<event>
 5    1  0.1267616E-004  0.9118800E+02  0.7818608E-02  0.1130116E+00
         25   -1    0    0    0    0  0.00000000000E+00  0.00000000000E+00  0.99999998245E-14  0.12500000000E+03  0.12500000000E+03 0.  0.
        -13    1    3    3    0    0 -0.39950614483E+02  0.33140171395E+01 -0.57077446047E+01  0.40492268641E+02  0.10566000000E+00 0.  1.
         23    2    1    0    0    0  0.78297182315E+01 -0.15355408785E+02  0.20597580109E+02  0.98141977495E+02  0.94395415004E+02 0.  0.
         13    1    3    3    0    0  0.47780332714E+02 -0.18669425925E+02  0.26305324713E+02  0.57649708854E+02  0.10566000000E+00 0. -1.
         22    1    1    0    0    0 -0.78297182315E+01  0.15355408785E+02 -0.20597580109E+02  0.26858022505E+02  0.00000000000E+00 0. -1.
</event>
<event>
 5    1  0.1267616E-004  0.9118800E+02  0.7818608E-02  0.1130116E+00
         25   -1    0    0    0    0  0.00000000000E+00  0.00000000000E+00  0.99999998245E-14  0.12500000000E+03  0.12500000000E+03 0.  0.
        -13    1    3    3    0    0  0.33438509868E+02  0.50531426113E+01 -0.65006081831E+01  0.34437439847E+02  0.10566000000E+00 0.  1.
         23    2    1    0    0    0 -0.25031352916E+02 -0.14189978841E+02 -0.19931667665E+01  0.96157378031E+02  0.91729736224E+02 0.  0.
         13    1    3    3    0    0 -0.58469862784E+02 -0.19243121452E+02  0.45074414167E+01  0.61719938183E+02  0.10566000000E+00 0. -1.
         22    1    1    0    0    0  0.25031352916E+02  0.14189978841E+02  0.19931667665E+01  0.28842621969E+02  0.00000000000E+00 0. -1.
</event>
<event>
 5    1  0.1267616E-004  0.9118800E+02  0.7818608E-02  0.1130116E+00
         25   -1    0    0    0    0  0.00000000000E+00  0.00000000000E+00  0.99999998245E-14  0.12500000000E+03  0.12500000000E+03 0.  0.
        -13    1    3    3    0    0  0.56362354270E+01 -0.55960875849E+02 -0.94029042044E+00  0.56251951838E+02  0.10566000000E+00 0.  1.
         23    2    1    0    0    0 -0.17079969874E+02 -0.23591251871E+02  0.11471998187E+01  0.95852296777E+02  0.91313055990E+02 0.  0.
         13    1    3    3    0    0 -0.22716205301E+02  0.32369623977E+02  0.20874902391E+01  0.39600344939E+02  0.10566000000E+00 0. -1.
         22    1    1    0    0    0  0.17079969874E+02  0.23591251871E+02 -0.11471998187E+01  0.29147703223E+02  0.00000000000E+00 0.  1.
</event>
<event>
 5    1  0.1267616E-004  0.9118800E+02  0.7818608E-02  0.1130116E+00
         25   -1    0    0    0    0  0.00000000000E+00  0.00000000000E+00  0.99999998245E-14  0.12500000000E+03  0.12500000000E+03 0.  0.
        -13    1    3    3    0    0  0.10251297398E+02 -0.59640614189E+02 -0.15149079350E+02  0.62382671699E+02  0.10566000000E+00 0. -1.
         23    2    1    0    0    0  0.33113148123E+01 -0.16867264765E+02 -0.68118585998E+01  0.10651025030E+03  0.10489310070E+03 0.  0.
         13    1    3    3    0    0 -0.69399825853E+01  0.42773349423E+02  0.83372207500E+01  0.44127578599E+02  0.10566000000E+00 0.  1.
         22    1    1    0    0    0 -0.33113148123E+01  0.16867264765E+02  0.68118585998E+01  0.18489749702E+02  0.00000000000E+00 0. -1.
</event>
<event>
 5    1  0.1267616E-004  0.9118800E+02  0.7818608E-02  0.1130116E+00
         25   -1    0    0    0    0  0.00000000000E+00  0.00000000000E+00  0.99999998245E-14  0.12500000000E+03  0.12500000000E+03 0.  0.
        -13    1    3    3    0    0 -0.42944836403E+01 -0.29276618811E+02  0.30301368159E+02  0.42352651335E+02  0.10566000000E+00 0.  1.
         23    2    1    0    0    0 -0.27878709757E+02  0.61077834646E+01 -0.29144502571E+01  0.96311648760E+02  0.91939720415E+02 0.  0.
         13    1    3    3    0    0 -0.23584226117E+02  0.35384402276E+02 -0.33215818416E+02  0.53958997425E+02  0.10566000000E+00 0. -1.
         22    1    1    0    0    0  0.27878709757E+02 -0.61077834646E+01  0.29144502571E+01  0.28688351240E+02  0.00000000000E+00 0. -1.
</event>
<event>
 5    1  0.1267616E-004  0.9118800E+02  0.7818608E-02  0.1130116E+00
         25   -1    0    0    0    0  0.00000000000E+00  0.00000000000E+00  0.99999998245E-14  0.12500000000E+03  0.12500000000E+03 0.  0.
        -13    1    3    3    0    0 -0.39809682353E+02  0.59281944930E+01  0.38573198303E+02  0.55748157730E+02  0.10566000000E+00 0.  1.
         23    2    1    0    0    0 -0.16602539827E+02  0.21290065439E+02  0.85651251919E+01  0.96675583242E+02  0.92433196475E+02 0.  0.
         13    1    3    3    0    0  0.23207142526E+02  0.15361870946E+02 -0.30008073111E+02  0.40927425512E+02  0.10566000000E+00 0. -1.
         22    1    1    0    0    0  0.16602539827E+02 -0.21290065439E+02 -0.85651251919E+01  0.28324416758E+02  0.00000000000E+00 0.  1.
</event>
<event>
 5    1  0.1267616E-004  0.9118800E+02  0.7818608E-02  0.1130116E+00
         25   -1    0    0    0    0  0.00000000000E+00  0.00000000000E+00  0.99999998245E-14  0.12500000000E+03  0.12500000000E+03 0.  0.
        -13    1    3    3    0    0  0.32597066671E+02 -0.40688200890E+02  0.93912686448E+01  0.52974574448E+02  0.10566000000E+00 0.  1.
         23    2    1    0    0    0  0.34502347185E+02 -0.44375523896E+01  0.80179603304E+01  0.89301379294E+02  0.81855634036E+02 0.  0.
         13    1    3    3    0    0  0.19052805138E+01  0.36250648500E+02 -0.13733083144E+01  0.36326804845E+02  0.10566000000E+00 0. -1.
         22    1    1    0    0    0 -0.34502347185E+02  0.44375523896E+01 -0.80179603304E+01  0.35698620706E+02  0.00000000000E+00 0.  1.
</event>
<event>
 5    1  0.1267616E-004  0.9118800E+02  0.7818608E-02  0.1130116E+00
         25   -1    0    0    0    0  0.00000000000E+00  0.00000000000E+00  0.99999998245E-14  0.12500000000E+03  0.12500000000E+03 0.  0.
        -13    1    3    3    0    0  0.42013492599E+02 -0.22205525215E+01  0.35650887978E+01  0.42223043898E+02  0.10566000000E+00 0.  1.
         23    2    1    0    0    0 -0.50862451787E+01  0.25278830488E+02 -0.80520837903E+01  0.97986573445E+02  0.94189401534E+02 0.  0.
         13    1    3    3    0    0 -0.47099737777E+02  0.27499383010E+02 -0.11617172588E+02  0.55763529547E+02  0.10566000000E+00 0. -1.
         22    1    1    0    0    0  0.50862451787E+01 -0.25278830488E+02  0.80520837903E+01  0.27013426555E+02  0.00000000000E+00 0. -1.
</event>
<event>
 5    1  0.1267616E-004  0.9118800E+02  0.7818608E-02  0.1130116E+00
         25   -1    0    0    0    0  0.00000000000E+00  0.00000000000E+00  0.99999998245E-14  0.12500000000E+03  0.12500000000E+03 0.  0.
        -13    1    3    3    0    0  0.48009282406E+02 -0.23579585569E+02 -0.22997893285E+02  0.58222008831E+02  0.10566000000E+00 0. -1.
         23    2    1    0    0    0  0.91705261658E+01 -0.13573938197E+02  0.58273561706E+01  0.10761298104E+03  0.10619908314E+03 0.  0.
         13    1    3    3    0    0 -0.38838756240E+02  0.10005647373E+02  0.28825249456E+02  0.49390972210E+02  0.10566000000E+00 0.  1.
         22    1    1    0    0    0 -0.91705261658E+01  0.13573938197E+02 -0.58273561706E+01  0.17387018958E+02  0.00000000000E+00 0. -1.
</event>
<event>
 5    1  0.1267616E-004  0.9118800E+02  0.7818608E-02  0.1130116E+00
         25   -1    0    0    0    0  0.00000000000E+00  0.00000000000E+00  0.99999998245E-14  0.12500000000E+03  0.12500000000E+03 0.  0.
        -13    1    3    3    0    0 -0.10015738852E+02  0.20665223506E+02  0.23724847457E+02  0.33018873969E+02  0.10566000000E+00 0.  1.
         23    2    1    0    0    0  0.56899029058E+01 -0.32720102104E+02  0.82040541690E+01  0.90790548359E+02  0.84098971990E+02 0.  0.
         13    1    3    3    0    0  0.15705641758E+02 -0.53385325610E+02 -0.15520793288E+02  0.57771674390E+02  0.10566000000E+00 0. -1.
         22    1    1    0    0    0 -0.56899029058E+01  0.32720102104E+02 -0.82040541690E+01  0.34209451641E+02  0.00000000000E+00 0. -1.
</event>
<event>
 5    1  0.1267616E-004  0.9118800E+02  0.7818608E-02  0.1130116E+00
         25   -1    0    0    0    0  0.00000000000E+00  0.00000000000E+00  0.99999998245E-14  0.12500000000E+03  0.12500000000E+03 0.  0.
        -13    1    3    3    0    0 -0.17147970279E+02  0.51069816908E+02  0.11470203923E+02  0.55079540900E+02  0.10566000000E+00 0.  1.
         23    2    1    0    0    0 -0.25633654676E+02  0.12376732526E+02 -0.72036514731E+00  0.96525683747E+02  0.92230260419E+02 0.  0.
         13    1    3    3    0    0 -0.84856843970E+01 -0.38693084381E+02 -0.12190569071E+02  0.41446142847E+02  0.10566000000E+00 0. -1.
         22    1    1    0    0    0  0.25633654676E+02 -0.12376732526E+02  0.72036514731E+00  0.28474316253E+02  0.00000000000E+00 0.  1.
</event>
<event>
 5    1  0.1267616E-004  0.9118800E+02  0.7818608E-02  0.1130116E+00
         25   -1    0    0    0    0  0.00000000000E+00  0.00000000000E+00  0.99999998245E-14  0.12500000000E+03  0.12500000000E+03 0.  0.
        -13    1    3    3    0    0 -0.40327627640E+01 -0.37023824979E+02  0.27522726157E+01  0.37344517137E+02  0.10566000000E+00 0.  1.
         23    2    1    0    0    0 -0.18397643414E+02  0.14391412505E+02 -0.18900681998E+02  0.94953006522E+02  0.90073590083E+02 0.  0.
         13    1    3    3    0    0 -0.14364880650E+02  0.51415237484E+02 -0.21652954614E+02  0.57608489385E+02  0.10566000000E+00 0. -1.
         22    1    1    0    0    0  0.18397643414E+02 -0.14391412505E+02  0.18900681998E+02  0.30046993478E+02  0.00000000000E+00 0. -1.
</event>
<event>
 5    1  0.1267616E-004  0.9118800E+02  0.7818608E-02  0.1130116E+00
         25   -1    0    0    0    0  0.00000000000E+00  0.00000000000E+00  0.99999998245E-14  0.12500000000E+03  0.12500000000E+03 0.  0.
        -13    1    3    3    0    0 -0.25369386090E+02  0.27822897963E+02  0.54038774547E+01  0.38038565394E+02  0.10566000000E+00 0. -1.
         23    2    1    0    0    0  0.20403696243E+02  0.77386085606E+01 -0.21125077216E+02  0.94627878405E+02  0.89621256414E+02 0.  0.
         13    1    3    3    0    0  0.45773082333E+02 -0.20084289403E+02 -0.26528954671E+02  0.56589313011E+02  0.10566000000E+00 0.  1.
         22    1    1    0    0    0 -0.20403696243E+02 -0.77386085606E+01  0.21125077216E+02  0.30372121595E+02  0.00000000000E+00 0.  1.
</event>
<event>
 5    1  0.1267616E-004  0.9118800E+02  0.7818608E-02  0.1130116E+00
         25   -1    0    0    0    0  0.00000000000E+00  0.00000000000E+00  0.99999998245E-14  0.12500000000E+03  0.12500000000E+03 0.  0.
        -13    1    3    3    0    0 -0.29274330578E+02 -0.31514909980E+02  0.74410351700E+01  0.43652676325E+02  0.10566000000E+00 0.  1.
         23    2    1    0    0    0  0.12754834787E+02 -0.18321204296E+02 -0.19558729478E+02  0.95320103840E+02  0.90581598352E+02 0.  0.
         13    1    3    3    0    0  0.42029165365E+02  0.13193705684E+02 -0.26999764648E+02  0.51667427515E+02  0.10566000000E+00 0. -1.
         22    1    1    0    0    0 -0.12754834787E+02  0.18321204296E+02  0.19558729478E+02  0.29679896160E+02  0.00000000000E+00 0. -1.
</event>
<event>
 5    1  0.1267616E-004  0.9118800E+02  0.7818608E-02  0.1130116E+00
         25   -1    0    0    0    0  0.00000000000E+00  0.00000000000E+00  0.99999998245E-14  0.12500000000E+03  0.12500000000E+03 0.  0.
        -13    1    3    3    0    0  0.42421511509E+02  0.11348384151E+02 -0.39361741172E+02  0.58972267157E+02  0.10566000000E+00 0.  1.
         23    2    1    0    0    0  0.10224520838E+02  0.16555577774E+02 -0.20873855609E+02  0.96463254745E+02  0.92145611323E+02 0.  0.
         13    1    3    3    0    0 -0.32196990671E+02  0.52071936234E+01  0.18487885563E+02  0.37490987588E+02  0.10566000000E+00 0. -1.
         22    1    1    0    0    0 -0.10224520838E+02 -0.16555577774E+02  0.20873855609E+02  0.28536745255E+02  0.00000000000E+00 0.  1.
</event>
<event>
 5    1  0.1267616E-004  0.9118800E+02  0.7818608E-02  0.1130116E+00
         25   -1    0    0    0    0  0.00000000000E+00  0.00000000000E+00  0.99999998245E-14  0.12500000000E+03  0.12500000000E+03 0.  0.
        -13    1    3    3    0    0  0.46807720727E+01  0.61467566477E+00  0.37402640758E+02  0.37699551100E+02  0.10566000000E+00 0.  1.
         23    2    1    0    0    0 -0.18389153856E+02  0.17591341646E+02 -0.13563262291E+02  0.96162899514E+02  0.91737260034E+02 0.  0.
         13    1    3    3    0    0 -0.23069925928E+02  0.16976665981E+02 -0.50965903050E+02  0.58463348415E+02  0.10566000000E+00 0. -1.
         22    1    1    0    0    0  0.18389153856E+02 -0.17591341646E+02  0.13563262291E+02  0.28837100486E+02  0.00000000000E+00 0. -1.
</event>
<event>
 5    1  0.1267616E-004  0.9118800E+02  0.7818608E-02  0.1130116E+00
         25   -1    0    0    0    0  0.00000000000E+00  0.00000000000E+00  0.99999998245E-14  0.12500000000E+03  0.12500000000E+03 0.  0.
        -13    1    3    3    0    0  0.32944502365E+02  0.17111837800E+02 -0.18902981464E+02  0.41659201879E+02  0.10566000000E+00 0.  1.
         23    2    1    0    0    0 -0.16167868265E+02  0.25921512921E+02 -0.18329463024E+01  0.94394698360E+02  0.89295434317E+02 0.  0.
         13    1    3    3    0    0 -0.49112370629E+02  0.88096751213E+01  0.17070035162E+02  0.52735496480E+02  0.10566000000E+00 0. -1.
         22    1    1    0    0    0  0.16167868265E+02 -0.25921512921E+02  0.18329463024E+01  0.30605301640E+02  0.00000000000E+00 0. -1.
</event>
<event>
 5    1  0.1267616E-004  0.9118800E+02  0.7818608E-02  0.1130116E+00
         25   -1    0    0    0    0  0.00000000000E+00  0.00000000000E+00  0.99999998245E-14  0.12500000000E+03  0.12500000000E+03 0.  0.
        -13    1    3    3    0    0  0.21396449065E+02  0.49411692584E+02  0.18892349526E+01  0.53878602148E+02  0.10566000000E+00 0. -1.
         23    2    1    0    0    0  0.23165160522E+02  0.97697327859E+01  0.15065553660E+02  0.95690560432E+02  0.91091383281E+02 0.  0.
         13    1    3    3    0    0  0.17687114565E+01 -0.39641959798E+02  0.13176318707E+02  0.41811958284E+02  0.10566000000E+00 0.  1.
         22    1    1    0    0    0 -0.23165160522E+02 -0.97697327859E+01 -0.15065553660E+02  0.29309439568E+02  0.00000000000E+00 0. -1.
</event>
<event>
 5    1  0.1267616E-004  0.9118800E+02  0.7818608E-02  0.1130116E+00
         25   -1    0    0    0    0  0.00000000000E+00  0.00000000000E+00  0.99999998245E-14  0.12500000000E+03  0.12500000000E+03 0.  0.
        -13    1    3    3    0    0 -0.53133975278E+01  0.20500676764E+02  0.28086965421E+02  0.35176678804E+02  0.10566000000E+00 0.  1.
         23    2    1    0    0    0  0.10421746681E+02 -0.29557917801E+02  0.24918949617E+01  0.93559693877E+02  0.88118803154E+02 0.  0.
         13    1    3    3    0    0  0.15735144208E+02 -0.50058594565E+02 -0.25595070460E+02  0.58383015073E+02  0.10566000000E+00 0. -1.
         22    1    1    0    0    0 -0.10421746681E+02  0.29557917801E+02 -0.24918949617E+01  0.31440306123E+02  0.00000000000E+00 0. -1.
</event>
<event>
 5    1  0.1267616E-004  0.9118800E+02  0.7818608E-02  0.1130116E+00
         25   -1    0    0    0    0  0.00000000000E+00  0.00000000000E+00  0.99999998245E-14  0.12500000000E+03  0.12500000000E+03 0.  0.
        -13    1    3    3    0    0  0.33606777198E+02  0.32374478446E+02  0.90217687981E+01  0.47528158017E+02  0.10566000000E+00 0. -1.
         23    2    1    0    0    0  0.68144693414E+01  0.10225306162E+02 -0.25608306643E+02  0.96596140269E+02  0.92325701011E+02 0.  0.
         13    1    3    3    0    0 -0.26792307856E+02 -0.22149172284E+02 -0.34630075441E+02  0.49067982251E+02  0.10566000000E+00 0.  1.
         22    1    1    0    0    0 -0.68144693414E+01 -0.10225306162E+02  0.25608306643E+02  0.28403859731E+02  0.00000000000E+00 0.  1.
</event>
<event>
 5    1  0.1267616E-004  0.9118800E+02  0.7818608E-02  0.1130116E+00
         25   -1    0    0    0    0  0.00000000000E+00  0.00000000000E+00  0.99999998245E-14  0.12500000000E+03  0.12500000000E+03 0.  0.
        -13    1    3    3    0    0  0.48965054508E+02 -0.58849771821E+01  0.29699584449E+02  0.57569835851E+02  0.10566000000E+00 0.  1.
         23    2    1    0    0    0  0.16139369501E+02 -0.18102367811E+02  0.18993702367E+02  0.94195200084E+02  0.89015729066E+02 0.  0.
         13    1    3    3    0    0 -0.32825685008E+02 -0.12217390629E+02 -0.10705882083E+02  0.36625364233E+02  0.10566000000E+00 0. -1.
         22    1    1    0    0    0 -0.16139369501E+02  0.18102367811E+02 -0.18993702367E+02  0.30804799916E+02  0.00000000000E+00 0.  1.
</event>
<event>
 5    1  0.1267616E-004  0.9118800E+02  0.7818608E-02  0.1130116E+00
         25   -1    0    0    0    0  0.00000000000E+00  0.00000000000E+00  0.99999998245E-14  0.12500000000E+03  0.12500000000E+03 0.  0.
        -13    1    3    3    0    0  0.37551037937E+02 -0.15211154319E+02  0.17082020634E+02  0.43968923786E+02  0.10566000000E+00 0.  1.
         23    2    1    0    0    0 -0.10610706831E+02  0.49912839138E+01  0.25558704858E+02  0.96879768696E+02  0.92708910974E+02 0.  0.
         13    1    3    3    0    0 -0.48161744769E+02  0.20202438233E+02  0.84766842233E+01  0.52910844911E+02  0.10566000000E+00 0. -1.
         22    1    1    0    0    0  0.10610706831E+02 -0.49912839138E+01 -0.25558704858E+02  0.28120231304E+02  0.00000000000E+00 0.  1.
</event>
<event>
 5    1  0.1267616E-004  0.9118800E+02  0.7818608E-02  0.1130116E+00
         25   -1    0    0    0    0  0.00000000000E+00  0.00000000000E+00  0.99999998245E-14  0.12500000000E+03  0.12500000000E+03 0.  0.
        -13    1    3    3    0    0 -0.14356672549E+02  0.40884934782E+02 -0.41224806942E+02  0.59809596306E+02  0.10566000000E+00 0. -1.
         23    2    1    0    0    0 -0.10046999440E+02  0.81144117073E+01 -0.25508248556E+02  0.96408801713E+02  0.92071713507E+02 0.  0.
         13    1    3    3    0    0  0.43096731092E+01 -0.32770523075E+02  0.15716558386E+02  0.36599205407E+02  0.10566000000E+00 0.  1.
         22    1    1    0    0    0  0.10046999440E+02 -0.81144117073E+01  0.25508248556E+02  0.28591198287E+02  0.00000000000E+00 0. -1.
</event>
<event>
 5    1  0.1267616E-004  0.9118800E+02  0.7818608E-02  0.1130116E+00
         25   -1    0    0    0    0  0.00000000000E+00  0.00000000000E+00  0.99999998245E-14  0.12500000000E+03  0.12500000000E+03 0.  0.
        -13    1    3    3    0    0  0.33554633028E+02  0.16426861266E+02  0.21003264184E+01  0.37418948459E+02  0.10566000000E+00 0. -1.
         23    2    1    0    0    0 -0.13476521358E+01 -0.25337635671E+02 -0.16263427549E+02  0.94861801260E+02  0.89946930548E+02 0.  0.
         13    1    3    3    0    0 -0.34902285164E+02 -0.41764496937E+02 -0.18363753968E+02  0.57442852800E+02  0.10566000000E+00 0.  1.
         22    1    1    0    0    0  0.13476521358E+01  0.25337635671E+02  0.16263427549E+02  0.30138198740E+02  0.00000000000E+00 0.  1.
</event>
<event>
 5    1  0.1267616E-004  0.9118800E+02  0.7818608E-02  0.1130116E+00
         25   -1    0    0    0    0  0.00000000000E+00  0.00000000000E+00  0.99999998245E-14  0.12500000000E+03  0.12500000000E+03 0.  0.
        -13    1    3    3    0    0  0.26859397989E+02  0.12394840838E+02  0.30766425127E+02  0.42680714836E+02  0.10566000000E+00 0. -1.
         23    2    1    0    0    0 -0.20124292740E+02 -0.73065869470E+01  0.21862676740E+02  0.94400163312E+02  0.89303084090E+02 0.  0.
         13    1    3    3    0    0 -0.46983690729E+02 -0.19701427785E+02 -0.89037483868E+01  0.51719448476E+02  0.10566000000E+00 0.  1.
         22    1    1    0    0    0  0.20124292740E+02  0.73065869470E+01 -0.21862676740E+02  0.30599836688E+02  0.00000000000E+00 0.  1.
</event>
<event>
 5    1  0.1267616E-004  0.9118800E+02  0.7818608E-02  0.1130116E+00
         25   -1    0    0    0    0  0.00000000000E+00  0.00000000000E+00  0.99999998245E-14  0.12500000000E+03  0.12500000000E+03 0.  0.
        -13    1    3    3    0    0 -0.31231035581E+02  0.11486318690E+02 -0.37244131215E+02  0.49944464904E+02  0.10566000000E+00 0.  1.
         23    2    1    0    0    0 -0.11747002657E+02 -0.22790690099E+02 -0.16669105536E+02  0.94417869499E+02  0.89327864492E+02 0.  0.
         13    1    3    3    0    0  0.19484032924E+02 -0.34277008789E+02  0.20575025679E+02  0.44473404595E+02  0.10566000000E+00 0. -1.
         22    1    1    0    0    0  0.11747002657E+02  0.22790690099E+02  0.16669105536E+02  0.30582130501E+02  0.00000000000E+00 0. -1.
</event>
<event>
 5    1  0.1267616E-004  0.9118800E+02  0.7818608E-02  0.1130116E+00
         25   -1    0    0    0    0  0.00000000000E+00  0.00000000000E+00  0.99999998245E-14  0.12500000000E+03  0.12500000000E+03 0.  0.
        -13    1    3    3    0    0 -0.12802665436E+02 -0.38654058986E+02 -0.39093910231E+02  0.56448113339E+02  0.10566000000E+00 0.  1.
         23    2    1    0    0    0 -0.11502216321E+02 -0.29844260616E+02 -0.38674130794E+01  0.92782958609E+02  0.87009997428E+02 0.  0.
         13    1    3    3    0    0  0.13004491145E+01  0.88097983696E+01  0.35226497152E+02  0.36334845270E+02  0.10566000000E+00 0. -1.
         22    1    1    0    0    0  0.11502216321E+02  0.29844260616E+02  0.38674130794E+01  0.32217041391E+02  0.00000000000E+00 0. -1.
</event>
<event>
 5    1  0.1267616E-004  0.9118800E+02  0.7818608E-02  0.1130116E+00
         25   -1    0    0    0    0  0.00000000000E+00  0.00000000000E+00  0.99999998245E-14  0.12500000000E+03  0.12500000000E+03 0.  0.
        -13    1    3    3    0    0 -0.17240462219E+02 -0.29446261467E+02 -0.10320528890E+02  0.35648847562E+02  0.10566000000E+00 0.  1.
         23    2    1    0    0    0  0.21419067112E+01 -0.29103141646E+02  0.31692519740E+02  0.81918723029E+02  0.69675539160E+02 0.  0.
         13    1    3    3    0    0  0.19382368930E+02  0.34311982076E+00  0.42013048630E+02  0.46269875467E+02  0.10566000000E+00 0. -1.
         22    1    1    0    0    0 -0.21419067112E+01  0.29103141646E+02 -0.31692519740E+02  0.43081276971E+02  0.00000000000E+00 0. -1.
</event>
<event>
 5    1  0.1267616E-004  0.9118800E+02  0.7818608E-02  0.1130116E+00
         25   -1    0    0    0    0  0.00000000000E+00  0.00000000000E+00  0.99999998245E-14  0.12500000000E+03  0.12500000000E+03 0.  0.
        -13    1    3    3    0    0  0.13465984148E+02 -0.21063922276E+02  0.35331618628E+02  0.43282282630E+02  0.10566000000E+00 0.  1.
         23    2    1    0    0    0 -0.26961976216E+02  0.13609772648E+01  0.86942652883E+01  0.96638218154E+02  0.92382652800E+02 0.  0.
         13    1    3    3    0    0 -0.40427960364E+02  0.22424899541E+02 -0.26637353340E+02  0.53355935524E+02  0.10566000000E+00 0. -1.
         22    1    1    0    0    0  0.26961976216E+02 -0.13609772648E+01 -0.86942652883E+01  0.28361781846E+02  0.00000000000E+00 0. -1.
</event>
<event>
 5    1  0.1267616E-004  0.9118800E+02  0.7818608E-02  0.1130116E+00
         25   -1    0    0    0    0  0.00000000000E+00  0.00000000000E+00  0.99999998245E-14  0.12500000000E+03  0.12500000000E+03 0.  0.
        -13    1    3    3    0    0  0.20795569726E+02  0.17816454028E+02 -0.38411666017E+02  0.47173604957E+02  0.10566000000E+00 0. -1.
         23    2    1    0    0    0 -0.10531148695E+02  0.27227087795E+02 -0.25747825489E+01  0.95693875933E+02  0.91095932859E+02 0.  0.
         13    1    3    3    0    0 -0.31326718421E+02  0.94106337665E+01  0.35836883468E+02  0.48520270977E+02  0.10566000000E+00 0.  1.
         22    1    1    0    0    0  0.10531148695E+02 -0.27227087795E+02  0.25747825489E+01  0.29306124067E+02  0.00000000000E+00 0.  1.
</event>
<event>
 5    1  0.1267616E-004  0.9118800E+02  0.7818608E-02  0.1130116E+00
         25   -1    0    0    0    0  0.00000000000E+00  0.00000000000E+00  0.99999998245E-14  0.12500000000E+03  0.12500000000E+03 0.  0.
        -13    1    3    3    0    0  0.32818335858E+02 -0.22942285235E+01  0.22063968192E+02  0.39612327746E+02  0.10566000000E+00 0.  1.
         23    2    1    0    0    0  0.99860647303E+01  0.25789869126E+02 -0.16736944375E+02  0.92674094826E+02  0.86853461108E+02 0.  0.
         13    1    3    3    0    0 -0.22832271127E+02  0.28084097649E+02 -0.38800912567E+02  0.53061767080E+02  0.10566000000E+00 0. -1.
         22    1    1    0    0    0 -0.99860647303E+01 -0.25789869126E+02  0.16736944375E+02  0.32325905174E+02  0.00000000000E+00 0. -1.
</event>
<event>
 5    1  0.1267616E-004  0.9118800E+02  0.7818608E-02  0.1130116E+00
         25   -1    0    0    0    0  0.00000000000E+00  0.00000000000E+00  0.99999998245E-14  0.12500000000E+03  0.12500000000E+03 0.  0.
        -13    1    3    3    0    0 -0.11906149735E+01 -0.28941914333E+01  0.33538989932E+02  0.33684847005E+02  0.10566000000E+00 0. -1.
         23    2    1    0    0    0  0.90309471963E+00 -0.50107120281E+01 -0.28627798301E+02  0.95922970395E+02  0.91409751114E+02 0.  0.
         13    1    3    3    0    0  0.20937096931E+01 -0.21165205948E+01 -0.62166788233E+02  0.62238123389E+02  0.10566000000E+00 0.  1.
         22    1    1    0    0    0 -0.90309471963E+00  0.50107120281E+01  0.28627798301E+02  0.29077029605E+02  0.00000000000E+00 0.  1.
</event>
<event>
 5    1  0.1267616E-004  0.9118800E+02  0.7818608E-02  0.1130116E+00
         25   -1    0    0    0    0  0.00000000000E+00  0.00000000000E+00  0.99999998245E-14  0.12500000000E+03  0.12500000000E+03 0.  0.
        -13    1    3    3    0    0 -0.20821586679E+02 -0.17901774943E+02 -0.40148679321E+02  0.48640925497E+02  0.10566000000E+00 0. -1.
         23    2    1    0    0    0 -0.19604490793E+02  0.18727390427E+02 -0.99820510179E+01  0.96108953740E+02  0.91663724750E+02 0.  0.
         13    1    3    3    0    0  0.12170958856E+01  0.36629165369E+02  0.30166628303E+02  0.47468028243E+02  0.10566000000E+00 0.  1.
         22    1    1    0    0    0  0.19604490793E+02 -0.18727390427E+02  0.99820510179E+01  0.28891046260E+02  0.00000000000E+00 0.  1.
</event>
<event>
 5    1  0.1267616E-004  0.9118800E+02  0.7818608E-02  0.1130116E+00
         25   -1    0    0    0    0  0.00000000000E+00  0.00000000000E+00  0.99999998245E-14  0.12500000000E+03  0.12500000000E+03 0.  0.
        -13    1    3    3    0    0  0.89421481439E+00 -0.32779234864E+02 -0.29178358573E+02  0.43893799465E+02  0.10566000000E+00 0. -1.
         23    2    1    0    0    0 -0.16793962905E+02 -0.22680291669E+02  0.15360680519E+02  0.92869277533E+02  0.87133916377E+02 0.  0.
         13    1    3    3    0    0 -0.17688177720E+02  0.10098943195E+02  0.44539039093E+02  0.48975478068E+02  0.10566000000E+00 0.  1.
         22    1    1    0    0    0  0.16793962905E+02  0.22680291669E+02 -0.15360680519E+02  0.32130722467E+02  0.00000000000E+00 0.  1.
</event>
<event>
 5    1  0.1267616E-004  0.9118800E+02  0.7818608E-02  0.1130116E+00
         25   -1    0    0    0    0  0.00000000000E+00  0.00000000000E+00  0.99999998245E-14  0.12500000000E+03  0.12500000000E+03 0.  0.
        -13    1    3    3    0    0 -0.17116477348E+01  0.34777086420E+02 -0.21143915141E+01  0.34883481668E+02  0.10566000000E+00 0.  1.
         23    2    1    0    0    0 -0.51903722761E+00 -0.26033555088E+02  0.10367080761E+02  0.96973374201E+02  0.92835034067E+02 0.  0.
         13    1    3    3    0    0  0.11926105072E+01 -0.60810641508E+02  0.12481472276E+02  0.62089892532E+02  0.10566000000E+00 0. -1.
         22    1    1    0    0    0  0.51903722761E+00  0.26033555088E+02 -0.10367080761E+02  0.28026625799E+02  0.00000000000E+00 0. -1.
</event>
<event>
 5    1  0.1267616E-004  0.9118800E+02  0.7818608E-02  0.1130116E+00
         25   -1    0    0    0    0  0.00000000000E+00  0.00000000000E+00  0.99999998245E-14  0.12500000000E+03  0.12500000000E+03 0.  0.
        -13    1    3    3    0    0  0.49441132664E+01  0.67686856236E+01  0.56968854434E+02  0.57582296764E+02  0.10566000000E+00 0.  1.
         23    2    1    0    0    0  0.80840530608E+01  0.20439704317E+02  0.33143356332E+02  0.85230470264E+02  0.75383138473E+02 0.  0.
         13    1    3    3    0    0  0.31399397945E+01  0.13671018693E+02 -0.23825498102E+02  0.27648173500E+02  0.10566000000E+00 0. -1.
         22    1    1    0    0    0 -0.80840530608E+01 -0.20439704317E+02 -0.33143356332E+02  0.39769529736E+02  0.00000000000E+00 0.  1.
</event>
<event>
 5    1  0.1267616E-004  0.9118800E+02  0.7818608E-02  0.1130116E+00
         25   -1    0    0    0    0  0.00000000000E+00  0.00000000000E+00  0.99999998245E-14  0.12500000000E+03  0.12500000000E+03 0.  0.
        -13    1    3    3    0    0  0.11335954262E+02  0.11525521729E+02  0.27489153093E+02  0.31890534833E+02  0.10566000000E+00 0.  1.
         23    2    1    0    0    0 -0.12131732185E+02 -0.22296509166E+02 -0.18482975884E+02  0.93600419679E+02  0.88176555386E+02 0.  0.
         13    1    3    3    0    0 -0.23467686447E+02 -0.33822030895E+02 -0.45972128976E+02  0.61709884846E+02  0.10566000000E+00 0. -1.
         22    1    1    0    0    0  0.12131732185E+02  0.22296509166E+02  0.18482975884E+02  0.31399580321E+02  0.00000000000E+00 0. -1.
</event>
<event>
 5    1  0.1267616E-004  0.9118800E+02  0.7818608E-02  0.1130116E+00
         25   -1    0    0    0    0  0.00000000000E+00  0.00000000000E+00  0.99999998245E-14  0.12500000000E+03  0.12500000000E+03 0.  0.
        -13    1    3    3    0    0 -0.23776799343E+02 -0.84821295021E+01 -0.27616218856E+02  0.37415897902E+02  0.10566000000E+00 0.  1.
         23    2    1    0    0    0  0.13295946588E+01 -0.18576384440E+02  0.23357311743E+02  0.95126702681E+02  0.90314315977E+02 0.  0.
         13    1    3    3    0    0  0.25106394002E+02 -0.10094254938E+02  0.50973530598E+02  0.57710804779E+02  0.10566000000E+00 0. -1.
         22    1    1    0    0    0 -0.13295946588E+01  0.18576384440E+02 -0.23357311743E+02  0.29873297319E+02  0.00000000000E+00 0. -1.
</event>
<event>
 5    1  0.1267616E-004  0.9118800E+02  0.7818608E-02  0.1130116E+00
         25   -1    0    0    0    0  0.00000000000E+00  0.00000000000E+00  0.99999998245E-14  0.12500000000E+03  0.12500000000E+03 0.  0.
        -13    1    3    3    0    0 -0.37398353423E+02  0.87055950588E+01  0.34233265948E+02  0.51442704882E+02  0.10566000000E+00 0. -1.
         23    2    1    0    0    0 -0.59285936232E+01  0.27476969692E+02  0.11091878498E+02  0.94781431960E+02  0.89835171230E+02 0.  0.
         13    1    3    3    0    0  0.31469759800E+02  0.18771374633E+02 -0.23141387451E+02  0.43338727077E+02  0.10566000000E+00 0.  1.
         22    1    1    0    0    0  0.59285936232E+01 -0.27476969692E+02 -0.11091878498E+02  0.30218568040E+02  0.00000000000E+00 0. -1.
</event>
<event>
 5    1  0.1267616E-004  0.9118800E+02  0.7818608E-02  0.1130116E+00
         25   -1    0    0    0    0  0.00000000000E+00  0.00000000000E+00  0.99999998245E-14  0.12500000000E+03  0.12500000000E+03 0.  0.
        -13    1    3    3    0    0  0.35879252006E+02 -0.28089936286E+02 -0.27611206935E+02  0.53279969571E+02  0.10566000000E+00 0.  1.
         23    2    1    0    0    0  0.21822870670E+02  0.85009461256E+01 -0.21981229889E+02  0.92880251609E+02  0.87149658073E+02 0.  0.
         13    1    3    3    0    0 -0.14056381336E+02  0.36590882411E+02  0.56299770461E+01  0.39600282038E+02  0.10566000000E+00 0. -1.
         22    1    1    0    0    0 -0.21822870670E+02 -0.85009461256E+01  0.21981229889E+02  0.32119748391E+02  0.00000000000E+00 0.  1.
</event>
<event>
 5    1  0.1267616E-004  0.9118800E+02  0.7818608E-02  0.1130116E+00
         25   -1    0    0    0    0  0.00000000000E+00  0.00000000000E+00  0.99999998245E-14  0.12500000000E+03  0.12500000000E+03 0.  0.
        -13    1    3    3    0    0  0.10909491708E+02  0.39869667300E+00  0.34234365546E+02  0.35932978122E+02  0.10566000000E+00 0.  1.
         23    2    1    0    0    0 -0.13025228763E+02 -0.16647177526E+02 -0.18896091551E+02  0.96647797620E+02  0.92395613559E+02 0.  0.
         13    1    3    3    0    0 -0.23934720471E+02 -0.17045874199E+02 -0.53130457097E+02  0.60714819497E+02  0.10566000000E+00 0. -1.
         22    1    1    0    0    0  0.13025228763E+02  0.16647177526E+02  0.18896091551E+02  0.28352202380E+02  0.00000000000E+00 0. -1.
</event>
<event>
 5    1  0.1267616E-004  0.9118800E+02  0.7818608E-02  0.1130116E+00
         25   -1    0    0    0    0  0.00000000000E+00  0.00000000000E+00  0.99999998245E-14  0.12500000000E+03  0.12500000000E+03 0.  0.
        -13    1    3    3    0    0  0.11703433468E+02  0.53787473605E+02 -0.19917602464E+02  0.58538745491E+02  0.10566000000E+00 0.  1.
         23    2    1    0    0    0  0.18580421028E+02  0.17511768709E+02 -0.13841275491E+02  0.95957359002E+02  0.91456764378E+02 0.  0.
         13    1    3    3    0    0  0.68769875603E+01 -0.36275704896E+02  0.60763269730E+01  0.37418613511E+02  0.10566000000E+00 0. -1.
         22    1    1    0    0    0 -0.18580421028E+02 -0.17511768709E+02  0.13841275491E+02  0.29042640998E+02  0.00000000000E+00 0.  1.
</event>
<event>
 5    1  0.1267616E-004  0.9118800E+02  0.7818608E-02  0.1130116E+00
         25   -1    0    0    0    0  0.00000000000E+00  0.00000000000E+00  0.99999998245E-14  0.12500000000E+03  0.12500000000E+03 0.  0.
        -13    1    3    3    0    0  0.26702383797E+02 -0.85641575630E+01  0.25951918813E+02  0.38208315186E+02  0.10566000000E+00 0. -1.
         23    2    1    0    0    0  0.34619240735E+01  0.26511522017E+02 -0.12751630162E+02  0.95378221023E+02  0.90661762920E+02 0.  0.
         13    1    3    3    0    0 -0.23240459723E+02  0.35075679580E+02 -0.38703548976E+02  0.57169905838E+02  0.10566000000E+00 0.  1.
         22    1    1    0    0    0 -0.34619240735E+01 -0.26511522017E+02  0.12751630162E+02  0.29621778977E+02  0.00000000000E+00 0.  1.
</event>
<event>
 5    1  0.1267616E-004  0.9118800E+02  0.7818608E-02  0.1130116E+00
         25   -1    0    0    0    0  0.00000000000E+00  0.00000000000E+00  0.99999998245E-14  0.12500000000E+03  0.12500000000E+03 0.  0.
        -13    1    3    3    0    0 -0.13180357534E+02  0.19401979146E+01 -0.56433473536E+02  0.57984776382E+02  0.10566000000E+00 0.  1.
         23    2    1    0    0    0 -0.70446560780E+01  0.17792479316E+02 -0.30583089268E+02  0.88923347597E+02  0.81276299738E+02 0.  0.
         13    1    3    3    0    0  0.61357014563E+01  0.15852281401E+02  0.25850384268E+02  0.30938571215E+02  0.10566000000E+00 0. -1.
         22    1    1    0    0    0  0.70446560780E+01 -0.17792479316E+02  0.30583089268E+02  0.36076652403E+02  0.00000000000E+00 0.  1.
</event>
<event>
 5    1  0.1267616E-004  0.9118800E+02  0.7818608E-02  0.1130116E+00
         25   -1    0    0    0    0  0.00000000000E+00  0.00000000000E+00  0.99999998245E-14  0.12500000000E+03  0.12500000000E+03 0.  0.
        -13    1    3    3    0    0 -0.27236325665E+02 -0.41454392500E+02  0.18090846822E+01  0.49634343399E+02  0.10566000000E+00 0.  1.
         23    2    1    0    0    0  0.33878473962E+01 -0.18402122533E+02 -0.23042980525E+02  0.95316762724E+02  0.90576987591E+02 0.  0.
         13    1    3    3    0    0  0.30624173061E+02  0.23052269967E+02 -0.24852065207E+02  0.45682419325E+02  0.10566000000E+00 0. -1.
         22    1    1    0    0    0 -0.33878473962E+01  0.18402122533E+02  0.23042980525E+02  0.29683237276E+02  0.00000000000E+00 0. -1.
</event>
<event>
 5    1  0.1267616E-004  0.9118800E+02  0.7818608E-02  0.1130116E+00
         25   -1    0    0    0    0  0.00000000000E+00  0.00000000000E+00  0.99999998245E-14  0.12500000000E+03  0.12500000000E+03 0.  0.
        -13    1    3    3    0    0 -0.34998809545E+02 -0.43687186585E+02 -0.19927752436E+02  0.59418965175E+02  0.10566000000E+00 0. -1.
         23    2    1    0    0    0 -0.60089105442E+01 -0.28280028515E+02 -0.43287956575E+01  0.95766363713E+02  0.91195344882E+02 0.  0.
         13    1    3    3    0    0  0.28989899000E+02  0.15407158070E+02  0.15598956779E+02  0.36347398538E+02  0.10566000000E+00 0.  1.
         22    1    1    0    0    0  0.60089105442E+01  0.28280028515E+02  0.43287956575E+01  0.29233636287E+02  0.00000000000E+00 0. -1.
</event>
<event>
 5    1  0.1267616E-004  0.9118800E+02  0.7818608E-02  0.1130116E+00
         25   -1    0    0    0    0  0.00000000000E+00  0.00000000000E+00  0.99999998245E-14  0.12500000000E+03  0.12500000000E+03 0.  0.
        -13    1    3    3    0    0  0.19774116344E+02  0.27887839915E+02 -0.31704975413E+01  0.34333810027E+02  0.10566000000E+00 0. -1.
         23    2    1    0    0    0  0.23520030861E+01 -0.28358382567E+02  0.10299573533E+02  0.94737630706E+02  0.89774203848E+02 0.  0.
         13    1    3    3    0    0 -0.17422113258E+02 -0.56246222481E+02  0.13470071074E+02  0.60403820679E+02  0.10566000000E+00 0.  1.
         22    1    1    0    0    0 -0.23520030861E+01  0.28358382567E+02 -0.10299573533E+02  0.30262369294E+02  0.00000000000E+00 0.  1.
</event>
<event>
 5    1  0.1267616E-004  0.9118800E+02  0.7818608E-02  0.1130116E+00
         25   -1    0    0    0    0  0.00000000000E+00  0.00000000000E+00  0.99999998245E-14  0.12500000000E+03  0.12500000000E+03 0.  0.
        -13    1    3    3    0    0  0.15164681328E+02 -0.16411478571E+02  0.21574998722E+02  0.31061164218E+02  0.10566000000E+00 0.  1.
         23    2    1    0    0    0  0.25719077155E+02  0.11183624550E+02 -0.25799103313E+02  0.86893069928E+02  0.78091404661E+02 0.  0.
         13    1    3    3    0    0  0.10554395827E+02  0.27595103120E+02 -0.47374102035E+02  0.55831905710E+02  0.10566000000E+00 0. -1.
         22    1    1    0    0    0 -0.25719077155E+02 -0.11183624550E+02  0.25799103313E+02  0.38106930072E+02  0.00000000000E+00 0. -1.
</event>
<event>
 5    1  0.1267616E-004  0.9118800E+02  0.7818608E-02  0.1130116E+00
         25   -1    0    0    0    0  0.00000000000E+00  0.00000000000E+00  0.99999998245E-14  0.12500000000E+03  0.12500000000E+03 0.  0.
        -13    1    3    3    0    0 -0.28430087196E+02  0.16765409676E+02  0.17699026797E+02  0.37451509091E+02  0.10566000000E+00 0.  1.
         23    2    1    0    0    0  0.11381883759E+02  0.10285082880E+02 -0.24669274597E+02  0.95949985940E+02  0.91446686572E+02 0.  0.
         13    1    3    3    0    0  0.39811970955E+02 -0.64803267957E+01 -0.42368301394E+02  0.58498476849E+02  0.10566000000E+00 0. -1.
         22    1    1    0    0    0 -0.11381883759E+02 -0.10285082880E+02  0.24669274597E+02  0.29050014060E+02  0.00000000000E+00 0. -1.
</event>
<event>
 5    1  0.1267616E-004  0.9118800E+02  0.7818608E-02  0.1130116E+00
         25   -1    0    0    0    0  0.00000000000E+00  0.00000000000E+00  0.99999998245E-14  0.12500000000E+03  0.12500000000E+03 0.  0.
        -13    1    3    3    0    0  0.11134982478E+02  0.10893413943E+01  0.32836984820E+02  0.34690823506E+02  0.10566000000E+00 0. -1.
         23    2    1    0    0    0  0.66575940113E+01  0.53909297855E+01 -0.27935896996E+02  0.95780143345E+02  0.91214230448E+02 0.  0.
         13    1    3    3    0    0 -0.44773884662E+01  0.43015883912E+01 -0.60772881816E+02  0.61089319839E+02  0.10566000000E+00 0.  1.
         22    1    1    0    0    0 -0.66575940113E+01 -0.53909297855E+01  0.27935896996E+02  0.29219856655E+02  0.00000000000E+00 0.  1.
</event>
<event>
 5    1  0.1267616E-004  0.9118800E+02  0.7818608E-02  0.1130116E+00
         25   -1    0    0    0    0  0.00000000000E+00  0.00000000000E+00  0.99999998245E-14  0.12500000000E+03  0.12500000000E+03 0.  0.
        -13    1    3    3    0    0 -0.32259292639E+02 -0.37476253109E+02  0.16767874364E+02  0.52214023819E+02  0.10566000000E+00 0.  1.
         23    2    1    0    0    0 -0.29115524941E+02 -0.49953659279E+01 -0.93532159016E+01  0.94013710757E+02  0.88760507486E+02 0.  0.
         13    1    3    3    0    0  0.31437676980E+01  0.32480887181E+02 -0.26121090266E+02  0.41799686938E+02  0.10566000000E+00 0. -1.
         22    1    1    0    0    0  0.29115524941E+02  0.49953659279E+01  0.93532159016E+01  0.30986289243E+02  0.00000000000E+00 0.  1.
</event>
<event>
 5    1  0.1267616E-004  0.9118800E+02  0.7818608E-02  0.1130116E+00
         25   -1    0    0    0    0  0.00000000000E+00  0.00000000000E+00  0.99999998245E-14  0.12500000000E+03  0.12500000000E+03 0.  0.
        -13    1    3    3    0    0 -0.47303862614E+02 -0.48311686482E+01 -0.17058325105E+02  0.50517256736E+02  0.10566000000E+00 0.  1.
         23    2    1    0    0    0 -0.22665371978E+02  0.10049155405E+02  0.16871092286E+02  0.95011029258E+02  0.90154075418E+02 0.  0.
         13    1    3    3    0    0  0.24638490636E+02  0.14880324053E+02  0.33929417391E+02  0.44493772522E+02  0.10566000000E+00 0. -1.
         22    1    1    0    0    0  0.22665371978E+02 -0.10049155405E+02 -0.16871092286E+02  0.29988970742E+02  0.00000000000E+00 0.  1.
</event>
<event>
 5    1  0.1267616E-004  0.9118800E+02  0.7818608E-02  0.1130116E+00
         25   -1    0    0    0    0  0.00000000000E+00  0.00000000000E+00  0.99999998245E-14  0.12500000000E+03  0.12500000000E+03 0.  0.
        -13    1    3    3    0    0  0.32894701996E+02 -0.11441488402E+02 -0.49304122574E+02  0.60364532161E+02  0.10566000000E+00 0.  1.
         23    2    1    0    0    0  0.25437511992E+02 -0.65429375622E+00 -0.19450547704E+02  0.92971591944E+02  0.87280570495E+02 0.  0.
         13    1    3    3    0    0 -0.74571900038E+01  0.10787194645E+02  0.29853574870E+02  0.32607059782E+02  0.10566000000E+00 0. -1.
         22    1    1    0    0    0 -0.25437511992E+02  0.65429375622E+00  0.19450547704E+02  0.32028408056E+02  0.00000000000E+00 0.  1.
</event>
<event>
 5    1  0.1267616E-004  0.9118800E+02  0.7818608E-02  0.1130116E+00
         25   -1    0    0    0    0  0.00000000000E+00  0.00000000000E+00  0.99999998245E-14  0.12500000000E+03  0.12500000000E+03 0.  0.
        -13    1    3    3    0    0  0.19730146605E+02 -0.13060335587E+02 -0.47582613345E+02  0.53141013422E+02  0.10566000000E+00 0. -1.
         23    2    1    0    0    0  0.29426041848E+02 -0.79581446398E+01 -0.90490934638E+01  0.93202042559E+02  0.87609991666E+02 0.  0.
         13    1    3    3    0    0  0.96958952431E+01  0.51021909471E+01  0.38533519881E+02  0.40061029137E+02  0.10566000000E+00 0.  1.
         22    1    1    0    0    0 -0.29426041848E+02  0.79581446398E+01  0.90490934638E+01  0.31797957441E+02  0.00000000000E+00 0. -1.
</event>
<event>
 5    1  0.1267616E-004  0.9118800E+02  0.7818608E-02  0.1130116E+00
         25   -1    0    0    0    0  0.00000000000E+00  0.00000000000E+00  0.99999998245E-14  0.12500000000E+03  0.12500000000E+03 0.  0.
        -13    1    3    3    0    0 -0.18153906999E+02 -0.20188331172E+01  0.27763553294E+02  0.33233508422E+02  0.10566000000E+00 0.  1.
         23    2    1    0    0    0  0.19413296412E+02 -0.38637583720E+01 -0.21865980685E+02  0.95505495128E+02  0.90837072729E+02 0.  0.
         13    1    3    3    0    0  0.37567203411E+02 -0.18449252549E+01 -0.49629533979E+02  0.62271986706E+02  0.10566000000E+00 0. -1.
         22    1    1    0    0    0 -0.19413296412E+02  0.38637583720E+01  0.21865980685E+02  0.29494504872E+02  0.00000000000E+00 0. -1.
</event>
<event>
 5    1  0.1267616E-004  0.9118800E+02  0.7818608E-02  0.1130116E+00
         25   -1    0    0    0    0  0.00000000000E+00  0.00000000000E+00  0.99999998245E-14  0.12500000000E+03  0.12500000000E+03 0.  0.
        -13    1    3    3    0    0 -0.22610884548E+02 -0.53423876474E+02 -0.19884316685E+02  0.61325034787E+02  0.10566000000E+00 0.  1.
         23    2    1    0    0    0 -0.10898740560E+02 -0.18799623493E+02 -0.15859714992E+02  0.98097603287E+02  0.94336635629E+02 0.  0.
         13    1    3    3    0    0  0.11712143988E+02  0.34624252981E+02  0.40246016928E+01  0.36772568500E+02  0.10566000000E+00 0. -1.
         22    1    1    0    0    0  0.10898740560E+02  0.18799623493E+02  0.15859714992E+02  0.26902396713E+02  0.00000000000E+00 0.  1.
</event>
<event>
 5    1  0.1267616E-004  0.9118800E+02  0.7818608E-02  0.1130116E+00
         25   -1    0    0    0    0  0.00000000000E+00  0.00000000000E+00  0.99999998245E-14  0.12500000000E+03  0.12500000000E+03 0.  0.
        -13    1    3    3    0    0 -0.26540044855E+02  0.18277783212E+02  0.39699113126E+02  0.51132006484E+02  0.10566000000E+00 0. -1.
         23    2    1    0    0    0  0.12259382276E+02  0.19948296216E+02  0.16277394208E+02  0.96483679446E+02  0.92173314259E+02 0.  0.
         13    1    3    3    0    0  0.38799427131E+02  0.16705130041E+01 -0.23421718918E+02  0.45351672962E+02  0.10566000000E+00 0.  1.
         22    1    1    0    0    0 -0.12259382276E+02 -0.19948296216E+02 -0.16277394208E+02  0.28516320554E+02  0.00000000000E+00 0. -1.
</event>
<event>
 5    1  0.1267616E-004  0.9118800E+02  0.7818608E-02  0.1130116E+00
         25   -1    0    0    0    0  0.00000000000E+00  0.00000000000E+00  0.99999998245E-14  0.12500000000E+03  0.12500000000E+03 0.  0.
        -13    1    3    3    0    0 -0.30325978884E+02  0.73583047745E+01  0.31714924018E+02  0.44493338984E+02  0.10566000000E+00 0. -1.
         23    2    1    0    0    0 -0.24449797497E+02 -0.28825036565E+01 -0.17299936169E+02  0.94910313787E+02  0.90014323564E+02 0.  0.
         13    1    3    3    0    0  0.58761813875E+01 -0.10240808431E+02 -0.49014860188E+02  0.50416974803E+02  0.10566000000E+00 0.  1.
         22    1    1    0    0    0  0.24449797497E+02  0.28825036565E+01  0.17299936169E+02  0.30089686213E+02  0.00000000000E+00 0. -1.
</event>
<event>
 5    1  0.1267616E-004  0.9118800E+02  0.7818608E-02  0.1130116E+00
         25   -1    0    0    0    0  0.00000000000E+00  0.00000000000E+00  0.99999998245E-14  0.12500000000E+03  0.12500000000E+03 0.  0.
        -13    1    3    3    0    0  0.40406052743E+01  0.18235155572E+02  0.56358714930E+02  0.59373085673E+02  0.10566000000E+00 0. -1.
         23    2    1    0    0    0 -0.92764661476E+01  0.83914390782E+00  0.29670282619E+02  0.93902047376E+02  0.88603114189E+02 0.  0.
         13    1    3    3    0    0 -0.13317071422E+02 -0.17396011664E+02 -0.26688432311E+02  0.34528961703E+02  0.10566000000E+00 0.  1.
         22    1    1    0    0    0  0.92764661476E+01 -0.83914390782E+00 -0.29670282619E+02  0.31097952624E+02  0.00000000000E+00 0. -1.
</event>
<event>
 5    1  0.1267616E-004  0.9118800E+02  0.7818608E-02  0.1130116E+00
         25   -1    0    0    0    0  0.00000000000E+00  0.00000000000E+00  0.99999998245E-14  0.12500000000E+03  0.12500000000E+03 0.  0.
        -13    1    3    3    0    0  0.42389418444E+02  0.35895103053E+02  0.14918069332E+02  0.57514182389E+02  0.10566000000E+00 0.  1.
         23    2    1    0    0    0  0.25855617452E+02  0.12022217754E+02 -0.89613706382E+01  0.95110991363E+02  0.90292568027E+02 0.  0.
         13    1    3    3    0    0 -0.16533800992E+02 -0.23872885299E+02 -0.23879439971E+02  0.37596808975E+02  0.10566000000E+00 0. -1.
         22    1    1    0    0    0 -0.25855617452E+02 -0.12022217754E+02  0.89613706382E+01  0.29889008637E+02  0.00000000000E+00 0.  1.
</event>
<event>
 5    1  0.1267616E-004  0.9118800E+02  0.7818608E-02  0.1130116E+00
         25   -1    0    0    0    0  0.00000000000E+00  0.00000000000E+00  0.99999998245E-14  0.12500000000E+03  0.12500000000E+03 0.  0.
        -13    1    3    3    0    0  0.11474642968E+02 -0.34854946669E+02  0.48059668935E+02  0.60467162003E+02  0.10566000000E+00 0.  1.
         23    2    1    0    0    0  0.14345297773E+02 -0.25991311748E+02  0.22270632248E+02  0.87887779435E+02  0.79667715285E+02 0.  0.
         13    1    3    3    0    0  0.28706548058E+01  0.88636349218E+01 -0.25789036687E+02  0.27420617431E+02  0.10566000000E+00 0. -1.
         22    1    1    0    0    0 -0.14345297773E+02  0.25991311748E+02 -0.22270632248E+02  0.37112220565E+02  0.00000000000E+00 0.  1.
</event>
<event>
 5    1  0.1267616E-004  0.9118800E+02  0.7818608E-02  0.1130116E+00
         25   -1    0    0    0    0  0.00000000000E+00  0.00000000000E+00  0.99999998245E-14  0.12500000000E+03  0.12500000000E+03 0.  0.
        -13    1    3    3    0    0  0.50797767525E+02  0.94558898144E+01 -0.17575423678E+02  0.54577776789E+02  0.10566000000E+00 0. -1.
         23    2    1    0    0    0  0.26645295653E+02 -0.14787625012E+02  0.27872316739E+01  0.94399112851E+02  0.89301613718E+02 0.  0.
         13    1    3    3    0    0 -0.24152471872E+02 -0.24243514826E+02  0.20362655352E+02  0.39821336061E+02  0.10566000000E+00 0.  1.
         22    1    1    0    0    0 -0.26645295653E+02  0.14787625012E+02 -0.27872316739E+01  0.30600887149E+02  0.00000000000E+00 0. -1.
</event>
<event>
 5    1  0.1267616E-004  0.9118800E+02  0.7818608E-02  0.1130116E+00
         25   -1    0    0    0    0  0.00000000000E+00  0.00000000000E+00  0.99999998245E-14  0.12500000000E+03  0.12500000000E+03 0.  0.
        -13    1    3    3    0    0  0.33284996901E+02 -0.26299302104E+01  0.90673571368E+01  0.34598203437E+02  0.10566000000E+00 0.  1.
         23    2    1    0    0    0 -0.27159709005E+02 -0.99862789016E+01  0.76458819298E+00  0.96052458573E+02  0.91586651010E+02 0.  0.
         13    1    3    3    0    0 -0.60444705906E+02 -0.73563486913E+01 -0.83027689438E+01  0.61454255136E+02  0.10566000000E+00 0. -1.
         22    1    1    0    0    0  0.27159709005E+02  0.99862789016E+01 -0.76458819298E+00  0.28947541427E+02  0.00000000000E+00 0. -1.
</event>
<event>
 5    1  0.1267616E-004  0.9118800E+02  0.7818608E-02  0.1130116E+00
         25   -1    0    0    0    0  0.00000000000E+00  0.00000000000E+00  0.99999998245E-14  0.12500000000E+03  0.12500000000E+03 0.  0.
        -13    1    3    3    0    0 -0.47245571574E+02  0.19841549317E+02  0.18501282208E+02  0.54480636194E+02  0.10566000000E+00 0. -1.
         23    2    1    0    0    0 -0.19057633752E+02 -0.10819281151E+02  0.18792976783E+02  0.96130877651E+02  0.91693617077E+02 0.  0.
         13    1    3    3    0    0  0.28187937822E+02 -0.30660830468E+02  0.29169457487E+00  0.41650241457E+02  0.10566000000E+00 0.  1.
         22    1    1    0    0    0  0.19057633752E+02  0.10819281151E+02 -0.18792976783E+02  0.28869122349E+02  0.00000000000E+00 0. -1.
</event>
<event>
 5    1  0.1267616E-004  0.9118800E+02  0.7818608E-02  0.1130116E+00
         25   -1    0    0    0    0  0.00000000000E+00  0.00000000000E+00  0.99999998245E-14  0.12500000000E+03  0.12500000000E+03 0.  0.
        -13    1    3    3    0    0  0.42883847813E+01 -0.43974994303E+02  0.79485779441E+01  0.44892999715E+02  0.10566000000E+00 0. -1.
         23    2    1    0    0    0 -0.52445803906E+01 -0.80350378064E+01 -0.27260034561E+02  0.96100571973E+02  0.91652293988E+02 0.  0.
         13    1    3    3    0    0 -0.95329651719E+01  0.35939956497E+02 -0.35208612505E+02  0.51207572258E+02  0.10566000000E+00 0.  1.
         22    1    1    0    0    0  0.52445803906E+01  0.80350378064E+01  0.27260034561E+02  0.28899428027E+02  0.00000000000E+00 0.  1.
</event>
<event>
 5    1  0.1267616E-004  0.9118800E+02  0.7818608E-02  0.1130116E+00
         25   -1    0    0    0    0  0.00000000000E+00  0.00000000000E+00  0.99999998245E-14  0.12500000000E+03  0.12500000000E+03 0.  0.
        -13    1    3    3    0    0 -0.28588835346E+02 -0.45397815693E+02 -0.20304970675E+02  0.57363631111E+02  0.10566000000E+00 0.  1.
         23    2    1    0    0    0 -0.26381931196E+02 -0.87411867670E+01 -0.89389318057E+01  0.95805494668E+02  0.91248965293E+02 0.  0.
         13    1    3    3    0    0  0.22069041500E+01  0.36656628926E+02  0.11366038869E+02  0.38441863557E+02  0.10566000000E+00 0. -1.
         22    1    1    0    0    0  0.26381931196E+02  0.87411867670E+01  0.89389318057E+01  0.29194505332E+02  0.00000000000E+00 0.  1.
</event>
<event>
 5    1  0.1267616E-004  0.9118800E+02  0.7818608E-02  0.1130116E+00
         25   -1    0    0    0    0  0.00000000000E+00  0.00000000000E+00  0.99999998245E-14  0.12500000000E+03  0.12500000000E+03 0.  0.
        -13    1    3    3    0    0 -0.34621128018E+02 -0.16952300907E+02 -0.71625766198E+01  0.39208630161E+02  0.10566000000E+00 0. -1.
         23    2    1    0    0    0 -0.23112605485E+01  0.28938593300E+02 -0.60597880267E+01  0.95343548115E+02  0.90613945001E+02 0.  0.
         13    1    3    3    0    0  0.32309867469E+02  0.45890894207E+02  0.11027885931E+01  0.56134917954E+02  0.10566000000E+00 0.  1.
         22    1    1    0    0    0  0.23112605485E+01 -0.28938593300E+02  0.60597880267E+01  0.29656451885E+02  0.00000000000E+00 0.  1.
</event>
<event>
 5    1  0.1267616E-004  0.9118800E+02  0.7818608E-02  0.1130116E+00
         25   -1    0    0    0    0  0.00000000000E+00  0.00000000000E+00  0.99999998245E-14  0.12500000000E+03  0.12500000000E+03 0.  0.
        -13    1    3    3    0    0 -0.28193671141E+02 -0.35146453415E+02  0.12578413673E+02  0.46780166038E+02  0.10566000000E+00 0. -1.
         23    2    1    0    0    0  0.18508526761E+02 -0.21638631202E+02  0.66730876589E+01  0.95754042638E+02  0.91178455017E+02 0.  0.
         13    1    3    3    0    0  0.46702197902E+02  0.13507822213E+02 -0.59053260139E+01  0.48973876599E+02  0.10566000000E+00 0.  1.
         22    1    1    0    0    0 -0.18508526761E+02  0.21638631202E+02 -0.66730876589E+01  0.29245957362E+02  0.00000000000E+00 0.  1.
</event>
<event>
 5    1  0.1267616E-004  0.9118800E+02  0.7818608E-02  0.1130116E+00
         25   -1    0    0    0    0  0.00000000000E+00  0.00000000000E+00  0.99999998245E-14  0.12500000000E+03  0.12500000000E+03 0.  0.
        -13    1    3    3    0    0  0.15150764191E+02 -0.54748031456E+02  0.23397190971E+02  0.61435594839E+02  0.10566000000E+00 0.  1.
         23    2    1    0    0    0  0.65958711200E+01 -0.28441863293E+02  0.33218883126E+01  0.95614969025E+02  0.90987593969E+02 0.  0.
         13    1    3    3    0    0 -0.85548930705E+01  0.26306168163E+02 -0.20075302658E+02  0.34179374186E+02  0.10566000000E+00 0. -1.
         22    1    1    0    0    0 -0.65958711200E+01  0.28441863293E+02 -0.33218883126E+01  0.29385030975E+02  0.00000000000E+00 0.  1.
</event>
<event>
 5    1  0.1267616E-004  0.9118800E+02  0.7818608E-02  0.1130116E+00
         25   -1    0    0    0    0  0.00000000000E+00  0.00000000000E+00  0.99999998245E-14  0.12500000000E+03  0.12500000000E+03 0.  0.
        -13    1    3    3    0    0 -0.41046527725E+02  0.55476003714E+01  0.92761528261E+01  0.42445865328E+02  0.10566000000E+00 0. -1.
         23    2    1    0    0    0  0.13202054251E+02  0.18374980790E+02  0.14004420345E+02  0.98390641783E+02  0.94724128108E+02 0.  0.
         13    1    3    3    0    0  0.54248581976E+02  0.12827380419E+02  0.47282675192E+01  0.55944776455E+02  0.10566000000E+00 0.  1.
         22    1    1    0    0    0 -0.13202054251E+02 -0.18374980790E+02 -0.14004420345E+02  0.26609358217E+02  0.00000000000E+00 0.  1.
</event>
<event>
 5    1  0.1267616E-004  0.9118800E+02  0.7818608E-02  0.1130116E+00
         25   -1    0    0    0    0  0.00000000000E+00  0.00000000000E+00  0.99999998245E-14  0.12500000000E+03  0.12500000000E+03 0.  0.
        -13    1    3    3    0    0  0.19774972229E+01 -0.47051430967E+02 -0.20284007685E+02  0.51275723136E+02  0.10566000000E+00 0. -1.
         23    2    1    0    0    0 -0.22247166173E+02 -0.78122744284E+01 -0.13336380044E+02  0.97910757353E+02  0.94088731197E+02 0.  0.
         13    1    3    3    0    0 -0.24224663396E+02  0.39239156539E+02  0.69476276413E+01  0.46635034217E+02  0.10566000000E+00 0.  1.
         22    1    1    0    0    0  0.22247166173E+02  0.78122744284E+01  0.13336380044E+02  0.27089242647E+02  0.00000000000E+00 0. -1.
</event>
<event>
 5    1  0.1267616E-004  0.9118800E+02  0.7818608E-02  0.1130116E+00
         25   -1    0    0    0    0  0.00000000000E+00  0.00000000000E+00  0.99999998245E-14  0.12500000000E+03  0.12500000000E+03 0.  0.
        -13    1    3    3    0    0 -0.48293663336E+01 -0.38100382059E+02 -0.18994002422E+02  0.42845597023E+02  0.10566000000E+00 0.  1.
         23    2    1    0    0    0 -0.13296696231E+02  0.12124669200E+02 -0.25069758257E+02  0.94140600898E+02  0.88939025318E+02 0.  0.
         13    1    3    3    0    0 -0.84673298973E+01  0.50225051259E+02 -0.60757558354E+01  0.51295003875E+02  0.10566000000E+00 0. -1.
         22    1    1    0    0    0  0.13296696231E+02 -0.12124669200E+02  0.25069758257E+02  0.30859399102E+02  0.00000000000E+00 0. -1.
</event>
<event>
 5    1  0.1267616E-004  0.9118800E+02  0.7818608E-02  0.1130116E+00
         25   -1    0    0    0    0  0.00000000000E+00  0.00000000000E+00  0.99999998245E-14  0.12500000000E+03  0.12500000000E+03 0.  0.
        -13    1    3    3    0    0  0.45453488816E+02  0.41963157667E+02  0.74629104706E+01  0.62310773095E+02  0.10566000000E+00 0. -1.
         23    2    1    0    0    0  0.22906404516E+02  0.21824040577E+02  0.72411918602E+01  0.92543460220E+02  0.86665247100E+02 0.  0.
         13    1    3    3    0    0 -0.22547084301E+02 -0.20139117090E+02 -0.22171861035E+00  0.30232687125E+02  0.10566000000E+00 0.  1.
         22    1    1    0    0    0 -0.22906404516E+02 -0.21824040577E+02 -0.72411918602E+01  0.32456539780E+02  0.00000000000E+00 0. -1.
</event>
<event>
 5    1  0.1267616E-004  0.9118800E+02  0.7818608E-02  0.1130116E+00
         25   -1    0    0    0    0  0.00000000000E+00  0.00000000000E+00  0.99999998245E-14  0.12500000000E+03  0.12500000000E+03 0.  0.
        -13    1    3    3    0    0  0.35128585033E+02 -0.46448714244E+02  0.22291498603E+02  0.62357217829E+02  0.10566000000E+00 0.  1.
         23    2    1    0    0    0  0.14139863613E+02 -0.21887339144E+02  0.12379320744E+02  0.96151448218E+02  0.91721655319E+02 0.  0.
         13    1    3    3    0    0 -0.20988721420E+02  0.24561375100E+02 -0.99121778587E+01  0.33794230389E+02  0.10566000000E+00 0. -1.
         22    1    1    0    0    0 -0.14139863613E+02  0.21887339144E+02 -0.12379320744E+02  0.28848551782E+02  0.00000000000E+00 0.  1.
</event>
<event>
 5    1  0.1267616E-004  0.9118800E+02  0.7818608E-02  0.1130116E+00
         25   -1    0    0    0    0  0.00000000000E+00  0.00000000000E+00  0.99999998245E-14  0.12500000000E+03  0.12500000000E+03 0.  0.
        -13    1    3    3    0    0  0.10355258714E+02 -0.10906815607E+01 -0.43803010015E+02  0.45023725076E+02  0.10566000000E+00 0.  1.
         23    2    1    0    0    0 -0.25995843476E+02  0.98308879409E+01 -0.11289496793E+02  0.95001950504E+02  0.90141486708E+02 0.  0.
         13    1    3    3    0    0 -0.36351102190E+02  0.10921569502E+02  0.32513513222E+02  0.49978225428E+02  0.10566000000E+00 0. -1.
         22    1    1    0    0    0  0.25995843476E+02 -0.98308879409E+01  0.11289496793E+02  0.29998049496E+02  0.00000000000E+00 0. -1.
</event>
<event>
 5    1  0.1267616E-004  0.9118800E+02  0.7818608E-02  0.1130116E+00
         25   -1    0    0    0    0  0.00000000000E+00  0.00000000000E+00  0.99999998245E-14  0.12500000000E+03  0.12500000000E+03 0.  0.
        -13    1    3    3    0    0  0.20915119633E+01 -0.35831581269E+02 -0.33291765687E+02  0.48955382392E+02  0.10566000000E+00 0.  1.
         23    2    1    0    0    0 -0.23197867032E+02  0.36394137329E+00 -0.17829958238E+02  0.95739430987E+02  0.91158421151E+02 0.  0.
         13    1    3    3    0    0 -0.25289378995E+02  0.36195522642E+02  0.15461807449E+02  0.46784048595E+02  0.10566000000E+00 0. -1.
         22    1    1    0    0    0  0.23197867032E+02 -0.36394137329E+00  0.17829958238E+02  0.29260569013E+02  0.00000000000E+00 0.  1.
</event>
<event>
 5    1  0.1267616E-004  0.9118800E+02  0.7818608E-02  0.1130116E+00
         25   -1    0    0    0    0  0.00000000000E+00  0.00000000000E+00  0.99999998245E-14  0.12500000000E+03  0.12500000000E+03 0.  0.
        -13    1    3    3    0    0 -0.24337953685E+02 -0.33842339549E+02  0.95588991163E+01  0.42767086084E+02  0.10566000000E+00 0.  1.
         23    2    1    0    0    0 -0.20985837184E+02  0.19006928019E+02 -0.55971494414E+00  0.96680714065E+02  0.92440134770E+02 0.  0.
         13    1    3    3    0    0  0.33521165014E+01  0.52849267569E+02 -0.10118614060E+02  0.53913627981E+02  0.10566000000E+00 0. -1.
         22    1    1    0    0    0  0.20985837184E+02 -0.19006928019E+02  0.55971494414E+00  0.28319285935E+02  0.00000000000E+00 0. -1.
</event>
<event>
 5    1  0.1267616E-004  0.9118800E+02  0.7818608E-02  0.1130116E+00
         25   -1    0    0    0    0  0.00000000000E+00  0.00000000000E+00  0.99999998245E-14  0.12500000000E+03  0.12500000000E+03 0.  0.
        -13    1    3    3    0    0 -0.22805837801E+02 -0.75374419599E+00 -0.26414875095E+02  0.34906033267E+02  0.10566000000E+00 0.  1.
         23    2    1    0    0    0 -0.61514475164E+01  0.60407190732E+01  0.29825799826E+02  0.93953117246E+02  0.88675133558E+02 0.  0.
         13    1    3    3    0    0  0.16654390285E+02  0.67944632692E+01  0.56240674921E+02  0.59047083979E+02  0.10566000000E+00 0. -1.
         22    1    1    0    0    0  0.61514475164E+01 -0.60407190732E+01 -0.29825799826E+02  0.31046882754E+02  0.00000000000E+00 0. -1.
</event>
<event>
 5    1  0.1267616E-004  0.9118800E+02  0.7818608E-02  0.1130116E+00
         25   -1    0    0    0    0  0.00000000000E+00  0.00000000000E+00  0.99999998245E-14  0.12500000000E+03  0.12500000000E+03 0.  0.
        -13    1    3    3    0    0 -0.23592346140E+02 -0.36502107148E+02 -0.26384051980E+02  0.50844193233E+02  0.10566000000E+00 0.  1.
         23    2    1    0    0    0 -0.22791130255E+02  0.78435461879E+01 -0.14912670358E+02  0.96656666175E+02  0.92407610855E+02 0.  0.
         13    1    3    3    0    0  0.80121588524E+00  0.44345653336E+02  0.11471381622E+02  0.45812472942E+02  0.10566000000E+00 0. -1.
         22    1    1    0    0    0  0.22791130255E+02 -0.78435461879E+01  0.14912670358E+02  0.28343333825E+02  0.00000000000E+00 0.  1.
</event>
<event>
 5    1  0.1267616E-004  0.9118800E+02  0.7818608E-02  0.1130116E+00
         25   -1    0    0    0    0  0.00000000000E+00  0.00000000000E+00  0.99999998245E-14  0.12500000000E+03  0.12500000000E+03 0.  0.
        -13    1    3    3    0    0  0.18948840998E+02 -0.28917352798E+02  0.32926442295E+02  0.47743414565E+02  0.10566000000E+00 0. -1.
         23    2    1    0    0    0  0.13529715074E+02  0.16733018931E+02  0.20300901266E+02  0.95416665084E+02  0.90714752224E+02 0.  0.
         13    1    3    3    0    0 -0.54191259241E+01  0.45650371729E+02 -0.12625541029E+02  0.47673250520E+02  0.10566000000E+00 0.  1.
         22    1    1    0    0    0 -0.13529715074E+02 -0.16733018931E+02 -0.20300901266E+02  0.29583334916E+02  0.00000000000E+00 0. -1.
</event>
<event>
 5    1  0.1267616E-004  0.9118800E+02  0.7818608E-02  0.1130116E+00
         25   -1    0    0    0    0  0.00000000000E+00  0.00000000000E+00  0.99999998245E-14  0.12500000000E+03  0.12500000000E+03 0.  0.
        -13    1    3    3    0    0  0.65155720870E+01 -0.48993566900E+02 -0.14948952227E+02  0.51636272270E+02  0.10566000000E+00 0.  1.
         23    2    1    0    0    0  0.49752371761E+01 -0.69843945082E+01 -0.28050405057E+02  0.95668106515E+02  0.91060565717E+02 0.  0.
         13    1    3    3    0    0 -0.15403349109E+01  0.42009172392E+02 -0.13101452829E+02  0.44031834245E+02  0.10566000000E+00 0. -1.
         22    1    1    0    0    0 -0.49752371761E+01  0.69843945082E+01  0.28050405057E+02  0.29331893485E+02  0.00000000000E+00 0.  1.
</event>
<event>
 5    1  0.1267616E-004  0.9118800E+02  0.7818608E-02  0.1130116E+00
         25   -1    0    0    0    0  0.00000000000E+00  0.00000000000E+00  0.99999998245E-14  0.12500000000E+03  0.12500000000E+03 0.  0.
        -13    1    3    3    0    0  0.14840831448E+02 -0.12122387628E+02  0.51962337014E+02  0.55383194128E+02  0.10566000000E+00 0.  1.
         23    2    1    0    0    0  0.12336876906E+02  0.14751185631E+02  0.23993928352E+02  0.94250941363E+02  0.89093969160E+02 0.  0.
         13    1    3    3    0    0 -0.25039545416E+01  0.26873573258E+02 -0.27968408661E+02  0.38867747235E+02  0.10566000000E+00 0. -1.
         22    1    1    0    0    0 -0.12336876906E+02 -0.14751185631E+02 -0.23993928352E+02  0.30749058637E+02  0.00000000000E+00 0.  1.
</event>
<event>
 5    1  0.1267616E-004  0.9118800E+02  0.7818608E-02  0.1130116E+00
         25   -1    0    0    0    0  0.00000000000E+00  0.00000000000E+00  0.99999998245E-14  0.12500000000E+03  0.12500000000E+03 0.  0.
        -13    1    3    3    0    0 -0.31638280658E+02  0.14396977014E+02  0.14935944218E+02  0.37833151387E+02  0.10566000000E+00 0. -1.
         23    2    1    0    0    0  0.22116949120E+02  0.87076442890E+01  0.22323740290E+02  0.92391229892E+02  0.86445401688E+02 0.  0.
         13    1    3    3    0    0  0.53755229778E+02 -0.56893327253E+01  0.73877960723E+01  0.54558078505E+02  0.10566000000E+00 0.  1.
         22    1    1    0    0    0 -0.22116949120E+02 -0.87076442890E+01 -0.22323740290E+02  0.32608770108E+02  0.00000000000E+00 0.  1.
</event>
<event>
 5    1  0.1267616E-004  0.9118800E+02  0.7818608E-02  0.1130116E+00
         25   -1    0    0    0    0  0.00000000000E+00  0.00000000000E+00  0.99999998245E-14  0.12500000000E+03  0.12500000000E+03 0.  0.
        -13    1    3    3    0    0 -0.31980013522E+02 -0.21066005514E+02 -0.46819429166E+02  0.60486097284E+02  0.10566000000E+00 0. -1.
         23    2    1    0    0    0 -0.24805692279E+02 -0.87513668835E+01 -0.16605465882E+02  0.93892922205E+02  0.88590239593E+02 0.  0.
         13    1    3    3    0    0  0.71743212426E+01  0.12314638630E+02  0.30213963284E+02  0.33406824920E+02  0.10566000000E+00 0.  1.
         22    1    1    0    0    0  0.24805692279E+02  0.87513668835E+01  0.16605465882E+02  0.31107077795E+02  0.00000000000E+00 0. -1.
</event>
<event>
 5    1  0.1267616E-004  0.9118800E+02  0.7818608E-02  0.1130116E+00
         25   -1    0    0    0    0  0.00000000000E+00  0.00000000000E+00  0.99999998245E-14  0.12500000000E+03  0.12500000000E+03 0.  0.
        -13    1    3    3    0    0 -0.30718104364E+02  0.62517585879E+00 -0.51096541738E+02  0.59622651084E+02  0.10566000000E+00 0. -1.
         23    2    1    0    0    0 -0.55317029889E+01 -0.74657063958E+01 -0.30402122064E+02  0.93209662853E+02  0.87620863458E+02 0.  0.
         13    1    3    3    0    0  0.25186401375E+02 -0.80908822546E+01  0.20694419674E+02  0.33587011769E+02  0.10566000000E+00 0.  1.
         22    1    1    0    0    0  0.55317029889E+01  0.74657063958E+01  0.30402122064E+02  0.31790337147E+02  0.00000000000E+00 0. -1.
</event>
<event>
 5    1  0.1267616E-004  0.9118800E+02  0.7818608E-02  0.1130116E+00
         25   -1    0    0    0    0  0.00000000000E+00  0.00000000000E+00  0.99999998245E-14  0.12500000000E+03  0.12500000000E+03 0.  0.
        -13    1    3    3    0    0  0.39766198965E+02  0.22153151676E+02 -0.38463600014E+02  0.59595070261E+02  0.10566000000E+00 0. -1.
         23    2    1    0    0    0  0.96639231798E+01  0.58816252016E+01 -0.27070574473E+02  0.95660590862E+02  0.91050248300E+02 0.  0.
         13    1    3    3    0    0 -0.30102275785E+02 -0.16271526475E+02  0.11393025541E+02  0.36065520602E+02  0.10566000000E+00 0.  1.
         22    1    1    0    0    0 -0.96639231798E+01 -0.58816252016E+01  0.27070574473E+02  0.29339409138E+02  0.00000000000E+00 0. -1.
</event>
<event>
 5    1  0.1267616E-004  0.9118800E+02  0.7818608E-02  0.1130116E+00
         25   -1    0    0    0    0  0.00000000000E+00  0.00000000000E+00  0.99999998245E-14  0.12500000000E+03  0.12500000000E+03 0.  0.
        -13    1    3    3    0    0  0.32151551232E+02  0.13605494774E+02  0.16257952429E+02  0.38511867209E+02  0.10566000000E+00 0.  1.
         23    2    1    0    0    0 -0.16269999750E+02  0.19838133642E+02 -0.13823411890E+02  0.95856370258E+02  0.91318632078E+02 0.  0.
         13    1    3    3    0    0 -0.48421550982E+02  0.62326388675E+01 -0.30081364318E+02  0.57344503050E+02  0.10566000000E+00 0. -1.
         22    1    1    0    0    0  0.16269999750E+02 -0.19838133642E+02  0.13823411890E+02  0.29143629742E+02  0.00000000000E+00 0. -1.
</event>
<event>
 5    1  0.1267616E-004  0.9118800E+02  0.7818608E-02  0.1130116E+00
         25   -1    0    0    0    0  0.00000000000E+00  0.00000000000E+00  0.99999998245E-14  0.12500000000E+03  0.12500000000E+03 0.  0.
        -13    1    3    3    0    0 -0.21065328873E+02 -0.38771252781E+02 -0.30795164984E+02  0.53808098584E+02  0.10566000000E+00 0.  1.
         23    2    1    0    0    0  0.41073182277E+01 -0.29602532725E+02  0.63525669243E+00  0.95107131990E+02  0.90287224996E+02 0.  0.
         13    1    3    3    0    0  0.25172647101E+02  0.91687200561E+01  0.31430421676E+02  0.41299033407E+02  0.10566000000E+00 0. -1.
         22    1    1    0    0    0 -0.41073182277E+01  0.29602532725E+02 -0.63525669243E+00  0.29892868010E+02  0.00000000000E+00 0.  1.
</event>
<event>
 5    1  0.1267616E-004  0.9118800E+02  0.7818608E-02  0.1130116E+00
         25   -1    0    0    0    0  0.00000000000E+00  0.00000000000E+00  0.99999998245E-14  0.12500000000E+03  0.12500000000E+03 0.  0.
        -13    1    3    3    0    0  0.28636165834E+01  0.26158412114E+02  0.25413576992E+02  0.36583109270E+02  0.10566000000E+00 0. -1.
         23    2    1    0    0    0  0.15778174799E+02 -0.34065753772E+01 -0.24287636861E+02  0.95837612236E+02  0.91292951859E+02 0.  0.
         13    1    3    3    0    0  0.12914558216E+02 -0.29564987491E+02 -0.49701213854E+02  0.59254502966E+02  0.10566000000E+00 0.  1.
         22    1    1    0    0    0 -0.15778174799E+02  0.34065753772E+01  0.24287636861E+02  0.29162387764E+02  0.00000000000E+00 0.  1.
</event>
<event>
 5    1  0.1267616E-004  0.9118800E+02  0.7818608E-02  0.1130116E+00
         25   -1    0    0    0    0  0.00000000000E+00  0.00000000000E+00  0.99999998245E-14  0.12500000000E+03  0.12500000000E+03 0.  0.
        -13    1    3    3    0    0 -0.13010278684E+02 -0.41918373546E+02 -0.15526418754E+02  0.46556398438E+02  0.10566000000E+00 0. -1.
         23    2    1    0    0    0  0.14102635081E+02 -0.22885431275E+02  0.17171130050E+02  0.93102116245E+02  0.87467302812E+02 0.  0.
         13    1    3    3    0    0  0.27112913764E+02  0.19032942271E+02  0.32697548804E+02  0.46545717806E+02  0.10566000000E+00 0.  1.
         22    1    1    0    0    0 -0.14102635081E+02  0.22885431275E+02 -0.17171130050E+02  0.31897883755E+02  0.00000000000E+00 0. -1.
</event>
<event>
 5    1  0.1267616E-004  0.9118800E+02  0.7818608E-02  0.1130116E+00
         25   -1    0    0    0    0  0.00000000000E+00  0.00000000000E+00  0.99999998245E-14  0.12500000000E+03  0.12500000000E+03 0.  0.
        -13    1    3    3    0    0  0.19681500219E+01  0.29612002594E+02  0.17770298732E+02  0.34591024749E+02  0.10566000000E+00 0. -1.
         23    2    1    0    0    0  0.95796707161E+01 -0.26439610903E+02 -0.64885754980E+01  0.96139564665E+02  0.91705458760E+02 0.  0.
         13    1    3    3    0    0  0.76115206941E+01 -0.56051613497E+02 -0.24258874230E+02  0.61548539916E+02  0.10566000000E+00 0.  1.
         22    1    1    0    0    0 -0.95796707161E+01  0.26439610903E+02  0.64885754980E+01  0.28860435335E+02  0.00000000000E+00 0.  1.
</event>
<event>
 5    1  0.1267616E-004  0.9118800E+02  0.7818608E-02  0.1130116E+00
         25   -1    0    0    0    0  0.00000000000E+00  0.00000000000E+00  0.99999998245E-14  0.12500000000E+03  0.12500000000E+03 0.  0.
        -13    1    3    3    0    0  0.49399547208E+02  0.18259665219E+02  0.28113133277E+02  0.59700000544E+02  0.10566000000E+00 0. -1.
         23    2    1    0    0    0  0.15556791930E+02  0.19316855636E+02  0.15029223753E+02  0.95999443912E+02  0.91514266527E+02 0.  0.
         13    1    3    3    0    0 -0.33842755278E+02  0.10571904167E+01 -0.13083909524E+02  0.36299443368E+02  0.10566000000E+00 0.  1.
         22    1    1    0    0    0 -0.15556791930E+02 -0.19316855636E+02 -0.15029223753E+02  0.29000556088E+02  0.00000000000E+00 0. -1.
</event>
<event>
 5    1  0.1267616E-004  0.9118800E+02  0.7818608E-02  0.1130116E+00
         25   -1    0    0    0    0  0.00000000000E+00  0.00000000000E+00  0.99999998245E-14  0.12500000000E+03  0.12500000000E+03 0.  0.
        -13    1    3    3    0    0 -0.10266392321E+02 -0.21479138273E+02 -0.20658996382E+02  0.31520746942E+02  0.10566000000E+00 0.  1.
         23    2    1    0    0    0  0.11099802078E+02  0.23886130163E+02  0.16487688106E+02  0.93925948455E+02  0.88636827074E+02 0.  0.
         13    1    3    3    0    0  0.21366194399E+02  0.45365268436E+02  0.37146684488E+02  0.62405201513E+02  0.10566000000E+00 0. -1.
         22    1    1    0    0    0 -0.11099802078E+02 -0.23886130163E+02 -0.16487688106E+02  0.31074051545E+02  0.00000000000E+00 0. -1.
</event>
<event>
 5    1  0.1267616E-004  0.9118800E+02  0.7818608E-02  0.1130116E+00
         25   -1    0    0    0    0  0.00000000000E+00  0.00000000000E+00  0.99999998245E-14  0.12500000000E+03  0.12500000000E+03 0.  0.
        -13    1    3    3    0    0 -0.14887872197E+02  0.10436800088E+02 -0.47518629665E+02  0.50878353588E+02  0.10566000000E+00 0.  1.
         23    2    1    0    0    0  0.14124605224E+02  0.21327528524E+02 -0.17630651405E+02  0.93932206151E+02  0.88645651544E+02 0.  0.
         13    1    3    3    0    0  0.29012477421E+02  0.10890728437E+02  0.29887978259E+02  0.43053852562E+02  0.10566000000E+00 0. -1.
         22    1    1    0    0    0 -0.14124605224E+02 -0.21327528524E+02  0.17630651405E+02  0.31067793849E+02  0.00000000000E+00 0.  1.
</event>
<event>
 5    1  0.1267616E-004  0.9118800E+02  0.7818608E-02  0.1130116E+00
         25   -1    0    0    0    0  0.00000000000E+00  0.00000000000E+00  0.99999998245E-14  0.12500000000E+03  0.12500000000E+03 0.  0.
        -13    1    3    3    0    0  0.12958505710E+02  0.38809913829E+02 -0.37563797126E+02  0.55544417364E+02  0.10566000000E+00 0. -1.
         23    2    1    0    0    0 -0.15199483918E+02  0.16709023808E+02 -0.15751211931E+02  0.97462453536E+02  0.93491247633E+02 0.  0.
         13    1    3    3    0    0 -0.28157989627E+02 -0.22100890022E+02  0.21812585195E+02  0.41918036172E+02  0.10566000000E+00 0.  1.
         22    1    1    0    0    0  0.15199483918E+02 -0.16709023808E+02  0.15751211931E+02  0.27537546464E+02  0.00000000000E+00 0. -1.
</event>
<event>
 5    1  0.1267616E-004  0.9118800E+02  0.7818608E-02  0.1130116E+00
         25   -1    0    0    0    0  0.00000000000E+00  0.00000000000E+00  0.99999998245E-14  0.12500000000E+03  0.12500000000E+03 0.  0.
        -13    1    3    3    0    0 -0.50212442583E+02 -0.12410788116E+02 -0.23358811234E+02  0.56753522165E+02  0.10566000000E+00 0. -1.
         23    2    1    0    0    0 -0.28427541239E+02 -0.24093162819E+01  0.71840636723E+01  0.95579927317E+02  0.90939440449E+02 0.  0.
         13    1    3    3    0    0  0.21784901344E+02  0.10001471834E+02  0.30542874907E+02  0.38826405152E+02  0.10566000000E+00 0.  1.
         22    1    1    0    0    0  0.28427541239E+02  0.24093162819E+01 -0.71840636723E+01  0.29420072683E+02  0.00000000000E+00 0. -1.
</event>
<event>
 5    1  0.1267616E-004  0.9118800E+02  0.7818608E-02  0.1130116E+00
         25   -1    0    0    0    0  0.00000000000E+00  0.00000000000E+00  0.99999998245E-14  0.12500000000E+03  0.12500000000E+03 0.  0.
        -13    1    3    3    0    0  0.40959609467E+02  0.16054885368E+02  0.43491505624E+02  0.61862518356E+02  0.10566000000E+00 0. -1.
         23    2    1    0    0    0  0.15280520777E+02  0.12671385378E+02  0.18015301417E+02  0.98193108950E+02  0.94463099872E+02 0.  0.
         13    1    3    3    0    0 -0.25679088690E+02 -0.33834999895E+01 -0.25476204206E+02  0.36330590594E+02  0.10566000000E+00 0.  1.
         22    1    1    0    0    0 -0.15280520777E+02 -0.12671385378E+02 -0.18015301417E+02  0.26806891050E+02  0.00000000000E+00 0. -1.
</event>
<event>
 5    1  0.1267616E-004  0.9118800E+02  0.7818608E-02  0.1130116E+00
         25   -1    0    0    0    0  0.00000000000E+00  0.00000000000E+00  0.99999998245E-14  0.12500000000E+03  0.12500000000E+03 0.  0.
        -13    1    3    3    0    0 -0.16446329566E+02  0.27817796690E+02 -0.77918341090E+01  0.33242072915E+02  0.10566000000E+00 0.  1.
         23    2    1    0    0    0  0.26862727482E+02 -0.69841081074E+01  0.15181169223E+02  0.93363758238E+02  0.87840420989E+02 0.  0.
         13    1    3    3    0    0  0.43309057048E+02 -0.34801904797E+02  0.22973003332E+02  0.60121685323E+02  0.10566000000E+00 0. -1.
         22    1    1    0    0    0 -0.26862727482E+02  0.69841081074E+01 -0.15181169223E+02  0.31636241762E+02  0.00000000000E+00 0. -1.
</event>
<event>
 5    1  0.1267616E-004  0.9118800E+02  0.7818608E-02  0.1130116E+00
         25   -1    0    0    0    0  0.00000000000E+00  0.00000000000E+00  0.99999998245E-14  0.12500000000E+03  0.12500000000E+03 0.  0.
        -13    1    3    3    0    0  0.13294465380E+02 -0.44448186613E+02  0.89984430726E+01  0.47258515049E+02  0.10566000000E+00 0.  1.
         23    2    1    0    0    0  0.30484776335E+02 -0.10161441344E+01  0.30484139382E+01  0.94346338479E+02  0.89227712173E+02 0.  0.
         13    1    3    3    0    0  0.17190310956E+02  0.43432042478E+02 -0.59500291344E+01  0.47087823430E+02  0.10566000000E+00 0. -1.
         22    1    1    0    0    0 -0.30484776335E+02  0.10161441344E+01 -0.30484139382E+01  0.30653661521E+02  0.00000000000E+00 0.  1.
</event>
<event>
 5    1  0.1267616E-004  0.9118800E+02  0.7818608E-02  0.1130116E+00
         25   -1    0    0    0    0  0.00000000000E+00  0.00000000000E+00  0.99999998245E-14  0.12500000000E+03  0.12500000000E+03 0.  0.
        -13    1    3    3    0    0 -0.31707819142E+02 -0.31134778228E+02  0.76346225280E+00  0.44444957517E+02  0.10566000000E+00 0.  1.
         23    2    1    0    0    0  0.17265460841E+02 -0.18513322105E+02 -0.12554894612E+02  0.96742883867E+02  0.92524164232E+02 0.  0.
         13    1    3    3    0    0  0.48973279983E+02  0.12621456124E+02 -0.13318356865E+02  0.52297926350E+02  0.10566000000E+00 0. -1.
         22    1    1    0    0    0 -0.17265460841E+02  0.18513322105E+02  0.12554894612E+02  0.28257116133E+02  0.00000000000E+00 0. -1.
</event>
<event>
 5    1  0.1267616E-004  0.9118800E+02  0.7818608E-02  0.1130116E+00
         25   -1    0    0    0    0  0.00000000000E+00  0.00000000000E+00  0.99999998245E-14  0.12500000000E+03  0.12500000000E+03 0.  0.
        -13    1    3    3    0    0 -0.93627735883E+00  0.55922507918E+02 -0.53251297304E+01  0.56183375458E+02  0.10566000000E+00 0.  1.
         23    2    1    0    0    0 -0.19814711515E+02  0.21497018887E+02 -0.42187888356E+01  0.95461164670E+02  0.90776049525E+02 0.  0.
         13    1    3    3    0    0 -0.18878434156E+02 -0.34425489031E+02  0.11063408948E+01  0.39277789212E+02  0.10566000000E+00 0. -1.
         22    1    1    0    0    0  0.19814711515E+02 -0.21497018887E+02  0.42187888356E+01  0.29538835330E+02  0.00000000000E+00 0.  1.
</event>
<event>
 5    1  0.1267616E-004  0.9118800E+02  0.7818608E-02  0.1130116E+00
         25   -1    0    0    0    0  0.00000000000E+00  0.00000000000E+00  0.99999998245E-14  0.12500000000E+03  0.12500000000E+03 0.  0.
        -13    1    3    3    0    0 -0.19580690360E+02 -0.27925538603E+02 -0.13204216228E+02  0.36573236546E+02  0.10566000000E+00 0.  1.
         23    2    1    0    0    0  0.16666670889E+02  0.10721587568E+02  0.18138399681E+02  0.98134931575E+02  0.94386084217E+02 0.  0.
         13    1    3    3    0    0  0.36247361249E+02  0.38647126171E+02  0.31342615909E+02  0.61561695029E+02  0.10566000000E+00 0. -1.
         22    1    1    0    0    0 -0.16666670889E+02 -0.10721587568E+02 -0.18138399681E+02  0.26865068425E+02  0.00000000000E+00 0. -1.
</event>
<event>
 5    1  0.1267616E-004  0.9118800E+02  0.7818608E-02  0.1130116E+00
         25   -1    0    0    0    0  0.00000000000E+00  0.00000000000E+00  0.99999998245E-14  0.12500000000E+03  0.12500000000E+03 0.  0.
        -13    1    3    3    0    0  0.29207309956E+02  0.36099939588E+02 -0.10370842865E+02  0.47579808101E+02  0.10566000000E+00 0. -1.
         23    2    1    0    0    0 -0.72615273987E+01  0.39420697971E+02 -0.45671480855E+01  0.84656722365E+02  0.74425671588E+02 0.  0.
         13    1    3    3    0    0 -0.36468837355E+02  0.33207583830E+01  0.58036947798E+01  0.37076914264E+02  0.10566000000E+00 0.  1.
         22    1    1    0    0    0  0.72615273987E+01 -0.39420697971E+02  0.45671480855E+01  0.40343277635E+02  0.00000000000E+00 0.  1.
</event>
<event>
 5    1  0.1267616E-004  0.9118800E+02  0.7818608E-02  0.1130116E+00
         25   -1    0    0    0    0  0.00000000000E+00  0.00000000000E+00  0.99999998245E-14  0.12500000000E+03  0.12500000000E+03 0.  0.
        -13    1    3    3    0    0 -0.15861834031E+02  0.30065466838E+02  0.31016107698E+02  0.46016737996E+02  0.10566000000E+00 0. -1.
         23    2    1    0    0    0  0.24494671340E+02  0.15345354230E+02  0.68892525133E+01  0.95285851507E+02  0.90534318779E+02 0.  0.
         13    1    3    3    0    0  0.40356505371E+02 -0.14720112609E+02 -0.24126855185E+02  0.49269113511E+02  0.10566000000E+00 0.  1.
         22    1    1    0    0    0 -0.24494671340E+02 -0.15345354230E+02 -0.68892525133E+01  0.29714148493E+02  0.00000000000E+00 0.  1.
</event>
<event>
 5    1  0.1267616E-004  0.9118800E+02  0.7818608E-02  0.1130116E+00
         25   -1    0    0    0    0  0.00000000000E+00  0.00000000000E+00  0.99999998245E-14  0.12500000000E+03  0.12500000000E+03 0.  0.
        -13    1    3    3    0    0  0.47603278188E+01 -0.44441005324E+01  0.55126929288E+02  0.55510361620E+02  0.10566000000E+00 0. -1.
         23    2    1    0    0    0 -0.18137622149E+02  0.24801356144E+00  0.17572291222E+02  0.99744896224E+02  0.96494684082E+02 0.  0.
         13    1    3    3    0    0 -0.22897949967E+02  0.46921140939E+01 -0.37554638065E+02  0.44234534604E+02  0.10566000000E+00 0.  1.
         22    1    1    0    0    0  0.18137622149E+02 -0.24801356144E+00 -0.17572291222E+02  0.25255103776E+02  0.00000000000E+00 0. -1.
</event>
<event>
 5    1  0.1267616E-004  0.9118800E+02  0.7818608E-02  0.1130116E+00
         25   -1    0    0    0    0  0.00000000000E+00  0.00000000000E+00  0.99999998245E-14  0.12500000000E+03  0.12500000000E+03 0.  0.
        -13    1    3    3    0    0  0.34342511219E+00  0.14215166661E+02  0.50307368103E+02  0.52278402361E+02  0.10566000000E+00 0. -1.
         23    2    1    0    0    0  0.11508070684E+02  0.24952405536E+02  0.95017600115E+01  0.95925239877E+02  0.91412854508E+02 0.  0.
         13    1    3    3    0    0  0.11164645572E+02  0.10737238875E+02 -0.40805608091E+02  0.43646837516E+02  0.10566000000E+00 0.  1.
         22    1    1    0    0    0 -0.11508070684E+02 -0.24952405536E+02 -0.95017600115E+01  0.29074760123E+02  0.00000000000E+00 0.  1.
</event>
<event>
 5    1  0.1267616E-004  0.9118800E+02  0.7818608E-02  0.1130116E+00
         25   -1    0    0    0    0  0.00000000000E+00  0.00000000000E+00  0.99999998245E-14  0.12500000000E+03  0.12500000000E+03 0.  0.
        -13    1    3    3    0    0  0.14459719804E+02  0.85653299687E+01  0.35538402436E+02  0.39312053953E+02  0.10566000000E+00 0.  1.
         23    2    1    0    0    0 -0.24987714418E+02 -0.13554566653E+02  0.42406359893E+00  0.96569523765E+02  0.92289657824E+02 0.  0.
         13    1    3    3    0    0 -0.39447434222E+02 -0.22119896622E+02 -0.35114338837E+02  0.57257469812E+02  0.10566000000E+00 0. -1.
         22    1    1    0    0    0  0.24987714418E+02  0.13554566653E+02 -0.42406359893E+00  0.28430476235E+02  0.00000000000E+00 0. -1.
</event>
<event>
 5    1  0.1267616E-004  0.9118800E+02  0.7818608E-02  0.1130116E+00
         25   -1    0    0    0    0  0.00000000000E+00  0.00000000000E+00  0.99999998245E-14  0.12500000000E+03  0.12500000000E+03 0.  0.
        -13    1    3    3    0    0  0.38290928373E+02  0.26975604021E+02 -0.14204633224E+02  0.48945491897E+02  0.10566000000E+00 0.  1.
         23    2    1    0    0    0  0.66165216616E+01  0.19694571096E+02  0.20023216049E+02  0.96145474003E+02  0.91713513185E+02 0.  0.
         13    1    3    3    0    0 -0.31674406711E+02 -0.72810329248E+01  0.34227849273E+02  0.47199982106E+02  0.10566000000E+00 0. -1.
         22    1    1    0    0    0 -0.66165216616E+01 -0.19694571096E+02 -0.20023216049E+02  0.28854525997E+02  0.00000000000E+00 0. -1.
</event>
<event>
 5    1  0.1267616E-004  0.9118800E+02  0.7818608E-02  0.1130116E+00
         25   -1    0    0    0    0  0.00000000000E+00  0.00000000000E+00  0.99999998245E-14  0.12500000000E+03  0.12500000000E+03 0.  0.
        -13    1    3    3    0    0  0.11601635012E+02 -0.99207107019E+01  0.53847623236E+02  0.55969600034E+02  0.10566000000E+00 0.  1.
         23    2    1    0    0    0  0.22541659735E+02  0.43120958662E+01  0.18857939293E+02  0.95295749989E+02  0.90547984501E+02 0.  0.
         13    1    3    3    0    0  0.10940024722E+02  0.14232806568E+02 -0.34989683943E+02  0.39326149954E+02  0.10566000000E+00 0. -1.
         22    1    1    0    0    0 -0.22541659735E+02 -0.43120958662E+01 -0.18857939293E+02  0.29704250011E+02  0.00000000000E+00 0. -1.
</event>
<event>
 5    1  0.1267616E-004  0.9118800E+02  0.7818608E-02  0.1130116E+00
         25   -1    0    0    0    0  0.00000000000E+00  0.00000000000E+00  0.99999998245E-14  0.12500000000E+03  0.12500000000E+03 0.  0.
        -13    1    3    3    0    0 -0.29482242972E+02  0.14534630401E+02  0.11254039215E+02  0.34743671283E+02  0.10566000000E+00 0.  1.
         23    2    1    0    0    0  0.14809270248E+02 -0.12384068642E+02 -0.21538257217E+02  0.96076373579E+02  0.91619285059E+02 0.  0.
         13    1    3    3    0    0  0.44291513220E+02 -0.26918699043E+02 -0.32792296432E+02  0.61332702295E+02  0.10566000000E+00 0. -1.
         22    1    1    0    0    0 -0.14809270248E+02  0.12384068642E+02  0.21538257217E+02  0.28923626421E+02  0.00000000000E+00 0. -1.
</event>
<event>
 5    1  0.1267616E-004  0.9118800E+02  0.7818608E-02  0.1130116E+00
         25   -1    0    0    0    0  0.00000000000E+00  0.00000000000E+00  0.99999998245E-14  0.12500000000E+03  0.12500000000E+03 0.  0.
        -13    1    3    3    0    0 -0.38463198157E+01  0.24106047804E+02 -0.36585009777E+02  0.43981471340E+02  0.10566000000E+00 0. -1.
         23    2    1    0    0    0  0.26671954739E+02  0.11852908140E+02  0.32444040009E+01  0.95633169079E+02  0.91012594018E+02 0.  0.
         13    1    3    3    0    0  0.30518274555E+02 -0.12253139663E+02  0.39829413778E+02  0.51651697739E+02  0.10566000000E+00 0.  1.
         22    1    1    0    0    0 -0.26671954739E+02 -0.11852908140E+02 -0.32444040009E+01  0.29366830921E+02  0.00000000000E+00 0.  1.
</event>
<event>
 5    1  0.1267616E-004  0.9118800E+02  0.7818608E-02  0.1130116E+00
         25   -1    0    0    0    0  0.00000000000E+00  0.00000000000E+00  0.99999998245E-14  0.12500000000E+03  0.12500000000E+03 0.  0.
        -13    1    3    3    0    0  0.27321501828E+02 -0.28569780953E+02 -0.16759965747E+02  0.42937215346E+02  0.10566000000E+00 0. -1.
         23    2    1    0    0    0 -0.21249099814E+02 -0.18941027878E+02  0.32624492918E+01  0.96348117769E+02  0.91989289824E+02 0.  0.
         13    1    3    3    0    0 -0.48570601642E+02  0.96287530751E+01  0.20022415039E+02  0.53410902423E+02  0.10566000000E+00 0.  1.
         22    1    1    0    0    0  0.21249099814E+02  0.18941027878E+02 -0.32624492918E+01  0.28651882231E+02  0.00000000000E+00 0.  1.
</event>
<event>
 5    1  0.1267616E-004  0.9118800E+02  0.7818608E-02  0.1130116E+00
         25   -1    0    0    0    0  0.00000000000E+00  0.00000000000E+00  0.99999998245E-14  0.12500000000E+03  0.12500000000E+03 0.  0.
        -13    1    3    3    0    0  0.24209159576E+02  0.10994029712E+02  0.38461988161E+02  0.46757756512E+02  0.10566000000E+00 0.  1.
         23    2    1    0    0    0  0.22927051954E+02 -0.66476373114E+01 -0.10577725257E+02  0.98890058125E+02  0.95380891856E+02 0.  0.
         13    1    3    3    0    0 -0.12821076226E+01 -0.17641667023E+02 -0.49039713418E+02  0.52132301613E+02  0.10566000000E+00 0. -1.
         22    1    1    0    0    0 -0.22927051954E+02  0.66476373114E+01  0.10577725257E+02  0.26109941875E+02  0.00000000000E+00 0. -1.
</event>
<event>
 5    1  0.1267616E-004  0.9118800E+02  0.7818608E-02  0.1130116E+00
         25   -1    0    0    0    0  0.00000000000E+00  0.00000000000E+00  0.99999998245E-14  0.12500000000E+03  0.12500000000E+03 0.  0.
        -13    1    3    3    0    0  0.35922486944E+02 -0.15007623397E+02 -0.23853480471E+02  0.45658006120E+02  0.10566000000E+00 0.  1.
         23    2    1    0    0    0  0.20014730868E+02 -0.17348710652E+02  0.19638188634E+02  0.92026894811E+02  0.85916958179E+02 0.  0.
         13    1    3    3    0    0 -0.15907756076E+02 -0.23410872551E+01  0.43491669105E+02  0.46368888691E+02  0.10566000000E+00 0. -1.
         22    1    1    0    0    0 -0.20014730868E+02  0.17348710652E+02 -0.19638188634E+02  0.32973105189E+02  0.00000000000E+00 0. -1.
</event>
<event>
 5    1  0.1267616E-004  0.9118800E+02  0.7818608E-02  0.1130116E+00
         25   -1    0    0    0    0  0.00000000000E+00  0.00000000000E+00  0.99999998245E-14  0.12500000000E+03  0.12500000000E+03 0.  0.
        -13    1    3    3    0    0 -0.25266574626E+02 -0.32810644836E+02 -0.33455856964E+01  0.41546868902E+02  0.10566000000E+00 0. -1.
         23    2    1    0    0    0  0.11899338064E+02 -0.40550866500E+00 -0.26444793016E+02  0.95998521395E+02  0.91513006445E+02 0.  0.
         13    1    3    3    0    0  0.37165912690E+02  0.32405136171E+02 -0.23099207319E+02  0.54451652493E+02  0.10566000000E+00 0.  1.
         22    1    1    0    0    0 -0.11899338064E+02  0.40550866500E+00  0.26444793016E+02  0.29001478605E+02  0.00000000000E+00 0.  1.
</event>
<event>
 5    1  0.1267616E-004  0.9118800E+02  0.7818608E-02  0.1130116E+00
         25   -1    0    0    0    0  0.00000000000E+00  0.00000000000E+00  0.99999998245E-14  0.12500000000E+03  0.12500000000E+03 0.  0.
        -13    1    3    3    0    0 -0.34765408911E+02  0.16169465647E+01 -0.22274193658E+02  0.41320685378E+02  0.10566000000E+00 0. -1.
         23    2    1    0    0    0  0.15111310343E+02  0.21650525914E+02 -0.11795234896E+02  0.96082452751E+02  0.91627578751E+02 0.  0.
         13    1    3    3    0    0  0.49876719254E+02  0.20033579350E+02  0.10478958762E+02  0.54761767373E+02  0.10566000000E+00 0.  1.
         22    1    1    0    0    0 -0.15111310343E+02 -0.21650525914E+02  0.11795234896E+02  0.28917547249E+02  0.00000000000E+00 0.  1.
</event>
<event>
 5    1  0.1267616E-004  0.9118800E+02  0.7818608E-02  0.1130116E+00
         25   -1    0    0    0    0  0.00000000000E+00  0.00000000000E+00  0.99999998245E-14  0.12500000000E+03  0.12500000000E+03 0.  0.
        -13    1    3    3    0    0 -0.44627926294E+02  0.68259051400E+01  0.43217274588E+02  0.62497910150E+02  0.10566000000E+00 0. -1.
         23    2    1    0    0    0 -0.20012124190E+02  0.34156586628E+01  0.19343330860E+02  0.96958668229E+02  0.92815230740E+02 0.  0.
         13    1    3    3    0    0  0.24615802103E+02 -0.34102464772E+01 -0.23873943728E+02  0.34460758079E+02  0.10566000000E+00 0.  1.
         22    1    1    0    0    0  0.20012124190E+02 -0.34156586628E+01 -0.19343330860E+02  0.28041331771E+02  0.00000000000E+00 0. -1.
</event>
<event>
 5    1  0.1267616E-004  0.9118800E+02  0.7818608E-02  0.1130116E+00
         25   -1    0    0    0    0  0.00000000000E+00  0.00000000000E+00  0.99999998245E-14  0.12500000000E+03  0.12500000000E+03 0.  0.
        -13    1    3    3    0    0 -0.17099716312E+02  0.11342850213E+00 -0.72606476825E+01  0.18577979782E+02  0.10566000000E+00 0. -1.
         23    2    1    0    0    0  0.28548983733E+02  0.19860243020E+02  0.28664128238E+02  0.79932206925E+02  0.66015541589E+02 0.  0.
         13    1    3    3    0    0  0.45648700045E+02  0.19746814518E+02  0.35924775920E+02  0.61354227143E+02  0.10566000000E+00 0.  1.
         22    1    1    0    0    0 -0.28548983733E+02 -0.19860243020E+02 -0.28664128238E+02  0.45067793075E+02  0.00000000000E+00 0.  1.
</event>
<event>
 5    1  0.1267616E-004  0.9118800E+02  0.7818608E-02  0.1130116E+00
         25   -1    0    0    0    0  0.00000000000E+00  0.00000000000E+00  0.99999998245E-14  0.12500000000E+03  0.12500000000E+03 0.  0.
        -13    1    3    3    0    0  0.17934101435E+02 -0.15322640885E+02  0.40277876199E+02  0.46676908564E+02  0.10566000000E+00 0.  1.
         23    2    1    0    0    0 -0.11968734210E+02 -0.15241411572E+02 -0.84580751111E+01  0.10385549102E+03  0.10168024762E+03 0.  0.
         13    1    3    3    0    0 -0.29902835645E+02  0.81229312678E-01 -0.48735951310E+02  0.57178582459E+02  0.10566000000E+00 0. -1.
         22    1    1    0    0    0  0.11968734210E+02  0.15241411572E+02  0.84580751111E+01  0.21144508977E+02  0.00000000000E+00 0. -1.
</event>
<event>
 5    1  0.1267616E-004  0.9118800E+02  0.7818608E-02  0.1130116E+00
         25   -1    0    0    0    0  0.00000000000E+00  0.00000000000E+00  0.99999998245E-14  0.12500000000E+03  0.12500000000E+03 0.  0.
        -13    1    3    3    0    0 -0.30884620844E+02  0.78377024974E+01 -0.47178868793E+02  0.56931065419E+02  0.10566000000E+00 0. -1.
         23    2    1    0    0    0 -0.26668596788E+02  0.81885277516E+01 -0.85062117233E+01  0.95834580763E+02  0.91288801015E+02 0.  0.
         13    1    3    3    0    0  0.42160240553E+01  0.35082525424E+00  0.38672657070E+02  0.38903515344E+02  0.10566000000E+00 0.  1.
         22    1    1    0    0    0  0.26668596788E+02 -0.81885277516E+01  0.85062117233E+01  0.29165419237E+02  0.00000000000E+00 0. -1.
</event>
<event>
 5    1  0.1267616E-004  0.9118800E+02  0.7818608E-02  0.1130116E+00
         25   -1    0    0    0    0  0.00000000000E+00  0.00000000000E+00  0.99999998245E-14  0.12500000000E+03  0.12500000000E+03 0.  0.
        -13    1    3    3    0    0 -0.25415911461E+02 -0.36958435693E+01  0.43610704916E+02  0.50611585259E+02  0.10566000000E+00 0.  1.
         23    2    1    0    0    0  0.16732976226E+02  0.41276802396E+01  0.15009212231E+02  0.10214596995E+03  0.99556478887E+02 0.  0.
         13    1    3    3    0    0  0.42148887687E+02  0.78235238089E+01 -0.28601492685E+02  0.51534384695E+02  0.10566000000E+00 0. -1.
         22    1    1    0    0    0 -0.16732976226E+02 -0.41276802396E+01 -0.15009212231E+02  0.22854030046E+02  0.00000000000E+00 0. -1.
</event>
<event>
 5    1  0.1267616E-004  0.9118800E+02  0.7818608E-02  0.1130116E+00
         25   -1    0    0    0    0  0.00000000000E+00  0.00000000000E+00  0.99999998245E-14  0.12500000000E+03  0.12500000000E+03 0.  0.
        -13    1    3    3    0    0  0.16996584019E+02 -0.25869915070E+02 -0.33086168985E+02  0.45308300743E+02  0.10566000000E+00 0.  1.
         23    2    1    0    0    0  0.25715776672E+02  0.14624509573E+02 -0.59610322986E+01  0.94822005431E+02  0.89891608940E+02 0.  0.
         13    1    3    3    0    0  0.87191926536E+01  0.40494424644E+02  0.27125136686E+02  0.49513704689E+02  0.10566000000E+00 0. -1.
         22    1    1    0    0    0 -0.25715776672E+02 -0.14624509573E+02  0.59610322986E+01  0.30177994569E+02  0.00000000000E+00 0. -1.
</event>
<event>
 5    1  0.1267616E-004  0.9118800E+02  0.7818608E-02  0.1130116E+00
         25   -1    0    0    0    0  0.00000000000E+00  0.00000000000E+00  0.99999998245E-14  0.12500000000E+03  0.12500000000E+03 0.  0.
        -13    1    3    3    0    0  0.12081199222E+02  0.11085745122E+02 -0.11336938093E+02  0.19934554143E+02  0.10566000000E+00 0. -1.
         23    2    1    0    0    0  0.29661465379E+02 -0.20987923838E+02  0.31956992008E+02  0.76610488598E+02  0.59393788813E+02 0.  0.
         13    1    3    3    0    0  0.17580266157E+02 -0.32073668960E+02  0.43293930101E+02  0.56675934455E+02  0.10566000000E+00 0.  1.
         22    1    1    0    0    0 -0.29661465379E+02  0.20987923838E+02 -0.31956992008E+02  0.48389511402E+02  0.00000000000E+00 0.  1.
</event>
<event>
 5    1  0.1267616E-004  0.9118800E+02  0.7818608E-02  0.1130116E+00
         25   -1    0    0    0    0  0.00000000000E+00  0.00000000000E+00  0.99999998245E-14  0.12500000000E+03  0.12500000000E+03 0.  0.
        -13    1    3    3    0    0 -0.50166610529E+01  0.30067423288E+02  0.11650567597E+02  0.32633781894E+02  0.10566000000E+00 0. -1.
         23    2    1    0    0    0 -0.75587635301E+01 -0.29329395691E+02 -0.48357550754E+01  0.94328630861E+02  0.89202901944E+02 0.  0.
         13    1    3    3    0    0 -0.25421024771E+01 -0.59396818979E+02 -0.16486322672E+02  0.61694848968E+02  0.10566000000E+00 0.  1.
         22    1    1    0    0    0  0.75587635301E+01  0.29329395691E+02  0.48357550754E+01  0.30671369139E+02  0.00000000000E+00 0.  1.
</event>
<event>
 5    1  0.1267616E-004  0.9118800E+02  0.7818608E-02  0.1130116E+00
         25   -1    0    0    0    0  0.00000000000E+00  0.00000000000E+00  0.99999998245E-14  0.12500000000E+03  0.12500000000E+03 0.  0.
        -13    1    3    3    0    0  0.55156835514E+02  0.26117908925E+02 -0.88245419505E+01  0.61662836257E+02  0.10566000000E+00 0.  1.
         23    2    1    0    0    0  0.22071433516E+02  0.11375688540E+02 -0.10765498683E+02  0.97936178593E+02  0.94122498099E+02 0.  0.
         13    1    3    3    0    0 -0.33085401997E+02 -0.14742220385E+02 -0.19409567326E+01  0.36273342337E+02  0.10566000000E+00 0. -1.
         22    1    1    0    0    0 -0.22071433516E+02 -0.11375688540E+02  0.10765498683E+02  0.27063821407E+02  0.00000000000E+00 0.  1.
</event>
<event>
 5    1  0.1267616E-004  0.9118800E+02  0.7818608E-02  0.1130116E+00
         25   -1    0    0    0    0  0.00000000000E+00  0.00000000000E+00  0.99999998245E-14  0.12500000000E+03  0.12500000000E+03 0.  0.
        -13    1    3    3    0    0  0.13958047721E+02  0.24586727629E+02  0.35058728628E+02  0.45038426802E+02  0.10566000000E+00 0. -1.
         23    2    1    0    0    0  0.22607883783E+01 -0.22091800783E+02  0.19014584113E+02  0.95764520956E+02  0.91192819010E+02 0.  0.
         13    1    3    3    0    0 -0.11697259343E+02 -0.46678528413E+02 -0.16044144516E+02  0.50726094155E+02  0.10566000000E+00 0.  1.
         22    1    1    0    0    0 -0.22607883783E+01  0.22091800783E+02 -0.19014584113E+02  0.29235479044E+02  0.00000000000E+00 0.  1.
</event>
<event>
 5    1  0.1267616E-004  0.9118800E+02  0.7818608E-02  0.1130116E+00
         25   -1    0    0    0    0  0.00000000000E+00  0.00000000000E+00  0.99999998245E-14  0.12500000000E+03  0.12500000000E+03 0.  0.
        -13    1    3    3    0    0  0.10528147051E+02 -0.26717962050E+02  0.11788040599E+01  0.28741818305E+02  0.10566000000E+00 0.  1.
         23    2    1    0    0    0 -0.26652073688E+02 -0.24667379286E+02  0.31627508102E+02  0.76842841639E+02  0.59880801678E+02 0.  0.
         13    1    3    3    0    0 -0.37180220739E+02  0.20505827642E+01  0.30448704042E+02  0.48101023334E+02  0.10566000000E+00 0. -1.
         22    1    1    0    0    0  0.26652073688E+02  0.24667379286E+02 -0.31627508102E+02  0.48157158361E+02  0.00000000000E+00 0.  1.
</event>
<event>
 5    1  0.1267616E-004  0.9118800E+02  0.7818608E-02  0.1130116E+00
         25   -1    0    0    0    0  0.00000000000E+00  0.00000000000E+00  0.99999998245E-14  0.12500000000E+03  0.12500000000E+03 0.  0.
        -13    1    3    3    0    0  0.52045512258E+02 -0.13611475303E+02  0.87024903061E+01  0.54495431989E+02  0.10566000000E+00 0.  1.
         23    2    1    0    0    0  0.24817991389E+02  0.12047148070E+02 -0.91304277044E+01  0.95940901885E+02  0.91434268582E+02 0.  0.
         13    1    3    3    0    0 -0.27227520869E+02  0.25658623372E+02 -0.17832918010E+02  0.41445469895E+02  0.10566000000E+00 0. -1.
         22    1    1    0    0    0 -0.24817991389E+02 -0.12047148070E+02  0.91304277044E+01  0.29059098115E+02  0.00000000000E+00 0.  1.
</event>
<event>
 5    1  0.1267616E-004  0.9118800E+02  0.7818608E-02  0.1130116E+00
         25   -1    0    0    0    0  0.00000000000E+00  0.00000000000E+00  0.99999998245E-14  0.12500000000E+03  0.12500000000E+03 0.  0.
        -13    1    3    3    0    0  0.36309638277E+01  0.34721901546E+02  0.10794991871E+02  0.36542268112E+02  0.10566000000E+00 0.  1.
         23    2    1    0    0    0  0.62056026713E+01 -0.12909545025E+02 -0.25004944690E+02  0.96183110573E+02  0.91764795228E+02 0.  0.
         13    1    3    3    0    0  0.25746388436E+01 -0.47631446571E+02 -0.35799936561E+02  0.59640842461E+02  0.10566000000E+00 0. -1.
         22    1    1    0    0    0 -0.62056026713E+01  0.12909545025E+02  0.25004944690E+02  0.28816889427E+02  0.00000000000E+00 0. -1.
</event>
<event>
 5    1  0.1267616E-004  0.9118800E+02  0.7818608E-02  0.1130116E+00
         25   -1    0    0    0    0  0.00000000000E+00  0.00000000000E+00  0.99999998245E-14  0.12500000000E+03  0.12500000000E+03 0.  0.
        -13    1    3    3    0    0  0.24999527587E+02 -0.37493274186E+02  0.28359835381E+02  0.53244844028E+02  0.10566000000E+00 0. -1.
         23    2    1    0    0    0  0.88472050810E+01  0.12645989966E+01  0.28392732685E+02  0.95233920015E+02  0.90462588973E+02 0.  0.
         13    1    3    3    0    0 -0.16152322506E+02  0.38757873182E+02  0.32897303311E-01  0.41989075987E+02  0.10566000000E+00 0.  1.
         22    1    1    0    0    0 -0.88472050810E+01 -0.12645989966E+01 -0.28392732685E+02  0.29766079985E+02  0.00000000000E+00 0.  1.
</event>
<event>
 5    1  0.1267616E-004  0.9118800E+02  0.7818608E-02  0.1130116E+00
         25   -1    0    0    0    0  0.00000000000E+00  0.00000000000E+00  0.99999998245E-14  0.12500000000E+03  0.12500000000E+03 0.  0.
        -13    1    3    3    0    0  0.11740420824E+02  0.31927536821E+02 -0.11656833932E+02  0.35959672272E+02  0.10566000000E+00 0.  1.
         23    2    1    0    0    0 -0.23814751251E+02 -0.91881255058E+01  0.13800311753E+02  0.95982546081E+02  0.91491182747E+02 0.  0.
         13    1    3    3    0    0 -0.35555172075E+02 -0.41115662327E+02  0.25457145684E+02  0.60022873809E+02  0.10566000000E+00 0. -1.
         22    1    1    0    0    0  0.23814751251E+02  0.91881255058E+01 -0.13800311753E+02  0.29017453919E+02  0.00000000000E+00 0. -1.
</event>
<event>
 5    1  0.1267616E-004  0.9118800E+02  0.7818608E-02  0.1130116E+00
         25   -1    0    0    0    0  0.00000000000E+00  0.00000000000E+00  0.99999998245E-14  0.12500000000E+03  0.12500000000E+03 0.  0.
        -13    1    3    3    0    0  0.49966958099E+02 -0.88698468523E+01 -0.13457441580E+02  0.52502237883E+02  0.10566000000E+00 0. -1.
         23    2    1    0    0    0  0.91458827607E+01 -0.21380584077E+02 -0.18213656981E+02  0.95461654624E+02  0.90776724197E+02 0.  0.
         13    1    3    3    0    0 -0.40821075338E+02 -0.12510737224E+02 -0.47562154017E+01  0.42959416740E+02  0.10566000000E+00 0.  1.
         22    1    1    0    0    0 -0.91458827607E+01  0.21380584077E+02  0.18213656981E+02  0.29538345376E+02  0.00000000000E+00 0.  1.
</event>
<event>
 5    1  0.1267616E-004  0.9118800E+02  0.7818608E-02  0.1130116E+00
         25   -1    0    0    0    0  0.00000000000E+00  0.00000000000E+00  0.99999998245E-14  0.12500000000E+03  0.12500000000E+03 0.  0.
        -13    1    3    3    0    0  0.37908290487E+02  0.30317012168E+02  0.47446534644E+01  0.48771739921E+02  0.10566000000E+00 0.  1.
         23    2    1    0    0    0  0.78196902357E+01  0.21683548470E+02  0.28700260321E+02  0.88189284548E+02  0.80139385678E+02 0.  0.
         13    1    3    3    0    0 -0.30088600251E+02 -0.86334636978E+01  0.23955606857E+02  0.39417544626E+02  0.10566000000E+00 0. -1.
         22    1    1    0    0    0 -0.78196902357E+01 -0.21683548470E+02 -0.28700260321E+02  0.36810715452E+02  0.00000000000E+00 0.  1.
</event>
<event>
 5    1  0.1267616E-004  0.9118800E+02  0.7818608E-02  0.1130116E+00
         25   -1    0    0    0    0  0.00000000000E+00  0.00000000000E+00  0.99999998245E-14  0.12500000000E+03  0.12500000000E+03 0.  0.
        -13    1    3    3    0    0  0.11930953824E+02  0.14041818306E+02  0.30957268744E+02  0.36026156784E+02  0.10566000000E+00 0. -1.
         23    2    1    0    0    0 -0.21651590311E+02  0.93827741424E+01 -0.17820584853E+02  0.95429726784E+02  0.90732748751E+02 0.  0.
         13    1    3    3    0    0 -0.33582544134E+02 -0.46590441635E+01 -0.48777853598E+02  0.59403569999E+02  0.10566000000E+00 0.  1.
         22    1    1    0    0    0  0.21651590311E+02 -0.93827741424E+01  0.17820584853E+02  0.29570273216E+02  0.00000000000E+00 0.  1.
</event>
<event>
 5    1  0.1267616E-004  0.9118800E+02  0.7818608E-02  0.1130116E+00
         25   -1    0    0    0    0  0.00000000000E+00  0.00000000000E+00  0.99999998245E-14  0.12500000000E+03  0.12500000000E+03 0.  0.
        -13    1    3    3    0    0 -0.36347604551E+02  0.27110238227E+02  0.11068414210E+02  0.46675843115E+02  0.10566000000E+00 0. -1.
         23    2    1    0    0    0 -0.83459720922E+01  0.41307794528E+02  0.18558100184E+02  0.78952283212E+02  0.64133226981E+02 0.  0.
         13    1    3    3    0    0  0.28001632459E+02  0.14197556301E+02  0.74896859745E+01  0.32276440097E+02  0.10566000000E+00 0.  1.
         22    1    1    0    0    0  0.83459720922E+01 -0.41307794528E+02 -0.18558100184E+02  0.46047716788E+02  0.00000000000E+00 0. -1.
</event>
<event>
 5    1  0.1267616E-004  0.9118800E+02  0.7818608E-02  0.1130116E+00
         25   -1    0    0    0    0  0.00000000000E+00  0.00000000000E+00  0.99999998245E-14  0.12500000000E+03  0.12500000000E+03 0.  0.
        -13    1    3    3    0    0  0.40699593199E+02 -0.12239518456E+02  0.47050316873E+00  0.42502885030E+02  0.10566000000E+00 0.  1.
         23    2    1    0    0    0 -0.93170583666E+01 -0.26822760019E+02 -0.84808700844E+01  0.95365675492E+02  0.90644464106E+02 0.  0.
         13    1    3    3    0    0 -0.50016651566E+02 -0.14583241562E+02 -0.89513732531E+01  0.52862790462E+02  0.10566000000E+00 0. -1.
         22    1    1    0    0    0  0.93170583666E+01  0.26822760019E+02  0.84808700844E+01  0.29634324508E+02  0.00000000000E+00 0. -1.
</event>
<event>
 5    1  0.1267616E-004  0.9118800E+02  0.7818608E-02  0.1130116E+00
         25   -1    0    0    0    0  0.00000000000E+00  0.00000000000E+00  0.99999998245E-14  0.12500000000E+03  0.12500000000E+03 0.  0.
        -13    1    3    3    0    0 -0.18783975654E+02  0.20347167763E+02  0.54956667236E+02  0.61539348510E+02  0.10566000000E+00 0.  1.
         23    2    1    0    0    0 -0.32140367588E+01  0.14874814531E+02  0.25511328022E+02  0.95294478678E+02  0.90546229460E+02 0.  0.
         13    1    3    3    0    0  0.15569938895E+02 -0.54723532320E+01 -0.29445339215E+02  0.33755130167E+02  0.10566000000E+00 0. -1.
         22    1    1    0    0    0  0.32140367588E+01 -0.14874814531E+02 -0.25511328022E+02  0.29705521322E+02  0.00000000000E+00 0.  1.
</event>
<event>
 5    1  0.1267616E-004  0.9118800E+02  0.7818608E-02  0.1130116E+00
         25   -1    0    0    0    0  0.00000000000E+00  0.00000000000E+00  0.99999998245E-14  0.12500000000E+03  0.12500000000E+03 0.  0.
        -13    1    3    3    0    0  0.32314109568E+02 -0.81375181202E+01 -0.21865354066E+01  0.33394804678E+02  0.10566000000E+00 0.  1.
         23    2    1    0    0    0 -0.22802209453E+02  0.14831001613E+02 -0.14220301682E+02  0.94306086194E+02  0.89171304513E+02 0.  0.
         13    1    3    3    0    0 -0.55116319021E+02  0.22968519734E+02 -0.12033766275E+02  0.60911281517E+02  0.10566000000E+00 0. -1.
         22    1    1    0    0    0  0.22802209453E+02 -0.14831001613E+02  0.14220301682E+02  0.30693913806E+02  0.00000000000E+00 0. -1.
</event>
<event>
 5    1  0.1267616E-004  0.9118800E+02  0.7818608E-02  0.1130116E+00
         25   -1    0    0    0    0  0.00000000000E+00  0.00000000000E+00  0.99999998245E-14  0.12500000000E+03  0.12500000000E+03 0.  0.
        -13    1    3    3    0    0 -0.27776014367E+02 -0.21656391473E+02 -0.89694200586E+01  0.36345122451E+02  0.10566000000E+00 0.  1.
         23    2    1    0    0    0  0.23875455459E+02 -0.58002418486E+01  0.15805891679E+02  0.95785168310E+02  0.91221116402E+02 0.  0.
         13    1    3    3    0    0  0.51651469826E+02  0.15856149624E+02  0.24775311738E+02  0.59440045860E+02  0.10566000000E+00 0. -1.
         22    1    1    0    0    0 -0.23875455459E+02  0.58002418486E+01 -0.15805891679E+02  0.29214831690E+02  0.00000000000E+00 0. -1.
</event>
<event>
 5    1  0.1267616E-004  0.9118800E+02  0.7818608E-02  0.1130116E+00
         25   -1    0    0    0    0  0.00000000000E+00  0.00000000000E+00  0.99999998245E-14  0.12500000000E+03  0.12500000000E+03 0.  0.
        -13    1    3    3    0    0 -0.15999585632E+02  0.50652533552E+01 -0.31532050380E+02  0.35720090945E+02  0.10566000000E+00 0.  1.
         23    2    1    0    0    0  0.25318315209E+02 -0.14422621728E+02  0.64804587599E+01  0.95149950615E+02  0.90346486671E+02 0.  0.
         13    1    3    3    0    0  0.41317900842E+02 -0.19487875083E+02  0.38012509140E+02  0.59429859670E+02  0.10566000000E+00 0. -1.
         22    1    1    0    0    0 -0.25318315209E+02  0.14422621728E+02 -0.64804587599E+01  0.29850049385E+02  0.00000000000E+00 0. -1.
</event>
<event>
 5    1  0.1267616E-004  0.9118800E+02  0.7818608E-02  0.1130116E+00
         25   -1    0    0    0    0  0.00000000000E+00  0.00000000000E+00  0.99999998245E-14  0.12500000000E+03  0.12500000000E+03 0.  0.
        -13    1    3    3    0    0 -0.22741598082E+02  0.91767450202E+01 -0.42517994638E+02  0.49083438801E+02  0.10566000000E+00 0. -1.
         23    2    1    0    0    0 -0.79557640197E+01 -0.24089047940E+02 -0.10573188290E+02  0.97516027900E+02  0.93562850400E+02 0.  0.
         13    1    3    3    0    0  0.14785834063E+02 -0.33265792960E+02  0.31944806348E+02  0.48432589099E+02  0.10566000000E+00 0.  1.
         22    1    1    0    0    0  0.79557640197E+01  0.24089047940E+02  0.10573188290E+02  0.27483972100E+02  0.00000000000E+00 0. -1.
</event>
<event>
 5    1  0.1267616E-004  0.9118800E+02  0.7818608E-02  0.1130116E+00
         25   -1    0    0    0    0  0.00000000000E+00  0.00000000000E+00  0.99999998245E-14  0.12500000000E+03  0.12500000000E+03 0.  0.
        -13    1    3    3    0    0 -0.22720862292E+02 -0.27005430187E+02  0.29943609738E+02  0.46283493505E+02  0.10566000000E+00 0.  1.
         23    2    1    0    0    0  0.21633947999E+02 -0.16025321627E+02  0.84322879884E+01  0.96787553811E+02  0.92584493587E+02 0.  0.
         13    1    3    3    0    0  0.44354810291E+02  0.10980108560E+02 -0.21511321749E+02  0.50504060306E+02  0.10566000000E+00 0. -1.
         22    1    1    0    0    0 -0.21633947999E+02  0.16025321627E+02 -0.84322879884E+01  0.28212446189E+02  0.00000000000E+00 0. -1.
</event>
<event>
 5    1  0.1267616E-004  0.9118800E+02  0.7818608E-02  0.1130116E+00
         25   -1    0    0    0    0  0.00000000000E+00  0.00000000000E+00  0.99999998245E-14  0.12500000000E+03  0.12500000000E+03 0.  0.
        -13    1    3    3    0    0  0.10364510326E+02  0.38664520151E+02  0.47529340307E+02  0.62140305333E+02  0.10566000000E+00 0. -1.
         23    2    1    0    0    0  0.80196015790E+01  0.20843783502E+02  0.19986911789E+02  0.95029114744E+02  0.90179147734E+02 0.  0.
         13    1    3    3    0    0 -0.23449087472E+01 -0.17820736650E+02 -0.27542428518E+02  0.32888809411E+02  0.10566000000E+00 0.  1.
         22    1    1    0    0    0 -0.80196015790E+01 -0.20843783502E+02 -0.19986911789E+02  0.29970885256E+02  0.00000000000E+00 0. -1.
</event>
<event>
 5    1  0.1267616E-004  0.9118800E+02  0.7818608E-02  0.1130116E+00
         25   -1    0    0    0    0  0.00000000000E+00  0.00000000000E+00  0.99999998245E-14  0.12500000000E+03  0.12500000000E+03 0.  0.
        -13    1    3    3    0    0 -0.22394078317E+02  0.15754957711E+02 -0.20998027891E+02  0.34505677438E+02  0.10566000000E+00 0.  1.
         23    2    1    0    0    0  0.10828303802E+02 -0.18369293221E+02  0.18801263863E+02  0.96571658164E+02  0.92292548676E+02 0.  0.
         13    1    3    3    0    0  0.33222382119E+02 -0.34124250932E+02  0.39799291754E+02  0.62065980726E+02  0.10566000000E+00 0. -1.
         22    1    1    0    0    0 -0.10828303802E+02  0.18369293221E+02 -0.18801263863E+02  0.28428341836E+02  0.00000000000E+00 0. -1.
</event>
<event>
 5    1  0.1267616E-004  0.9118800E+02  0.7818608E-02  0.1130116E+00
         25   -1    0    0    0    0  0.00000000000E+00  0.00000000000E+00  0.99999998245E-14  0.12500000000E+03  0.12500000000E+03 0.  0.
        -13    1    3    3    0    0 -0.16622203814E+01 -0.52339631366E+01  0.26084774193E+02  0.26656780666E+02  0.10566000000E+00 0.  1.
         23    2    1    0    0    0 -0.28441970148E+02  0.13954578669E+02 -0.23054979857E+02  0.85818269207E+02  0.76351603137E+02 0.  0.
         13    1    3    3    0    0 -0.26779749767E+02  0.19188541806E+02 -0.49139754050E+02  0.59161488541E+02  0.10566000000E+00 0. -1.
         22    1    1    0    0    0  0.28441970148E+02 -0.13954578669E+02  0.23054979857E+02  0.39181730793E+02  0.00000000000E+00 0. -1.
</event>
<event>
 5    1  0.1267616E-004  0.9118800E+02  0.7818608E-02  0.1130116E+00
         25   -1    0    0    0    0  0.00000000000E+00  0.00000000000E+00  0.99999998245E-14  0.12500000000E+03  0.12500000000E+03 0.  0.
        -13    1    3    3    0    0 -0.64743618474E+01  0.44778430756E+02 -0.41310493145E+02  0.61266575147E+02  0.10566000000E+00 0.  1.
         23    2    1    0    0    0 -0.10948100380E+02  0.16146420385E+02 -0.15287811194E+02  0.10021522717E+03  0.97102043193E+02 0.  0.
         13    1    3    3    0    0 -0.44737385326E+01 -0.28632010371E+02  0.26022681951E+02  0.38948652022E+02  0.10566000000E+00 0. -1.
         22    1    1    0    0    0  0.10948100380E+02 -0.16146420385E+02  0.15287811194E+02  0.24784772831E+02  0.00000000000E+00 0.  1.
</event>
<event>
 5    1  0.1267616E-004  0.9118800E+02  0.7818608E-02  0.1130116E+00
         25   -1    0    0    0    0  0.00000000000E+00  0.00000000000E+00  0.99999998245E-14  0.12500000000E+03  0.12500000000E+03 0.  0.
        -13    1    3    3    0    0 -0.50982317644E+02  0.16331403309E+02  0.26893483777E+02  0.59909782841E+02  0.10566000000E+00 0. -1.
         23    2    1    0    0    0 -0.31893432215E+02  0.66262210992E+01  0.25589730339E+01  0.92325144721E+02  0.86349789694E+02 0.  0.
         13    1    3    3    0    0  0.19088885429E+02 -0.97051822096E+01 -0.24334510743E+02  0.32415361879E+02  0.10566000000E+00 0.  1.
         22    1    1    0    0    0  0.31893432215E+02 -0.66262210992E+01 -0.25589730339E+01  0.32674855279E+02  0.00000000000E+00 0. -1.
</event>
<event>
 5    1  0.1267616E-004  0.9118800E+02  0.7818608E-02  0.1130116E+00
         25   -1    0    0    0    0  0.00000000000E+00  0.00000000000E+00  0.99999998245E-14  0.12500000000E+03  0.12500000000E+03 0.  0.
        -13    1    3    3    0    0 -0.16931604425E+02  0.23822376875E+02  0.31771785212E+02  0.43169924346E+02  0.10566000000E+00 0.  1.
         23    2    1    0    0    0  0.21925482876E+02 -0.85189364540E+01  0.17440720860E+02  0.95717277760E+02  0.91128038715E+02 0.  0.
         13    1    3    3    0    0  0.38857087301E+02 -0.32341313329E+02 -0.14331064352E+02  0.52547353415E+02  0.10566000000E+00 0. -1.
         22    1    1    0    0    0 -0.21925482876E+02  0.85189364540E+01 -0.17440720860E+02  0.29282722240E+02  0.00000000000E+00 0. -1.
</event>
<event>
 5    1  0.1267616E-004  0.9118800E+02  0.7818608E-02  0.1130116E+00
         25   -1    0    0    0    0  0.00000000000E+00  0.00000000000E+00  0.99999998245E-14  0.12500000000E+03  0.12500000000E+03 0.  0.
        -13    1    3    3    0    0 -0.37127464218E+02  0.10893866267E+02 -0.48415808001E+02  0.61977629431E+02  0.10566000000E+00 0. -1.
         23    2    1    0    0    0 -0.18127871804E+02 -0.17577572040E+00 -0.25227292335E+02  0.93934473901E+02  0.88648849261E+02 0.  0.
         13    1    3    3    0    0  0.18999592414E+02 -0.11069641988E+02  0.23188515666E+02  0.31956844469E+02  0.10566000000E+00 0.  1.
         22    1    1    0    0    0  0.18127871804E+02  0.17577572040E+00  0.25227292335E+02  0.31065526099E+02  0.00000000000E+00 0. -1.
</event>
<event>
 5    1  0.1267616E-004  0.9118800E+02  0.7818608E-02  0.1130116E+00
         25   -1    0    0    0    0  0.00000000000E+00  0.00000000000E+00  0.99999998245E-14  0.12500000000E+03  0.12500000000E+03 0.  0.
        -13    1    3    3    0    0 -0.14547315227E+02 -0.20662461674E+02  0.50284279596E+02  0.56276830412E+02  0.10566000000E+00 0.  1.
         23    2    1    0    0    0  0.14673689156E+01 -0.25341213321E+02  0.14482400463E+02  0.95775520753E+02  0.91207895427E+02 0.  0.
         13    1    3    3    0    0  0.16014684142E+02 -0.46787516464E+01 -0.35801879133E+02  0.39498690340E+02  0.10566000000E+00 0. -1.
         22    1    1    0    0    0 -0.14673689156E+01  0.25341213321E+02 -0.14482400463E+02  0.29224479247E+02  0.00000000000E+00 0.  1.
</event>
<event>
 5    1  0.1267616E-004  0.9118800E+02  0.7818608E-02  0.1130116E+00
         25   -1    0    0    0    0  0.00000000000E+00  0.00000000000E+00  0.99999998245E-14  0.12500000000E+03  0.12500000000E+03 0.  0.
        -13    1    3    3    0    0  0.27250308753E+02  0.42055069821E+02  0.13076315973E+02  0.51790051441E+02  0.10566000000E+00 0.  1.
         23    2    1    0    0    0 -0.87164725726E+00  0.17378786827E+02 -0.17658268335E+02  0.10020894433E+03  0.97093954925E+02 0.  0.
         13    1    3    3    0    0 -0.28121956010E+02 -0.24676282994E+02 -0.30734584308E+02  0.48418892891E+02  0.10566000000E+00 0. -1.
         22    1    1    0    0    0  0.87164725726E+00 -0.17378786827E+02  0.17658268335E+02  0.24791055668E+02  0.00000000000E+00 0. -1.
</event>
<event>
 5    1  0.1267616E-004  0.9118800E+02  0.7818608E-02  0.1130116E+00
         25   -1    0    0    0    0  0.00000000000E+00  0.00000000000E+00  0.99999998245E-14  0.12500000000E+03  0.12500000000E+03 0.  0.
        -13    1    3    3    0    0 -0.33478250070E+02  0.16780338352E+02  0.23402503114E+02  0.44159498401E+02  0.10566000000E+00 0. -1.
         23    2    1    0    0    0  0.13297131879E+02  0.25640726313E+02  0.29773004334E+01  0.95963387251E+02  0.91465003213E+02 0.  0.
         13    1    3    3    0    0  0.46775381950E+02  0.88603879611E+01 -0.20425202681E+02  0.51803888850E+02  0.10566000000E+00 0.  1.
         22    1    1    0    0    0 -0.13297131879E+02 -0.25640726313E+02 -0.29773004334E+01  0.29036612749E+02  0.00000000000E+00 0.  1.
</event>
<event>
 5    1  0.1267616E-004  0.9118800E+02  0.7818608E-02  0.1130116E+00
         25   -1    0    0    0    0  0.00000000000E+00  0.00000000000E+00  0.99999998245E-14  0.12500000000E+03  0.12500000000E+03 0.  0.
        -13    1    3    3    0    0 -0.35872912336E+01 -0.27919915462E+02  0.28958841645E+02  0.40385839242E+02  0.10566000000E+00 0.  1.
         23    2    1    0    0    0 -0.14061287452E+02  0.23305553618E+02  0.98767713315E+01  0.96044529944E+02  0.91575829158E+02 0.  0.
         13    1    3    3    0    0 -0.10473996219E+02  0.51225469079E+02 -0.19082070314E+02  0.55658690702E+02  0.10566000000E+00 0. -1.
         22    1    1    0    0    0  0.14061287452E+02 -0.23305553618E+02 -0.98767713315E+01  0.28955470056E+02  0.00000000000E+00 0. -1.
</event>
<event>
 5    1  0.1267616E-004  0.9118800E+02  0.7818608E-02  0.1130116E+00
         25   -1    0    0    0    0  0.00000000000E+00  0.00000000000E+00  0.99999998245E-14  0.12500000000E+03  0.12500000000E+03 0.  0.
        -13    1    3    3    0    0 -0.98277342142E+01  0.70433432050E+00  0.38391103243E+02  0.39635443972E+02  0.10566000000E+00 0. -1.
         23    2    1    0    0    0  0.18729771842E+02 -0.23649043823E+02 -0.19924090910E+01  0.94766718323E+02  0.89814695795E+02 0.  0.
         13    1    3    3    0    0  0.28557506056E+02 -0.24353378143E+02 -0.40383512334E+02  0.55131274351E+02  0.10566000000E+00 0.  1.
         22    1    1    0    0    0 -0.18729771842E+02  0.23649043823E+02  0.19924090910E+01  0.30233281677E+02  0.00000000000E+00 0.  1.
</event>
<event>
 5    1  0.1267616E-004  0.9118800E+02  0.7818608E-02  0.1130116E+00
         25   -1    0    0    0    0  0.00000000000E+00  0.00000000000E+00  0.99999998245E-14  0.12500000000E+03  0.12500000000E+03 0.  0.
        -13    1    3    3    0    0 -0.15640084305E+02  0.34729603517E+02  0.24654657691E+02  0.45372027808E+02  0.10566000000E+00 0. -1.
         23    2    1    0    0    0 -0.26923411122E+02 -0.14482253741E+01 -0.95242317862E+01  0.96404923251E+02  0.92066447812E+02 0.  0.
         13    1    3    3    0    0 -0.11283326816E+02 -0.36177828891E+02 -0.34178889477E+02  0.51032895443E+02  0.10566000000E+00 0.  1.
         22    1    1    0    0    0  0.26923411122E+02  0.14482253741E+01  0.95242317862E+01  0.28595076749E+02  0.00000000000E+00 0.  1.
</event>
<event>
 5    1  0.1267616E-004  0.9118800E+02  0.7818608E-02  0.1130116E+00
         25   -1    0    0    0    0  0.00000000000E+00  0.00000000000E+00  0.99999998245E-14  0.12500000000E+03  0.12500000000E+03 0.  0.
        -13    1    3    3    0    0  0.37600349197E+02 -0.12798741635E+00 -0.40322509764E+02  0.55133643070E+02  0.10566000000E+00 0. -1.
         23    2    1    0    0    0 -0.14173403504E+01 -0.61312176230E+01 -0.27721903373E+02  0.96572819172E+02  0.92294121118E+02 0.  0.
         13    1    3    3    0    0 -0.39017689547E+02 -0.60032302067E+01  0.12600606391E+02  0.41439176102E+02  0.10566000000E+00 0.  1.
         22    1    1    0    0    0  0.14173403504E+01  0.61312176230E+01  0.27721903373E+02  0.28427180828E+02  0.00000000000E+00 0. -1.
</event>
<event>
 5    1  0.1267616E-004  0.9118800E+02  0.7818608E-02  0.1130116E+00
         25   -1    0    0    0    0  0.00000000000E+00  0.00000000000E+00  0.99999998245E-14  0.12500000000E+03  0.12500000000E+03 0.  0.
        -13    1    3    3    0    0  0.11476722238E+02 -0.36469634953E+02 -0.10140993392E+02  0.39555029237E+02  0.10566000000E+00 0. -1.
         23    2    1    0    0    0  0.23318074494E+02  0.95459184051E+01  0.17310873495E+02  0.94430022939E+02  0.89344869661E+02 0.  0.
         13    1    3    3    0    0  0.11841352256E+02  0.46015553359E+02  0.27451866887E+02  0.54874993702E+02  0.10566000000E+00 0.  1.
         22    1    1    0    0    0 -0.23318074494E+02 -0.95459184051E+01 -0.17310873495E+02  0.30569977061E+02  0.00000000000E+00 0.  1.
</event>
<event>
 5    1  0.1267616E-004  0.9118800E+02  0.7818608E-02  0.1130116E+00
         25   -1    0    0    0    0  0.00000000000E+00  0.00000000000E+00  0.99999998245E-14  0.12500000000E+03  0.12500000000E+03 0.  0.
        -13    1    3    3    0    0  0.26865936054E+02  0.78091582569E+01 -0.11325982568E+01  0.28000989547E+02  0.10566000000E+00 0. -1.
         23    2    1    0    0    0 -0.30239479587E+02  0.22440767486E+02  0.37729786937E+01  0.87154927146E+02  0.78509437564E+02 0.  0.
         13    1    3    3    0    0 -0.57105415642E+02  0.14631609230E+02  0.49055769505E+01  0.59153937599E+02  0.10566000000E+00 0.  1.
         22    1    1    0    0    0  0.30239479587E+02 -0.22440767486E+02 -0.37729786937E+01  0.37845072854E+02  0.00000000000E+00 0.  1.
</event>
<event>
 5    1  0.1267616E-004  0.9118800E+02  0.7818608E-02  0.1130116E+00
         25   -1    0    0    0    0  0.00000000000E+00  0.00000000000E+00  0.99999998245E-14  0.12500000000E+03  0.12500000000E+03 0.  0.
        -13    1    3    3    0    0 -0.93518831139E+01  0.19029247971E+02  0.52008567686E+02  0.56164688843E+02  0.10566000000E+00 0. -1.
         23    2    1    0    0    0  0.11902285986E+02  0.19416737261E+02  0.19440446030E+02  0.95056636137E+02  0.90217287890E+02 0.  0.
         13    1    3    3    0    0  0.21254169100E+02  0.38748929032E+00 -0.32568121656E+02  0.38891947294E+02  0.10566000000E+00 0.  1.
         22    1    1    0    0    0 -0.11902285986E+02 -0.19416737261E+02 -0.19440446030E+02  0.29943363863E+02  0.00000000000E+00 0. -1.
</event>
<event>
 5    1  0.1267616E-004  0.9118800E+02  0.7818608E-02  0.1130116E+00
         25   -1    0    0    0    0  0.00000000000E+00  0.00000000000E+00  0.99999998245E-14  0.12500000000E+03  0.12500000000E+03 0.  0.
        -13    1    3    3    0    0 -0.36180304079E+02 -0.40080358260E+02 -0.92731062779E+00  0.54002968349E+02  0.10566000000E+00 0.  1.
         23    2    1    0    0    0 -0.24257844282E+02 -0.61256245186E+01  0.17533079651E+02  0.94448810711E+02  0.89371151261E+02 0.  0.
         13    1    3    3    0    0  0.11922459797E+02  0.33954733741E+02  0.18460390279E+02  0.40445842362E+02  0.10566000000E+00 0. -1.
         22    1    1    0    0    0  0.24257844282E+02  0.61256245186E+01 -0.17533079651E+02  0.30551189289E+02  0.00000000000E+00 0.  1.
</event>
<event>
 5    1  0.1267616E-004  0.9118800E+02  0.7818608E-02  0.1130116E+00
         25   -1    0    0    0    0  0.00000000000E+00  0.00000000000E+00  0.99999998245E-14  0.12500000000E+03  0.12500000000E+03 0.  0.
        -13    1    3    3    0    0 -0.61859292968E+01  0.31867886933E+02  0.33941222567E+02  0.46966431546E+02  0.10566000000E+00 0.  1.
         23    2    1    0    0    0  0.23881876642E+02  0.17085550548E+02 -0.13181318666E+01  0.95606164913E+02  0.90975497956E+02 0.  0.
         13    1    3    3    0    0  0.30067805939E+02 -0.14782336384E+02 -0.35259354433E+02  0.48639733367E+02  0.10566000000E+00 0. -1.
         22    1    1    0    0    0 -0.23881876642E+02 -0.17085550548E+02  0.13181318666E+01  0.29393835087E+02  0.00000000000E+00 0.  1.
</event>
<event>
 5    1  0.1267616E-004  0.9118800E+02  0.7818608E-02  0.1130116E+00
         25   -1    0    0    0    0  0.00000000000E+00  0.00000000000E+00  0.99999998245E-14  0.12500000000E+03  0.12500000000E+03 0.  0.
        -13    1    3    3    0    0 -0.17766658016E+02 -0.17705329523E+02  0.42738253231E+02  0.49555042971E+02  0.10566000000E+00 0.  1.
         23    2    1    0    0    0 -0.12743884045E+02 -0.25477140471E+02 -0.31248055866E+01  0.96342441188E+02  0.91981575856E+02 0.  0.
         13    1    3    3    0    0  0.50227739710E+01 -0.77718109474E+01 -0.45863058818E+02  0.46787398217E+02  0.10566000000E+00 0. -1.
         22    1    1    0    0    0  0.12743884045E+02  0.25477140471E+02  0.31248055866E+01  0.28657558812E+02  0.00000000000E+00 0.  1.
</event>
<event>
 5    1  0.1267616E-004  0.9118800E+02  0.7818608E-02  0.1130116E+00
         25   -1    0    0    0    0  0.00000000000E+00  0.00000000000E+00  0.99999998245E-14  0.12500000000E+03  0.12500000000E+03 0.  0.
        -13    1    3    3    0    0  0.42590381288E+02 -0.35234706999E+02 -0.11578866143E+02  0.56475715673E+02  0.10566000000E+00 0.  1.
         23    2    1    0    0    0  0.18150027770E+02 -0.18778787594E+02  0.13888008783E+02  0.95420561880E+02  0.90720121638E+02 0.  0.
         13    1    3    3    0    0 -0.24440353518E+02  0.16455919405E+02  0.25466874926E+02  0.38944846207E+02  0.10566000000E+00 0. -1.
         22    1    1    0    0    0 -0.18150027770E+02  0.18778787594E+02 -0.13888008783E+02  0.29579438120E+02  0.00000000000E+00 0.  1.
</event>
<event>
 5    1  0.1267616E-004  0.9118800E+02  0.7818608E-02  0.1130116E+00
         25   -1    0    0    0    0  0.00000000000E+00  0.00000000000E+00  0.99999998245E-14  0.12500000000E+03  0.12500000000E+03 0.  0.
        -13    1    3    3    0    0 -0.17678379830E+02 -0.24915417920E+02 -0.15452236064E+02  0.34235740491E+02  0.10566000000E+00 0. -1.
         23    2    1    0    0    0  0.24451722540E+02  0.14264531337E+02  0.67400042033E+01  0.95900322234E+02  0.91378775208E+02 0.  0.
         13    1    3    3    0    0  0.42130102370E+02  0.39179949257E+02  0.22192240267E+02  0.61664581743E+02  0.10566000000E+00 0.  1.
         22    1    1    0    0    0 -0.24451722540E+02 -0.14264531337E+02 -0.67400042033E+01  0.29099677766E+02  0.00000000000E+00 0.  1.
</event>
<event>
 5    1  0.1267616E-004  0.9118800E+02  0.7818608E-02  0.1130116E+00
         25   -1    0    0    0    0  0.00000000000E+00  0.00000000000E+00  0.99999998245E-14  0.12500000000E+03  0.12500000000E+03 0.  0.
        -13    1    3    3    0    0  0.41739655993E+02 -0.39219274072E+02  0.82928897399E+01  0.57871698830E+02  0.10566000000E+00 0. -1.
         23    2    1    0    0    0  0.26789676289E+02 -0.29717184763E+01  0.72187890172E+01  0.97096079465E+02  0.93000106807E+02 0.  0.
         13    1    3    3    0    0 -0.14949979705E+02  0.36247555595E+02 -0.10741007227E+01  0.39224380635E+02  0.10566000000E+00 0.  1.
         22    1    1    0    0    0 -0.26789676289E+02  0.29717184763E+01 -0.72187890172E+01  0.27903920535E+02  0.00000000000E+00 0. -1.
</event>
<event>
 5    1  0.1267616E-004  0.9118800E+02  0.7818608E-02  0.1130116E+00
         25   -1    0    0    0    0  0.00000000000E+00  0.00000000000E+00  0.99999998245E-14  0.12500000000E+03  0.12500000000E+03 0.  0.
        -13    1    3    3    0    0 -0.19791599978E+02  0.25719712340E+02  0.20503120538E+02  0.38387499897E+02  0.10566000000E+00 0.  1.
         23    2    1    0    0    0 -0.15921202536E+02 -0.25190352531E+02 -0.38449729649E+01  0.94952997355E+02  0.90073577362E+02 0.  0.
         13    1    3    3    0    0  0.38703974414E+01 -0.50910064871E+02 -0.24348093503E+02  0.56565497459E+02  0.10566000000E+00 0. -1.
         22    1    1    0    0    0  0.15921202536E+02  0.25190352531E+02  0.38449729649E+01  0.30047002645E+02  0.00000000000E+00 0.  1.
</event>
<event>
 5    1  0.1267616E-004  0.9118800E+02  0.7818608E-02  0.1130116E+00
         25   -1    0    0    0    0  0.00000000000E+00  0.00000000000E+00  0.99999998245E-14  0.12500000000E+03  0.12500000000E+03 0.  0.
        -13    1    3    3    0    0  0.15901723757E+01 -0.20355750388E+02  0.56304405359E+02  0.59892257004E+02  0.10566000000E+00 0.  1.
         23    2    1    0    0    0 -0.96321006835E+01 -0.18172205830E+02  0.29450683241E+02  0.89078569465E+02  0.81514675773E+02 0.  0.
         13    1    3    3    0    0 -0.11222273059E+02  0.21835445581E+01 -0.26853722119E+02  0.29186312462E+02  0.10566000000E+00 0. -1.
         22    1    1    0    0    0  0.96321006835E+01  0.18172205830E+02 -0.29450683241E+02  0.35921430535E+02  0.00000000000E+00 0.  1.
</event>
<event>
 5    1  0.1267616E-004  0.9118800E+02  0.7818608E-02  0.1130116E+00
         25   -1    0    0    0    0  0.00000000000E+00  0.00000000000E+00  0.99999998245E-14  0.12500000000E+03  0.12500000000E+03 0.  0.
        -13    1    3    3    0    0  0.25164747499E+02 -0.26021093787E+02 -0.41052507341E+02  0.54732817958E+02  0.10566000000E+00 0.  1.
         23    2    1    0    0    0  0.13100104568E+02 -0.25334408196E+02 -0.11164883735E+01  0.96457198374E+02  0.92137395197E+02 0.  0.
         13    1    3    3    0    0 -0.12064642931E+02  0.68668559066E+00  0.39936018968E+02  0.41724380417E+02  0.10566000000E+00 0. -1.
         22    1    1    0    0    0 -0.13100104568E+02  0.25334408196E+02  0.11164883735E+01  0.28542801626E+02  0.00000000000E+00 0.  1.
</event>
<event>
 5    1  0.1267616E-004  0.9118800E+02  0.7818608E-02  0.1130116E+00
         25   -1    0    0    0    0  0.00000000000E+00  0.00000000000E+00  0.99999998245E-14  0.12500000000E+03  0.12500000000E+03 0.  0.
        -13    1    3    3    0    0 -0.49628190937E+02 -0.13406764861E+02 -0.17840464169E+02  0.54414997983E+02  0.10566000000E+00 0. -1.
         23    2    1    0    0    0 -0.16555993113E+02  0.12105762057E+02 -0.20150037354E+02  0.96248054183E+02  0.91853217394E+02 0.  0.
         13    1    3    3    0    0  0.33072197824E+02  0.25512526918E+02 -0.23095731845E+01  0.41833056200E+02  0.10566000000E+00 0.  1.
         22    1    1    0    0    0  0.16555993113E+02 -0.12105762057E+02  0.20150037354E+02  0.28751945817E+02  0.00000000000E+00 0. -1.
</event>
<event>
 5    1  0.1267616E-004  0.9118800E+02  0.7818608E-02  0.1130116E+00
         25   -1    0    0    0    0  0.00000000000E+00  0.00000000000E+00  0.99999998245E-14  0.12500000000E+03  0.12500000000E+03 0.  0.
        -13    1    3    3    0    0  0.45717271746E+00 -0.20964134654E+02  0.31720849996E+02  0.38025352558E+02  0.10566000000E+00 0.  1.
         23    2    1    0    0    0 -0.10469677586E+02  0.26827680963E+02  0.40474167131E+00  0.96198916159E+02  0.91786322727E+02 0.  0.
         13    1    3    3    0    0 -0.10926850303E+02  0.47791815616E+02 -0.31316108325E+02  0.58173563601E+02  0.10566000000E+00 0. -1.
         22    1    1    0    0    0  0.10469677586E+02 -0.26827680963E+02 -0.40474167131E+00  0.28801083841E+02  0.00000000000E+00 0. -1.
</event>
<event>
 5    1  0.1267616E-004  0.9118800E+02  0.7818608E-02  0.1130116E+00
         25   -1    0    0    0    0  0.00000000000E+00  0.00000000000E+00  0.99999998245E-14  0.12500000000E+03  0.12500000000E+03 0.  0.
        -13    1    3    3    0    0  0.21912982359E+01 -0.43919179312E+01 -0.51325113532E+02  0.51559375230E+02  0.10566000000E+00 0. -1.
         23    2    1    0    0    0  0.61764889438E+01 -0.25680917036E+02 -0.13047525597E+02  0.95539917860E+02  0.90884429168E+02 0.  0.
         13    1    3    3    0    0  0.39851907079E+01 -0.21288999105E+02  0.38277587935E+02  0.43980542630E+02  0.10566000000E+00 0.  1.
         22    1    1    0    0    0 -0.61764889438E+01  0.25680917036E+02  0.13047525597E+02  0.29460082140E+02  0.00000000000E+00 0. -1.
</event>
<event>
 5    1  0.1267616E-004  0.9118800E+02  0.7818608E-02  0.1130116E+00
         25   -1    0    0    0    0  0.00000000000E+00  0.00000000000E+00  0.99999998245E-14  0.12500000000E+03  0.12500000000E+03 0.  0.
        -13    1    3    3    0    0 -0.27740787684E+02 -0.17259980071E+02  0.16868525997E+02  0.36769777626E+02  0.10566000000E+00 0.  1.
         23    2    1    0    0    0  0.26442815982E+02  0.48011472498E+01  0.12280146816E+02  0.95452148339E+02  0.90763633051E+02 0.  0.
         13    1    3    3    0    0  0.54183603666E+02  0.22061127320E+02 -0.45883791809E+01  0.58682370712E+02  0.10566000000E+00 0. -1.
         22    1    1    0    0    0 -0.26442815982E+02 -0.48011472498E+01 -0.12280146816E+02  0.29547851661E+02  0.00000000000E+00 0. -1.
</event>
<event>
 5    1  0.1267616E-004  0.9118800E+02  0.7818608E-02  0.1130116E+00
         25   -1    0    0    0    0  0.00000000000E+00  0.00000000000E+00  0.99999998245E-14  0.12500000000E+03  0.12500000000E+03 0.  0.
        -13    1    3    3    0    0  0.13314050881E+02  0.47148217546E+02  0.36126690945E+02  0.60871728506E+02  0.10566000000E+00 0.  1.
         23    2    1    0    0    0  0.14855058218E+02  0.19191361629E+02  0.11570043072E+02  0.98114185664E+02  0.94358605416E+02 0.  0.
         13    1    3    3    0    0  0.15410073368E+01 -0.27956855917E+02 -0.24556647873E+02  0.37242457158E+02  0.10566000000E+00 0. -1.
         22    1    1    0    0    0 -0.14855058218E+02 -0.19191361629E+02 -0.11570043072E+02  0.26885814336E+02  0.00000000000E+00 0.  1.
</event>
<event>
 5    1  0.1267616E-004  0.9118800E+02  0.7818608E-02  0.1130116E+00
         25   -1    0    0    0    0  0.00000000000E+00  0.00000000000E+00  0.99999998245E-14  0.12500000000E+03  0.12500000000E+03 0.  0.
        -13    1    3    3    0    0 -0.34292869685E+02 -0.16102748106E+02 -0.48494120865E+02  0.61538527203E+02  0.10566000000E+00 0. -1.
         23    2    1    0    0    0 -0.91102554257E+01 -0.43870936652E+01 -0.25404110818E+02  0.97657502104E+02  0.93751669457E+02 0.  0.
         13    1    3    3    0    0  0.25182614259E+02  0.11715654441E+02  0.23090010047E+02  0.36118974901E+02  0.10566000000E+00 0.  1.
         22    1    1    0    0    0  0.91102554257E+01  0.43870936652E+01  0.25404110818E+02  0.27342497896E+02  0.00000000000E+00 0. -1.
</event>
<event>
 5    1  0.1267616E-004  0.9118800E+02  0.7818608E-02  0.1130116E+00
         25   -1    0    0    0    0  0.00000000000E+00  0.00000000000E+00  0.99999998245E-14  0.12500000000E+03  0.12500000000E+03 0.  0.
        -13    1    3    3    0    0  0.28075350345E+02  0.21632504642E+02  0.32735130514E+01  0.35593786056E+02  0.10566000000E+00 0.  1.
         23    2    1    0    0    0 -0.96079231908E+00 -0.26835150669E+02 -0.14055746765E+02  0.94691379932E+02  0.89709781981E+02 0.  0.
         13    1    3    3    0    0 -0.29036142664E+02 -0.48467655311E+02 -0.17329259817E+02  0.59097593876E+02  0.10566000000E+00 0. -1.
         22    1    1    0    0    0  0.96079231908E+00  0.26835150669E+02  0.14055746765E+02  0.30308620068E+02  0.00000000000E+00 0. -1.
</event>
<event>
 5    1  0.1267616E-004  0.9118800E+02  0.7818608E-02  0.1130116E+00
         25   -1    0    0    0    0  0.00000000000E+00  0.00000000000E+00  0.99999998245E-14  0.12500000000E+03  0.12500000000E+03 0.  0.
        -13    1    3    3    0    0  0.35266807845E+02  0.24084659028E+02 -0.34448690419E+02  0.54868405952E+02  0.10566000000E+00 0.  1.
         23    2    1    0    0    0  0.10747127233E+02 -0.79955666651E+01 -0.25454946302E+02  0.96235714484E+02  0.91836423171E+02 0.  0.
         13    1    3    3    0    0 -0.24519680612E+02 -0.32080225693E+02  0.89937441174E+01  0.41367308532E+02  0.10566000000E+00 0. -1.
         22    1    1    0    0    0 -0.10747127233E+02  0.79955666651E+01  0.25454946302E+02  0.28764285516E+02  0.00000000000E+00 0.  1.
</event>
<event>
 5    1  0.1267616E-004  0.9118800E+02  0.7818608E-02  0.1130116E+00
         25   -1    0    0    0    0  0.00000000000E+00  0.00000000000E+00  0.99999998245E-14  0.12500000000E+03  0.12500000000E+03 0.  0.
        -13    1    3    3    0    0 -0.17963534183E+02 -0.43178111682E+02 -0.13779680344E+02  0.48753755170E+02  0.10566000000E+00 0.  1.
         23    2    1    0    0    0 -0.27674391252E+02 -0.23066423344E+01  0.80365314091E+01  0.96090168331E+02  0.91638103881E+02 0.  0.
         13    1    3    3    0    0 -0.97108570687E+01  0.40871469348E+02  0.21816211753E+02  0.47336413161E+02  0.10566000000E+00 0. -1.
         22    1    1    0    0    0  0.27674391252E+02  0.23066423344E+01 -0.80365314091E+01  0.28909831669E+02  0.00000000000E+00 0.  1.
</event>
<event>
 5    1  0.1267616E-004  0.9118800E+02  0.7818608E-02  0.1130116E+00
         25   -1    0    0    0    0  0.00000000000E+00  0.00000000000E+00  0.99999998245E-14  0.12500000000E+03  0.12500000000E+03 0.  0.
        -13    1    3    3    0    0 -0.32942345595E+02  0.18349489726E+01  0.52550057346E+02  0.62049052065E+02  0.10566000000E+00 0.  1.
         23    2    1    0    0    0 -0.20794340326E+02  0.31341007866E+01  0.24079116463E+02  0.93030780007E+02  0.87365296323E+02 0.  0.
         13    1    3    3    0    0  0.12148005269E+02  0.12991518140E+01 -0.28470940883E+02  0.30981727942E+02  0.10566000000E+00 0. -1.
         22    1    1    0    0    0  0.20794340326E+02 -0.31341007866E+01 -0.24079116463E+02  0.31969219993E+02  0.00000000000E+00 0.  1.
</event>
<event>
 5    1  0.1267616E-004  0.9118800E+02  0.7818608E-02  0.1130116E+00
         25   -1    0    0    0    0  0.00000000000E+00  0.00000000000E+00  0.99999998245E-14  0.12500000000E+03  0.12500000000E+03 0.  0.
        -13    1    3    3    0    0  0.34053265138E+02 -0.41982664357E+02  0.26272205134E+02  0.60103318541E+02  0.10566000000E+00 0. -1.
         23    2    1    0    0    0  0.23926416027E+02 -0.18841236620E+02  0.25341832404E+02  0.85380887808E+02  0.75632148932E+02 0.  0.
         13    1    3    3    0    0 -0.10126849111E+02  0.23141427737E+02 -0.93037272992E+00  0.25277569267E+02  0.10566000000E+00 0.  1.
         22    1    1    0    0    0 -0.23926416027E+02  0.18841236620E+02 -0.25341832404E+02  0.39619112192E+02  0.00000000000E+00 0. -1.
</event>
<event>
 5    1  0.1267616E-004  0.9118800E+02  0.7818608E-02  0.1130116E+00
         25   -1    0    0    0    0  0.00000000000E+00  0.00000000000E+00  0.99999998245E-14  0.12500000000E+03  0.12500000000E+03 0.  0.
        -13    1    3    3    0    0  0.50502079578E+02  0.28253669449E+02 -0.91717983097E+01  0.58590638564E+02  0.10566000000E+00 0. -1.
         23    2    1    0    0    0  0.14117393369E+02  0.25242821038E+02 -0.70331104740E+00  0.96069126251E+02  0.91609396694E+02 0.  0.
         13    1    3    3    0    0 -0.36384686210E+02 -0.30108484115E+01  0.84684872623E+01  0.37478487687E+02  0.10566000000E+00 0.  1.
         22    1    1    0    0    0 -0.14117393369E+02 -0.25242821038E+02  0.70331104740E+00  0.28930873749E+02  0.00000000000E+00 0. -1.
</event>
<event>
 5    1  0.1267616E-004  0.9118800E+02  0.7818608E-02  0.1130116E+00
         25   -1    0    0    0    0  0.00000000000E+00  0.00000000000E+00  0.99999998245E-14  0.12500000000E+03  0.12500000000E+03 0.  0.
        -13    1    3    3    0    0 -0.89231504941E+01 -0.35163785818E+02 -0.76801281219E+01  0.37082475373E+02  0.10566000000E+00 0. -1.
         23    2    1    0    0    0  0.27188496991E+02  0.61540054651E+01  0.10974550408E+02  0.95041246545E+02  0.90195962417E+02 0.  0.
         13    1    3    3    0    0  0.36111647485E+02  0.41317791283E+02  0.18654678530E+02  0.57958771172E+02  0.10566000000E+00 0.  1.
         22    1    1    0    0    0 -0.27188496991E+02 -0.61540054651E+01 -0.10974550408E+02  0.29958753455E+02  0.00000000000E+00 0.  1.
</event>
<event>
 5    1  0.1267616E-004  0.9118800E+02  0.7818608E-02  0.1130116E+00
         25   -1    0    0    0    0  0.00000000000E+00  0.00000000000E+00  0.99999998245E-14  0.12500000000E+03  0.12500000000E+03 0.  0.
        -13    1    3    3    0    0  0.34016849310E+02  0.14662263854E+02  0.16820474927E+02  0.40682521543E+02  0.10566000000E+00 0.  1.
         23    2    1    0    0    0  0.10651083294E+02 -0.25979807536E+02 -0.10593449095E+02  0.94989716119E+02  0.90124519581E+02 0.  0.
         13    1    3    3    0    0 -0.23365766016E+02 -0.40642071390E+02 -0.27413924021E+02  0.54307194575E+02  0.10566000000E+00 0. -1.
         22    1    1    0    0    0 -0.10651083294E+02  0.25979807536E+02  0.10593449095E+02  0.30010283881E+02  0.00000000000E+00 0. -1.
</event>
<event>
 5    1  0.1267616E-004  0.9118800E+02  0.7818608E-02  0.1130116E+00
         25   -1    0    0    0    0  0.00000000000E+00  0.00000000000E+00  0.99999998245E-14  0.12500000000E+03  0.12500000000E+03 0.  0.
        -13    1    3    3    0    0  0.30927011246E+02 -0.13753298734E+02  0.30176554063E+01  0.33981622369E+02  0.10566000000E+00 0. -1.
         23    2    1    0    0    0 -0.19463926499E+02  0.20963756376E+02  0.77662408400E+01  0.95358171229E+02  0.90634115029E+02 0.  0.
         13    1    3    3    0    0 -0.50390937744E+02  0.34717055110E+02  0.47485854337E+01  0.61376548859E+02  0.10566000000E+00 0.  1.
         22    1    1    0    0    0  0.19463926499E+02 -0.20963756376E+02 -0.77662408400E+01  0.29641828771E+02  0.00000000000E+00 0.  1.
</event>
<event>
 5    1  0.1267616E-004  0.9118800E+02  0.7818608E-02  0.1130116E+00
         25   -1    0    0    0    0  0.00000000000E+00  0.00000000000E+00  0.99999998245E-14  0.12500000000E+03  0.12500000000E+03 0.  0.
        -13    1    3    3    0    0  0.41783641067E+02  0.63845484127E+01 -0.98567218004E+00  0.42280229812E+02  0.10566000000E+00 0.  1.
         23    2    1    0    0    0 -0.82747571742E+01  0.26946984867E+02 -0.42346700785E+01  0.96494842038E+02  0.92188451064E+02 0.  0.
         13    1    3    3    0    0 -0.50058398242E+02  0.20562436455E+02 -0.32489978985E+01  0.54214612226E+02  0.10566000000E+00 0. -1.
         22    1    1    0    0    0  0.82747571742E+01 -0.26946984867E+02  0.42346700785E+01  0.28505157962E+02  0.00000000000E+00 0. -1.
</event>
<event>
 5    1  0.1267616E-004  0.9118800E+02  0.7818608E-02  0.1130116E+00
         25   -1    0    0    0    0  0.00000000000E+00  0.00000000000E+00  0.99999998245E-14  0.12500000000E+03  0.12500000000E+03 0.  0.
        -13    1    3    3    0    0 -0.35554198292E+02 -0.19180303853E+02  0.30125035590E-02  0.40397973281E+02  0.10566000000E+00 0.  1.
         23    2    1    0    0    0 -0.42877319635E+01  0.20860892727E+02  0.20742698254E+02  0.95270872505E+02  0.90513635030E+02 0.  0.
         13    1    3    3    0    0  0.31266466329E+02  0.40041196580E+02  0.20739685751E+02  0.54872899224E+02  0.10566000000E+00 0. -1.
         22    1    1    0    0    0  0.42877319635E+01 -0.20860892727E+02 -0.20742698254E+02  0.29729127495E+02  0.00000000000E+00 0. -1.
</event>
<event>
 5    1  0.1267616E-004  0.9118800E+02  0.7818608E-02  0.1130116E+00
         25   -1    0    0    0    0  0.00000000000E+00  0.00000000000E+00  0.99999998245E-14  0.12500000000E+03  0.12500000000E+03 0.  0.
        -13    1    3    3    0    0 -0.51823733494E+02  0.24216040777E+02  0.14351236720E+02  0.58975292654E+02  0.10566000000E+00 0. -1.
         23    2    1    0    0    0 -0.18693803389E+02  0.23951851302E+02  0.12863218036E+01  0.94589408265E+02  0.89567583791E+02 0.  0.
         13    1    3    3    0    0  0.33129930106E+02 -0.26418947573E+00 -0.13064914917E+02  0.35614115610E+02  0.10566000000E+00 0.  1.
         22    1    1    0    0    0  0.18693803389E+02 -0.23951851302E+02 -0.12863218036E+01  0.30410591735E+02  0.00000000000E+00 0. -1.
</event>
<event>
 5    1  0.1267616E-004  0.9118800E+02  0.7818608E-02  0.1130116E+00
         25   -1    0    0    0    0  0.00000000000E+00  0.00000000000E+00  0.99999998245E-14  0.12500000000E+03  0.12500000000E+03 0.  0.
        -13    1    3    3    0    0 -0.17399035378E+02  0.29604473287E+02 -0.43280991258E+02  0.55248589476E+02  0.10566000000E+00 0. -1.
         23    2    1    0    0    0 -0.47365032000E+01  0.29610671599E+02 -0.62720136423E+01  0.94364000094E+02  0.89252451078E+02 0.  0.
         13    1    3    3    0    0  0.12662532178E+02  0.61983119482E-02  0.37008977616E+02  0.39115410618E+02  0.10566000000E+00 0.  1.
         22    1    1    0    0    0  0.47365032000E+01 -0.29610671599E+02  0.62720136423E+01  0.30635999906E+02  0.00000000000E+00 0. -1.
</event>
<event>
 5    1  0.1267616E-004  0.9118800E+02  0.7818608E-02  0.1130116E+00
         25   -1    0    0    0    0  0.00000000000E+00  0.00000000000E+00  0.99999998245E-14  0.12500000000E+03  0.12500000000E+03 0.  0.
        -13    1    3    3    0    0 -0.26486268108E+02  0.19194888265E+02  0.45719205473E+02  0.56215861168E+02  0.10566000000E+00 0. -1.
         23    2    1    0    0    0 -0.20476046072E+02  0.19312519595E+02  0.62146743490E+01  0.96175287458E+02  0.91754138133E+02 0.  0.
         13    1    3    3    0    0  0.60102220356E+01  0.11763132944E+00 -0.39504531124E+02  0.39959426290E+02  0.10566000000E+00 0.  1.
         22    1    1    0    0    0  0.20476046072E+02 -0.19312519595E+02 -0.62146743490E+01  0.28824712542E+02  0.00000000000E+00 0. -1.
</event>
<event>
 5    1  0.1267616E-004  0.9118800E+02  0.7818608E-02  0.1130116E+00
         25   -1    0    0    0    0  0.00000000000E+00  0.00000000000E+00  0.99999998245E-14  0.12500000000E+03  0.12500000000E+03 0.  0.
        -13    1    3    3    0    0  0.44274334036E+01 -0.16861503648E+02  0.53117451529E+02  0.55905163382E+02  0.10566000000E+00 0. -1.
         23    2    1    0    0    0  0.19078516594E+02  0.31702184230E+01  0.21996266004E+02  0.95710483131E+02  0.91118718070E+02 0.  0.
         13    1    3    3    0    0  0.14651083191E+02  0.20031722071E+02 -0.31121185525E+02  0.39805319749E+02  0.10566000000E+00 0.  1.
         22    1    1    0    0    0 -0.19078516594E+02 -0.31702184230E+01 -0.21996266004E+02  0.29289516869E+02  0.00000000000E+00 0. -1.
</event>
<event>
 5    1  0.1267616E-004  0.9118800E+02  0.7818608E-02  0.1130116E+00
         25   -1    0    0    0    0  0.00000000000E+00  0.00000000000E+00  0.99999998245E-14  0.12500000000E+03  0.12500000000E+03 0.  0.
        -13    1    3    3    0    0  0.18275495566E+02  0.16764761800E+02  0.22120202145E+02  0.33231994874E+02  0.10566000000E+00 0. -1.
         23    2    1    0    0    0 -0.10704513729E+02 -0.25087225579E+02 -0.12705111558E+02  0.94910544021E+02  0.90014643282E+02 0.  0.
         13    1    3    3    0    0 -0.28980009294E+02 -0.41851987379E+02 -0.34825313703E+02  0.61678549146E+02  0.10566000000E+00 0.  1.
         22    1    1    0    0    0  0.10704513729E+02  0.25087225579E+02  0.12705111558E+02  0.30089455979E+02  0.00000000000E+00 0.  1.
</event>
<event>
 5    1  0.1267616E-004  0.9118800E+02  0.7818608E-02  0.1130116E+00
         25   -1    0    0    0    0  0.00000000000E+00  0.00000000000E+00  0.99999998245E-14  0.12500000000E+03  0.12500000000E+03 0.  0.
        -13    1    3    3    0    0 -0.10620040459E+02  0.49259841944E+02  0.28203303051E+02  0.57747335477E+02  0.10566000000E+00 0. -1.
         23    2    1    0    0    0 -0.20563278881E+02  0.28094079409E+02  0.66399389609E+01  0.89556883241E+02  0.82244883186E+02 0.  0.
         13    1    3    3    0    0 -0.99432384221E+01 -0.21165762535E+02 -0.21563364091E+02  0.31809547764E+02  0.10566000000E+00 0.  1.
         22    1    1    0    0    0  0.20563278881E+02 -0.28094079409E+02 -0.66399389609E+01  0.35443116759E+02  0.00000000000E+00 0. -1.
</event>
<event>
 5    1  0.1267616E-004  0.9118800E+02  0.7818608E-02  0.1130116E+00
         25   -1    0    0    0    0  0.00000000000E+00  0.00000000000E+00  0.99999998245E-14  0.12500000000E+03  0.12500000000E+03 0.  0.
        -13    1    3    3    0    0 -0.22361585468E+02  0.28008525634E+02 -0.10418751824E+02  0.37323981117E+02  0.10566000000E+00 0. -1.
         23    2    1    0    0    0  0.25713732649E+02 -0.42931536573E+01 -0.14102603291E+02  0.95360319929E+02  0.90637078408E+02 0.  0.
         13    1    3    3    0    0  0.48075318117E+02 -0.32301679291E+02 -0.36838514675E+01  0.58036338813E+02  0.10566000000E+00 0.  1.
         22    1    1    0    0    0 -0.25713732649E+02  0.42931536573E+01  0.14102603291E+02  0.29639680071E+02  0.00000000000E+00 0.  1.
</event>
<event>
 5    1  0.1267616E-004  0.9118800E+02  0.7818608E-02  0.1130116E+00
         25   -1    0    0    0    0  0.00000000000E+00  0.00000000000E+00  0.99999998245E-14  0.12500000000E+03  0.12500000000E+03 0.  0.
        -13    1    3    3    0    0  0.43130797476E+01  0.99133675719E+01  0.33757498595E+02  0.35446542694E+02  0.10566000000E+00 0. -1.
         23    2    1    0    0    0  0.45570767316E+01 -0.26688567495E+01 -0.26997253180E+02  0.97491066470E+02  0.93529495976E+02 0.  0.
         13    1    3    3    0    0  0.24399698400E+00 -0.12582224321E+02 -0.60754751775E+02  0.62044523776E+02  0.10566000000E+00 0.  1.
         22    1    1    0    0    0 -0.45570767316E+01  0.26688567495E+01  0.26997253180E+02  0.27508933530E+02  0.00000000000E+00 0.  1.
</event>
<event>
 5    1  0.1267616E-004  0.9118800E+02  0.7818608E-02  0.1130116E+00
         25   -1    0    0    0    0  0.00000000000E+00  0.00000000000E+00  0.99999998245E-14  0.12500000000E+03  0.12500000000E+03 0.  0.
        -13    1    3    3    0    0  0.23929282009E+02 -0.32234616273E+02 -0.99216719443E+01  0.41353739396E+02  0.10566000000E+00 0.  1.
         23    2    1    0    0    0 -0.25792778262E+01 -0.65148747503E+01  0.29090924460E+02  0.95077129933E+02  0.90245678474E+02 0.  0.
         13    1    3    3    0    0 -0.26508559836E+02  0.25719741523E+02  0.39012596404E+02  0.53723390537E+02  0.10566000000E+00 0. -1.
         22    1    1    0    0    0  0.25792778262E+01  0.65148747503E+01 -0.29090924460E+02  0.29922870067E+02  0.00000000000E+00 0. -1.
</event>
<event>
 5    1  0.1267616E-004  0.9118800E+02  0.7818608E-02  0.1130116E+00
         25   -1    0    0    0    0  0.00000000000E+00  0.00000000000E+00  0.99999998245E-14  0.12500000000E+03  0.12500000000E+03 0.  0.
        -13    1    3    3    0    0 -0.14316478758E+02 -0.36438786124E+02 -0.29067859715E+02  0.48761648154E+02  0.10566000000E+00 0.  1.
         23    2    1    0    0    0 -0.25380077233E+02  0.60595208530E+01 -0.15140323532E+02  0.94832210721E+02  0.89905798925E+02 0.  0.
         13    1    3    3    0    0 -0.11063598475E+02  0.42498306977E+02  0.13927536183E+02  0.46070562567E+02  0.10566000000E+00 0. -1.
         22    1    1    0    0    0  0.25380077233E+02 -0.60595208530E+01  0.15140323532E+02  0.30167789279E+02  0.00000000000E+00 0. -1.
</event>
<event>
 5    1  0.1267616E-004  0.9118800E+02  0.7818608E-02  0.1130116E+00
         25   -1    0    0    0    0  0.00000000000E+00  0.00000000000E+00  0.99999998245E-14  0.12500000000E+03  0.12500000000E+03 0.  0.
        -13    1    3    3    0    0  0.47815809252E+02 -0.34605436199E+02  0.60312986980E+01  0.59331910107E+02  0.10566000000E+00 0.  1.
         23    2    1    0    0    0  0.26839135547E+02 -0.57846740330E+01  0.11193985616E+02  0.95350261982E+02  0.90623206165E+02 0.  0.
         13    1    3    3    0    0 -0.20976673705E+02  0.28820762166E+02  0.51626869176E+01  0.36018351875E+02  0.10566000000E+00 0. -1.
         22    1    1    0    0    0 -0.26839135547E+02  0.57846740330E+01 -0.11193985616E+02  0.29649738018E+02  0.00000000000E+00 0.  1.
</event>
<event>
 5    1  0.1267616E-004  0.9118800E+02  0.7818608E-02  0.1130116E+00
         25   -1    0    0    0    0  0.00000000000E+00  0.00000000000E+00  0.99999998245E-14  0.12500000000E+03  0.12500000000E+03 0.  0.
        -13    1    3    3    0    0 -0.51018698113E+02 -0.13648743828E+02 -0.26156650600E+02  0.58935365443E+02  0.10566000000E+00 0.  1.
         23    2    1    0    0    0 -0.30360470771E+02 -0.15427285792E+02 -0.18358462052E+01  0.90895313172E+02  0.84254544643E+02 0.  0.
         13    1    3    3    0    0  0.20658227342E+02 -0.17785419639E+01  0.24320804395E+02  0.31959947729E+02  0.10566000000E+00 0. -1.
         22    1    1    0    0    0  0.30360470771E+02  0.15427285792E+02  0.18358462052E+01  0.34104686828E+02  0.00000000000E+00 0.  1.
</event>
<event>
 5    1  0.1267616E-004  0.9118800E+02  0.7818608E-02  0.1130116E+00
         25   -1    0    0    0    0  0.00000000000E+00  0.00000000000E+00  0.99999998245E-14  0.12500000000E+03  0.12500000000E+03 0.  0.
        -13    1    3    3    0    0  0.34256773985E+02 -0.25780332032E+02  0.86657644302E+01  0.43740812986E+02  0.10566000000E+00 0. -1.
         23    2    1    0    0    0  0.20051373265E+02  0.22390773107E+02 -0.11853404622E+01  0.94919951427E+02  0.90027706051E+02 0.  0.
         13    1    3    3    0    0 -0.14205400719E+02  0.48171105139E+02 -0.98511048924E+01  0.51179138440E+02  0.10566000000E+00 0.  1.
         22    1    1    0    0    0 -0.20051373265E+02 -0.22390773107E+02  0.11853404622E+01  0.30080048573E+02  0.00000000000E+00 0.  1.
</event>
<event>
 5    1  0.1267616E-004  0.9118800E+02  0.7818608E-02  0.1130116E+00
         25   -1    0    0    0    0  0.00000000000E+00  0.00000000000E+00  0.99999998245E-14  0.12500000000E+03  0.12500000000E+03 0.  0.
        -13    1    3    3    0    0 -0.51774963089E+02  0.37109268505E+01  0.31671907931E+02  0.60807390151E+02  0.10566000000E+00 0.  1.
         23    2    1    0    0    0 -0.27033340343E+02 -0.76102356848E+01  0.11620076740E+02  0.94606853393E+02  0.89591926802E+02 0.  0.
         13    1    3    3    0    0  0.24741622747E+02 -0.11321162535E+02 -0.20051831191E+02  0.33799463242E+02  0.10566000000E+00 0. -1.
         22    1    1    0    0    0  0.27033340343E+02  0.76102356848E+01 -0.11620076740E+02  0.30393146607E+02  0.00000000000E+00 0.  1.
</event>
<event>
 5    1  0.1267616E-004  0.9118800E+02  0.7818608E-02  0.1130116E+00
         25   -1    0    0    0    0  0.00000000000E+00  0.00000000000E+00  0.99999998245E-14  0.12500000000E+03  0.12500000000E+03 0.  0.
        -13    1    3    3    0    0  0.10690431255E+01  0.60569619280E+02 -0.14036420539E+02  0.62184032505E+02  0.10566000000E+00 0.  1.
         23    2    1    0    0    0  0.48253187002E+01  0.26980841149E+02 -0.70921518599E+01  0.96688375044E+02  0.92450493568E+02 0.  0.
         13    1    3    3    0    0  0.37562755747E+01 -0.33588778131E+02  0.69442686795E+01  0.34504342539E+02  0.10566000000E+00 0. -1.
         22    1    1    0    0    0 -0.48253187002E+01 -0.26980841149E+02  0.70921518599E+01  0.28311624956E+02  0.00000000000E+00 0.  1.
</event>
<event>
 5    1  0.1267616E-004  0.9118800E+02  0.7818608E-02  0.1130116E+00
         25   -1    0    0    0    0  0.00000000000E+00  0.00000000000E+00  0.99999998245E-14  0.12500000000E+03  0.12500000000E+03 0.  0.
        -13    1    3    3    0    0 -0.31542799421E+02 -0.11921207500E+02  0.11387895055E+02  0.35591553793E+02  0.10566000000E+00 0. -1.
         23    2    1    0    0    0 -0.33824681876E+02  0.27958288218E+02 -0.86365555295E+01  0.80274558968E+02  0.66660631126E+02 0.  0.
         13    1    3    3    0    0 -0.22818824545E+01  0.39879495718E+02 -0.20024450585E+02  0.44683005175E+02  0.10566000000E+00 0.  1.
         22    1    1    0    0    0  0.33824681876E+02 -0.27958288218E+02  0.86365555295E+01  0.44725441032E+02  0.00000000000E+00 0.  1.
</event>
<event>
 5    1  0.1267616E-004  0.9118800E+02  0.7818608E-02  0.1130116E+00
         25   -1    0    0    0    0  0.00000000000E+00  0.00000000000E+00  0.99999998245E-14  0.12500000000E+03  0.12500000000E+03 0.  0.
        -13    1    3    3    0    0 -0.23548088619E+02  0.64162141036E+01  0.36155979006E+02  0.43622772298E+02  0.10566000000E+00 0.  1.
         23    2    1    0    0    0 -0.26854205166E+02 -0.25448969244E+01 -0.13950469754E+02  0.94631588092E+02  0.89626430383E+02 0.  0.
         13    1    3    3    0    0 -0.33061165463E+01 -0.89611110280E+01 -0.50106448759E+02  0.51008815795E+02  0.10566000000E+00 0. -1.
         22    1    1    0    0    0  0.26854205166E+02  0.25448969244E+01  0.13950469754E+02  0.30368411908E+02  0.00000000000E+00 0. -1.
</event>
<event>
 5    1  0.1267616E-004  0.9118800E+02  0.7818608E-02  0.1130116E+00
         25   -1    0    0    0    0  0.00000000000E+00  0.00000000000E+00  0.99999998245E-14  0.12500000000E+03  0.12500000000E+03 0.  0.
        -13    1    3    3    0    0 -0.24559479466E+02  0.14590993594E+02 -0.10084385268E+02  0.30294737430E+02  0.10566000000E+00 0.  1.
         23    2    1    0    0    0  0.11361971541E+02 -0.14346306923E+02  0.28969485544E+02  0.90734244320E+02  0.84015243141E+02 0.  0.
         13    1    3    3    0    0  0.35921451007E+02 -0.28937300517E+02  0.39053870812E+02  0.60439506890E+02  0.10566000000E+00 0. -1.
         22    1    1    0    0    0 -0.11361971541E+02  0.14346306923E+02 -0.28969485544E+02  0.34265755680E+02  0.00000000000E+00 0. -1.
</event>
<event>
 5    1  0.1267616E-004  0.9118800E+02  0.7818608E-02  0.1130116E+00
         25   -1    0    0    0    0  0.00000000000E+00  0.00000000000E+00  0.99999998245E-14  0.12500000000E+03  0.12500000000E+03 0.  0.
        -13    1    3    3    0    0  0.20384187154E+02 -0.17575143437E+02 -0.34555553571E+02  0.43800664372E+02  0.10566000000E+00 0.  1.
         23    2    1    0    0    0  0.34838013530E+01 -0.17672347673E+02  0.18317907992E+02  0.99309641939E+02  0.95929195163E+02 0.  0.
         13    1    3    3    0    0 -0.16900385801E+02 -0.97204235815E-01  0.52873461562E+02  0.55508977567E+02  0.10566000000E+00 0. -1.
         22    1    1    0    0    0 -0.34838013530E+01  0.17672347673E+02 -0.18317907992E+02  0.25690358061E+02  0.00000000000E+00 0.  1.
</event>
<event>
 5    1  0.1267616E-004  0.9118800E+02  0.7818608E-02  0.1130116E+00
         25   -1    0    0    0    0  0.00000000000E+00  0.00000000000E+00  0.99999998245E-14  0.12500000000E+03  0.12500000000E+03 0.  0.
        -13    1    3    3    0    0 -0.81966836199E+01  0.54159299346E+02 -0.23341256329E+02  0.59541924213E+02  0.10566000000E+00 0.  1.
         23    2    1    0    0    0 -0.15816388368E+00  0.19152648178E+02 -0.22475717635E+02  0.95470238212E+02  0.90788543072E+02 0.  0.
         13    1    3    3    0    0  0.80385197362E+01 -0.35006651168E+02  0.86553869438E+00  0.35928313999E+02  0.10566000000E+00 0. -1.
         22    1    1    0    0    0  0.15816388368E+00 -0.19152648178E+02  0.22475717635E+02  0.29529761788E+02  0.00000000000E+00 0.  1.
</event>
<event>
 5    1  0.1267616E-004  0.9118800E+02  0.7818608E-02  0.1130116E+00
         25   -1    0    0    0    0  0.00000000000E+00  0.00000000000E+00  0.99999998245E-14  0.12500000000E+03  0.12500000000E+03 0.  0.
        -13    1    3    3    0    0 -0.14409483678E+02  0.13584074887E+02 -0.57231932899E+02  0.60561255088E+02  0.10566000000E+00 0.  1.
         23    2    1    0    0    0  0.13546849216E+01 -0.12731527875E+01 -0.27966729878E+02  0.96971548931E+02  0.92832576355E+02 0.  0.
         13    1    3    3    0    0  0.15764168599E+02 -0.14857227675E+02  0.29265203021E+02  0.36410293843E+02  0.10566000000E+00 0. -1.
         22    1    1    0    0    0 -0.13546849216E+01  0.12731527875E+01  0.27966729878E+02  0.28028451069E+02  0.00000000000E+00 0.  1.
</event>
<event>
 5    1  0.1267616E-004  0.9118800E+02  0.7818608E-02  0.1130116E+00
         25   -1    0    0    0    0  0.00000000000E+00  0.00000000000E+00  0.99999998245E-14  0.12500000000E+03  0.12500000000E+03 0.  0.
        -13    1    3    3    0    0  0.32286300432E+01  0.33043617589E+02 -0.49954431297E+01  0.33574846708E+02  0.10566000000E+00 0.  1.
         23    2    1    0    0    0 -0.33293079588E+01 -0.28852192448E+02 -0.19102172692E+01  0.95893604988E+02  0.91369586007E+02 0.  0.
         13    1    3    3    0    0 -0.65579380021E+01 -0.61895810037E+02  0.30852258604E+01  0.62318758281E+02  0.10566000000E+00 0. -1.
         22    1    1    0    0    0  0.33293079588E+01  0.28852192448E+02  0.19102172692E+01  0.29106395012E+02  0.00000000000E+00 0. -1.
</event>
<event>
 5    1  0.1267616E-004  0.9118800E+02  0.7818608E-02  0.1130116E+00
         25   -1    0    0    0    0  0.00000000000E+00  0.00000000000E+00  0.99999998245E-14  0.12500000000E+03  0.12500000000E+03 0.  0.
        -13    1    3    3    0    0 -0.69414446199E+01 -0.13760389429E+02  0.16187957750E+02  0.22351579604E+02  0.10566000000E+00 0. -1.
         23    2    1    0    0    0 -0.18023755889E+02 -0.21072186864E+02 -0.37896613183E+02  0.78042081324E+02  0.62333942047E+02 0.  0.
         13    1    3    3    0    0 -0.11082311269E+02 -0.73117974353E+01 -0.54084570933E+02  0.55690501720E+02  0.10566000000E+00 0.  1.
         22    1    1    0    0    0  0.18023755889E+02  0.21072186864E+02  0.37896613183E+02  0.46957918676E+02  0.00000000000E+00 0.  1.
</event>
<event>
 5    1  0.1267616E-004  0.9118800E+02  0.7818608E-02  0.1130116E+00
         25   -1    0    0    0    0  0.00000000000E+00  0.00000000000E+00  0.99999998245E-14  0.12500000000E+03  0.12500000000E+03 0.  0.
        -13    1    3    3    0    0  0.34839706139E+02 -0.99202007404E+00  0.78164149403E+01  0.35719696727E+02  0.10566000000E+00 0.  1.
         23    2    1    0    0    0 -0.26272084597E+02 -0.51641442622E+01  0.82752115834E+01  0.96975547432E+02  0.92837960220E+02 0.  0.
         13    1    3    3    0    0 -0.61111790736E+02 -0.41721241881E+01  0.45879664309E+00  0.61255850705E+02  0.10566000000E+00 0. -1.
         22    1    1    0    0    0  0.26272084597E+02  0.51641442622E+01 -0.82752115834E+01  0.28024452568E+02  0.00000000000E+00 0. -1.
</event>
<event>
 5    1  0.1267616E-004  0.9118800E+02  0.7818608E-02  0.1130116E+00
         25   -1    0    0    0    0  0.00000000000E+00  0.00000000000E+00  0.99999998245E-14  0.12500000000E+03  0.12500000000E+03 0.  0.
        -13    1    3    3    0    0 -0.21262270703E+02  0.48964097217E+02 -0.40988566547E+01  0.53538572652E+02  0.10566000000E+00 0.  1.
         23    2    1    0    0    0 -0.70786653034E+01  0.14454927330E+02 -0.24213100577E+02  0.95925498007E+02  0.91413207480E+02 0.  0.
         13    1    3    3    0    0  0.14183605400E+02 -0.34509169887E+02 -0.20114243922E+02  0.42386925355E+02  0.10566000000E+00 0. -1.
         22    1    1    0    0    0  0.70786653034E+01 -0.14454927330E+02  0.24213100577E+02  0.29074501993E+02  0.00000000000E+00 0.  1.
</event>
<event>
 5    1  0.1267616E-004  0.9118800E+02  0.7818608E-02  0.1130116E+00
         25   -1    0    0    0    0  0.00000000000E+00  0.00000000000E+00  0.99999998245E-14  0.12500000000E+03  0.12500000000E+03 0.  0.
        -13    1    3    3    0    0  0.15024445300E+02 -0.31353903742E+02  0.45137715858E+02  0.56975659656E+02  0.10566000000E+00 0. -1.
         23    2    1    0    0    0  0.97803529063E+00 -0.32036718126E+02  0.16340662380E+02  0.89023269905E+02  0.81429831611E+02 0.  0.
         13    1    3    3    0    0 -0.14046410009E+02 -0.68281438431E+00 -0.28797053477E+02  0.32047610249E+02  0.10566000000E+00 0.  1.
         22    1    1    0    0    0 -0.97803529063E+00  0.32036718126E+02 -0.16340662380E+02  0.35976730095E+02  0.00000000000E+00 0. -1.
</event>
<event>
 5    1  0.1267616E-004  0.9118800E+02  0.7818608E-02  0.1130116E+00
         25   -1    0    0    0    0  0.00000000000E+00  0.00000000000E+00  0.99999998245E-14  0.12500000000E+03  0.12500000000E+03 0.  0.
        -13    1    3    3    0    0  0.59480180834E+02  0.12959821616E+02 -0.83807690551E+01  0.61449958034E+02  0.10566000000E+00 0.  1.
         23    2    1    0    0    0  0.21068889188E+02  0.10597463671E+02 -0.84907959502E+01  0.99934127908E+02  0.96739505772E+02 0.  0.
         13    1    3    3    0    0 -0.38411291646E+02 -0.23623579449E+01 -0.11002689505E+00  0.38484169874E+02  0.10566000000E+00 0. -1.
         22    1    1    0    0    0 -0.21068889188E+02 -0.10597463671E+02  0.84907959502E+01  0.25065872092E+02  0.00000000000E+00 0.  1.
</event>
<event>
 5    1  0.1267616E-004  0.9118800E+02  0.7818608E-02  0.1130116E+00
         25   -1    0    0    0    0  0.00000000000E+00  0.00000000000E+00  0.99999998245E-14  0.12500000000E+03  0.12500000000E+03 0.  0.
        -13    1    3    3    0    0  0.33498495550E+02 -0.38229080464E+02  0.22221345660E+02  0.55474419007E+02  0.10566000000E+00 0. -1.
         23    2    1    0    0    0  0.19775490855E+02  0.30625369962E+01  0.15894692926E+02  0.99444365893E+02  0.96104586120E+02 0.  0.
         13    1    3    3    0    0 -0.13723004695E+02  0.41291617460E+02 -0.63266527333E+01  0.43969946886E+02  0.10566000000E+00 0.  1.
         22    1    1    0    0    0 -0.19775490855E+02 -0.30625369962E+01 -0.15894692926E+02  0.25555634107E+02  0.00000000000E+00 0. -1.
</event>
<event>
 5    1  0.1267616E-004  0.9118800E+02  0.7818608E-02  0.1130116E+00
         25   -1    0    0    0    0  0.00000000000E+00  0.00000000000E+00  0.99999998245E-14  0.12500000000E+03  0.12500000000E+03 0.  0.
        -13    1    3    3    0    0  0.43744793787E+02 -0.17566599202E+02  0.10102991903E+02  0.48210724952E+02  0.10566000000E+00 0.  1.
         23    2    1    0    0    0  0.48481089510E+01 -0.19676272866E+02  0.27472728388E+02  0.90861888169E+02  0.84204940724E+02 0.  0.
         13    1    3    3    0    0 -0.38896684836E+02 -0.21096736647E+01  0.17369736484E+02  0.42651163217E+02  0.10566000000E+00 0. -1.
         22    1    1    0    0    0 -0.48481089510E+01  0.19676272866E+02 -0.27472728388E+02  0.34138111831E+02  0.00000000000E+00 0.  1.
</event>
<event>
 5    1  0.1267616E-004  0.9118800E+02  0.7818608E-02  0.1130116E+00
         25   -1    0    0    0    0  0.00000000000E+00  0.00000000000E+00  0.99999998245E-14  0.12500000000E+03  0.12500000000E+03 0.  0.
        -13    1    3    3    0    0 -0.44606419324E+02  0.20961075610E+01 -0.21262342856E+02  0.49459323687E+02  0.10566000000E+00 0.  1.
         23    2    1    0    0    0 -0.17844819701E+02  0.23505362160E+02  0.78889505351E+01  0.94452083852E+02  0.89375729161E+02 0.  0.
         13    1    3    3    0    0  0.26761599623E+02  0.21409254599E+02  0.29151293391E+02  0.44992760165E+02  0.10566000000E+00 0. -1.
         22    1    1    0    0    0  0.17844819701E+02 -0.23505362160E+02 -0.78889505351E+01  0.30547916148E+02  0.00000000000E+00 0.  1.
</event>
<event>
 5    1  0.1267616E-004  0.9118800E+02  0.7818608E-02  0.1130116E+00
         25   -1    0    0    0    0  0.00000000000E+00  0.00000000000E+00  0.99999998245E-14  0.12500000000E+03  0.12500000000E+03 0.  0.
        -13    1    3    3    0    0  0.31058147880E+02  0.15618273837E+02 -0.36113638538E+01  0.34951282384E+02  0.10566000000E+00 0. -1.
         23    2    1    0    0    0 -0.27082370506E+02  0.60625166052E+01 -0.12542063611E+02  0.94544914063E+02  0.89505466401E+02 0.  0.
         13    1    3    3    0    0 -0.58140518386E+02 -0.95557572317E+01 -0.89306997576E+01  0.59593631679E+02  0.10566000000E+00 0.  1.
         22    1    1    0    0    0  0.27082370506E+02 -0.60625166052E+01  0.12542063611E+02  0.30455085937E+02  0.00000000000E+00 0.  1.
</event>
<event>
 5    1  0.1267616E-004  0.9118800E+02  0.7818608E-02  0.1130116E+00
         25   -1    0    0    0    0  0.00000000000E+00  0.00000000000E+00  0.99999998245E-14  0.12500000000E+03  0.12500000000E+03 0.  0.
        -13    1    3    3    0    0 -0.16954436594E+02  0.48459590761E+02 -0.88165173891E+01  0.52091525221E+02  0.10566000000E+00 0. -1.
         23    2    1    0    0    0  0.18154825724E+02  0.21048992792E+02 -0.44831125788E+01  0.96844075348E+02  0.92660772914E+02 0.  0.
         13    1    3    3    0    0  0.35109262318E+02 -0.27410597969E+02  0.43334048103E+01  0.44752550127E+02  0.10566000000E+00 0.  1.
         22    1    1    0    0    0 -0.18154825724E+02 -0.21048992792E+02  0.44831125788E+01  0.28155924652E+02  0.00000000000E+00 0. -1.
</event>
<event>
 5    1  0.1267616E-004  0.9118800E+02  0.7818608E-02  0.1130116E+00
         25   -1    0    0    0    0  0.00000000000E+00  0.00000000000E+00  0.99999998245E-14  0.12500000000E+03  0.12500000000E+03 0.  0.
        -13    1    3    3    0    0  0.26502185801E+02  0.48239190964E+02  0.21538676279E+02  0.59104239585E+02  0.10566000000E+00 0.  1.
         23    2    1    0    0    0  0.70407320427E+01  0.33660924497E+02  0.15602195901E+01  0.90575241020E+02  0.83778340010E+02 0.  0.
         13    1    3    3    0    0 -0.19461453758E+02 -0.14578266467E+02 -0.19978456689E+02  0.31471001434E+02  0.10566000000E+00 0. -1.
         22    1    1    0    0    0 -0.70407320427E+01 -0.33660924497E+02 -0.15602195901E+01  0.34424758980E+02  0.00000000000E+00 0.  1.
</event>
<event>
 5    1  0.1267616E-004  0.9118800E+02  0.7818608E-02  0.1130116E+00
         25   -1    0    0    0    0  0.00000000000E+00  0.00000000000E+00  0.99999998245E-14  0.12500000000E+03  0.12500000000E+03 0.  0.
        -13    1    3    3    0    0  0.76138774810E+01 -0.49136896614E+02  0.18333565377E+02  0.52995627392E+02  0.10566000000E+00 0.  1.
         23    2    1    0    0    0 -0.84634176504E+01 -0.29448123863E+02 -0.11574520536E+02  0.92246512200E+02  0.86235886092E+02 0.  0.
         13    1    3    3    0    0 -0.16077295131E+02  0.19688772751E+02 -0.29908085914E+02  0.39250884808E+02  0.10566000000E+00 0. -1.
         22    1    1    0    0    0  0.84634176504E+01  0.29448123863E+02  0.11574520536E+02  0.32753487800E+02  0.00000000000E+00 0.  1.
</event>
<event>
 5    1  0.1267616E-004  0.9118800E+02  0.7818608E-02  0.1130116E+00
         25   -1    0    0    0    0  0.00000000000E+00  0.00000000000E+00  0.99999998245E-14  0.12500000000E+03  0.12500000000E+03 0.  0.
        -13    1    3    3    0    0  0.44312182077E+02  0.34768242816E+02  0.18508830753E+02  0.59287335652E+02  0.10566000000E+00 0.  1.
         23    2    1    0    0    0  0.27026239434E+02  0.52990746891E+01  0.15867530822E+01  0.97413488879E+02  0.93425757796E+02 0.  0.
         13    1    3    3    0    0 -0.17285942643E+02 -0.29469168126E+02 -0.16922077671E+02  0.38126153227E+02  0.10566000000E+00 0. -1.
         22    1    1    0    0    0 -0.27026239434E+02 -0.52990746891E+01 -0.15867530822E+01  0.27586511121E+02  0.00000000000E+00 0.  1.
</event>
<event>
 5    1  0.1267616E-004  0.9118800E+02  0.7818608E-02  0.1130116E+00
         25   -1    0    0    0    0  0.00000000000E+00  0.00000000000E+00  0.99999998245E-14  0.12500000000E+03  0.12500000000E+03 0.  0.
        -13    1    3    3    0    0 -0.44769843239E+02  0.10281467895E+02 -0.40573053097E+02  0.61288100373E+02  0.10566000000E+00 0.  1.
         23    2    1    0    0    0 -0.19851260322E+02 -0.40732209280E+01 -0.18788572722E+02  0.97365345488E+02  0.93361321606E+02 0.  0.
         13    1    3    3    0    0  0.24918582918E+02 -0.14354688823E+02  0.21784480375E+02  0.36077245115E+02  0.10566000000E+00 0. -1.
         22    1    1    0    0    0  0.19851260322E+02  0.40732209280E+01  0.18788572722E+02  0.27634654512E+02  0.00000000000E+00 0.  1.
</event>
<event>
 5    1  0.1267616E-004  0.9118800E+02  0.7818608E-02  0.1130116E+00
         25   -1    0    0    0    0  0.00000000000E+00  0.00000000000E+00  0.99999998245E-14  0.12500000000E+03  0.12500000000E+03 0.  0.
        -13    1    3    3    0    0 -0.31581328494E+02 -0.32311979765E+01 -0.21473158890E+02  0.38326605205E+02  0.10566000000E+00 0. -1.
         23    2    1    0    0    0  0.13947301185E+02  0.19242940902E+02  0.11223497451E+02  0.98717213239E+02  0.95154102958E+02 0.  0.
         13    1    3    3    0    0  0.45528629679E+02  0.22474138878E+02  0.32696656341E+02  0.60390608034E+02  0.10566000000E+00 0.  1.
         22    1    1    0    0    0 -0.13947301185E+02 -0.19242940902E+02 -0.11223497451E+02  0.26282786761E+02  0.00000000000E+00 0.  1.
</event>
<event>
 5    1  0.1267616E-004  0.9118800E+02  0.7818608E-02  0.1130116E+00
         25   -1    0    0    0    0  0.00000000000E+00  0.00000000000E+00  0.99999998245E-14  0.12500000000E+03  0.12500000000E+03 0.  0.
        -13    1    3    3    0    0  0.53046186577E+02  0.29722079077E+01  0.11211795230E+02  0.54299608162E+02  0.10566000000E+00 0.  1.
         23    2    1    0    0    0  0.22525979744E+02  0.13494049805E+02 -0.13982927438E+02  0.95250522638E+02  0.90485527349E+02 0.  0.
         13    1    3    3    0    0 -0.30520206834E+02  0.10521841898E+02 -0.25194722668E+02  0.40950914476E+02  0.10566000000E+00 0. -1.
         22    1    1    0    0    0 -0.22525979744E+02 -0.13494049805E+02  0.13982927438E+02  0.29749477362E+02  0.00000000000E+00 0. -1.
</event>
<event>
 5    1  0.1267616E-004  0.9118800E+02  0.7818608E-02  0.1130116E+00
         25   -1    0    0    0    0  0.00000000000E+00  0.00000000000E+00  0.99999998245E-14  0.12500000000E+03  0.12500000000E+03 0.  0.
        -13    1    3    3    0    0 -0.45441829893E+02  0.39849475727E+02 -0.15172509932E+01  0.60458695275E+02  0.10566000000E+00 0. -1.
         23    2    1    0    0    0 -0.12981741434E+02  0.24873904904E+02  0.40957090960E+01  0.96644901890E+02  0.92391695907E+02 0.  0.
         13    1    3    3    0    0  0.32460088459E+02 -0.14975570823E+02  0.56129600892E+01  0.36186206616E+02  0.10566000000E+00 0.  1.
         22    1    1    0    0    0  0.12981741434E+02 -0.24873904904E+02 -0.40957090960E+01  0.28355098110E+02  0.00000000000E+00 0. -1.
</event>
<event>
 5    1  0.1267616E-004  0.9118800E+02  0.7818608E-02  0.1130116E+00
         25   -1    0    0    0    0  0.00000000000E+00  0.00000000000E+00  0.99999998245E-14  0.12500000000E+03  0.12500000000E+03 0.  0.
        -13    1    3    3    0    0  0.18893732496E+02  0.40281231253E+01  0.39164119392E+02  0.43669649819E+02  0.10566000000E+00 0.  1.
         23    2    1    0    0    0  0.15529809451E+01 -0.27745410675E+02 -0.28542059609E+00  0.97209695428E+02  0.93152691088E+02 0.  0.
         13    1    3    3    0    0 -0.17340751551E+02 -0.31773533800E+02 -0.39449539988E+02  0.53540045609E+02  0.10566000000E+00 0. -1.
         22    1    1    0    0    0 -0.15529809451E+01  0.27745410675E+02  0.28542059609E+00  0.27790304572E+02  0.00000000000E+00 0. -1.
</event>
<event>
 5    1  0.1267616E-004  0.9118800E+02  0.7818608E-02  0.1130116E+00
         25   -1    0    0    0    0  0.00000000000E+00  0.00000000000E+00  0.99999998245E-14  0.12500000000E+03  0.12500000000E+03 0.  0.
        -13    1    3    3    0    0 -0.18710936551E+02 -0.21538433579E+02  0.95620053790E+01  0.30090636061E+02  0.10566000000E+00 0. -1.
         23    2    1    0    0    0  0.19637697506E+02  0.26309032843E+02 -0.12396330846E+00  0.92169834917E+02  0.86124669690E+02 0.  0.
         13    1    3    3    0    0  0.38348634057E+02  0.47847466422E+02 -0.96859686875E+01  0.62079198856E+02  0.10566000000E+00 0.  1.
         22    1    1    0    0    0 -0.19637697506E+02 -0.26309032843E+02  0.12396330846E+00  0.32830165083E+02  0.00000000000E+00 0.  1.
</event>
<event>
 5    1  0.1267616E-004  0.9118800E+02  0.7818608E-02  0.1130116E+00
         25   -1    0    0    0    0  0.00000000000E+00  0.00000000000E+00  0.99999998245E-14  0.12500000000E+03  0.12500000000E+03 0.  0.
        -13    1    3    3    0    0  0.37326822356E+02 -0.35500762336E+01 -0.30509086768E+01  0.37619329024E+02  0.10566000000E+00 0.  1.
         23    2    1    0    0    0 -0.16136265003E+02 -0.16731922195E+02  0.16979795488E+02  0.96213723349E+02  0.91806485813E+02 0.  0.
         13    1    3    3    0    0 -0.53463087359E+02 -0.13181845962E+02  0.20030704165E+02  0.58594394325E+02  0.10566000000E+00 0. -1.
         22    1    1    0    0    0  0.16136265003E+02  0.16731922195E+02 -0.16979795488E+02  0.28786276651E+02  0.00000000000E+00 0. -1.
</event>
<event>
 5    1  0.1267616E-004  0.9118800E+02  0.7818608E-02  0.1130116E+00
         25   -1    0    0    0    0  0.00000000000E+00  0.00000000000E+00  0.99999998245E-14  0.12500000000E+03  0.12500000000E+03 0.  0.
        -13    1    3    3    0    0  0.18005682623E+02  0.25158773715E+02  0.48900577724E+02  0.57865759887E+02  0.10566000000E+00 0.  1.
         23    2    1    0    0    0 -0.81311035100E+01  0.13478329529E+02  0.26339088138E+02  0.94315675417E+02  0.89184745636E+02 0.  0.
         13    1    3    3    0    0 -0.26136786133E+02 -0.11680444186E+02 -0.22561489586E+02  0.36449915530E+02  0.10566000000E+00 0. -1.
         22    1    1    0    0    0  0.81311035100E+01 -0.13478329529E+02 -0.26339088138E+02  0.30684324583E+02  0.00000000000E+00 0.  1.
</event>
<event>
 5    1  0.1267616E-004  0.9118800E+02  0.7818608E-02  0.1130116E+00
         25   -1    0    0    0    0  0.00000000000E+00  0.00000000000E+00  0.99999998245E-14  0.12500000000E+03  0.12500000000E+03 0.  0.
        -13    1    3    3    0    0  0.91036360854E+01  0.26679001058E+02 -0.17057006050E+02  0.32948412813E+02  0.10566000000E+00 0. -1.
         23    2    1    0    0    0  0.75878260047E+01 -0.26833880501E+02  0.12878066403E+02  0.94283931884E+02  0.89140243274E+02 0.  0.
         13    1    3    3    0    0 -0.15158100807E+01 -0.53512881559E+02  0.29935072453E+02  0.61335519072E+02  0.10566000000E+00 0.  1.
         22    1    1    0    0    0 -0.75878260047E+01  0.26833880501E+02 -0.12878066403E+02  0.30716068116E+02  0.00000000000E+00 0.  1.
</event>
<event>
 5    1  0.1267616E-004  0.9118800E+02  0.7818608E-02  0.1130116E+00
         25   -1    0    0    0    0  0.00000000000E+00  0.00000000000E+00  0.99999998245E-14  0.12500000000E+03  0.12500000000E+03 0.  0.
        -13    1    3    3    0    0 -0.67268541736E+01  0.30602558156E+01 -0.57307807182E+02  0.57782451149E+02  0.10566000000E+00 0.  1.
         23    2    1    0    0    0 -0.12232557237E+02  0.15341552012E+02 -0.22255228044E+02  0.95330253625E+02  0.90595603680E+02 0.  0.
         13    1    3    3    0    0 -0.55057030634E+01  0.12281296196E+02  0.35052579138E+02  0.37547802476E+02  0.10566000000E+00 0. -1.
         22    1    1    0    0    0  0.12232557237E+02 -0.15341552012E+02  0.22255228044E+02  0.29669746375E+02  0.00000000000E+00 0.  1.
</event>
<event>
 5    1  0.1267616E-004  0.9118800E+02  0.7818608E-02  0.1130116E+00
         25   -1    0    0    0    0  0.00000000000E+00  0.00000000000E+00  0.99999998245E-14  0.12500000000E+03  0.12500000000E+03 0.  0.
        -13    1    3    3    0    0 -0.42828872515E+02 -0.15739143661E+02  0.31593823664E+02  0.55499674070E+02  0.10566000000E+00 0. -1.
         23    2    1    0    0    0 -0.24132553179E+02  0.13061160045E+02  0.16250876682E+02  0.93108543188E+02  0.87476487109E+02 0.  0.
         13    1    3    3    0    0  0.18696319336E+02  0.28800303706E+02 -0.15342946982E+02  0.37608869118E+02  0.10566000000E+00 0.  1.
         22    1    1    0    0    0  0.24132553179E+02 -0.13061160045E+02 -0.16250876682E+02  0.31891456812E+02  0.00000000000E+00 0. -1.
</event>
<event>
 5    1  0.1267616E-004  0.9118800E+02  0.7818608E-02  0.1130116E+00
         25   -1    0    0    0    0  0.00000000000E+00  0.00000000000E+00  0.99999998245E-14  0.12500000000E+03  0.12500000000E+03 0.  0.
        -13    1    3    3    0    0  0.32615766391E+02 -0.31453757876E+02 -0.15607792614E+02  0.47924330523E+02  0.10566000000E+00 0. -1.
         23    2    1    0    0    0  0.22602939494E+02 -0.77953289794E+00  0.19160343062E+02  0.95358487023E+02  0.90634550564E+02 0.  0.
         13    1    3    3    0    0 -0.10012826897E+02  0.30674224978E+02  0.34768135675E+02  0.47434156500E+02  0.10566000000E+00 0.  1.
         22    1    1    0    0    0 -0.22602939494E+02  0.77953289794E+00 -0.19160343062E+02  0.29641512977E+02  0.00000000000E+00 0. -1.
</event>
<event>
 5    1  0.1267616E-004  0.9118800E+02  0.7818608E-02  0.1130116E+00
         25   -1    0    0    0    0  0.00000000000E+00  0.00000000000E+00  0.99999998245E-14  0.12500000000E+03  0.12500000000E+03 0.  0.
        -13    1    3    3    0    0  0.26945915561E+02  0.23135321301E+02  0.23448541386E+01  0.35592625108E+02  0.10566000000E+00 0. -1.
         23    2    1    0    0    0 -0.21054994766E+02 -0.87963839884E+01 -0.17154087944E+02  0.96452637442E+02  0.92131207310E+02 0.  0.
         13    1    3    3    0    0 -0.48000910327E+02 -0.31931705289E+02 -0.19498942082E+02  0.60860012334E+02  0.10566000000E+00 0.  1.
         22    1    1    0    0    0  0.21054994766E+02  0.87963839884E+01  0.17154087944E+02  0.28547362558E+02  0.00000000000E+00 0.  1.
</event>
<event>
 5    1  0.1267616E-004  0.9118800E+02  0.7818608E-02  0.1130116E+00
         25   -1    0    0    0    0  0.00000000000E+00  0.00000000000E+00  0.99999998245E-14  0.12500000000E+03  0.12500000000E+03 0.  0.
        -13    1    3    3    0    0 -0.32519037190E+02  0.13248027857E+02  0.36305478372E+02  0.50508384905E+02  0.10566000000E+00 0. -1.
         23    2    1    0    0    0 -0.62221622855E+01 -0.20638259379E+02  0.17006959660E+02  0.97542947525E+02  0.93598808119E+02 0.  0.
         13    1    3    3    0    0  0.26296874904E+02 -0.33886287237E+02 -0.19298518711E+02  0.47034562621E+02  0.10566000000E+00 0.  1.
         22    1    1    0    0    0  0.62221622855E+01  0.20638259379E+02 -0.17006959660E+02  0.27457052475E+02  0.00000000000E+00 0. -1.
</event>
<event>
 5    1  0.1267616E-004  0.9118800E+02  0.7818608E-02  0.1130116E+00
         25   -1    0    0    0    0  0.00000000000E+00  0.00000000000E+00  0.99999998245E-14  0.12500000000E+03  0.12500000000E+03 0.  0.
        -13    1    3    3    0    0  0.51047879834E+00 -0.19634407896E+02 -0.40744864460E+02  0.45231910262E+02  0.10566000000E+00 0.  1.
         23    2    1    0    0    0  0.16556042579E+02 -0.21993238236E+02  0.77784585581E+01  0.96393890661E+02  0.92051467480E+02 0.  0.
         13    1    3    3    0    0  0.16045563781E+02 -0.23588303401E+01  0.48523323018E+02  0.51161980399E+02  0.10566000000E+00 0. -1.
         22    1    1    0    0    0 -0.16556042579E+02  0.21993238236E+02 -0.77784585581E+01  0.28606109339E+02  0.00000000000E+00 0.  1.
</event>
<event>
 5    1  0.1267616E-004  0.9118800E+02  0.7818608E-02  0.1130116E+00
         25   -1    0    0    0    0  0.00000000000E+00  0.00000000000E+00  0.99999998245E-14  0.12500000000E+03  0.12500000000E+03 0.  0.
        -13    1    3    3    0    0 -0.36348542383E+02  0.21103543955E+02  0.23200806091E+01  0.42094774484E+02  0.10566000000E+00 0. -1.
         23    2    1    0    0    0 -0.46425314513E+01 -0.15192133146E+02 -0.23396006941E+02  0.96720552541E+02  0.92493989725E+02 0.  0.
         13    1    3    3    0    0  0.31706010931E+02 -0.36295677101E+02 -0.25716087550E+02  0.54625778057E+02  0.10566000000E+00 0.  1.
         22    1    1    0    0    0  0.46425314513E+01  0.15192133146E+02  0.23396006941E+02  0.28279447459E+02  0.00000000000E+00 0.  1.
</event>
<event>
 5    1  0.1267616E-004  0.9118800E+02  0.7818608E-02  0.1130116E+00
         25   -1    0    0    0    0  0.00000000000E+00  0.00000000000E+00  0.99999998245E-14  0.12500000000E+03  0.12500000000E+03 0.  0.
        -13    1    3    3    0    0 -0.74814446418E+01 -0.47088510061E+02 -0.60201422285E+01  0.48057809669E+02  0.10566000000E+00 0.  1.
         23    2    1    0    0    0  0.24461439568E+02 -0.14843307585E+02  0.75065732869E+01  0.95419018807E+02  0.90717995469E+02 0.  0.
         13    1    3    3    0    0  0.31942884210E+02  0.32245202476E+02  0.13526715515E+02  0.47361209138E+02  0.10566000000E+00 0. -1.
         22    1    1    0    0    0 -0.24461439568E+02  0.14843307585E+02 -0.75065732869E+01  0.29580981193E+02  0.00000000000E+00 0.  1.
</event>
<event>
 5    1  0.1267616E-004  0.9118800E+02  0.7818608E-02  0.1130116E+00
         25   -1    0    0    0    0  0.00000000000E+00  0.00000000000E+00  0.99999998245E-14  0.12500000000E+03  0.12500000000E+03 0.  0.
        -13    1    3    3    0    0 -0.28560832971E+02  0.26926545539E+02  0.18704798690E+02  0.43481498281E+02  0.10566000000E+00 0.  1.
         23    2    1    0    0    0  0.20092639145E+02  0.20419497287E+02  0.14884147643E+02  0.92716755611E+02  0.86914837069E+02 0.  0.
         13    1    3    3    0    0  0.48653472116E+02 -0.65070482525E+01 -0.38206510471E+01  0.49235257330E+02  0.10566000000E+00 0. -1.
         22    1    1    0    0    0 -0.20092639145E+02 -0.20419497287E+02 -0.14884147643E+02  0.32283244389E+02  0.00000000000E+00 0. -1.
</event>
<event>
 5    1  0.1267616E-004  0.9118800E+02  0.7818608E-02  0.1130116E+00
         25   -1    0    0    0    0  0.00000000000E+00  0.00000000000E+00  0.99999998245E-14  0.12500000000E+03  0.12500000000E+03 0.  0.
        -13    1    3    3    0    0  0.37754476934E+02  0.11487797951E+01 -0.26017321201E+02  0.45865372451E+02  0.10566000000E+00 0. -1.
         23    2    1    0    0    0 -0.14277221788E+02  0.78375556182E+01 -0.20797004036E+02  0.98584441764E+02  0.94979526430E+02 0.  0.
         13    1    3    3    0    0 -0.52031698722E+02  0.66887758231E+01  0.52203171647E+01  0.52719069313E+02  0.10566000000E+00 0.  1.
         22    1    1    0    0    0  0.14277221788E+02 -0.78375556182E+01  0.20797004036E+02  0.26415558236E+02  0.00000000000E+00 0. -1.
</event>
<event>
 5    1  0.1267616E-004  0.9118800E+02  0.7818608E-02  0.1130116E+00
         25   -1    0    0    0    0  0.00000000000E+00  0.00000000000E+00  0.99999998245E-14  0.12500000000E+03  0.12500000000E+03 0.  0.
        -13    1    3    3    0    0  0.51792636395E+02 -0.10530420892E+02  0.20335754886E+02  0.56629683380E+02  0.10566000000E+00 0. -1.
         23    2    1    0    0    0  0.14612922387E+02 -0.47659742778E+01  0.26117373328E+02  0.94695393071E+02  0.89715373643E+02 0.  0.
         13    1    3    3    0    0 -0.37179714008E+02  0.57644466144E+01  0.57816184426E+01  0.38065709691E+02  0.10566000000E+00 0.  1.
         22    1    1    0    0    0 -0.14612922387E+02  0.47659742778E+01 -0.26117373328E+02  0.30304606929E+02  0.00000000000E+00 0. -1.
</event>
<event>
 5    1  0.1267616E-004  0.9118800E+02  0.7818608E-02  0.1130116E+00
         25   -1    0    0    0    0  0.00000000000E+00  0.00000000000E+00  0.99999998245E-14  0.12500000000E+03  0.12500000000E+03 0.  0.
        -13    1    3    3    0    0 -0.22192321158E+02 -0.24609111673E+02 -0.64236227995E+01  0.33754726922E+02  0.10566000000E+00 0.  1.
         23    2    1    0    0    0  0.12121168457E+02  0.25932227795E+02  0.51082932180E+01  0.95922554742E+02  0.91409182719E+02 0.  0.
         13    1    3    3    0    0  0.34313489614E+02  0.50541339468E+02  0.11531916017E+02  0.62167827819E+02  0.10566000000E+00 0. -1.
         22    1    1    0    0    0 -0.12121168457E+02 -0.25932227795E+02 -0.51082932180E+01  0.29077445258E+02  0.00000000000E+00 0. -1.
</event>
<event>
 5    1  0.1267616E-004  0.9118800E+02  0.7818608E-02  0.1130116E+00
         25   -1    0    0    0    0  0.00000000000E+00  0.00000000000E+00  0.99999998245E-14  0.12500000000E+03  0.12500000000E+03 0.  0.
        -13    1    3    3    0    0  0.15262453314E+02  0.36004844629E+02 -0.31529580858E+02  0.50233623710E+02  0.10566000000E+00 0. -1.
         23    2    1    0    0    0  0.26098578265E+02  0.56733595212E+01  0.37786578807E+01  0.98025918901E+02  0.94241602943E+02 0.  0.
         13    1    3    3    0    0  0.10836124951E+02 -0.30331485107E+02  0.35308238739E+02  0.47792295191E+02  0.10566000000E+00 0.  1.
         22    1    1    0    0    0 -0.26098578265E+02 -0.56733595212E+01 -0.37786578807E+01  0.26974081099E+02  0.00000000000E+00 0. -1.
</event>
<event>
 5    1  0.1267616E-004  0.9118800E+02  0.7818608E-02  0.1130116E+00
         25   -1    0    0    0    0  0.00000000000E+00  0.00000000000E+00  0.99999998245E-14  0.12500000000E+03  0.12500000000E+03 0.  0.
        -13    1    3    3    0    0  0.29383381870E+02  0.14870467576E+02 -0.14702073133E+02  0.36064886725E+02  0.10566000000E+00 0.  1.
         23    2    1    0    0    0 -0.21332535336E+02 -0.15718462499E+02 -0.13401355074E+02  0.95305834832E+02  0.90561905391E+02 0.  0.
         13    1    3    3    0    0 -0.50715917206E+02 -0.30588930074E+02  0.13007180589E+01  0.59240948107E+02  0.10566000000E+00 0. -1.
         22    1    1    0    0    0  0.21332535336E+02  0.15718462499E+02  0.13401355074E+02  0.29694165168E+02  0.00000000000E+00 0. -1.
</event>
<event>
 5    1  0.1267616E-004  0.9118800E+02  0.7818608E-02  0.1130116E+00
         25   -1    0    0    0    0  0.00000000000E+00  0.00000000000E+00  0.99999998245E-14  0.12500000000E+03  0.12500000000E+03 0.  0.
        -13    1    3    3    0    0  0.35656439364E+02  0.17772877530E+02  0.95747924386E+00  0.39852036013E+02  0.10566000000E+00 0.  1.
         23    2    1    0    0    0  0.21259923589E+01 -0.24899707032E+02  0.14926681665E+02  0.95891219893E+02  0.91366322971E+02 0.  0.
         13    1    3    3    0    0 -0.33530447005E+02 -0.42672584562E+02  0.13969202421E+02  0.56039183880E+02  0.10566000000E+00 0. -1.
         22    1    1    0    0    0 -0.21259923589E+01  0.24899707032E+02 -0.14926681665E+02  0.29108780107E+02  0.00000000000E+00 0. -1.
</event>
<event>
 5    1  0.1267616E-004  0.9118800E+02  0.7818608E-02  0.1130116E+00
         25   -1    0    0    0    0  0.00000000000E+00  0.00000000000E+00  0.99999998245E-14  0.12500000000E+03  0.12500000000E+03 0.  0.
        -13    1    3    3    0    0  0.33717993580E+02 -0.12937428611E+02  0.10321285690E+02  0.37560887269E+02  0.10566000000E+00 0.  1.
         23    2    1    0    0    0 -0.63961646995E+01  0.11539147960E+02 -0.25258740049E+02  0.96503214087E+02  0.92199802178E+02 0.  0.
         13    1    3    3    0    0 -0.40114158279E+02  0.24476576571E+02 -0.35580025739E+02  0.58942326818E+02  0.10566000000E+00 0. -1.
         22    1    1    0    0    0  0.63961646995E+01 -0.11539147960E+02  0.25258740049E+02  0.28496785913E+02  0.00000000000E+00 0. -1.
</event>
<event>
 5    1  0.1267616E-004  0.9118800E+02  0.7818608E-02  0.1130116E+00
         25   -1    0    0    0    0  0.00000000000E+00  0.00000000000E+00  0.99999998245E-14  0.12500000000E+03  0.12500000000E+03 0.  0.
        -13    1    3    3    0    0  0.20001448755E+02 -0.21255731509E+01 -0.21020265192E+02  0.29093620028E+02  0.10566000000E+00 0.  1.
         23    2    1    0    0    0 -0.16628097469E+02 -0.90332473705E+01  0.28324982324E+02  0.90935387759E+02  0.84313978318E+02 0.  0.
         13    1    3    3    0    0 -0.36629546224E+02 -0.69076742196E+01  0.49345247516E+02  0.61841767731E+02  0.10566000000E+00 0. -1.
         22    1    1    0    0    0  0.16628097469E+02  0.90332473705E+01 -0.28324982324E+02  0.34064612241E+02  0.00000000000E+00 0. -1.
</event>
<event>
 5    1  0.1267616E-004  0.9118800E+02  0.7818608E-02  0.1130116E+00
         25   -1    0    0    0    0  0.00000000000E+00  0.00000000000E+00  0.99999998245E-14  0.12500000000E+03  0.12500000000E+03 0.  0.
        -13    1    3    3    0    0  0.58529637132E+02 -0.73772581126E+01  0.17484996973E+02  0.61529494092E+02  0.10566000000E+00 0. -1.
         23    2    1    0    0    0  0.30631362149E+02 -0.80257033520E+00  0.15614703477E+01  0.94318366147E+02  0.89188516843E+02 0.  0.
         13    1    3    3    0    0 -0.27898274983E+02  0.65746877774E+01 -0.15923526626E+02  0.32788872055E+02  0.10566000000E+00 0.  1.
         22    1    1    0    0    0 -0.30631362149E+02  0.80257033520E+00 -0.15614703477E+01  0.30681633853E+02  0.00000000000E+00 0. -1.
</event>
<event>
 5    1  0.1267616E-004  0.9118800E+02  0.7818608E-02  0.1130116E+00
         25   -1    0    0    0    0  0.00000000000E+00  0.00000000000E+00  0.99999998245E-14  0.12500000000E+03  0.12500000000E+03 0.  0.
        -13    1    3    3    0    0  0.20945394319E+02 -0.44938317911E+02  0.23826219177E+02  0.55007834389E+02  0.10566000000E+00 0.  1.
         23    2    1    0    0    0  0.54263596388E+01 -0.64047002332E+01  0.27053149668E+02  0.96674420201E+02  0.92431623648E+02 0.  0.
         13    1    3    3    0    0 -0.15519034680E+02  0.38533617678E+02  0.32269304910E+01  0.41666585812E+02  0.10566000000E+00 0. -1.
         22    1    1    0    0    0 -0.54263596388E+01  0.64047002332E+01 -0.27053149668E+02  0.28325579799E+02  0.00000000000E+00 0.  1.
</event>
<event>
 5    1  0.1267616E-004  0.9118800E+02  0.7818608E-02  0.1130116E+00
         25   -1    0    0    0    0  0.00000000000E+00  0.00000000000E+00  0.99999998245E-14  0.12500000000E+03  0.12500000000E+03 0.  0.
        -13    1    3    3    0    0  0.23809598845E+02 -0.25756128440E+02  0.49122906305E+01  0.35417748554E+02  0.10566000000E+00 0. -1.
         23    2    1    0    0    0 -0.75044530667E+01  0.17773403773E+02 -0.22268980849E+02  0.95536154264E+02  0.90879252671E+02 0.  0.
         13    1    3    3    0    0 -0.31314051912E+02  0.43529532213E+02 -0.27181271479E+02  0.60118405710E+02  0.10566000000E+00 0.  1.
         22    1    1    0    0    0  0.75044530667E+01 -0.17773403773E+02  0.22268980849E+02  0.29463845736E+02  0.00000000000E+00 0.  1.
</event>
<event>
 5    1  0.1267616E-004  0.9118800E+02  0.7818608E-02  0.1130116E+00
         25   -1    0    0    0    0  0.00000000000E+00  0.00000000000E+00  0.99999998245E-14  0.12500000000E+03  0.12500000000E+03 0.  0.
        -13    1    3    3    0    0 -0.15524985395E+02 -0.19093096446E+02  0.51716257318E+02  0.57272628178E+02  0.10566000000E+00 0. -1.
         23    2    1    0    0    0 -0.19343412655E+01 -0.22781811366E+02  0.12496746821E+02  0.98943881979E+02  0.95451403838E+02 0.  0.
         13    1    3    3    0    0  0.13590644130E+02 -0.36887149199E+01 -0.39219510498E+02  0.41671253801E+02  0.10566000000E+00 0.  1.
         22    1    1    0    0    0  0.19343412655E+01  0.22781811366E+02 -0.12496746821E+02  0.26056118021E+02  0.00000000000E+00 0. -1.
</event>
<event>
 5    1  0.1267616E-004  0.9118800E+02  0.7818608E-02  0.1130116E+00
         25   -1    0    0    0    0  0.00000000000E+00  0.00000000000E+00  0.99999998245E-14  0.12500000000E+03  0.12500000000E+03 0.  0.
        -13    1    3    3    0    0 -0.14237115646E+02  0.31585268850E+02 -0.33336550644E+02  0.48079740465E+02  0.10566000000E+00 0.  1.
         23    2    1    0    0    0 -0.40389880671E+01  0.27604220205E+02  0.11934880295E+02  0.94656174181E+02  0.89660713499E+02 0.  0.
         13    1    3    3    0    0  0.10198127579E+02 -0.39810486458E+01  0.45271430938E+02  0.46576433716E+02  0.10566000000E+00 0. -1.
         22    1    1    0    0    0  0.40389880671E+01 -0.27604220205E+02 -0.11934880295E+02  0.30343825819E+02  0.00000000000E+00 0. -1.
</event>
<event>
 5    1  0.1267616E-004  0.9118800E+02  0.7818608E-02  0.1130116E+00
         25   -1    0    0    0    0  0.00000000000E+00  0.00000000000E+00  0.99999998245E-14  0.12500000000E+03  0.12500000000E+03 0.  0.
        -13    1    3    3    0    0 -0.17718421018E+02 -0.17688044549E+02  0.31245933175E+02  0.40039091739E+02  0.10566000000E+00 0. -1.
         23    2    1    0    0    0 -0.13352964781E+02  0.13771771042E+02 -0.18036584078E+02  0.98669756719E+02  0.95091740859E+02 0.  0.
         13    1    3    3    0    0  0.43654562371E+01  0.31459815591E+02 -0.49282517252E+02  0.58630664979E+02  0.10566000000E+00 0.  1.
         22    1    1    0    0    0  0.13352964781E+02 -0.13771771042E+02  0.18036584078E+02  0.26330243281E+02  0.00000000000E+00 0.  1.
</event>
<event>
 5    1  0.1267616E-004  0.9118800E+02  0.7818608E-02  0.1130116E+00
         25   -1    0    0    0    0  0.00000000000E+00  0.00000000000E+00  0.99999998245E-14  0.12500000000E+03  0.12500000000E+03 0.  0.
        -13    1    3    3    0    0 -0.50751777369E+02  0.32978402600E+02  0.67260171291E+01  0.60898016508E+02  0.10566000000E+00 0. -1.
         23    2    1    0    0    0 -0.21884519455E+02  0.16181461929E+02  0.12929556540E+02  0.94867868740E+02  0.89955362180E+02 0.  0.
         13    1    3    3    0    0  0.28867257914E+02 -0.16796940670E+02  0.62035394113E+01  0.33969852231E+02  0.10566000000E+00 0.  1.
         22    1    1    0    0    0  0.21884519455E+02 -0.16181461929E+02 -0.12929556540E+02  0.30132131260E+02  0.00000000000E+00 0. -1.
</event>
<event>
 5    1  0.1267616E-004  0.9118800E+02  0.7818608E-02  0.1130116E+00
         25   -1    0    0    0    0  0.00000000000E+00  0.00000000000E+00  0.99999998245E-14  0.12500000000E+03  0.12500000000E+03 0.  0.
        -13    1    3    3    0    0  0.17457837723E+02 -0.15769412345E+02 -0.24047015728E+02  0.33641055173E+02  0.10566000000E+00 0. -1.
         23    2    1    0    0    0 -0.11733192421E+02  0.90601294792E+01  0.25030865196E+02  0.95908799216E+02  0.91390370412E+02 0.  0.
         13    1    3    3    0    0 -0.29191030144E+02  0.24829541825E+02  0.49077880925E+02  0.62267744043E+02  0.10566000000E+00 0.  1.
         22    1    1    0    0    0  0.11733192421E+02 -0.90601294792E+01 -0.25030865196E+02  0.29091200784E+02  0.00000000000E+00 0.  1.
</event>
<event>
 5    1  0.1267616E-004  0.9118800E+02  0.7818608E-02  0.1130116E+00
         25   -1    0    0    0    0  0.00000000000E+00  0.00000000000E+00  0.99999998245E-14  0.12500000000E+03  0.12500000000E+03 0.  0.
        -13    1    3    3    0    0 -0.45325948380E+02  0.69532352293E+01  0.82894314178E+01  0.46599516242E+02  0.10566000000E+00 0.  1.
         23    2    1    0    0    0 -0.24435871907E+01  0.46257771738E+01  0.29878975365E+02  0.94666485504E+02  0.89675087822E+02 0.  0.
         13    1    3    3    0    0  0.42882361189E+02 -0.23274580555E+01  0.21589543948E+02  0.48066969262E+02  0.10566000000E+00 0. -1.
         22    1    1    0    0    0  0.24435871907E+01 -0.46257771738E+01 -0.29878975365E+02  0.30333514496E+02  0.00000000000E+00 0. -1.
</event>
<event>
 5    1  0.1267616E-004  0.9118800E+02  0.7818608E-02  0.1130116E+00
         25   -1    0    0    0    0  0.00000000000E+00  0.00000000000E+00  0.99999998245E-14  0.12500000000E+03  0.12500000000E+03 0.  0.
        -13    1    3    3    0    0 -0.17771114949E+02 -0.30265736035E+02 -0.38723661527E+02  0.52262418910E+02  0.10566000000E+00 0.  1.
         23    2    1    0    0    0 -0.15956782598E+02  0.64277541748E+01 -0.30611605507E+02  0.89885824425E+02  0.82743314571E+02 0.  0.
         13    1    3    3    0    0  0.18143323514E+01  0.36693490209E+02  0.81120560199E+01  0.37623405515E+02  0.10566000000E+00 0. -1.
         22    1    1    0    0    0  0.15956782598E+02 -0.64277541748E+01  0.30611605507E+02  0.35114175575E+02  0.00000000000E+00 0. -1.
</event>
<event>
 5    1  0.1267616E-004  0.9118800E+02  0.7818608E-02  0.1130116E+00
         25   -1    0    0    0    0  0.00000000000E+00  0.00000000000E+00  0.99999998245E-14  0.12500000000E+03  0.12500000000E+03 0.  0.
        -13    1    3    3    0    0 -0.38051978419E+02  0.14550614418E+02 -0.82817139906E+01  0.41572483594E+02  0.10566000000E+00 0.  1.
         23    2    1    0    0    0  0.15989946523E+02  0.95273488325E+01 -0.20609089665E+02  0.97229811985E+02  0.93179681241E+02 0.  0.
         13    1    3    3    0    0  0.54041924942E+02 -0.50232655851E+01 -0.12327375674E+02  0.55657328391E+02  0.10566000000E+00 0. -1.
         22    1    1    0    0    0 -0.15989946523E+02 -0.95273488325E+01  0.20609089665E+02  0.27770188015E+02  0.00000000000E+00 0.  1.
</event>
<event>
 5    1  0.1267616E-004  0.9118800E+02  0.7818608E-02  0.1130116E+00
         25   -1    0    0    0    0  0.00000000000E+00  0.00000000000E+00  0.99999998245E-14  0.12500000000E+03  0.12500000000E+03 0.  0.
        -13    1    3    3    0    0 -0.34140473334E+02  0.84877493401E+00 -0.60075350907E+01  0.34675553063E+02  0.10566000000E+00 0. -1.
         23    2    1    0    0    0  0.20221870974E+02 -0.32159318792E+01  0.21134799379E+02  0.95573039091E+02  0.90929971807E+02 0.  0.
         13    1    3    3    0    0  0.54362344307E+02 -0.40647068132E+01  0.27142334470E+02  0.60897486028E+02  0.10566000000E+00 0.  1.
         22    1    1    0    0    0 -0.20221870974E+02  0.32159318792E+01 -0.21134799379E+02  0.29426960909E+02  0.00000000000E+00 0.  1.
</event>
<event>
 5    1  0.1267616E-004  0.9118800E+02  0.7818608E-02  0.1130116E+00
         25   -1    0    0    0    0  0.00000000000E+00  0.00000000000E+00  0.99999998245E-14  0.12500000000E+03  0.12500000000E+03 0.  0.
        -13    1    3    3    0    0 -0.35591228379E+01  0.39754654801E+02 -0.13580278792E+02  0.42160823876E+02  0.10566000000E+00 0. -1.
         23    2    1    0    0    0  0.28040021045E+02 -0.74190962188E+00  0.44495426285E+01  0.96599442968E+02  0.92330172436E+02 0.  0.
         13    1    3    3    0    0  0.31599143883E+02 -0.40496564423E+02  0.18029821421E+02  0.54438619093E+02  0.10566000000E+00 0.  1.
         22    1    1    0    0    0 -0.28040021045E+02  0.74190962188E+00 -0.44495426285E+01  0.28400557032E+02  0.00000000000E+00 0.  1.
</event>
<event>
 5    1  0.1267616E-004  0.9118800E+02  0.7818608E-02  0.1130116E+00
         25   -1    0    0    0    0  0.00000000000E+00  0.00000000000E+00  0.99999998245E-14  0.12500000000E+03  0.12500000000E+03 0.  0.
        -13    1    3    3    0    0  0.20222138542E+02 -0.38607503902E+02 -0.28422393537E+01  0.43675665231E+02  0.10566000000E+00 0. -1.
         23    2    1    0    0    0  0.22180461118E+02  0.86403489959E+01  0.17803584079E+02  0.95274655725E+02  0.90518859534E+02 0.  0.
         13    1    3    3    0    0  0.19583225760E+01  0.47247852898E+02  0.20645823433E+02  0.51598990494E+02  0.10566000000E+00 0.  1.
         22    1    1    0    0    0 -0.22180461118E+02 -0.86403489959E+01 -0.17803584079E+02  0.29725344275E+02  0.00000000000E+00 0.  1.
</event>
<event>
 5    1  0.1267616E-004  0.9118800E+02  0.7818608E-02  0.1130116E+00
         25   -1    0    0    0    0  0.00000000000E+00  0.00000000000E+00  0.99999998245E-14  0.12500000000E+03  0.12500000000E+03 0.  0.
        -13    1    3    3    0    0 -0.34998107999E+02  0.59802827950E+01 -0.48252067587E+02  0.59907466448E+02  0.10566000000E+00 0. -1.
         23    2    1    0    0    0 -0.63425430690E+01 -0.11555747306E+01 -0.29305541162E+02  0.94993701522E+02  0.90130047046E+02 0.  0.
         13    1    3    3    0    0  0.28655564930E+02 -0.71358575257E+01  0.18946526425E+02  0.35086235074E+02  0.10566000000E+00 0.  1.
         22    1    1    0    0    0  0.63425430690E+01  0.11555747306E+01  0.29305541162E+02  0.30006298478E+02  0.00000000000E+00 0. -1.
</event>
<event>
 5    1  0.1267616E-004  0.9118800E+02  0.7818608E-02  0.1130116E+00
         25   -1    0    0    0    0  0.00000000000E+00  0.00000000000E+00  0.99999998245E-14  0.12500000000E+03  0.12500000000E+03 0.  0.
        -13    1    3    3    0    0 -0.17763166172E+02  0.22432625630E+02 -0.35029990454E+02  0.45231229923E+02  0.10566000000E+00 0.  1.
         23    2    1    0    0    0  0.24762493875E+02  0.33582039448E+01 -0.13901521261E+02  0.96404354701E+02  0.92065675881E+02 0.  0.
         13    1    3    3    0    0  0.42525660048E+02 -0.19074421685E+02  0.21128469193E+02  0.51173124778E+02  0.10566000000E+00 0. -1.
         22    1    1    0    0    0 -0.24762493875E+02 -0.33582039448E+01  0.13901521261E+02  0.28595645299E+02  0.00000000000E+00 0.  1.
</event>
<event>
 5    1  0.1267616E-004  0.9118800E+02  0.7818608E-02  0.1130116E+00
         25   -1    0    0    0    0  0.00000000000E+00  0.00000000000E+00  0.99999998245E-14  0.12500000000E+03  0.12500000000E+03 0.  0.
        -13    1    3    3    0    0 -0.18142274592E+02 -0.31773004295E+02  0.15242059420E+02  0.39635810433E+02  0.10566000000E+00 0.  1.
         23    2    1    0    0    0 -0.14014985367E+02  0.23870630377E+02  0.95326889019E+01  0.95723747386E+02  0.91136912645E+02 0.  0.
         13    1    3    3    0    0  0.41272892250E+01  0.55643634672E+02 -0.57093705180E+01  0.56087936953E+02  0.10566000000E+00 0. -1.
         22    1    1    0    0    0  0.14014985367E+02 -0.23870630377E+02 -0.95326889019E+01  0.29276252614E+02  0.00000000000E+00 0. -1.
</event>
<event>
 5    1  0.1267616E-004  0.9118800E+02  0.7818608E-02  0.1130116E+00
         25   -1    0    0    0    0  0.00000000000E+00  0.00000000000E+00  0.99999998245E-14  0.12500000000E+03  0.12500000000E+03 0.  0.
        -13    1    3    3    0    0  0.35154226077E+02  0.32205453462E+02  0.10048730950E+02  0.48723700614E+02  0.10566000000E+00 0. -1.
         23    2    1    0    0    0  0.44082175219E+01  0.18435272396E+02 -0.22508323466E+02  0.95573544636E+02  0.90930666769E+02 0.  0.
         13    1    3    3    0    0 -0.30746008555E+02 -0.13770181067E+02 -0.32557054416E+02  0.46849844022E+02  0.10566000000E+00 0.  1.
         22    1    1    0    0    0 -0.44082175219E+01 -0.18435272396E+02  0.22508323466E+02  0.29426455364E+02  0.00000000000E+00 0. -1.
</event>
<event>
 5    1  0.1267616E-004  0.9118800E+02  0.7818608E-02  0.1130116E+00
         25   -1    0    0    0    0  0.00000000000E+00  0.00000000000E+00  0.99999998245E-14  0.12500000000E+03  0.12500000000E+03 0.  0.
        -13    1    3    3    0    0  0.43954960740E+02  0.38240123793E+02 -0.17457305763E+02  0.60820344704E+02  0.10566000000E+00 0.  1.
         23    2    1    0    0    0  0.15881486992E+02  0.20938783042E+02 -0.16809789522E+02  0.93803473140E+02  0.88463937765E+02 0.  0.
         13    1    3    3    0    0 -0.28073473749E+02 -0.17301340751E+02  0.64751624062E+00  0.32983128436E+02  0.10566000000E+00 0. -1.
         22    1    1    0    0    0 -0.15881486992E+02 -0.20938783042E+02  0.16809789522E+02  0.31196526860E+02  0.00000000000E+00 0.  1.
</event>
<event>
 5    1  0.1267616E-004  0.9118800E+02  0.7818608E-02  0.1130116E+00
         25   -1    0    0    0    0  0.00000000000E+00  0.00000000000E+00  0.99999998245E-14  0.12500000000E+03  0.12500000000E+03 0.  0.
        -13    1    3    3    0    0  0.29750643392E+02  0.23375173276E+02 -0.54816050910E+01  0.38230336989E+02  0.10566000000E+00 0.  1.
         23    2    1    0    0    0 -0.10062348233E+02  0.22349605909E+01  0.28507596215E+02  0.94686159221E+02  0.89702507241E+02 0.  0.
         13    1    3    3    0    0 -0.39812991625E+02 -0.21140212685E+02  0.33989201306E+02  0.56455822232E+02  0.10566000000E+00 0. -1.
         22    1    1    0    0    0  0.10062348233E+02 -0.22349605909E+01 -0.28507596215E+02  0.30313840779E+02  0.00000000000E+00 0. -1.
</event>
<event>
 5    1  0.1267616E-004  0.9118800E+02  0.7818608E-02  0.1130116E+00
         25   -1    0    0    0    0  0.00000000000E+00  0.00000000000E+00  0.99999998245E-14  0.12500000000E+03  0.12500000000E+03 0.  0.
        -13    1    3    3    0    0  0.24868874281E+02 -0.21504682334E+02  0.11988323925E+02  0.34994904556E+02  0.10566000000E+00 0.  1.
         23    2    1    0    0    0 -0.48864214091E+01  0.29635106497E+02  0.42778592926E+01  0.94661629388E+02  0.89668318524E+02 0.  0.
         13    1    3    3    0    0 -0.29755295691E+02  0.51139788831E+02 -0.77104646320E+01  0.59666724832E+02  0.10566000000E+00 0. -1.
         22    1    1    0    0    0  0.48864214091E+01 -0.29635106497E+02 -0.42778592926E+01  0.30338370612E+02  0.00000000000E+00 0. -1.
</event>
<event>
 5    1  0.1267616E-004  0.9118800E+02  0.7818608E-02  0.1130116E+00
         25   -1    0    0    0    0  0.00000000000E+00  0.00000000000E+00  0.99999998245E-14  0.12500000000E+03  0.12500000000E+03 0.  0.
        -13    1    3    3    0    0 -0.33100482099E+02 -0.87230802922E+01 -0.52811133431E+01  0.34635752730E+02  0.10566000000E+00 0.  1.
         23    2    1    0    0    0  0.25075294108E+02  0.76194361396E+00 -0.16950027761E+02  0.94723699471E+02  0.89754804148E+02 0.  0.
         13    1    3    3    0    0  0.58175776207E+02  0.94850239061E+01 -0.11668914418E+02  0.60087946741E+02  0.10566000000E+00 0. -1.
         22    1    1    0    0    0 -0.25075294108E+02 -0.76194361396E+00  0.16950027761E+02  0.30276300529E+02  0.00000000000E+00 0.  1.
</event>
<event>
 5    1  0.1267616E-004  0.9118800E+02  0.7818608E-02  0.1130116E+00
         25   -1    0    0    0    0  0.00000000000E+00  0.00000000000E+00  0.99999998245E-14  0.12500000000E+03  0.12500000000E+03 0.  0.
        -13    1    3    3    0    0 -0.17823685802E+02  0.18218738234E+02  0.28017522026E+02  0.37876099362E+02  0.10566000000E+00 0.  1.
         23    2    1    0    0    0  0.71707519908E+01  0.16123257144E+02 -0.23757121768E+02  0.95406420633E+02  0.90700634829E+02 0.  0.
         13    1    3    3    0    0  0.24994437792E+02 -0.20954810898E+01 -0.51774643794E+02  0.57530321271E+02  0.10566000000E+00 0. -1.
         22    1    1    0    0    0 -0.71707519908E+01 -0.16123257144E+02  0.23757121768E+02  0.29593579367E+02  0.00000000000E+00 0. -1.
</event>
<event>
 5    1  0.1267616E-004  0.9118800E+02  0.7818608E-02  0.1130116E+00
         25   -1    0    0    0    0  0.00000000000E+00  0.00000000000E+00  0.99999998245E-14  0.12500000000E+03  0.12500000000E+03 0.  0.
        -13    1    3    3    0    0  0.13603205859E+02 -0.39877852141E+02  0.13265222616E+02  0.44173154699E+02  0.10566000000E+00 0.  1.
         23    2    1    0    0    0  0.11117709269E+02  0.11700890242E+02  0.23179107199E+02  0.96754906579E+02  0.92540405471E+02 0.  0.
         13    1    3    3    0    0 -0.24854965898E+01  0.51578742383E+02  0.99138845825E+01  0.52581751879E+02  0.10566000000E+00 0. -1.
         22    1    1    0    0    0 -0.11117709269E+02 -0.11700890242E+02 -0.23179107199E+02  0.28245093421E+02  0.00000000000E+00 0. -1.
</event>
<event>
 5    1  0.1267616E-004  0.9118800E+02  0.7818608E-02  0.1130116E+00
         25   -1    0    0    0    0  0.00000000000E+00  0.00000000000E+00  0.99999998245E-14  0.12500000000E+03  0.12500000000E+03 0.  0.
        -13    1    3    3    0    0  0.25626766669E+02  0.21658560866E+02  0.21538428377E+02  0.39871537338E+02  0.10566000000E+00 0. -1.
         23    2    1    0    0    0 -0.61478382364E+00 -0.26704002290E+02  0.12007115562E+02  0.95714294928E+02  0.91123947083E+02 0.  0.
         13    1    3    3    0    0 -0.26241550493E+02 -0.48362563156E+02 -0.95313128156E+01  0.55842757590E+02  0.10566000000E+00 0.  1.
         22    1    1    0    0    0  0.61478382364E+00  0.26704002290E+02 -0.12007115562E+02  0.29285705072E+02  0.00000000000E+00 0.  1.
</event>
<event>
 5    1  0.1267616E-004  0.9118800E+02  0.7818608E-02  0.1130116E+00
         25   -1    0    0    0    0  0.00000000000E+00  0.00000000000E+00  0.99999998245E-14  0.12500000000E+03  0.12500000000E+03 0.  0.
        -13    1    3    3    0    0  0.44940628025E+02  0.33817821683E+02 -0.26571799643E+02  0.62204315051E+02  0.10566000000E+00 0.  1.
         23    2    1    0    0    0  0.18590793191E+02  0.19351049362E+02 -0.12812056769E+02  0.95264003270E+02  0.90504148068E+02 0.  0.
         13    1    3    3    0    0 -0.26349834834E+02 -0.14466772321E+02  0.13759742874E+02  0.33059688219E+02  0.10566000000E+00 0. -1.
         22    1    1    0    0    0 -0.18590793191E+02 -0.19351049362E+02  0.12812056769E+02  0.29735996730E+02  0.00000000000E+00 0.  1.
</event>
<event>
 5    1  0.1267616E-004  0.9118800E+02  0.7818608E-02  0.1130116E+00
         25   -1    0    0    0    0  0.00000000000E+00  0.00000000000E+00  0.99999998245E-14  0.12500000000E+03  0.12500000000E+03 0.  0.
        -13    1    3    3    0    0  0.92342021668E+00  0.29118972372E+02  0.18988713070E+02  0.34775704809E+02  0.10566000000E+00 0.  1.
         23    2    1    0    0    0 -0.18609363093E+02 -0.14799597091E+02 -0.17794683183E+02  0.95301730381E+02  0.90556239957E+02 0.  0.
         13    1    3    3    0    0 -0.19532783310E+02 -0.43918569463E+02 -0.36783396253E+02  0.60526025571E+02  0.10566000000E+00 0. -1.
         22    1    1    0    0    0  0.18609363093E+02  0.14799597091E+02  0.17794683183E+02  0.29698269619E+02  0.00000000000E+00 0. -1.
</event>
<event>
 5    1  0.1267616E-004  0.9118800E+02  0.7818608E-02  0.1130116E+00
         25   -1    0    0    0    0  0.00000000000E+00  0.00000000000E+00  0.99999998245E-14  0.12500000000E+03  0.12500000000E+03 0.  0.
        -13    1    3    3    0    0 -0.59059648787E+01 -0.23309414650E+02  0.23632996185E+02  0.33715558800E+02  0.10566000000E+00 0.  1.
         23    2    1    0    0    0  0.18860189300E+02  0.17297661380E+02 -0.15301831846E+02  0.95182859167E+02  0.90392006238E+02 0.  0.
         13    1    3    3    0    0  0.24766154178E+02  0.40607076030E+02 -0.38934828031E+02  0.61467300366E+02  0.10566000000E+00 0. -1.
         22    1    1    0    0    0 -0.18860189300E+02 -0.17297661380E+02  0.15301831846E+02  0.29817140833E+02  0.00000000000E+00 0. -1.
</event>
<event>
 5    1  0.1267616E-004  0.9118800E+02  0.7818608E-02  0.1130116E+00
         25   -1    0    0    0    0  0.00000000000E+00  0.00000000000E+00  0.99999998245E-14  0.12500000000E+03  0.12500000000E+03 0.  0.
        -13    1    3    3    0    0  0.32276700970E+02  0.26640535575E+02  0.13953937678E+02  0.44116063990E+02  0.10566000000E+00 0. -1.
         23    2    1    0    0    0 -0.16418915889E+02  0.13442090729E+02  0.21103671660E+02  0.95072829073E+02  0.90239721122E+02 0.  0.
         13    1    3    3    0    0 -0.48695616859E+02 -0.13198444846E+02  0.71497339824E+01  0.50956765083E+02  0.10566000000E+00 0.  1.
         22    1    1    0    0    0  0.16418915889E+02 -0.13442090729E+02 -0.21103671660E+02  0.29927170927E+02  0.00000000000E+00 0. -1.
</event>
<event>
 5    1  0.1267616E-004  0.9118800E+02  0.7818608E-02  0.1130116E+00
         25   -1    0    0    0    0  0.00000000000E+00  0.00000000000E+00  0.99999998245E-14  0.12500000000E+03  0.12500000000E+03 0.  0.
        -13    1    3    3    0    0 -0.10365370280E+02 -0.42502697519E+02 -0.63792285536E+01  0.44211151517E+02  0.10566000000E+00 0.  1.
         23    2    1    0    0    0  0.19520749012E+02 -0.93415245069E+00 -0.19843096163E+02  0.97148954272E+02  0.93071147882E+02 0.  0.
         13    1    3    3    0    0  0.29886119293E+02  0.41568545069E+02 -0.13463867610E+02  0.52937802755E+02  0.10566000000E+00 0. -1.
         22    1    1    0    0    0 -0.19520749012E+02  0.93415245069E+00  0.19843096163E+02  0.27851045728E+02  0.00000000000E+00 0. -1.
</event>
<event>
 5    1  0.1267616E-004  0.9118800E+02  0.7818608E-02  0.1130116E+00
         25   -1    0    0    0    0  0.00000000000E+00  0.00000000000E+00  0.99999998245E-14  0.12500000000E+03  0.12500000000E+03 0.  0.
        -13    1    3    3    0    0 -0.26279823368E+02 -0.15244353061E+02 -0.23400505590E+02  0.38348588532E+02  0.10566000000E+00 0. -1.
         23    2    1    0    0    0  0.25579839131E+02  0.62810705247E+01 -0.13632542066E+02  0.95341506780E+02  0.90611128980E+02 0.  0.
         13    1    3    3    0    0  0.51859662499E+02  0.21525423586E+02  0.97679635243E+01  0.56992918248E+02  0.10566000000E+00 0.  1.
         22    1    1    0    0    0 -0.25579839131E+02 -0.62810705247E+01  0.13632542066E+02  0.29658493220E+02  0.00000000000E+00 0.  1.
</event>
<event>
 5    1  0.1267616E-004  0.9118800E+02  0.7818608E-02  0.1130116E+00
         25   -1    0    0    0    0  0.00000000000E+00  0.00000000000E+00  0.99999998245E-14  0.12500000000E+03  0.12500000000E+03 0.  0.
        -13    1    3    3    0    0 -0.27259862266E+02 -0.26878454723E+02  0.19039566331E+02  0.42755908003E+02  0.10566000000E+00 0.  1.
         23    2    1    0    0    0  0.15477588751E+01  0.16594586275E+02  0.24688329991E+02  0.95212595130E+02  0.90433117730E+02 0.  0.
         13    1    3    3    0    0  0.28807621141E+02  0.43473040998E+02  0.56487636601E+01  0.52456687127E+02  0.10566000000E+00 0. -1.
         22    1    1    0    0    0 -0.15477588751E+01 -0.16594586275E+02 -0.24688329991E+02  0.29787404870E+02  0.00000000000E+00 0.  1.
</event>
<event>
 5    1  0.1267616E-004  0.9118800E+02  0.7818608E-02  0.1130116E+00
         25   -1    0    0    0    0  0.00000000000E+00  0.00000000000E+00  0.99999998245E-14  0.12500000000E+03  0.12500000000E+03 0.  0.
        -13    1    3    3    0    0  0.12388831129E+02 -0.16265056394E+02 -0.53461540108E+02  0.57237947474E+02  0.10566000000E+00 0.  1.
         23    2    1    0    0    0  0.36741489782E+01 -0.23643065766E+02 -0.16468208285E+02  0.95953557642E+02  0.91451568661E+02 0.  0.
         13    1    3    3    0    0 -0.87146821510E+01 -0.73780093719E+01  0.36993331823E+02  0.38715610168E+02  0.10566000000E+00 0. -1.
         22    1    1    0    0    0 -0.36741489782E+01  0.23643065766E+02  0.16468208285E+02  0.29046442358E+02  0.00000000000E+00 0.  1.
</event>
<event>
 5    1  0.1267616E-004  0.9118800E+02  0.7818608E-02  0.1130116E+00
         25   -1    0    0    0    0  0.00000000000E+00  0.00000000000E+00  0.99999998245E-14  0.12500000000E+03  0.12500000000E+03 0.  0.
        -13    1    3    3    0    0 -0.28725055295E+02 -0.29959075740E+02  0.46014526556E+02  0.61967917821E+02  0.10566000000E+00 0.  1.
         23    2    1    0    0    0 -0.86437180219E+01 -0.14346017358E+02  0.24712908948E+02  0.95146190462E+02  0.90341284114E+02 0.  0.
         13    1    3    3    0    0  0.20081337273E+02  0.15613058381E+02 -0.21301617608E+02  0.33178272641E+02  0.10566000000E+00 0. -1.
         22    1    1    0    0    0  0.86437180219E+01  0.14346017358E+02 -0.24712908948E+02  0.29853809538E+02  0.00000000000E+00 0.  1.
</event>
<event>
 5    1  0.1267616E-004  0.9118800E+02  0.7818608E-02  0.1130116E+00
         25   -1    0    0    0    0  0.00000000000E+00  0.00000000000E+00  0.99999998245E-14  0.12500000000E+03  0.12500000000E+03 0.  0.
        -13    1    3    3    0    0 -0.19184698660E+02  0.86279755750E+01  0.34293151990E+02  0.40230909294E+02  0.10566000000E+00 0.  1.
         23    2    1    0    0    0  0.12977567734E+01  0.24627626971E+02 -0.15126725165E+02  0.96068667554E+02  0.91608770806E+02 0.  0.
         13    1    3    3    0    0  0.20482455433E+02  0.15999651396E+02 -0.49419877156E+02  0.55837758260E+02  0.10566000000E+00 0. -1.
         22    1    1    0    0    0 -0.12977567734E+01 -0.24627626971E+02  0.15126725165E+02  0.28931332446E+02  0.00000000000E+00 0. -1.
</event>
<event>
 4    1  0.1267616E-004  0.9118800E+02  0.7818608E-02  0.1130116E+00
         25   -1    0    0    0    0  0.00000000000E+00  0.00000000000E+00  0.99999998245E-14  0.12500000000E+03  0.12500000000E+03 0.  0.
        -13    1    1    0    0    0 -0.17722904002E+02  0.22228387374E+02  0.18084652788E+02  0.33693743663E+02  0.10566000000E+00 0.  1.
         13    1    1    0    0    0  0.90470498898E+01 -0.98070255716E+01  0.34284458115E+02  0.36789429114E+02  0.10566000000E+00 0. -1.
         22    1    1    0    0    0  0.86758541124E+01 -0.12421361802E+02 -0.52369110904E+02  0.54516827223E+02  0.00000000000E+00 0.  1.
</event>
<event>
 5    1  0.1267616E-004  0.9118800E+02  0.7818608E-02  0.1130116E+00
         25   -1    0    0    0    0  0.00000000000E+00  0.00000000000E+00  0.99999998245E-14  0.12500000000E+03  0.12500000000E+03 0.  0.
        -13    1    3    3    0    0  0.15210864941E+02  0.33975896608E+01  0.42178642140E+02  0.44966243390E+02  0.10566000000E+00 0.  1.
         23    2    1    0    0    0  0.49029467151E+01 -0.30995843725E+02  0.13863181501E+02  0.90693017970E+02  0.83953883129E+02 0.  0.
         13    1    3    3    0    0 -0.10307918226E+02 -0.34393433386E+02 -0.28315460640E+02  0.45726774580E+02  0.10566000000E+00 0. -1.
         22    1    1    0    0    0 -0.49029467151E+01  0.30995843725E+02 -0.13863181501E+02  0.34306982030E+02  0.00000000000E+00 0. -1.
</event>
<event>
 5    1  0.1267616E-004  0.9118800E+02  0.7818608E-02  0.1130116E+00
         25   -1    0    0    0    0  0.00000000000E+00  0.00000000000E+00  0.99999998245E-14  0.12500000000E+03  0.12500000000E+03 0.  0.
        -13    1    3    3    0    0  0.62945263289E+01 -0.53274712324E+02  0.29059624438E+02  0.61010564424E+02  0.10566000000E+00 0.  1.
         23    2    1    0    0    0 -0.67357602425E+01 -0.24578481021E+02  0.13571247874E+02  0.96126985536E+02  0.91688311055E+02 0.  0.
         13    1    3    3    0    0 -0.13030286571E+02  0.28696231302E+02 -0.15488376564E+02  0.35116421112E+02  0.10566000000E+00 0. -1.
         22    1    1    0    0    0  0.67357602425E+01  0.24578481021E+02 -0.13571247874E+02  0.28873014464E+02  0.00000000000E+00 0.  1.
</event>
<event>
 5    1  0.1267616E-004  0.9118800E+02  0.7818608E-02  0.1130116E+00
         25   -1    0    0    0    0  0.00000000000E+00  0.00000000000E+00  0.99999998245E-14  0.12500000000E+03  0.12500000000E+03 0.  0.
        -13    1    3    3    0    0  0.31465490761E+02 -0.19976130416E+01  0.23982436752E+02  0.39613583571E+02  0.10566000000E+00 0.  1.
         23    2    1    0    0    0 -0.23899497741E+02 -0.56977129240E+01  0.16016874284E+02  0.95671000926E+02  0.91064538825E+02 0.  0.
         13    1    3    3    0    0 -0.55364988503E+02 -0.37000998825E+01 -0.79655624680E+01  0.56057417355E+02  0.10566000000E+00 0. -1.
         22    1    1    0    0    0  0.23899497741E+02  0.56977129240E+01 -0.16016874284E+02  0.29328999074E+02  0.00000000000E+00 0.  1.
</event>
<event>
 5    1  0.1267616E-004  0.9118800E+02  0.7818608E-02  0.1130116E+00
         25   -1    0    0    0    0  0.00000000000E+00  0.00000000000E+00  0.99999998245E-14  0.12500000000E+03  0.12500000000E+03 0.  0.
        -13    1    3    3    0    0 -0.20655287525E+02  0.32471154386E+02  0.55959352741E+01  0.38888847059E+02  0.10566000000E+00 0. -1.
         23    2    1    0    0    0  0.75720470897E+01 -0.52028776964E+01 -0.27218520105E+02  0.96272771276E+02  0.91886847912E+02 0.  0.
         13    1    3    3    0    0  0.28227334615E+02 -0.37674032083E+02 -0.32814455379E+02  0.57383924218E+02  0.10566000000E+00 0.  1.
         22    1    1    0    0    0 -0.75720470897E+01  0.52028776964E+01  0.27218520105E+02  0.28727228724E+02  0.00000000000E+00 0.  1.
</event>
<event>
 5    1  0.1267616E-004  0.9118800E+02  0.7818608E-02  0.1130116E+00
         25   -1    0    0    0    0  0.00000000000E+00  0.00000000000E+00  0.99999998245E-14  0.12500000000E+03  0.12500000000E+03 0.  0.
        -13    1    3    3    0    0 -0.14914411876E+02  0.25145206742E+02 -0.14435505784E+02  0.32605461122E+02  0.10566000000E+00 0. -1.
         23    2    1    0    0    0  0.30729098801E+02 -0.29291508699E+01  0.11398700884E+02  0.92094258559E+02  0.86014909403E+02 0.  0.
         13    1    3    3    0    0  0.45643510677E+02 -0.28074357612E+02  0.25834206668E+02  0.59488797437E+02  0.10566000000E+00 0.  1.
         22    1    1    0    0    0 -0.30729098801E+02  0.29291508699E+01 -0.11398700884E+02  0.32905741441E+02  0.00000000000E+00 0.  1.
</event>
<event>
 5    1  0.1267616E-004  0.9118800E+02  0.7818608E-02  0.1130116E+00
         25   -1    0    0    0    0  0.00000000000E+00  0.00000000000E+00  0.99999998245E-14  0.12500000000E+03  0.12500000000E+03 0.  0.
        -13    1    3    3    0    0 -0.18472727013E+02  0.12571163796E+02 -0.53127262703E+02  0.57634998124E+02  0.10566000000E+00 0. -1.
         23    2    1    0    0    0  0.69765592627E+01 -0.11152580173E+01 -0.28609244910E+02  0.95531286524E+02  0.90872557084E+02 0.  0.
         13    1    3    3    0    0  0.25449286275E+02 -0.13686421814E+02  0.24518017792E+02  0.37896288400E+02  0.10566000000E+00 0.  1.
         22    1    1    0    0    0 -0.69765592627E+01  0.11152580173E+01  0.28609244910E+02  0.29468713476E+02  0.00000000000E+00 0.  1.
</event>
<event>
 5    1  0.1267616E-004  0.9118800E+02  0.7818608E-02  0.1130116E+00
         25   -1    0    0    0    0  0.00000000000E+00  0.00000000000E+00  0.99999998245E-14  0.12500000000E+03  0.12500000000E+03 0.  0.
        -13    1    3    3    0    0 -0.51118878778E+02 -0.11181538337E+02  0.21699485175E+02  0.56648436766E+02  0.10566000000E+00 0.  1.
         23    2    1    0    0    0 -0.23592829575E+02 -0.18432165553E+02 -0.37439765089E+01  0.94827434739E+02  0.89899158421E+02 0.  0.
         13    1    3    3    0    0  0.27526049203E+02 -0.72506272160E+01 -0.25443461684E+02  0.38178997973E+02  0.10566000000E+00 0. -1.
         22    1    1    0    0    0  0.23592829575E+02  0.18432165553E+02  0.37439765089E+01  0.30172565261E+02  0.00000000000E+00 0.  1.
</event>
<event>
 5    1  0.1267616E-004  0.9118800E+02  0.7818608E-02  0.1130116E+00
         25   -1    0    0    0    0  0.00000000000E+00  0.00000000000E+00  0.99999998245E-14  0.12500000000E+03  0.12500000000E+03 0.  0.
        -13    1    3    3    0    0 -0.36194721200E+02 -0.56403621351E+01  0.11647903118E+02  0.38438995029E+02  0.10566000000E+00 0.  1.
         23    2    1    0    0    0  0.21670065341E+02 -0.11444628614E+02  0.14248402840E+02  0.96652368009E+02  0.92401796531E+02 0.  0.
         13    1    3    3    0    0  0.57864786541E+02 -0.58042664791E+01  0.26004997217E+01  0.58213372980E+02  0.10566000000E+00 0. -1.
         22    1    1    0    0    0 -0.21670065341E+02  0.11444628614E+02 -0.14248402840E+02  0.28347631991E+02  0.00000000000E+00 0. -1.
</event>
<event>
 5    1  0.1267616E-004  0.9118800E+02  0.7818608E-02  0.1130116E+00
         25   -1    0    0    0    0  0.00000000000E+00  0.00000000000E+00  0.99999998245E-14  0.12500000000E+03  0.12500000000E+03 0.  0.
        -13    1    3    3    0    0 -0.14859571081E+01 -0.53419440887E+01 -0.34284757926E+02  0.34730393393E+02  0.10566000000E+00 0.  1.
         23    2    1    0    0    0 -0.38897269513E+01  0.10627680824E+02  0.25735831549E+02  0.96885758040E+02  0.92716986092E+02 0.  0.
         13    1    3    3    0    0 -0.24037698432E+01  0.15969624913E+02  0.60020589475E+02  0.62155364646E+02  0.10566000000E+00 0. -1.
         22    1    1    0    0    0  0.38897269513E+01 -0.10627680824E+02 -0.25735831549E+02  0.28114241960E+02  0.00000000000E+00 0. -1.
</event>
<event>
 5    1  0.1267616E-004  0.9118800E+02  0.7818608E-02  0.1130116E+00
         25   -1    0    0    0    0  0.00000000000E+00  0.00000000000E+00  0.99999998245E-14  0.12500000000E+03  0.12500000000E+03 0.  0.
        -13    1    3    3    0    0  0.49352553659E+02 -0.11743256609E+02 -0.14164536169E+02  0.52670901619E+02  0.10566000000E+00 0. -1.
         23    2    1    0    0    0  0.14692443451E+02  0.10323133630E+02 -0.24102368043E+02  0.94944066680E+02  0.90061182925E+02 0.  0.
         13    1    3    3    0    0 -0.34660110208E+02  0.22066390239E+02 -0.99378318737E+01  0.42273165060E+02  0.10566000000E+00 0.  1.
         22    1    1    0    0    0 -0.14692443451E+02 -0.10323133630E+02  0.24102368043E+02  0.30055933320E+02  0.00000000000E+00 0. -1.
</event>
<event>
 5    1  0.1267616E-004  0.9118800E+02  0.7818608E-02  0.1130116E+00
         25   -1    0    0    0    0  0.00000000000E+00  0.00000000000E+00  0.99999998245E-14  0.12500000000E+03  0.12500000000E+03 0.  0.
        -13    1    3    3    0    0 -0.42338592053E+02  0.12498328029E+02 -0.39800220574E+02  0.59437642133E+02  0.10566000000E+00 0.  1.
         23    2    1    0    0    0 -0.25463725981E+02 -0.60979789688E+01 -0.14566960862E+02  0.95036972164E+02  0.90190038480E+02 0.  0.
         13    1    3    3    0    0  0.16874866071E+02 -0.18596306998E+02  0.25233259713E+02  0.35599330031E+02  0.10566000000E+00 0. -1.
         22    1    1    0    0    0  0.25463725981E+02  0.60979789688E+01  0.14566960862E+02  0.29963027836E+02  0.00000000000E+00 0.  1.
</event>
<event>
 5    1  0.1267616E-004  0.9118800E+02  0.7818608E-02  0.1130116E+00
         25   -1    0    0    0    0  0.00000000000E+00  0.00000000000E+00  0.99999998245E-14  0.12500000000E+03  0.12500000000E+03 0.  0.
        -13    1    3    3    0    0 -0.24498837068E+02  0.17753742802E+02  0.16992312112E+02  0.34700695038E+02  0.10566000000E+00 0.  1.
         23    2    1    0    0    0  0.29272317822E+02  0.45104940103E+01 -0.62018533496E+01  0.94739859024E+02  0.89777306465E+02 0.  0.
         13    1    3    3    0    0  0.53771154890E+02 -0.13243248792E+02 -0.23194165462E+02  0.60039163987E+02  0.10566000000E+00 0. -1.
         22    1    1    0    0    0 -0.29272317822E+02 -0.45104940103E+01  0.62018533496E+01  0.30260140976E+02  0.00000000000E+00 0. -1.
</event>
<event>
 5    1  0.1267616E-004  0.9118800E+02  0.7818608E-02  0.1130116E+00
         25   -1    0    0    0    0  0.00000000000E+00  0.00000000000E+00  0.99999998245E-14  0.12500000000E+03  0.12500000000E+03 0.  0.
        -13    1    3    3    0    0 -0.30146159621E+02  0.41070088438E+02  0.18190861854E+02  0.54096781081E+02  0.10566000000E+00 0.  1.
         23    2    1    0    0    0  0.84758727020E+01  0.24505582109E+02  0.11434001018E+02  0.96660974755E+02  0.92413438897E+02 0.  0.
         13    1    3    3    0    0  0.38622032323E+02 -0.16564506329E+02 -0.67568608361E+01  0.42564193674E+02  0.10566000000E+00 0. -1.
         22    1    1    0    0    0 -0.84758727020E+01 -0.24505582109E+02 -0.11434001018E+02  0.28339025245E+02  0.00000000000E+00 0.  1.
</event>
<event>
 5    1  0.1267616E-004  0.9118800E+02  0.7818608E-02  0.1130116E+00
         25   -1    0    0    0    0  0.00000000000E+00  0.00000000000E+00  0.99999998245E-14  0.12500000000E+03  0.12500000000E+03 0.  0.
        -13    1    3    3    0    0  0.52212816590E+02  0.19500858234E+01  0.57894720745E+01  0.52569099307E+02  0.10566000000E+00 0. -1.
         23    2    1    0    0    0  0.14670992799E+02 -0.18756188927E+02  0.15576295826E+02  0.96545586556E+02  0.92257230822E+02 0.  0.
         13    1    3    3    0    0 -0.37541823791E+02 -0.20706274751E+02  0.97868237513E+01  0.43976487249E+02  0.10566000000E+00 0.  1.
         22    1    1    0    0    0 -0.14670992799E+02  0.18756188927E+02 -0.15576295826E+02  0.28454413444E+02  0.00000000000E+00 0. -1.
</event>
<event>
 5    1  0.1267616E-004  0.9118800E+02  0.7818608E-02  0.1130116E+00
         25   -1    0    0    0    0  0.00000000000E+00  0.00000000000E+00  0.99999998245E-14  0.12500000000E+03  0.12500000000E+03 0.  0.
        -13    1    3    3    0    0  0.10393545803E+02  0.13384616084E+02  0.42654077652E+02  0.45897224823E+02  0.10566000000E+00 0.  1.
         23    2    1    0    0    0 -0.11592446580E+02  0.19672287769E+02 -0.74569478231E+01  0.10097938813E+03  0.98080818881E+02 0.  0.
         13    1    3    3    0    0 -0.21985992384E+02  0.62876716858E+01 -0.50111025475E+02  0.55082163306E+02  0.10566000000E+00 0. -1.
         22    1    1    0    0    0  0.11592446580E+02 -0.19672287769E+02  0.74569478231E+01  0.24020611871E+02  0.00000000000E+00 0. -1.
</event>
<event>
 5    1  0.1267616E-004  0.9118800E+02  0.7818608E-02  0.1130116E+00
         25   -1    0    0    0    0  0.00000000000E+00  0.00000000000E+00  0.99999998245E-14  0.12500000000E+03  0.12500000000E+03 0.  0.
        -13    1    3    3    0    0 -0.24154146008E+02 -0.11236939275E+02  0.44628542623E+02  0.51975085900E+02  0.10566000000E+00 0.  1.
         23    2    1    0    0    0 -0.27444723745E+02 -0.10136755929E+02  0.10161006928E+01  0.95725452304E+02  0.91139251017E+02 0.  0.
         13    1    3    3    0    0 -0.32905777372E+01  0.11001833460E+01 -0.43612441930E+02  0.43750366403E+02  0.10566000000E+00 0. -1.
         22    1    1    0    0    0  0.27444723745E+02  0.10136755929E+02 -0.10161006928E+01  0.29274547696E+02  0.00000000000E+00 0. -1.
</event>
<event>
 5    1  0.1267616E-004  0.9118800E+02  0.7818608E-02  0.1130116E+00
         25   -1    0    0    0    0  0.00000000000E+00  0.00000000000E+00  0.99999998245E-14  0.12500000000E+03  0.12500000000E+03 0.  0.
        -13    1    3    3    0    0 -0.26244959653E+02  0.25129949052E+02 -0.21970276789E+02  0.42461941462E+02  0.10566000000E+00 0.  1.
         23    2    1    0    0    0 -0.18741182290E+02 -0.72683296846E+01  0.20423822708E+02  0.96343533643E+02  0.91983060456E+02 0.  0.
         13    1    3    3    0    0  0.75037773622E+01 -0.32398278736E+02  0.42394099497E+02  0.53881592181E+02  0.10566000000E+00 0. -1.
         22    1    1    0    0    0  0.18741182290E+02  0.72683296846E+01 -0.20423822708E+02  0.28656466357E+02  0.00000000000E+00 0.  1.
</event>
<event>
 5    1  0.1267616E-004  0.9118800E+02  0.7818608E-02  0.1130116E+00
         25   -1    0    0    0    0  0.00000000000E+00  0.00000000000E+00  0.99999998245E-14  0.12500000000E+03  0.12500000000E+03 0.  0.
        -13    1    3    3    0    0 -0.21736526158E+02 -0.41472431873E+01  0.27199548441E+02  0.35064266638E+02  0.10566000000E+00 0. -1.
         23    2    1    0    0    0  0.27825610860E+02  0.12399609438E+02 -0.11577371702E+01  0.94514670917E+02  0.89463219980E+02 0.  0.
         13    1    3    3    0    0  0.49562137018E+02  0.16546852625E+02 -0.28357285611E+02  0.59450404278E+02  0.10566000000E+00 0.  1.
         22    1    1    0    0    0 -0.27825610860E+02 -0.12399609438E+02  0.11577371702E+01  0.30485329083E+02  0.00000000000E+00 0.  1.
</event>
<event>
 5    1  0.1267616E-004  0.9118800E+02  0.7818608E-02  0.1130116E+00
         25   -1    0    0    0    0  0.00000000000E+00  0.00000000000E+00  0.99999998245E-14  0.12500000000E+03  0.12500000000E+03 0.  0.
        -13    1    3    3    0    0  0.30295826706E+02  0.41016302734E+02  0.29395658631E+02  0.58858220464E+02  0.10566000000E+00 0.  1.
         23    2    1    0    0    0  0.17579849974E+02  0.23823468035E+02 -0.22501849689E+00  0.95391565599E+02  0.90680159901E+02 0.  0.
         13    1    3    3    0    0 -0.12715976732E+02 -0.17192834699E+02 -0.29620677128E+02  0.36533345135E+02  0.10566000000E+00 0. -1.
         22    1    1    0    0    0 -0.17579849974E+02 -0.23823468035E+02  0.22501849689E+00  0.29608434401E+02  0.00000000000E+00 0.  1.
</event>
<event>
 5    1  0.1267616E-004  0.9118800E+02  0.7818608E-02  0.1130116E+00
         25   -1    0    0    0    0  0.00000000000E+00  0.00000000000E+00  0.99999998245E-14  0.12500000000E+03  0.12500000000E+03 0.  0.
        -13    1    3    3    0    0 -0.17605575338E+02  0.43721392771E+02 -0.38855235358E+02  0.61084015483E+02  0.10566000000E+00 0.  1.
         23    2    1    0    0    0 -0.17021906499E+02  0.18149904983E+02 -0.15762022766E+02  0.95544852514E+02  0.90891215904E+02 0.  0.
         13    1    3    3    0    0  0.58366883828E+00 -0.25571487788E+02  0.23093212592E+02  0.34460837031E+02  0.10566000000E+00 0. -1.
         22    1    1    0    0    0  0.17021906499E+02 -0.18149904983E+02  0.15762022766E+02  0.29455147486E+02  0.00000000000E+00 0.  1.
</event>
<event>
 5    1  0.1267616E-004  0.9118800E+02  0.7818608E-02  0.1130116E+00
         25   -1    0    0    0    0  0.00000000000E+00  0.00000000000E+00  0.99999998245E-14  0.12500000000E+03  0.12500000000E+03 0.  0.
        -13    1    3    3    0    0 -0.23652115080E+02  0.37925530138E+02  0.17607315398E+02  0.48039536879E+02  0.10566000000E+00 0.  1.
         23    2    1    0    0    0  0.20065325196E+02  0.13907593939E+02  0.10499387957E+02  0.98424153977E+02  0.94768341202E+02 0.  0.
         13    1    3    3    0    0  0.43717440276E+02 -0.24017936199E+02 -0.71079274410E+01  0.50384617098E+02  0.10566000000E+00 0. -1.
         22    1    1    0    0    0 -0.20065325196E+02 -0.13907593939E+02 -0.10499387957E+02  0.26575846023E+02  0.00000000000E+00 0. -1.
</event>
<event>
 5    1  0.1267616E-004  0.9118800E+02  0.7818608E-02  0.1130116E+00
         25   -1    0    0    0    0  0.00000000000E+00  0.00000000000E+00  0.99999998245E-14  0.12500000000E+03  0.12500000000E+03 0.  0.
        -13    1    3    3    0    0  0.17153260409E+02 -0.57201552903E+02 -0.78005308478E+01  0.60225504919E+02  0.10566000000E+00 0.  1.
         23    2    1    0    0    0  0.11023292131E+02 -0.22738886090E+02 -0.14501274245E+02  0.95864851730E+02  0.91330241062E+02 0.  0.
         13    1    3    3    0    0 -0.61299682778E+01  0.34462666814E+02 -0.67007433968E+01  0.35639346811E+02  0.10566000000E+00 0. -1.
         22    1    1    0    0    0 -0.11023292131E+02  0.22738886090E+02  0.14501274245E+02  0.29135148270E+02  0.00000000000E+00 0.  1.
</event>
<event>
 5    1  0.1267616E-004  0.9118800E+02  0.7818608E-02  0.1130116E+00
         25   -1    0    0    0    0  0.00000000000E+00  0.00000000000E+00  0.99999998245E-14  0.12500000000E+03  0.12500000000E+03 0.  0.
        -13    1    3    3    0    0 -0.26439870186E+02 -0.23050517608E+02 -0.27825300442E+02  0.44773335884E+02  0.10566000000E+00 0. -1.
         23    2    1    0    0    0  0.19425631715E+01  0.16441747073E+02 -0.26897345467E+02  0.93415640079E+02  0.87914219667E+02 0.  0.
         13    1    3    3    0    0  0.28382433357E+02  0.39492264681E+02  0.92795497576E+00  0.48642304195E+02  0.10566000000E+00 0.  1.
         22    1    1    0    0    0 -0.19425631715E+01 -0.16441747073E+02  0.26897345467E+02  0.31584359921E+02  0.00000000000E+00 0. -1.
</event>
<event>
 5    1  0.1267616E-004  0.9118800E+02  0.7818608E-02  0.1130116E+00
         25   -1    0    0    0    0  0.00000000000E+00  0.00000000000E+00  0.99999998245E-14  0.12500000000E+03  0.12500000000E+03 0.  0.
        -13    1    3    3    0    0  0.25507220115E+02  0.28143459203E+02  0.44852647098E+02  0.58774515648E+02  0.10566000000E+00 0. -1.
         23    2    1    0    0    0  0.13911676887E+02  0.43179379521E+00  0.29210307905E+02  0.92643187926E+02  0.86808968324E+02 0.  0.
         13    1    3    3    0    0 -0.11595543227E+02 -0.27711665407E+02 -0.15642339193E+02  0.33868672278E+02  0.10566000000E+00 0.  1.
         22    1    1    0    0    0 -0.13911676887E+02 -0.43179379521E+00 -0.29210307905E+02  0.32356812074E+02  0.00000000000E+00 0. -1.
</event>
<event>
 5    1  0.1267616E-004  0.9118800E+02  0.7818608E-02  0.1130116E+00
         25   -1    0    0    0    0  0.00000000000E+00  0.00000000000E+00  0.99999998245E-14  0.12500000000E+03  0.12500000000E+03 0.  0.
        -13    1    3    3    0    0  0.35532655736E+02  0.23921764613E+02 -0.39936928358E+02  0.58564407762E+02  0.10566000000E+00 0.  1.
         23    2    1    0    0    0  0.15583580344E+02  0.23155492725E+02 -0.84663625738E+01  0.95833167554E+02  0.91286865915E+02 0.  0.
         13    1    3    3    0    0 -0.19949075392E+02 -0.76627188781E+00  0.31470565784E+02  0.37268759792E+02  0.10566000000E+00 0. -1.
         22    1    1    0    0    0 -0.15583580344E+02 -0.23155492725E+02  0.84663625738E+01  0.29166832446E+02  0.00000000000E+00 0.  1.
</event>
<event>
 5    1  0.1267616E-004  0.9118800E+02  0.7818608E-02  0.1130116E+00
         25   -1    0    0    0    0  0.00000000000E+00  0.00000000000E+00  0.99999998245E-14  0.12500000000E+03  0.12500000000E+03 0.  0.
        -13    1    3    3    0    0  0.38998856726E+02  0.81340269281E+01 -0.18628136467E+02  0.43978311157E+02  0.10566000000E+00 0. -1.
         23    2    1    0    0    0 -0.10637556447E+02  0.24381496977E+02 -0.53803091781E+01  0.97860310819E+02  0.94021687417E+02 0.  0.
         13    1    3    3    0    0 -0.49636413173E+02  0.16247470049E+02  0.13247827288E+02  0.53881999662E+02  0.10566000000E+00 0.  1.
         22    1    1    0    0    0  0.10637556447E+02 -0.24381496977E+02  0.53803091781E+01  0.27139689181E+02  0.00000000000E+00 0.  1.
</event>
<event>
 5    1  0.1267616E-004  0.9118800E+02  0.7818608E-02  0.1130116E+00
         25   -1    0    0    0    0  0.00000000000E+00  0.00000000000E+00  0.99999998245E-14  0.12500000000E+03  0.12500000000E+03 0.  0.
        -13    1    3    3    0    0 -0.16670645504E+02  0.44231305210E+02 -0.20288263789E+02  0.51438736315E+02  0.10566000000E+00 0. -1.
         23    2    1    0    0    0  0.15990996653E+02  0.29279516962E+02 -0.24420384355E+01  0.91549056229E+02  0.85218918424E+02 0.  0.
         13    1    3    3    0    0  0.32661642156E+02 -0.14951788249E+02  0.17846225353E+02  0.40110319914E+02  0.10566000000E+00 0.  1.
         22    1    1    0    0    0 -0.15990996653E+02 -0.29279516962E+02  0.24420384355E+01  0.33450943771E+02  0.00000000000E+00 0. -1.
</event>
<event>
 5    1  0.1267616E-004  0.9118800E+02  0.7818608E-02  0.1130116E+00
         25   -1    0    0    0    0  0.00000000000E+00  0.00000000000E+00  0.99999998245E-14  0.12500000000E+03  0.12500000000E+03 0.  0.
        -13    1    3    3    0    0 -0.33402693104E+02  0.17772666183E+02  0.13171087741E+02  0.40063652931E+02  0.10566000000E+00 0.  1.
         23    2    1    0    0    0  0.10503124869E+01 -0.23620477126E+02  0.19582946527E+02  0.94299480612E+02  0.89162044352E+02 0.  0.
         13    1    3    3    0    0  0.34453005591E+02 -0.41393143308E+02  0.64118587862E+01  0.54235827682E+02  0.10566000000E+00 0. -1.
         22    1    1    0    0    0 -0.10503124869E+01  0.23620477126E+02 -0.19582946527E+02  0.30700519388E+02  0.00000000000E+00 0.  1.
</event>
<event>
 5    1  0.1267616E-004  0.9118800E+02  0.7818608E-02  0.1130116E+00
         25   -1    0    0    0    0  0.00000000000E+00  0.00000000000E+00  0.99999998245E-14  0.12500000000E+03  0.12500000000E+03 0.  0.
        -13    1    3    3    0    0  0.43926291106E+02 -0.28754247225E+00 -0.72539496657E+01  0.44522271739E+02  0.10566000000E+00 0.  1.
         23    2    1    0    0    0 -0.34446099984E+01  0.51881457629E+01  0.23116972589E+02  0.10105889275E+03  0.98182091995E+02 0.  0.
         13    1    3    3    0    0 -0.47370901105E+02  0.54756882351E+01  0.30370922255E+02  0.56536621015E+02  0.10566000000E+00 0. -1.
         22    1    1    0    0    0  0.34446099984E+01 -0.51881457629E+01 -0.23116972589E+02  0.23941107246E+02  0.00000000000E+00 0. -1.
</event>
<event>
 5    1  0.1267616E-004  0.9118800E+02  0.7818608E-02  0.1130116E+00
         25   -1    0    0    0    0  0.00000000000E+00  0.00000000000E+00  0.99999998245E-14  0.12500000000E+03  0.12500000000E+03 0.  0.
        -13    1    3    3    0    0  0.25355009929E+01 -0.43919444057E+01 -0.31940093582E+02  0.32340356878E+02  0.10566000000E+00 0.  1.
         23    2    1    0    0    0 -0.59294975638E+01  0.15917222687E+01  0.29611438763E+02  0.94758805798E+02  0.89803682828E+02 0.  0.
         13    1    3    3    0    0 -0.84649985567E+01  0.59836666744E+01  0.61551532345E+02  0.62418448920E+02  0.10566000000E+00 0. -1.
         22    1    1    0    0    0  0.59294975638E+01 -0.15917222687E+01 -0.29611438763E+02  0.30241194202E+02  0.00000000000E+00 0. -1.
</event>
<event>
 5    1  0.1267616E-004  0.9118800E+02  0.7818608E-02  0.1130116E+00
         25   -1    0    0    0    0  0.00000000000E+00  0.00000000000E+00  0.99999998245E-14  0.12500000000E+03  0.12500000000E+03 0.  0.
        -13    1    3    3    0    0 -0.24888820706E+02  0.30062318452E+02  0.19839132751E+02  0.43781260137E+02  0.10566000000E+00 0. -1.
         23    2    1    0    0    0 -0.20640685338E+02 -0.45258570488E+01 -0.19437363758E+02  0.96288810838E+02  0.91908665040E+02 0.  0.
         13    1    3    3    0    0  0.42481353673E+01 -0.34588175501E+02 -0.39276496508E+02  0.52507550701E+02  0.10566000000E+00 0.  1.
         22    1    1    0    0    0  0.20640685338E+02  0.45258570488E+01  0.19437363758E+02  0.28711189162E+02  0.00000000000E+00 0. -1.
</event>
<event>
 5    1  0.1267616E-004  0.9118800E+02  0.7818608E-02  0.1130116E+00
         25   -1    0    0    0    0  0.00000000000E+00  0.00000000000E+00  0.99999998245E-14  0.12500000000E+03  0.12500000000E+03 0.  0.
        -13    1    3    3    0    0 -0.17270286331E+02  0.42581092615E+01 -0.54017548700E+02  0.56870915379E+02  0.10566000000E+00 0. -1.
         23    2    1    0    0    0  0.80318753140E+01  0.12060078514E+02 -0.24601180991E+02  0.96448736963E+02  0.92125915142E+02 0.  0.
         13    1    3    3    0    0  0.25302161645E+02  0.78019692529E+01  0.29416367709E+02  0.39577821584E+02  0.10566000000E+00 0.  1.
         22    1    1    0    0    0 -0.80318753140E+01 -0.12060078514E+02  0.24601180991E+02  0.28551263037E+02  0.00000000000E+00 0. -1.
</event>
<event>
 5    1  0.1267616E-004  0.9118800E+02  0.7818608E-02  0.1130116E+00
         25   -1    0    0    0    0  0.00000000000E+00  0.00000000000E+00  0.99999998245E-14  0.12500000000E+03  0.12500000000E+03 0.  0.
        -13    1    3    3    0    0  0.27861043849E+02 -0.30490949980E+02 -0.21252301365E+02  0.46450051371E+02  0.10566000000E+00 0.  1.
         23    2    1    0    0    0 -0.13247409399E+02 -0.22672461531E+02  0.80498019403E+01  0.97534864302E+02  0.93588012456E+02 0.  0.
         13    1    3    3    0    0 -0.41108453248E+02  0.78184884489E+01  0.29302103305E+02  0.51084812931E+02  0.10566000000E+00 0. -1.
         22    1    1    0    0    0  0.13247409399E+02  0.22672461531E+02 -0.80498019403E+01  0.27465135698E+02  0.00000000000E+00 0. -1.
</event>
<event>
 5    1  0.1267616E-004  0.9118800E+02  0.7818608E-02  0.1130116E+00
         25   -1    0    0    0    0  0.00000000000E+00  0.00000000000E+00  0.99999998245E-14  0.12500000000E+03  0.12500000000E+03 0.  0.
        -13    1    3    3    0    0 -0.43039894428E+02 -0.41085201594E+02 -0.11251822070E+02  0.60556097681E+02  0.10566000000E+00 0.  1.
         23    2    1    0    0    0 -0.27575916985E+02 -0.11225985521E+02 -0.39520357476E+01  0.94965477613E+02  0.90090895229E+02 0.  0.
         13    1    3    3    0    0  0.15463977443E+02  0.29859216073E+02  0.72997863226E+01  0.34409379931E+02  0.10566000000E+00 0. -1.
         22    1    1    0    0    0  0.27575916985E+02  0.11225985521E+02  0.39520357476E+01  0.30034522387E+02  0.00000000000E+00 0.  1.
</event>
<event>
 5    1  0.1267616E-004  0.9118800E+02  0.7818608E-02  0.1130116E+00
         25   -1    0    0    0    0  0.00000000000E+00  0.00000000000E+00  0.99999998245E-14  0.12500000000E+03  0.12500000000E+03 0.  0.
        -13    1    3    3    0    0 -0.98239802855E+01 -0.23087142634E+02  0.23191292667E+02  0.34166854746E+02  0.10566000000E+00 0.  1.
         23    2    1    0    0    0  0.39230891008E+01  0.30124826707E+02 -0.18553120226E+01  0.94564198797E+02  0.89532394691E+02 0.  0.
         13    1    3    3    0    0  0.13747069386E+02  0.53211969341E+02 -0.25046604690E+02  0.60397344050E+02  0.10566000000E+00 0. -1.
         22    1    1    0    0    0 -0.39230891008E+01 -0.30124826707E+02  0.18553120226E+01  0.30435801203E+02  0.00000000000E+00 0. -1.
</event>
<event>
 5    1  0.1267616E-004  0.9118800E+02  0.7818608E-02  0.1130116E+00
         25   -1    0    0    0    0  0.00000000000E+00  0.00000000000E+00  0.99999998245E-14  0.12500000000E+03  0.12500000000E+03 0.  0.
        -13    1    3    3    0    0 -0.15975174358E+02 -0.34749911390E+02  0.23937093436E+02  0.45119376586E+02  0.10566000000E+00 0.  1.
         23    2    1    0    0    0  0.70616090466E+01  0.99645732704E+01  0.26849182108E+02  0.95503599836E+02  0.90834464599E+02 0.  0.
         13    1    3    3    0    0  0.23036783404E+02  0.44714484660E+02  0.29120886717E+01  0.50384223250E+02  0.10566000000E+00 0. -1.
         22    1    1    0    0    0 -0.70616090466E+01 -0.99645732704E+01 -0.26849182108E+02  0.29496400164E+02  0.00000000000E+00 0. -1.
</event>
<event>
 5    1  0.1267616E-004  0.9118800E+02  0.7818608E-02  0.1130116E+00
         25   -1    0    0    0    0  0.00000000000E+00  0.00000000000E+00  0.99999998245E-14  0.12500000000E+03  0.12500000000E+03 0.  0.
        -13    1    3    3    0    0  0.23211679750E+02  0.45553548349E+00 -0.24352873476E+02  0.33646146881E+02  0.10566000000E+00 0.  1.
         23    2    1    0    0    0 -0.18774460055E+02 -0.64227320836E+01  0.21189651614E+02  0.95970133082E+02  0.91474221891E+02 0.  0.
         13    1    3    3    0    0 -0.41986139804E+02 -0.68782675671E+01  0.45542525090E+02  0.62323986201E+02  0.10566000000E+00 0. -1.
         22    1    1    0    0    0  0.18774460055E+02  0.64227320836E+01 -0.21189651614E+02  0.29029866918E+02  0.00000000000E+00 0. -1.
</event>
<event>
 5    1  0.1267616E-004  0.9118800E+02  0.7818608E-02  0.1130116E+00
         25   -1    0    0    0    0  0.00000000000E+00  0.00000000000E+00  0.99999998245E-14  0.12500000000E+03  0.12500000000E+03 0.  0.
        -13    1    3    3    0    0 -0.50501800148E+01  0.10858158859E+02  0.60421342217E+02  0.61596701952E+02  0.10566000000E+00 0. -1.
         23    2    1    0    0    0  0.51191285414E+01  0.54447108708E+01  0.28611051579E+02  0.95429023927E+02  0.90731780439E+02 0.  0.
         13    1    3    3    0    0  0.10169308556E+02 -0.54134479880E+01 -0.31810290639E+02  0.33832321975E+02  0.10566000000E+00 0.  1.
         22    1    1    0    0    0 -0.51191285414E+01 -0.54447108708E+01 -0.28611051579E+02  0.29570976073E+02  0.00000000000E+00 0. -1.
</event>
<event>
 5    1  0.1267616E-004  0.9118800E+02  0.7818608E-02  0.1130116E+00
         25   -1    0    0    0    0  0.00000000000E+00  0.00000000000E+00  0.99999998245E-14  0.12500000000E+03  0.12500000000E+03 0.  0.
        -13    1    3    3    0    0 -0.17224802046E+01 -0.47271818370E+02  0.94659670282E+01  0.48241138521E+02  0.10566000000E+00 0.  1.
         23    2    1    0    0    0 -0.23787322208E+02 -0.16111852889E+02 -0.13982505104E+02  0.93047864699E+02  0.87389737239E+02 0.  0.
         13    1    3    3    0    0 -0.22064842003E+02  0.31159965481E+02 -0.23448472132E+02  0.44806726178E+02  0.10566000000E+00 0. -1.
         22    1    1    0    0    0  0.23787322208E+02  0.16111852889E+02  0.13982505104E+02  0.31952135301E+02  0.00000000000E+00 0. -1.
</event>
<event>
 5    1  0.1267616E-004  0.9118800E+02  0.7818608E-02  0.1130116E+00
         25   -1    0    0    0    0  0.00000000000E+00  0.00000000000E+00  0.99999998245E-14  0.12500000000E+03  0.12500000000E+03 0.  0.
        -13    1    3    3    0    0  0.86158461196E+01 -0.56192966491E+02 -0.45752299473E+01  0.57033553112E+02  0.10566000000E+00 0. -1.
         23    2    1    0    0    0  0.15581142560E+02 -0.18962823338E+02 -0.14895307466E+02  0.96290578951E+02  0.91911069724E+02 0.  0.
         13    1    3    3    0    0  0.69652964406E+01  0.37230143153E+02 -0.10320077519E+02  0.39257025839E+02  0.10566000000E+00 0.  1.
         22    1    1    0    0    0 -0.15581142560E+02  0.18962823338E+02  0.14895307466E+02  0.28709421049E+02  0.00000000000E+00 0. -1.
</event>
<event>
 5    1  0.1267616E-004  0.9118800E+02  0.7818608E-02  0.1130116E+00
         25   -1    0    0    0    0  0.00000000000E+00  0.00000000000E+00  0.99999998245E-14  0.12500000000E+03  0.12500000000E+03 0.  0.
        -13    1    3    3    0    0  0.28576190455E+02 -0.18123674838E+02 -0.24964066354E+02  0.42050945572E+02  0.10566000000E+00 0. -1.
         23    2    1    0    0    0  0.41539975358E+01 -0.19982912966E+02  0.21982843403E+02  0.95003034983E+02  0.90142990553E+02 0.  0.
         13    1    3    3    0    0 -0.24422192919E+02 -0.18592381288E+01  0.46946909756E+02  0.52952089412E+02  0.10566000000E+00 0.  1.
         22    1    1    0    0    0 -0.41539975358E+01  0.19982912966E+02 -0.21982843403E+02  0.29996965017E+02  0.00000000000E+00 0. -1.
</event>
<event>
 5    1  0.1267616E-004  0.9118800E+02  0.7818608E-02  0.1130116E+00
         25   -1    0    0    0    0  0.00000000000E+00  0.00000000000E+00  0.99999998245E-14  0.12500000000E+03  0.12500000000E+03 0.  0.
        -13    1    3    3    0    0  0.21953242891E+02 -0.42019368857E+01  0.42752629356E+02  0.48243130370E+02  0.10566000000E+00 0. -1.
         23    2    1    0    0    0  0.23550231486E+02 -0.16085418682E+02 -0.37211761564E+01  0.96238893464E+02  0.91840750029E+02 0.  0.
         13    1    3    3    0    0  0.15969885947E+01 -0.11883481797E+02 -0.46473805512E+02  0.47995763094E+02  0.10566000000E+00 0.  1.
         22    1    1    0    0    0 -0.23550231486E+02  0.16085418682E+02  0.37211761564E+01  0.28761106536E+02  0.00000000000E+00 0.  1.
</event>
<event>
 5    1  0.1267616E-004  0.9118800E+02  0.7818608E-02  0.1130116E+00
         25   -1    0    0    0    0  0.00000000000E+00  0.00000000000E+00  0.99999998245E-14  0.12500000000E+03  0.12500000000E+03 0.  0.
        -13    1    3    3    0    0 -0.17912645761E+02  0.90459770350E+01  0.30961247562E+02  0.36895834363E+02  0.10566000000E+00 0.  1.
         23    2    1    0    0    0  0.20661113709E+02 -0.17650864569E+02 -0.66511724422E+01  0.97023711208E+02  0.92902786836E+02 0.  0.
         13    1    3    3    0    0  0.38573759470E+02 -0.26696841604E+02 -0.37612420004E+02  0.60127876845E+02  0.10566000000E+00 0. -1.
         22    1    1    0    0    0 -0.20661113709E+02  0.17650864569E+02  0.66511724422E+01  0.27976288792E+02  0.00000000000E+00 0. -1.
</event>
<event>
 5    1  0.1267616E-004  0.9118800E+02  0.7818608E-02  0.1130116E+00
         25   -1    0    0    0    0  0.00000000000E+00  0.00000000000E+00  0.99999998245E-14  0.12500000000E+03  0.12500000000E+03 0.  0.
        -13    1    3    3    0    0 -0.82279038891E-01  0.35049841885E+02  0.87265171645E+01  0.36120097617E+02  0.10566000000E+00 0. -1.
         23    2    1    0    0    0 -0.19403147450E+01 -0.84824548653E+01 -0.29598579703E+02  0.94148860924E+02  0.88950633674E+02 0.  0.
         13    1    3    3    0    0 -0.18580357061E+01 -0.43532296750E+02 -0.38325096867E+02  0.58028763307E+02  0.10566000000E+00 0.  1.
         22    1    1    0    0    0  0.19403147450E+01  0.84824548653E+01  0.29598579703E+02  0.30851139076E+02  0.00000000000E+00 0.  1.
</event>
<event>
 5    1  0.1267616E-004  0.9118800E+02  0.7818608E-02  0.1130116E+00
         25   -1    0    0    0    0  0.00000000000E+00  0.00000000000E+00  0.99999998245E-14  0.12500000000E+03  0.12500000000E+03 0.  0.
        -13    1    3    3    0    0  0.17799177428E+02 -0.34850496886E+02 -0.26430656536E+01  0.39221993962E+02  0.10566000000E+00 0. -1.
         23    2    1    0    0    0  0.21294434301E+02  0.18457890419E+02  0.11622364258E+02  0.94516791477E+02  0.89466182825E+02 0.  0.
         13    1    3    3    0    0  0.34952568728E+01  0.53308387304E+02  0.14265429912E+02  0.55294797515E+02  0.10566000000E+00 0.  1.
         22    1    1    0    0    0 -0.21294434301E+02 -0.18457890419E+02 -0.11622364258E+02  0.30483208523E+02  0.00000000000E+00 0.  1.
</event>
<event>
 5    1  0.1267616E-004  0.9118800E+02  0.7818608E-02  0.1130116E+00
         25   -1    0    0    0    0  0.00000000000E+00  0.00000000000E+00  0.99999998245E-14  0.12500000000E+03  0.12500000000E+03 0.  0.
        -13    1    3    3    0    0  0.44398390190E+02  0.23916525475E+02 -0.31470248078E+02  0.59444132767E+02  0.10566000000E+00 0. -1.
         23    2    1    0    0    0  0.26267239572E+02 -0.95773330491E+00 -0.10468871451E+02  0.96707202378E+02  0.92475946032E+02 0.  0.
         13    1    3    3    0    0 -0.18131150618E+02 -0.24874258780E+02  0.21001376627E+02  0.37263069611E+02  0.10566000000E+00 0.  1.
         22    1    1    0    0    0 -0.26267239572E+02  0.95773330491E+00  0.10468871451E+02  0.28292797622E+02  0.00000000000E+00 0. -1.
</event>
<event>
 5    1  0.1267616E-004  0.9118800E+02  0.7818608E-02  0.1130116E+00
         25   -1    0    0    0    0  0.00000000000E+00  0.00000000000E+00  0.99999998245E-14  0.12500000000E+03  0.12500000000E+03 0.  0.
        -13    1    3    3    0    0  0.24214965752E+02  0.32915761216E+02  0.14099798619E+02  0.43227622974E+02  0.10566000000E+00 0. -1.
         23    2    1    0    0    0 -0.18628957795E+02  0.17577717550E+02 -0.13087507867E+02  0.96237227447E+02  0.91838482466E+02 0.  0.
         13    1    3    3    0    0 -0.42843923547E+02 -0.15338043666E+02 -0.27187306486E+02  0.53009604473E+02  0.10566000000E+00 0.  1.
         22    1    1    0    0    0  0.18628957795E+02 -0.17577717550E+02  0.13087507867E+02  0.28762772553E+02  0.00000000000E+00 0.  1.
</event>
<event>
 5    1  0.1267616E-004  0.9118800E+02  0.7818608E-02  0.1130116E+00
         25   -1    0    0    0    0  0.00000000000E+00  0.00000000000E+00  0.99999998245E-14  0.12500000000E+03  0.12500000000E+03 0.  0.
        -13    1    3    3    0    0  0.15494130991E+02  0.22861205165E+02 -0.44195097109E+02  0.52114494810E+02  0.10566000000E+00 0.  1.
         23    2    1    0    0    0 -0.77815899141E+00  0.11406412376E+02  0.99769085462E+01  0.10982599332E+03  0.10877269110E+03 0.  0.
         13    1    3    3    0    0 -0.16272289982E+02 -0.11454792788E+02  0.54172005655E+02  0.57711498506E+02  0.10566000000E+00 0. -1.
         22    1    1    0    0    0  0.77815899141E+00 -0.11406412376E+02 -0.99769085462E+01  0.15174006684E+02  0.00000000000E+00 0. -1.
</event>
<event>
 5    1  0.1267616E-004  0.9118800E+02  0.7818608E-02  0.1130116E+00
         25   -1    0    0    0    0  0.00000000000E+00  0.00000000000E+00  0.99999998245E-14  0.12500000000E+03  0.12500000000E+03 0.  0.
        -13    1    3    3    0    0  0.63672818216E+01  0.21955252724E+02  0.34438402876E+02  0.41335095943E+02  0.10566000000E+00 0. -1.
         23    2    1    0    0    0 -0.28400806072E+02  0.10149348573E+02 -0.40974418044E+01  0.94563112982E+02  0.89530878726E+02 0.  0.
         13    1    3    3    0    0 -0.34768087894E+02 -0.11805904151E+02 -0.38535844680E+02  0.53228017039E+02  0.10566000000E+00 0.  1.
         22    1    1    0    0    0  0.28400806072E+02 -0.10149348573E+02  0.40974418044E+01  0.30436887018E+02  0.00000000000E+00 0. -1.
</event>
<event>
 5    1  0.1267616E-004  0.9118800E+02  0.7818608E-02  0.1130116E+00
         25   -1    0    0    0    0  0.00000000000E+00  0.00000000000E+00  0.99999998245E-14  0.12500000000E+03  0.12500000000E+03 0.  0.
        -13    1    3    3    0    0  0.38721092342E+02  0.25001229829E+02 -0.10019610439E+01  0.46102056083E+02  0.10566000000E+00 0.  1.
         23    2    1    0    0    0 -0.45333246128E+01  0.16634011185E+02 -0.23724215396E+02  0.95672883601E+02  0.91067123048E+02 0.  0.
         13    1    3    3    0    0 -0.43254416954E+02 -0.83672186448E+01 -0.22722254352E+02  0.49570827518E+02  0.10566000000E+00 0. -1.
         22    1    1    0    0    0  0.45333246128E+01 -0.16634011185E+02  0.23724215396E+02  0.29327116399E+02  0.00000000000E+00 0.  1.
</event>
<event>
 5    1  0.1267616E-004  0.9118800E+02  0.7818608E-02  0.1130116E+00
         25   -1    0    0    0    0  0.00000000000E+00  0.00000000000E+00  0.99999998245E-14  0.12500000000E+03  0.12500000000E+03 0.  0.
        -13    1    3    3    0    0  0.29958555274E+01 -0.37881101572E+01 -0.37054609207E+02  0.37368170364E+02  0.10566000000E+00 0.  1.
         23    2    1    0    0    0 -0.27745379012E+01 -0.26034914137E+02  0.15391194509E+02  0.94628900529E+02  0.89622682019E+02 0.  0.
         13    1    3    3    0    0 -0.57703934286E+01 -0.22246803980E+02  0.52445803715E+02  0.57260730165E+02  0.10566000000E+00 0. -1.
         22    1    1    0    0    0  0.27745379012E+01  0.26034914137E+02 -0.15391194509E+02  0.30371099471E+02  0.00000000000E+00 0. -1.
</event>
<event>
 5    1  0.1267616E-004  0.9118800E+02  0.7818608E-02  0.1130116E+00
         25   -1    0    0    0    0  0.00000000000E+00  0.00000000000E+00  0.99999998245E-14  0.12500000000E+03  0.12500000000E+03 0.  0.
        -13    1    3    3    0    0 -0.29639047272E+02 -0.23565152922E+02 -0.76649636968E+01  0.38633565561E+02  0.10566000000E+00 0. -1.
         23    2    1    0    0    0  0.16866762734E+02  0.54939002147E+01 -0.23354879426E+02  0.95672180141E+02  0.91066157464E+02 0.  0.
         13    1    3    3    0    0  0.46505810007E+02  0.29059053136E+02 -0.15689915729E+02  0.57038614580E+02  0.10566000000E+00 0.  1.
         22    1    1    0    0    0 -0.16866762734E+02 -0.54939002147E+01  0.23354879426E+02  0.29327819859E+02  0.00000000000E+00 0.  1.
</event>
<event>
 5    1  0.1267616E-004  0.9118800E+02  0.7818608E-02  0.1130116E+00
         25   -1    0    0    0    0  0.00000000000E+00  0.00000000000E+00  0.99999998245E-14  0.12500000000E+03  0.12500000000E+03 0.  0.
        -13    1    3    3    0    0 -0.66164000306E+01  0.55832810942E+02 -0.21593238643E+02  0.60227557199E+02  0.10566000000E+00 0.  1.
         23    2    1    0    0    0 -0.15342277426E+01  0.20565861395E+02 -0.20567731662E+02  0.95873721566E+02  0.91342380041E+02 0.  0.
         13    1    3    3    0    0  0.50821722881E+01 -0.35266949547E+02  0.10255069808E+01  0.35646164367E+02  0.10566000000E+00 0. -1.
         22    1    1    0    0    0  0.15342277426E+01 -0.20565861395E+02  0.20567731662E+02  0.29126278434E+02  0.00000000000E+00 0.  1.
</event>
<event>
 5    1  0.1267616E-004  0.9118800E+02  0.7818608E-02  0.1130116E+00
         25   -1    0    0    0    0  0.00000000000E+00  0.00000000000E+00  0.99999998245E-14  0.12500000000E+03  0.12500000000E+03 0.  0.
        -13    1    3    3    0    0  0.20742079812E+02 -0.56286105013E+02  0.63076357740E+01  0.60317136251E+02  0.10566000000E+00 0.  1.
         23    2    1    0    0    0  0.19775517745E+02 -0.28654171962E+02 -0.42762478337E+01  0.89922671589E+02  0.82798960725E+02 0.  0.
         13    1    3    3    0    0 -0.96656206610E+00  0.27631933051E+02 -0.10583883608E+02  0.29605535337E+02  0.10566000000E+00 0. -1.
         22    1    1    0    0    0 -0.19775517745E+02  0.28654171962E+02  0.42762478337E+01  0.35077328411E+02  0.00000000000E+00 0.  1.
</event>
<event>
 5    1  0.1267616E-004  0.9118800E+02  0.7818608E-02  0.1130116E+00
         25   -1    0    0    0    0  0.00000000000E+00  0.00000000000E+00  0.99999998245E-14  0.12500000000E+03  0.12500000000E+03 0.  0.
        -13    1    3    3    0    0 -0.36730229151E+02 -0.39839337110E+02 -0.60215349024E+01  0.54521120325E+02  0.10566000000E+00 0. -1.
         23    2    1    0    0    0 -0.25805057009E+02 -0.66220916980E+01 -0.19487397092E+02  0.91992247712E+02  0.85866535554E+02 0.  0.
         13    1    3    3    0    0  0.10925172142E+02  0.33217245412E+02 -0.13465862189E+02  0.37471127387E+02  0.10566000000E+00 0.  1.
         22    1    1    0    0    0  0.25805057009E+02  0.66220916980E+01  0.19487397092E+02  0.33007752288E+02  0.00000000000E+00 0. -1.
</event>
<event>
 5    1  0.1267616E-004  0.9118800E+02  0.7818608E-02  0.1130116E+00
         25   -1    0    0    0    0  0.00000000000E+00  0.00000000000E+00  0.99999998245E-14  0.12500000000E+03  0.12500000000E+03 0.  0.
        -13    1    3    3    0    0  0.33570425159E+01  0.44390970610E+02  0.23557505372E+02  0.50366608279E+02  0.10566000000E+00 0. -1.
         23    2    1    0    0    0 -0.63570435222E+01  0.22489027579E+01  0.30142593711E+02  0.94112372678E+02  0.88899342908E+02 0.  0.
         13    1    3    3    0    0 -0.97140860382E+01 -0.42142067852E+02  0.65850883394E+01  0.43745764399E+02  0.10566000000E+00 0.  1.
         22    1    1    0    0    0  0.63570435222E+01 -0.22489027579E+01 -0.30142593711E+02  0.30887627322E+02  0.00000000000E+00 0.  1.
</event>
<event>
 5    1  0.1267616E-004  0.9118800E+02  0.7818608E-02  0.1130116E+00
         25   -1    0    0    0    0  0.00000000000E+00  0.00000000000E+00  0.99999998245E-14  0.12500000000E+03  0.12500000000E+03 0.  0.
        -13    1    3    3    0    0  0.24001370201E+02  0.29352181361E+02 -0.44728427315E+02  0.58636675352E+02  0.10566000000E+00 0.  1.
         23    2    1    0    0    0  0.17146048653E+02 -0.47857546263E+00 -0.23582467121E+02  0.95839259708E+02  0.91295207580E+02 0.  0.
         13    1    3    3    0    0 -0.68553215484E+01 -0.29830756824E+02  0.21145960194E+02  0.37202584356E+02  0.10566000000E+00 0. -1.
         22    1    1    0    0    0 -0.17146048653E+02  0.47857546263E+00  0.23582467121E+02  0.29160740292E+02  0.00000000000E+00 0.  1.
</event>
<event>
 5    1  0.1267616E-004  0.9118800E+02  0.7818608E-02  0.1130116E+00
         25   -1    0    0    0    0  0.00000000000E+00  0.00000000000E+00  0.99999998245E-14  0.12500000000E+03  0.12500000000E+03 0.  0.
        -13    1    3    3    0    0 -0.18879893022E+01  0.19350242993E+02  0.35996887861E+02  0.40911899335E+02  0.10566000000E+00 0.  1.
         23    2    1    0    0    0 -0.21992257389E+02  0.11094972987E+02 -0.14869991421E+02  0.96227192429E+02  0.91824822937E+02 0.  0.
         13    1    3    3    0    0 -0.20104268087E+02 -0.82552700064E+01 -0.50866879282E+02  0.55315293094E+02  0.10566000000E+00 0. -1.
         22    1    1    0    0    0  0.21992257389E+02 -0.11094972987E+02  0.14869991421E+02  0.28772807571E+02  0.00000000000E+00 0. -1.
</event>
<event>
 5    1  0.1267616E-004  0.9118800E+02  0.7818608E-02  0.1130116E+00
         25   -1    0    0    0    0  0.00000000000E+00  0.00000000000E+00  0.99999998245E-14  0.12500000000E+03  0.12500000000E+03 0.  0.
        -13    1    3    3    0    0 -0.14146041706E+00  0.14250979487E+02  0.49817831510E+02  0.51816386672E+02  0.10566000000E+00 0. -1.
         23    2    1    0    0    0  0.25233845045E+02  0.10121916276E+02  0.19643568010E+02  0.91457938509E+02  0.85085161029E+02 0.  0.
         13    1    3    3    0    0  0.25375305463E+02 -0.41290632113E+01 -0.30174263499E+02  0.39641551837E+02  0.10566000000E+00 0.  1.
         22    1    1    0    0    0 -0.25233845045E+02 -0.10121916276E+02 -0.19643568010E+02  0.33542061491E+02  0.00000000000E+00 0. -1.
</event>
<event>
 5    1  0.1267616E-004  0.9118800E+02  0.7818608E-02  0.1130116E+00
         25   -1    0    0    0    0  0.00000000000E+00  0.00000000000E+00  0.99999998245E-14  0.12500000000E+03  0.12500000000E+03 0.  0.
        -13    1    3    3    0    0 -0.36845734389E+02  0.50152526941E+01 -0.26438566358E+02  0.45626416223E+02  0.10566000000E+00 0.  1.
         23    2    1    0    0    0  0.86457163577E+01 -0.14302422395E+02 -0.24822035401E+02  0.95076077478E+02  0.90244220698E+02 0.  0.
         13    1    3    3    0    0  0.45491450747E+02 -0.19317675089E+02  0.16165309568E+01  0.49449661255E+02  0.10566000000E+00 0. -1.
         22    1    1    0    0    0 -0.86457163577E+01  0.14302422395E+02  0.24822035401E+02  0.29923922522E+02  0.00000000000E+00 0. -1.
</event>
<event>
 5    1  0.1267616E-004  0.9118800E+02  0.7818608E-02  0.1130116E+00
         25   -1    0    0    0    0  0.00000000000E+00  0.00000000000E+00  0.99999998245E-14  0.12500000000E+03  0.12500000000E+03 0.  0.
        -13    1    3    3    0    0  0.26267843271E+02  0.60544146452E+01  0.32505626896E+02  0.42228929311E+02  0.10566000000E+00 0.  1.
         23    2    1    0    0    0 -0.22810323329E+02  0.12256885524E+02  0.57312478961E+01  0.98478512569E+02  0.94840013403E+02 0.  0.
         13    1    3    3    0    0 -0.49078166600E+02  0.62024708785E+01 -0.26774379000E+02  0.56249583258E+02  0.10566000000E+00 0. -1.
         22    1    1    0    0    0  0.22810323329E+02 -0.12256885524E+02 -0.57312478961E+01  0.26521487431E+02  0.00000000000E+00 0. -1.
</event>
<event>
 5    1  0.1267616E-004  0.9118800E+02  0.7818608E-02  0.1130116E+00
         25   -1    0    0    0    0  0.00000000000E+00  0.00000000000E+00  0.99999998245E-14  0.12500000000E+03  0.12500000000E+03 0.  0.
        -13    1    3    3    0    0 -0.42399249811E+02  0.40611145664E+02  0.11824975211E+02  0.59889921852E+02  0.10566000000E+00 0. -1.
         23    2    1    0    0    0 -0.24773700494E+02  0.14753876238E+02 -0.54805399973E+01  0.95649541419E+02  0.91035077607E+02 0.  0.
         13    1    3    3    0    0  0.17625549317E+02 -0.25857269426E+02 -0.17305515209E+02  0.35759619567E+02  0.10566000000E+00 0.  1.
         22    1    1    0    0    0  0.24773700494E+02 -0.14753876238E+02  0.54805399973E+01  0.29350458581E+02  0.00000000000E+00 0. -1.
</event>
<event>
 5    1  0.1267616E-004  0.9118800E+02  0.7818608E-02  0.1130116E+00
         25   -1    0    0    0    0  0.00000000000E+00  0.00000000000E+00  0.99999998245E-14  0.12500000000E+03  0.12500000000E+03 0.  0.
        -13    1    3    3    0    0 -0.16015560361E+01  0.32024179649E+02 -0.16268994551E+02  0.35955589436E+02  0.10566000000E+00 0.  1.
         23    2    1    0    0    0 -0.73646693571E+01 -0.27122702007E+02 -0.59599221235E+01  0.96270224668E+02  0.91883383520E+02 0.  0.
         13    1    3    3    0    0 -0.57631133211E+01 -0.59146881656E+02  0.10309072427E+02  0.60314635232E+02  0.10566000000E+00 0. -1.
         22    1    1    0    0    0  0.73646693571E+01  0.27122702007E+02  0.59599221235E+01  0.28729775332E+02  0.00000000000E+00 0. -1.
</event>
<event>
 5    1  0.1267616E-004  0.9118800E+02  0.7818608E-02  0.1130116E+00
         25   -1    0    0    0    0  0.00000000000E+00  0.00000000000E+00  0.99999998245E-14  0.12500000000E+03  0.12500000000E+03 0.  0.
        -13    1    3    3    0    0 -0.40737825443E+00 -0.13097738493E+02 -0.55724098930E+02  0.57244240551E+02  0.10566000000E+00 0. -1.
         23    2    1    0    0    0  0.14733093867E+02 -0.15236357632E+02 -0.21106837385E+02  0.95088309423E+02  0.90261161945E+02 0.  0.
         13    1    3    3    0    0  0.15140472121E+02 -0.21386191393E+01  0.34617261545E+02  0.37844068872E+02  0.10566000000E+00 0.  1.
         22    1    1    0    0    0 -0.14733093867E+02  0.15236357632E+02  0.21106837385E+02  0.29911690577E+02  0.00000000000E+00 0.  1.
</event>
<event>
 5    1  0.1267616E-004  0.9118800E+02  0.7818608E-02  0.1130116E+00
         25   -1    0    0    0    0  0.00000000000E+00  0.00000000000E+00  0.99999998245E-14  0.12500000000E+03  0.12500000000E+03 0.  0.
        -13    1    3    3    0    0 -0.34028613495E+02 -0.11103105651E+02 -0.48417239362E+01  0.36120339785E+02  0.10566000000E+00 0.  1.
         23    2    1    0    0    0  0.13358164826E+02  0.12683247950E+02  0.22617445855E+02  0.95830594742E+02  0.91283342870E+02 0.  0.
         13    1    3    3    0    0  0.47386778321E+02  0.23786353601E+02  0.27459169791E+02  0.59710254957E+02  0.10566000000E+00 0. -1.
         22    1    1    0    0    0 -0.13358164826E+02 -0.12683247950E+02 -0.22617445855E+02  0.29169405258E+02  0.00000000000E+00 0. -1.
</event>
<event>
 5    1  0.1267616E-004  0.9118800E+02  0.7818608E-02  0.1130116E+00
         25   -1    0    0    0    0  0.00000000000E+00  0.00000000000E+00  0.99999998245E-14  0.12500000000E+03  0.12500000000E+03 0.  0.
        -13    1    3    3    0    0 -0.34091893655E+02  0.34513260217E+02  0.23735396919E+02  0.54007430736E+02  0.10566000000E+00 0. -1.
         23    2    1    0    0    0  0.29810874338E+01  0.16606067197E+02  0.24579215523E+02  0.95187482734E+02  0.90398399783E+02 0.  0.
         13    1    3    3    0    0  0.37072981089E+02 -0.17907193020E+02  0.84381860390E+00  0.41180051998E+02  0.10566000000E+00 0.  1.
         22    1    1    0    0    0 -0.29810874338E+01 -0.16606067197E+02 -0.24579215523E+02  0.29812517266E+02  0.00000000000E+00 0. -1.
</event>
<event>
 5    1  0.1267616E-004  0.9118800E+02  0.7818608E-02  0.1130116E+00
         25   -1    0    0    0    0  0.00000000000E+00  0.00000000000E+00  0.99999998245E-14  0.12500000000E+03  0.12500000000E+03 0.  0.
        -13    1    3    3    0    0 -0.48655970658E+01  0.17593022014E+02 -0.33303000257E+02  0.37977486074E+02  0.10566000000E+00 0. -1.
         23    2    1    0    0    0 -0.62236365200E+00  0.16677436337E+02  0.24177548782E+02  0.95621809375E+02  0.90996990850E+02 0.  0.
         13    1    3    3    0    0  0.42432334138E+01 -0.91558567679E+00  0.57480549039E+02  0.57644323300E+02  0.10566000000E+00 0.  1.
         22    1    1    0    0    0  0.62236365200E+00 -0.16677436337E+02 -0.24177548782E+02  0.29378190625E+02  0.00000000000E+00 0.  1.
</event>
<event>
 5    1  0.1267616E-004  0.9118800E+02  0.7818608E-02  0.1130116E+00
         25   -1    0    0    0    0  0.00000000000E+00  0.00000000000E+00  0.99999998245E-14  0.12500000000E+03  0.12500000000E+03 0.  0.
        -13    1    3    3    0    0 -0.42973947293E+02 -0.18522030432E+02  0.16603789862E+02  0.49654030643E+02  0.10566000000E+00 0.  1.
         23    2    1    0    0    0 -0.12112814557E+02 -0.28403538423E+02 -0.10998673258E+02  0.92221164071E+02  0.86199135829E+02 0.  0.
         13    1    3    3    0    0  0.30861132736E+02 -0.98815079919E+01 -0.27602463120E+02  0.42567133428E+02  0.10566000000E+00 0. -1.
         22    1    1    0    0    0  0.12112814557E+02  0.28403538423E+02  0.10998673258E+02  0.32778835929E+02  0.00000000000E+00 0. -1.
</event>
<event>
 5    1  0.1267616E-004  0.9118800E+02  0.7818608E-02  0.1130116E+00
         25   -1    0    0    0    0  0.00000000000E+00  0.00000000000E+00  0.99999998245E-14  0.12500000000E+03  0.12500000000E+03 0.  0.
        -13    1    3    3    0    0 -0.32033876508E+02 -0.32887662923E+02 -0.33862758268E+02  0.57047920016E+02  0.10566000000E+00 0. -1.
         23    2    1    0    0    0 -0.13978678941E+02 -0.26679165971E+02 -0.12305597844E+01  0.94855421064E+02  0.89938063499E+02 0.  0.
         13    1    3    3    0    0  0.18055197568E+02  0.62084969512E+01  0.32632198483E+02  0.37807501048E+02  0.10566000000E+00 0.  1.
         22    1    1    0    0    0  0.13978678941E+02  0.26679165971E+02  0.12305597844E+01  0.30144578936E+02  0.00000000000E+00 0. -1.
</event>
<event>
 5    1  0.1267616E-004  0.9118800E+02  0.7818608E-02  0.1130116E+00
         25   -1    0    0    0    0  0.00000000000E+00  0.00000000000E+00  0.99999998245E-14  0.12500000000E+03  0.12500000000E+03 0.  0.
        -13    1    3    3    0    0  0.35329460122E+01  0.25617153659E+02  0.33716237388E+02  0.42491364967E+02  0.10566000000E+00 0.  1.
         23    2    1    0    0    0 -0.26114130654E+02 -0.10060442521E+02  0.65142503621E+01  0.96266817418E+02  0.91878748111E+02 0.  0.
         13    1    3    3    0    0 -0.29647076666E+02 -0.35677596181E+02 -0.27201987026E+02  0.53775452451E+02  0.10566000000E+00 0. -1.
         22    1    1    0    0    0  0.26114130654E+02  0.10060442521E+02 -0.65142503621E+01  0.28733182582E+02  0.00000000000E+00 0. -1.
</event>
<event>
 5    1  0.1267616E-004  0.9118800E+02  0.7818608E-02  0.1130116E+00
         25   -1    0    0    0    0  0.00000000000E+00  0.00000000000E+00  0.99999998245E-14  0.12500000000E+03  0.12500000000E+03 0.  0.
        -13    1    3    3    0    0  0.45403124845E+02  0.12184123527E+02  0.24951927275E+02  0.53221296964E+02  0.10566000000E+00 0.  1.
         23    2    1    0    0    0  0.16469316728E+02  0.23592203651E+02 -0.42886613246E+01  0.95910086241E+02  0.91392130734E+02 0.  0.
         13    1    3    3    0    0 -0.28933808117E+02  0.11408080123E+02 -0.29240588599E+02  0.42688789277E+02  0.10566000000E+00 0. -1.
         22    1    1    0    0    0 -0.16469316728E+02 -0.23592203651E+02  0.42886613246E+01  0.29089913759E+02  0.00000000000E+00 0.  1.
</event>
<event>
 5    1  0.1267616E-004  0.9118800E+02  0.7818608E-02  0.1130116E+00
         25   -1    0    0    0    0  0.00000000000E+00  0.00000000000E+00  0.99999998245E-14  0.12500000000E+03  0.12500000000E+03 0.  0.
        -13    1    3    3    0    0 -0.33174335282E+01 -0.64307615919E+01  0.48848832634E+02  0.49381977215E+02  0.10566000000E+00 0. -1.
         23    2    1    0    0    0 -0.25619947618E+02  0.65586711252E+01  0.86085341084E+01  0.97188046772E+02  0.93123636597E+02 0.  0.
         13    1    3    3    0    0 -0.22302514090E+02  0.12989432717E+02 -0.40240298526E+02  0.47806069557E+02  0.10566000000E+00 0.  1.
         22    1    1    0    0    0  0.25619947618E+02 -0.65586711252E+01 -0.86085341084E+01  0.27811953228E+02  0.00000000000E+00 0. -1.
</event>
<event>
 5    1  0.1267616E-004  0.9118800E+02  0.7818608E-02  0.1130116E+00
         25   -1    0    0    0    0  0.00000000000E+00  0.00000000000E+00  0.99999998245E-14  0.12500000000E+03  0.12500000000E+03 0.  0.
        -13    1    3    3    0    0 -0.22416041667E+02 -0.27158972329E+02 -0.97126530921E+01  0.36529926035E+02  0.10566000000E+00 0. -1.
         23    2    1    0    0    0 -0.14230163938E+01  0.20591368213E+02  0.19746320185E+02  0.96435221314E+02  0.92107574762E+02 0.  0.
         13    1    3    3    0    0  0.20993025273E+02  0.47750340541E+02  0.29458973277E+02  0.59905295279E+02  0.10566000000E+00 0.  1.
         22    1    1    0    0    0  0.14230163938E+01 -0.20591368213E+02 -0.19746320185E+02  0.28564778686E+02  0.00000000000E+00 0.  1.
</event>
<event>
 5    1  0.1267616E-004  0.9118800E+02  0.7818608E-02  0.1130116E+00
         25   -1    0    0    0    0  0.00000000000E+00  0.00000000000E+00  0.99999998245E-14  0.12500000000E+03  0.12500000000E+03 0.  0.
        -13    1    3    3    0    0 -0.47522833776E+01 -0.41271299313E+02  0.20218402666E+02  0.46202806351E+02  0.10566000000E+00 0.  1.
         23    2    1    0    0    0  0.13582079892E+02  0.39901314977E+01  0.26018277405E+02  0.95379993202E+02  0.90664206281E+02 0.  0.
         13    1    3    3    0    0  0.18334363270E+02  0.45261430811E+02  0.57998747393E+01  0.49177186851E+02  0.10566000000E+00 0. -1.
         22    1    1    0    0    0 -0.13582079892E+02 -0.39901314977E+01 -0.26018277405E+02  0.29620006798E+02  0.00000000000E+00 0. -1.
</event>
<event>
 5    1  0.1267616E-004  0.9118800E+02  0.7818608E-02  0.1130116E+00
         25   -1    0    0    0    0  0.00000000000E+00  0.00000000000E+00  0.99999998245E-14  0.12500000000E+03  0.12500000000E+03 0.  0.
        -13    1    3    3    0    0  0.17553445480E+01 -0.28488756726E+02  0.36642724655E+02  0.46447722533E+02  0.10566000000E+00 0.  1.
         23    2    1    0    0    0  0.83553066477E+01 -0.26608011945E+02 -0.11321550876E+02  0.94900582014E+02  0.90000808349E+02 0.  0.
         13    1    3    3    0    0  0.65999620997E+01  0.18807447810E+01 -0.47964275531E+02  0.48452859481E+02  0.10566000000E+00 0. -1.
         22    1    1    0    0    0 -0.83553066477E+01  0.26608011945E+02  0.11321550876E+02  0.30099417986E+02  0.00000000000E+00 0.  1.
</event>
<event>
 5    1  0.1267616E-004  0.9118800E+02  0.7818608E-02  0.1130116E+00
         25   -1    0    0    0    0  0.00000000000E+00  0.00000000000E+00  0.99999998245E-14  0.12500000000E+03  0.12500000000E+03 0.  0.
        -13    1    3    3    0    0  0.83478276881E+01 -0.33762569800E+02 -0.55123246724E+01  0.35213551850E+02  0.10566000000E+00 0.  1.
         23    2    1    0    0    0  0.39571312632E+01  0.12391300306E+02  0.29135764368E+02  0.93092383724E+02  0.87453392907E+02 0.  0.
         13    1    3    3    0    0 -0.43906964249E+01  0.46153870106E+02  0.34648089040E+02  0.57878831874E+02  0.10566000000E+00 0. -1.
         22    1    1    0    0    0 -0.39571312632E+01 -0.12391300306E+02 -0.29135764368E+02  0.31907616276E+02  0.00000000000E+00 0. -1.
</event>
<event>
 5    1  0.1267616E-004  0.9118800E+02  0.7818608E-02  0.1130116E+00
         25   -1    0    0    0    0  0.00000000000E+00  0.00000000000E+00  0.99999998245E-14  0.12500000000E+03  0.12500000000E+03 0.  0.
        -13    1    3    3    0    0 -0.80989001858E+01 -0.37997038950E+02  0.73891265866E+01  0.39547155510E+02  0.10566000000E+00 0.  1.
         23    2    1    0    0    0  0.27937091474E+02  0.29809030104E+01 -0.71277747107E+01  0.96014278772E+02  0.91534527327E+02 0.  0.
         13    1    3    3    0    0  0.36035991660E+02  0.40977941960E+02 -0.14516901297E+02  0.56467123262E+02  0.10566000000E+00 0. -1.
         22    1    1    0    0    0 -0.27937091474E+02 -0.29809030104E+01  0.71277747107E+01  0.28985721228E+02  0.00000000000E+00 0. -1.
</event>
<event>
 5    1  0.1267616E-004  0.9118800E+02  0.7818608E-02  0.1130116E+00
         25   -1    0    0    0    0  0.00000000000E+00  0.00000000000E+00  0.99999998245E-14  0.12500000000E+03  0.12500000000E+03 0.  0.
        -13    1    3    3    0    0  0.27484788290E+02  0.83657702675E+01  0.20493977478E+02  0.35290423296E+02  0.10566000000E+00 0. -1.
         23    2    1    0    0    0 -0.24508023834E+02  0.11933977234E+02 -0.10341914432E+02  0.95844927731E+02  0.91302967820E+02 0.  0.
         13    1    3    3    0    0 -0.51992812124E+02  0.35682069665E+01 -0.30835891910E+02  0.60554504435E+02  0.10566000000E+00 0.  1.
         22    1    1    0    0    0  0.24508023834E+02 -0.11933977234E+02  0.10341914432E+02  0.29155072269E+02  0.00000000000E+00 0.  1.
</event>
<event>
 5    1  0.1267616E-004  0.9118800E+02  0.7818608E-02  0.1130116E+00
         25   -1    0    0    0    0  0.00000000000E+00  0.00000000000E+00  0.99999998245E-14  0.12500000000E+03  0.12500000000E+03 0.  0.
        -13    1    3    3    0    0  0.93345717714E+01 -0.39100032100E+02 -0.43787653529E+02  0.59441706789E+02  0.10566000000E+00 0. -1.
         23    2    1    0    0    0  0.11158960550E+02 -0.24478684707E+02 -0.10005836572E+02  0.96297296799E+02  0.91920205611E+02 0.  0.
         13    1    3    3    0    0  0.18243887789E+01  0.14621347393E+02  0.33781816957E+02  0.36855590009E+02  0.10566000000E+00 0.  1.
         22    1    1    0    0    0 -0.11158960550E+02  0.24478684707E+02  0.10005836572E+02  0.28702703201E+02  0.00000000000E+00 0. -1.
</event>
<event>
 5    1  0.1267616E-004  0.9118800E+02  0.7818608E-02  0.1130116E+00
         25   -1    0    0    0    0  0.00000000000E+00  0.00000000000E+00  0.99999998245E-14  0.12500000000E+03  0.12500000000E+03 0.  0.
        -13    1    3    3    0    0  0.27529200918E+02 -0.15269558552E+02 -0.46767877746E+02  0.56376075373E+02  0.10566000000E+00 0.  1.
         23    2    1    0    0    0  0.26923305493E+02  0.26072850304E+01 -0.12139383868E+02  0.95351611264E+02  0.90625067261E+02 0.  0.
         13    1    3    3    0    0 -0.60589542459E+00  0.17876843582E+02  0.34628493878E+02  0.38975535891E+02  0.10566000000E+00 0. -1.
         22    1    1    0    0    0 -0.26923305493E+02 -0.26072850304E+01  0.12139383868E+02  0.29648388736E+02  0.00000000000E+00 0.  1.
</event>
<event>
 5    1  0.1267616E-004  0.9118800E+02  0.7818608E-02  0.1130116E+00
         25   -1    0    0    0    0  0.00000000000E+00  0.00000000000E+00  0.99999998245E-14  0.12500000000E+03  0.12500000000E+03 0.  0.
        -13    1    3    3    0    0 -0.16720004610E+02  0.27373420172E+02 -0.34927901184E+02  0.47421852887E+02  0.10566000000E+00 0.  1.
         23    2    1    0    0    0 -0.16812164191E+01 -0.18329065920E+02 -0.20049219384E+02  0.97783234136E+02  0.93919159569E+02 0.  0.
         13    1    3    3    0    0  0.15038788191E+02 -0.45702486092E+02  0.14878681800E+02  0.50361381250E+02  0.10566000000E+00 0. -1.
         22    1    1    0    0    0  0.16812164191E+01  0.18329065920E+02  0.20049219384E+02  0.27216765864E+02  0.00000000000E+00 0.  1.
</event>
<event>
 5    1  0.1267616E-004  0.9118800E+02  0.7818608E-02  0.1130116E+00
         25   -1    0    0    0    0  0.00000000000E+00  0.00000000000E+00  0.99999998245E-14  0.12500000000E+03  0.12500000000E+03 0.  0.
        -13    1    3    3    0    0  0.35880718266E+02  0.21490972222E+02 -0.86579139466E+01  0.42711338872E+02  0.10566000000E+00 0.  1.
         23    2    1    0    0    0 -0.11763427527E+02  0.24308071222E+01 -0.25576061400E+02  0.96743638465E+02  0.92525183687E+02 0.  0.
         13    1    3    3    0    0 -0.47644145793E+02 -0.19060165100E+02 -0.16918147454E+02  0.54032299593E+02  0.10566000000E+00 0. -1.
         22    1    1    0    0    0  0.11763427527E+02 -0.24308071222E+01  0.25576061400E+02  0.28256361535E+02  0.00000000000E+00 0. -1.
</event>
<event>
 5    1  0.1267616E-004  0.9118800E+02  0.7818608E-02  0.1130116E+00
         25   -1    0    0    0    0  0.00000000000E+00  0.00000000000E+00  0.99999998245E-14  0.12500000000E+03  0.12500000000E+03 0.  0.
        -13    1    3    3    0    0 -0.28205567933E+02 -0.24100884624E+02 -0.27308084303E+02  0.46066792100E+02  0.10566000000E+00 0. -1.
         23    2    1    0    0    0  0.19965150513E+02 -0.10333079102E+02 -0.15944348976E+02  0.97439121512E+02  0.93460046961E+02 0.  0.
         13    1    3    3    0    0  0.48170718447E+02  0.13767805521E+02  0.11363735327E+02  0.51372329412E+02  0.10566000000E+00 0.  1.
         22    1    1    0    0    0 -0.19965150513E+02  0.10333079102E+02  0.15944348976E+02  0.27560878488E+02  0.00000000000E+00 0.  1.
</event>
<event>
 5    1  0.1267616E-004  0.9118800E+02  0.7818608E-02  0.1130116E+00
         25   -1    0    0    0    0  0.00000000000E+00  0.00000000000E+00  0.99999998245E-14  0.12500000000E+03  0.12500000000E+03 0.  0.
        -13    1    3    3    0    0 -0.28731084653E+02 -0.53831485723E+01 -0.27019866231E+02  0.39806253894E+02  0.10566000000E+00 0. -1.
         23    2    1    0    0    0  0.13706323122E+02  0.23967640154E+02 -0.17599631888E+02  0.92257701506E+02  0.86252103606E+02 0.  0.
         13    1    3    3    0    0  0.42437407775E+02  0.29350788726E+02  0.94202343431E+01  0.52451447612E+02  0.10566000000E+00 0.  1.
         22    1    1    0    0    0 -0.13706323122E+02 -0.23967640154E+02  0.17599631888E+02  0.32742298494E+02  0.00000000000E+00 0.  1.
</event>
<event>
 5    1  0.1267616E-004  0.9118800E+02  0.7818608E-02  0.1130116E+00
         25   -1    0    0    0    0  0.00000000000E+00  0.00000000000E+00  0.99999998245E-14  0.12500000000E+03  0.12500000000E+03 0.  0.
        -13    1    3    3    0    0  0.54508626207E+02  0.10729705137E+02  0.90827424668E+01  0.56292311003E+02  0.10566000000E+00 0. -1.
         23    2    1    0    0    0  0.23411046942E+02  0.23784310041E+02 -0.13610591022E+01  0.91599056826E+02  0.85292228288E+02 0.  0.
         13    1    3    3    0    0 -0.31097579265E+02  0.13054604904E+02 -0.10443801569E+02  0.35306745823E+02  0.10566000000E+00 0.  1.
         22    1    1    0    0    0 -0.23411046942E+02 -0.23784310041E+02  0.13610591022E+01  0.33400943174E+02  0.00000000000E+00 0. -1.
</event>
<event>
 5    1  0.1267616E-004  0.9118800E+02  0.7818608E-02  0.1130116E+00
         25   -1    0    0    0    0  0.00000000000E+00  0.00000000000E+00  0.99999998245E-14  0.12500000000E+03  0.12500000000E+03 0.  0.
        -13    1    3    3    0    0  0.65353138183E+01 -0.42277767683E+02 -0.28719910813E+02  0.51526346738E+02  0.10566000000E+00 0. -1.
         23    2    1    0    0    0 -0.20199039320E+01  0.22262677011E+01 -0.27987766332E+02  0.96851263900E+02  0.92670469811E+02 0.  0.
         13    1    3    3    0    0 -0.85552177503E+01  0.44504035384E+02  0.73214448139E+00  0.45324917163E+02  0.10566000000E+00 0.  1.
         22    1    1    0    0    0  0.20199039320E+01 -0.22262677011E+01  0.27987766332E+02  0.28148736100E+02  0.00000000000E+00 0. -1.
</event>
<event>
 5    1  0.1267616E-004  0.9118800E+02  0.7818608E-02  0.1130116E+00
         25   -1    0    0    0    0  0.00000000000E+00  0.00000000000E+00  0.99999998245E-14  0.12500000000E+03  0.12500000000E+03 0.  0.
        -13    1    3    3    0    0  0.58248958094E+02 -0.43493264315E+01 -0.51642476193E+01  0.58639051637E+02  0.10566000000E+00 0.  1.
         23    2    1    0    0    0  0.26460023305E+02  0.34221746337E+01  0.12173743169E+02  0.95673490913E+02  0.91067956649E+02 0.  0.
         13    1    3    3    0    0 -0.31788934789E+02  0.77715010652E+01  0.17337990788E+02  0.37034439275E+02  0.10566000000E+00 0. -1.
         22    1    1    0    0    0 -0.26460023305E+02 -0.34221746337E+01 -0.12173743169E+02  0.29326509087E+02  0.00000000000E+00 0.  1.
</event>
<event>
 5    1  0.1267616E-004  0.9118800E+02  0.7818608E-02  0.1130116E+00
         25   -1    0    0    0    0  0.00000000000E+00  0.00000000000E+00  0.99999998245E-14  0.12500000000E+03  0.12500000000E+03 0.  0.
        -13    1    3    3    0    0  0.16159433273E+02 -0.19561271015E+02 -0.52144005973E+02  0.57989474307E+02  0.10566000000E+00 0. -1.
         23    2    1    0    0    0 -0.52775744395E+01 -0.19670407251E+02 -0.21524734324E+02  0.95367384505E+02  0.90646820828E+02 0.  0.
         13    1    3    3    0    0 -0.21437007713E+02 -0.10913623614E+00  0.30619271649E+02  0.37377910198E+02  0.10566000000E+00 0.  1.
         22    1    1    0    0    0  0.52775744395E+01  0.19670407251E+02  0.21524734324E+02  0.29632615495E+02  0.00000000000E+00 0. -1.
</event>
<event>
 5    1  0.1267616E-004  0.9118800E+02  0.7818608E-02  0.1130116E+00
         25   -1    0    0    0    0  0.00000000000E+00  0.00000000000E+00  0.99999998245E-14  0.12500000000E+03  0.12500000000E+03 0.  0.
        -13    1    3    3    0    0  0.42447106168E+02  0.64977991626E+01  0.47623411882E+01  0.43204968159E+02  0.10566000000E+00 0.  1.
         23    2    1    0    0    0  0.47100482696E+01 -0.29096268849E+02 -0.16715381617E+01  0.95477610946E+02  0.90798693473E+02 0.  0.
         13    1    3    3    0    0 -0.37737057898E+02 -0.35594068012E+02 -0.64338793499E+01  0.52272642787E+02  0.10566000000E+00 0. -1.
         22    1    1    0    0    0 -0.47100482696E+01  0.29096268849E+02  0.16715381617E+01  0.29522389054E+02  0.00000000000E+00 0. -1.
</event>
<event>
 5    1  0.1267616E-004  0.9118800E+02  0.7818608E-02  0.1130116E+00
         25   -1    0    0    0    0  0.00000000000E+00  0.00000000000E+00  0.99999998245E-14  0.12500000000E+03  0.12500000000E+03 0.  0.
        -13    1    3    3    0    0 -0.19175237185E+02 -0.39434297555E+02  0.17283167451E+02  0.47132500315E+02  0.10566000000E+00 0. -1.
         23    2    1    0    0    0 -0.10791771520E+02 -0.18174853847E+02 -0.23196421560E+02  0.93617495032E+02  0.88200758262E+02 0.  0.
         13    1    3    3    0    0  0.83834656650E+01  0.21259443708E+02 -0.40479589011E+02  0.46484994717E+02  0.10566000000E+00 0.  1.
         22    1    1    0    0    0  0.10791771520E+02  0.18174853847E+02  0.23196421560E+02  0.31382504968E+02  0.00000000000E+00 0.  1.
</event>
<event>
 5    1  0.1267616E-004  0.9118800E+02  0.7818608E-02  0.1130116E+00
         25   -1    0    0    0    0  0.00000000000E+00  0.00000000000E+00  0.99999998245E-14  0.12500000000E+03  0.12500000000E+03 0.  0.
        -13    1    3    3    0    0  0.22568463475E+02  0.42236636501E+02 -0.16646779411E+02  0.50699067401E+02  0.10566000000E+00 0. -1.
         23    2    1    0    0    0 -0.58138875585E+01  0.68675265711E+01 -0.26420363608E+02  0.97089431698E+02  0.92991171218E+02 0.  0.
         13    1    3    3    0    0 -0.28382351034E+02 -0.35369109930E+02 -0.97735841972E+01  0.46390364296E+02  0.10566000000E+00 0.  1.
         22    1    1    0    0    0  0.58138875585E+01 -0.68675265711E+01  0.26420363608E+02  0.27910568302E+02  0.00000000000E+00 0. -1.
</event>
<event>
 5    1  0.1267616E-004  0.9118800E+02  0.7818608E-02  0.1130116E+00
         25   -1    0    0    0    0  0.00000000000E+00  0.00000000000E+00  0.99999998245E-14  0.12500000000E+03  0.12500000000E+03 0.  0.
        -13    1    3    3    0    0 -0.19224604903E+02 -0.32712139939E+02 -0.29397987733E+02  0.47999191450E+02  0.10566000000E+00 0.  1.
         23    2    1    0    0    0  0.21267115204E+02 -0.17068670429E+02 -0.69969088729E+01  0.96847088373E+02  0.92664837415E+02 0.  0.
         13    1    3    3    0    0  0.40491720107E+02  0.15643469511E+02  0.22401078860E+02  0.48847896922E+02  0.10566000000E+00 0. -1.
         22    1    1    0    0    0 -0.21267115204E+02  0.17068670429E+02  0.69969088729E+01  0.28152911627E+02  0.00000000000E+00 0.  1.
</event>
<event>
 5    1  0.1267616E-004  0.9118800E+02  0.7818608E-02  0.1130116E+00
         25   -1    0    0    0    0  0.00000000000E+00  0.00000000000E+00  0.99999998245E-14  0.12500000000E+03  0.12500000000E+03 0.  0.
        -13    1    3    3    0    0  0.58464300569E+01 -0.38576211677E+02  0.14631699366E+02  0.41670164892E+02  0.10566000000E+00 0.  1.
         23    2    1    0    0    0  0.26331281372E+02  0.10649043565E+02  0.16300129174E+01  0.96550123908E+02  0.92263378309E+02 0.  0.
         13    1    3    3    0    0  0.20484851315E+02  0.49225255242E+02 -0.13001686448E+02  0.54879959016E+02  0.10566000000E+00 0. -1.
         22    1    1    0    0    0 -0.26331281372E+02 -0.10649043565E+02 -0.16300129174E+01  0.28449876092E+02  0.00000000000E+00 0. -1.
</event>
<event>
 5    1  0.1267616E-004  0.9118800E+02  0.7818608E-02  0.1130116E+00
         25   -1    0    0    0    0  0.00000000000E+00  0.00000000000E+00  0.99999998245E-14  0.12500000000E+03  0.12500000000E+03 0.  0.
        -13    1    3    3    0    0 -0.36751449057E+02  0.27469481504E+02 -0.32296861836E+00  0.45884168235E+02  0.10566000000E+00 0. -1.
         23    2    1    0    0    0 -0.25391219034E+01 -0.53434124035E+01 -0.24987837377E+02  0.99321386078E+02  0.95944497078E+02 0.  0.
         13    1    3    3    0    0  0.34212327153E+02 -0.32812893908E+02 -0.24664868759E+02  0.53437217843E+02  0.10566000000E+00 0.  1.
         22    1    1    0    0    0  0.25391219034E+01  0.53434124035E+01  0.24987837377E+02  0.25678613922E+02  0.00000000000E+00 0. -1.
</event>
<event>
 5    1  0.1267616E-004  0.9118800E+02  0.7818608E-02  0.1130116E+00
         25   -1    0    0    0    0  0.00000000000E+00  0.00000000000E+00  0.99999998245E-14  0.12500000000E+03  0.12500000000E+03 0.  0.
        -13    1    3    3    0    0  0.43062428309E+02  0.15458652724E+02 -0.84304213769E+01  0.46523390295E+02  0.10566000000E+00 0.  1.
         23    2    1    0    0    0  0.14495304957E+02 -0.24738447483E+02 -0.19540081952E+01  0.96261127411E+02  0.91871006595E+02 0.  0.
         13    1    3    3    0    0 -0.28567123352E+02 -0.40197100207E+02  0.64764131818E+01  0.49737737116E+02  0.10566000000E+00 0. -1.
         22    1    1    0    0    0 -0.14495304957E+02  0.24738447483E+02  0.19540081952E+01  0.28738872589E+02  0.00000000000E+00 0. -1.
</event>
<event>
 5    1  0.1267616E-004  0.9118800E+02  0.7818608E-02  0.1130116E+00
         25   -1    0    0    0    0  0.00000000000E+00  0.00000000000E+00  0.99999998245E-14  0.12500000000E+03  0.12500000000E+03 0.  0.
        -13    1    3    3    0    0 -0.25035883426E+02  0.30711271692E+02 -0.18740151360E+02  0.43831291390E+02  0.10566000000E+00 0.  1.
         23    2    1    0    0    0 -0.12450818548E+02 -0.18142943191E+02 -0.21339785081E+02  0.94347500959E+02  0.89229340689E+02 0.  0.
         13    1    3    3    0    0  0.12585064878E+02 -0.48854214883E+02 -0.25996337203E+01  0.50516209570E+02  0.10566000000E+00 0. -1.
         22    1    1    0    0    0  0.12450818548E+02  0.18142943191E+02  0.21339785081E+02  0.30652499041E+02  0.00000000000E+00 0. -1.
</event>
<event>
 5    1  0.1267616E-004  0.9118800E+02  0.7818608E-02  0.1130116E+00
         25   -1    0    0    0    0  0.00000000000E+00  0.00000000000E+00  0.99999998245E-14  0.12500000000E+03  0.12500000000E+03 0.  0.
        -13    1    3    3    0    0  0.35977829885E+02 -0.35880223496E+02 -0.15322389934E+01  0.50834570931E+02  0.10566000000E+00 0.  1.
         23    2    1    0    0    0  0.33642660357E+01 -0.18407418652E+02  0.23091313690E+02  0.95278625279E+02  0.90524341035E+02 0.  0.
         13    1    3    3    0    0 -0.32613563850E+02  0.17472804845E+02  0.24623552683E+02  0.44444054348E+02  0.10566000000E+00 0. -1.
         22    1    1    0    0    0 -0.33642660357E+01  0.18407418652E+02 -0.23091313690E+02  0.29721374721E+02  0.00000000000E+00 0.  1.
</event>
<event>
 5    1  0.1267616E-004  0.9118800E+02  0.7818608E-02  0.1130116E+00
         25   -1    0    0    0    0  0.00000000000E+00  0.00000000000E+00  0.99999998245E-14  0.12500000000E+03  0.12500000000E+03 0.  0.
        -13    1    3    3    0    0  0.14539299009E+02  0.43938901682E+02 -0.16275508588E+02  0.49060387693E+02  0.10566000000E+00 0.  1.
         23    2    1    0    0    0  0.11331748708E+02 -0.28192633789E+00 -0.27890830481E+02  0.94893747557E+02  0.89991315632E+02 0.  0.
         13    1    3    3    0    0 -0.32075503007E+01 -0.44220828020E+02 -0.11615321893E+02  0.45833359864E+02  0.10566000000E+00 0. -1.
         22    1    1    0    0    0 -0.11331748708E+02  0.28192633789E+00  0.27890830481E+02  0.30106252443E+02  0.00000000000E+00 0. -1.
</event>
<event>
 5    1  0.1267616E-004  0.9118800E+02  0.7818608E-02  0.1130116E+00
         25   -1    0    0    0    0  0.00000000000E+00  0.00000000000E+00  0.99999998245E-14  0.12500000000E+03  0.12500000000E+03 0.  0.
        -13    1    3    3    0    0  0.39247507179E+02 -0.22662515052E+02  0.35392530759E+02  0.57503033014E+02  0.10566000000E+00 0.  1.
         23    2    1    0    0    0  0.27577359703E+02 -0.60736924229E+01  0.18499822500E+01  0.96701184792E+02  0.92467811686E+02 0.  0.
         13    1    3    3    0    0 -0.11670147475E+02  0.16588822629E+02 -0.33542548509E+02  0.39198151778E+02  0.10566000000E+00 0. -1.
         22    1    1    0    0    0 -0.27577359703E+02  0.60736924229E+01 -0.18499822500E+01  0.28298815208E+02  0.00000000000E+00 0.  1.
</event>
<event>
 5    1  0.1267616E-004  0.9118800E+02  0.7818608E-02  0.1130116E+00
         25   -1    0    0    0    0  0.00000000000E+00  0.00000000000E+00  0.99999998245E-14  0.12500000000E+03  0.12500000000E+03 0.  0.
        -13    1    3    3    0    0  0.30122881522E+02  0.44689160039E+02 -0.28996689494E+02  0.61199086446E+02  0.10566000000E+00 0.  1.
         23    2    1    0    0    0  0.17015713947E+02  0.14342204065E+02 -0.19011776873E+02  0.95730886613E+02  0.91146704017E+02 0.  0.
         13    1    3    3    0    0 -0.13107167575E+02 -0.30346955973E+02  0.99849126212E+01  0.34531800167E+02  0.10566000000E+00 0. -1.
         22    1    1    0    0    0 -0.17015713947E+02 -0.14342204065E+02  0.19011776873E+02  0.29269113387E+02  0.00000000000E+00 0.  1.
</event>
<event>
 5    1  0.1267616E-004  0.9118800E+02  0.7818608E-02  0.1130116E+00
         25   -1    0    0    0    0  0.00000000000E+00  0.00000000000E+00  0.99999998245E-14  0.12500000000E+03  0.12500000000E+03 0.  0.
        -13    1    3    3    0    0  0.57244017235E+01  0.38460646894E+02 -0.13726451736E+02  0.41236110096E+02  0.10566000000E+00 0.  1.
         23    2    1    0    0    0 -0.28915850562E+02 -0.19553289575E+01 -0.88906411484E+01  0.94685098960E+02  0.89701029760E+02 0.  0.
         13    1    3    3    0    0 -0.34640252286E+02 -0.40415975851E+02  0.48358105878E+01  0.53448988863E+02  0.10566000000E+00 0. -1.
         22    1    1    0    0    0  0.28915850562E+02  0.19553289575E+01  0.88906411484E+01  0.30314901040E+02  0.00000000000E+00 0. -1.
</event>
<event>
 5    1  0.1267616E-004  0.9118800E+02  0.7818608E-02  0.1130116E+00
         25   -1    0    0    0    0  0.00000000000E+00  0.00000000000E+00  0.99999998245E-14  0.12500000000E+03  0.12500000000E+03 0.  0.
        -13    1    3    3    0    0  0.23391973054E+01 -0.12144907364E+02  0.54320433739E+02  0.55710782659E+02  0.10566000000E+00 0. -1.
         23    2    1    0    0    0  0.72300217119E+01  0.13745372415E+02  0.28164339833E+02  0.92837311757E+02  0.87088047051E+02 0.  0.
         13    1    3    3    0    0  0.48908244065E+01  0.25890279779E+02 -0.26156093906E+02  0.37126529097E+02  0.10566000000E+00 0.  1.
         22    1    1    0    0    0 -0.72300217119E+01 -0.13745372415E+02 -0.28164339833E+02  0.32162688243E+02  0.00000000000E+00 0. -1.
</event>
<event>
 5    1  0.1267616E-004  0.9118800E+02  0.7818608E-02  0.1130116E+00
         25   -1    0    0    0    0  0.00000000000E+00  0.00000000000E+00  0.99999998245E-14  0.12500000000E+03  0.12500000000E+03 0.  0.
        -13    1    3    3    0    0 -0.19953716891E+02 -0.16442976734E+02 -0.27908328600E+02  0.38044819239E+02  0.10566000000E+00 0.  1.
         23    2    1    0    0    0 -0.11891023520E+02  0.24478636430E+02  0.11527727142E+02  0.95445159874E+02  0.90754008002E+02 0.  0.
         13    1    3    3    0    0  0.80626933706E+01  0.40921613164E+02  0.39436055743E+02  0.57400340634E+02  0.10566000000E+00 0. -1.
         22    1    1    0    0    0  0.11891023520E+02 -0.24478636430E+02 -0.11527727142E+02  0.29554840126E+02  0.00000000000E+00 0. -1.
</event>
<event>
 5    1  0.1267616E-004  0.9118800E+02  0.7818608E-02  0.1130116E+00
         25   -1    0    0    0    0  0.00000000000E+00  0.00000000000E+00  0.99999998245E-14  0.12500000000E+03  0.12500000000E+03 0.  0.
        -13    1    3    3    0    0  0.37478925124E+02 -0.33716882507E+02  0.35551058804E+02  0.61687818413E+02  0.10566000000E+00 0. -1.
         23    2    1    0    0    0  0.20026278177E+02 -0.18280422695E+02  0.10437347471E+02  0.95945501316E+02  0.91440556260E+02 0.  0.
         13    1    3    3    0    0 -0.17452646947E+02  0.15436459811E+02 -0.25113711333E+02  0.34257682904E+02  0.10566000000E+00 0.  1.
         22    1    1    0    0    0 -0.20026278177E+02  0.18280422695E+02 -0.10437347471E+02  0.29054498684E+02  0.00000000000E+00 0. -1.
</event>
<event>
 5    1  0.1267616E-004  0.9118800E+02  0.7818608E-02  0.1130116E+00
         25   -1    0    0    0    0  0.00000000000E+00  0.00000000000E+00  0.99999998245E-14  0.12500000000E+03  0.12500000000E+03 0.  0.
        -13    1    3    3    0    0  0.34091223230E+01  0.22504890973E+02 -0.29917505367E+02  0.37592027401E+02  0.10566000000E+00 0.  1.
         23    2    1    0    0    0 -0.21671599509E+02 -0.21144337370E+02 -0.19457733341E+02  0.89009103723E+02  0.81408082711E+02 0.  0.
         13    1    3    3    0    0 -0.25080721832E+02 -0.43649228343E+02  0.10459772026E+02  0.51417076321E+02  0.10566000000E+00 0. -1.
         22    1    1    0    0    0  0.21671599509E+02  0.21144337370E+02  0.19457733341E+02  0.35990896277E+02  0.00000000000E+00 0. -1.
</event>
<event>
 5    1  0.1267616E-004  0.9118800E+02  0.7818608E-02  0.1130116E+00
         25   -1    0    0    0    0  0.00000000000E+00  0.00000000000E+00  0.99999998245E-14  0.12500000000E+03  0.12500000000E+03 0.  0.
        -13    1    3    3    0    0  0.11627452596E+02  0.42077979016E+02  0.24295961098E+02  0.49960573072E+02  0.10566000000E+00 0.  1.
         23    2    1    0    0    0 -0.20558739457E+02  0.14213942761E+02  0.20450346930E+02  0.92705811259E+02  0.86899095593E+02 0.  0.
         13    1    3    3    0    0 -0.32186192053E+02 -0.27864036255E+02 -0.38456141687E+01  0.42745238187E+02  0.10566000000E+00 0. -1.
         22    1    1    0    0    0  0.20558739457E+02 -0.14213942761E+02 -0.20450346930E+02  0.32294188741E+02  0.00000000000E+00 0. -1.
</event>
<event>
 5    1  0.1267616E-004  0.9118800E+02  0.7818608E-02  0.1130116E+00
         25   -1    0    0    0    0  0.00000000000E+00  0.00000000000E+00  0.99999998245E-14  0.12500000000E+03  0.12500000000E+03 0.  0.
        -13    1    3    3    0    0  0.36393812206E+02  0.29228143765E+02  0.32977146972E+02  0.57151529649E+02  0.10566000000E+00 0. -1.
         23    2    1    0    0    0  0.54183100842E+01  0.65974285323E+01  0.27869705000E+02  0.95852022297E+02  0.91312680248E+02 0.  0.
         13    1    3    3    0    0 -0.30975502122E+02 -0.22630715233E+02 -0.51074419715E+01  0.38700492647E+02  0.10566000000E+00 0.  1.
         22    1    1    0    0    0 -0.54183100842E+01 -0.65974285323E+01 -0.27869705000E+02  0.29147977703E+02  0.00000000000E+00 0.  1.
</event>
<event>
 5    1  0.1267616E-004  0.9118800E+02  0.7818608E-02  0.1130116E+00
         25   -1    0    0    0    0  0.00000000000E+00  0.00000000000E+00  0.99999998245E-14  0.12500000000E+03  0.12500000000E+03 0.  0.
        -13    1    3    3    0    0 -0.15675213514E+02 -0.30590473944E+02  0.22769084135E+02  0.41230228852E+02  0.10566000000E+00 0.  1.
         23    2    1    0    0    0 -0.25854695007E+02 -0.15979603903E+02 -0.20714023710E+02  0.88218431612E+02  0.80184835867E+02 0.  0.
         13    1    3    3    0    0 -0.10179481493E+02  0.14610870040E+02 -0.43483107845E+02  0.46988202761E+02  0.10566000000E+00 0. -1.
         22    1    1    0    0    0  0.25854695007E+02  0.15979603903E+02  0.20714023710E+02  0.36781568388E+02  0.00000000000E+00 0. -1.
</event>
<event>
 5    1  0.1267616E-004  0.9118800E+02  0.7818608E-02  0.1130116E+00
         25   -1    0    0    0    0  0.00000000000E+00  0.00000000000E+00  0.99999998245E-14  0.12500000000E+03  0.12500000000E+03 0.  0.
        -13    1    3    3    0    0  0.40867172951E+02  0.37732914157E+00 -0.75021317036E+01  0.41551911466E+02  0.10566000000E+00 0. -1.
         23    2    1    0    0    0 -0.53536828606E+01 -0.27441711319E+02 -0.93169588747E+01  0.95529418687E+02  0.90869987739E+02 0.  0.
         13    1    3    3    0    0 -0.46220855812E+02 -0.27819040460E+02 -0.18148271711E+01  0.53977507221E+02  0.10566000000E+00 0.  1.
         22    1    1    0    0    0  0.53536828606E+01  0.27441711319E+02  0.93169588747E+01  0.29470581313E+02  0.00000000000E+00 0.  1.
</event>
<event>
 5    1  0.1267616E-004  0.9118800E+02  0.7818608E-02  0.1130116E+00
         25   -1    0    0    0    0  0.00000000000E+00  0.00000000000E+00  0.99999998245E-14  0.12500000000E+03  0.12500000000E+03 0.  0.
        -13    1    3    3    0    0  0.60368644060E+01  0.27528637207E+02  0.19458880664E+02  0.34248048106E+02  0.10566000000E+00 0.  1.
         23    2    1    0    0    0 -0.14499537729E+02 -0.24510445765E+02 -0.62925576157E+01  0.95835041106E+02  0.91289431351E+02 0.  0.
         13    1    3    3    0    0 -0.20536402135E+02 -0.52039082972E+02 -0.25751438280E+02  0.61586993000E+02  0.10566000000E+00 0. -1.
         22    1    1    0    0    0  0.14499537729E+02  0.24510445765E+02  0.62925576157E+01  0.29164958894E+02  0.00000000000E+00 0. -1.
</event>
<event>
 5    1  0.1267616E-004  0.9118800E+02  0.7818608E-02  0.1130116E+00
         25   -1    0    0    0    0  0.00000000000E+00  0.00000000000E+00  0.99999998245E-14  0.12500000000E+03  0.12500000000E+03 0.  0.
        -13    1    3    3    0    0  0.24941599698E+02 -0.25270547109E+02  0.93895927787E+01  0.36726823485E+02  0.10566000000E+00 0.  1.
         23    2    1    0    0    0  0.10510405293E+02  0.26650663437E+02 -0.10954664698E+02  0.94328658984E+02  0.89202941353E+02 0.  0.
         13    1    3    3    0    0 -0.14431194405E+02  0.51921210546E+02 -0.20344257477E+02  0.57601835499E+02  0.10566000000E+00 0. -1.
         22    1    1    0    0    0 -0.10510405293E+02 -0.26650663437E+02  0.10954664698E+02  0.30671341016E+02  0.00000000000E+00 0. -1.
</event>
<event>
 5    1  0.1267616E-004  0.9118800E+02  0.7818608E-02  0.1130116E+00
         25   -1    0    0    0    0  0.00000000000E+00  0.00000000000E+00  0.99999998245E-14  0.12500000000E+03  0.12500000000E+03 0.  0.
        -13    1    3    3    0    0  0.37341198729E+02  0.37427505078E+02  0.13298859841E+02  0.54516548827E+02  0.10566000000E+00 0.  1.
         23    2    1    0    0    0  0.87830463623E+00  0.19623040590E+02  0.21460821337E+02  0.95907011265E+02  0.91387924893E+02 0.  0.
         13    1    3    3    0    0 -0.36462894093E+02 -0.17804464488E+02  0.81619614961E+01  0.41390462438E+02  0.10566000000E+00 0. -1.
         22    1    1    0    0    0 -0.87830463623E+00 -0.19623040590E+02 -0.21460821337E+02  0.29092988735E+02  0.00000000000E+00 0.  1.
</event>
<event>
 5    1  0.1267616E-004  0.9118800E+02  0.7818608E-02  0.1130116E+00
         25   -1    0    0    0    0  0.00000000000E+00  0.00000000000E+00  0.99999998245E-14  0.12500000000E+03  0.12500000000E+03 0.  0.
        -13    1    3    3    0    0  0.32294931554E+02  0.16984950588E+01 -0.17859620720E+02  0.36943534020E+02  0.10566000000E+00 0. -1.
         23    2    1    0    0    0 -0.89320898141E+01  0.17418515073E+02  0.21395483226E+02  0.96000800041E+02  0.91516118855E+02 0.  0.
         13    1    3    3    0    0 -0.41227021368E+02  0.15720020014E+02  0.39255103946E+02  0.59057266022E+02  0.10566000000E+00 0.  1.
         22    1    1    0    0    0  0.89320898141E+01 -0.17418515073E+02 -0.21395483226E+02  0.28999199959E+02  0.00000000000E+00 0.  1.
</event>
<event>
 5    1  0.1267616E-004  0.9118800E+02  0.7818608E-02  0.1130116E+00
         25   -1    0    0    0    0  0.00000000000E+00  0.00000000000E+00  0.99999998245E-14  0.12500000000E+03  0.12500000000E+03 0.  0.
        -13    1    3    3    0    0  0.27693465170E+02 -0.11823266803E+02 -0.54396949850E+02  0.62175211845E+02  0.10566000000E+00 0.  1.
         23    2    1    0    0    0  0.16241694537E+02 -0.69211399592E+01 -0.22626681636E+02  0.96300495795E+02  0.91924555744E+02 0.  0.
         13    1    3    3    0    0 -0.11451770633E+02  0.49021268440E+01  0.31770268214E+02  0.34125283950E+02  0.10566000000E+00 0. -1.
         22    1    1    0    0    0 -0.16241694537E+02  0.69211399592E+01  0.22626681636E+02  0.28699504205E+02  0.00000000000E+00 0.  1.
</event>
<event>
 5    1  0.1267616E-004  0.9118800E+02  0.7818608E-02  0.1130116E+00
         25   -1    0    0    0    0  0.00000000000E+00  0.00000000000E+00  0.99999998245E-14  0.12500000000E+03  0.12500000000E+03 0.  0.
        -13    1    3    3    0    0 -0.44295816844E+02 -0.10790499599E+02 -0.11556356832E+02  0.47033124697E+02  0.10566000000E+00 0.  1.
         23    2    1    0    0    0 -0.20724162513E+02  0.26082416724E+02 -0.60497099037E+01  0.91141731232E+02  0.84619340626E+02 0.  0.
         13    1    3    3    0    0  0.23571654331E+02  0.36872916323E+02  0.55066469284E+01  0.44108606536E+02  0.10566000000E+00 0. -1.
         22    1    1    0    0    0  0.20724162513E+02 -0.26082416724E+02  0.60497099037E+01  0.33858268768E+02  0.00000000000E+00 0. -1.
</event>
<event>
 5    1  0.1267616E-004  0.9118800E+02  0.7818608E-02  0.1130116E+00
         25   -1    0    0    0    0  0.00000000000E+00  0.00000000000E+00  0.99999998245E-14  0.12500000000E+03  0.12500000000E+03 0.  0.
        -13    1    3    3    0    0  0.47582077251E+02  0.21235788430E+02  0.32074903492E+02  0.61186790926E+02  0.10566000000E+00 0. -1.
         23    2    1    0    0    0  0.16058976847E+02  0.16059535509E+02  0.17643952318E+02  0.96240506410E+02  0.91842945306E+02 0.  0.
         13    1    3    3    0    0 -0.31523100404E+02 -0.51762529209E+01 -0.14430951174E+02  0.35053715484E+02  0.10566000000E+00 0.  1.
         22    1    1    0    0    0 -0.16058976847E+02 -0.16059535509E+02 -0.17643952318E+02  0.28759493590E+02  0.00000000000E+00 0. -1.
</event>
<event>
 5    1  0.1267616E-004  0.9118800E+02  0.7818608E-02  0.1130116E+00
         25   -1    0    0    0    0  0.00000000000E+00  0.00000000000E+00  0.99999998245E-14  0.12500000000E+03  0.12500000000E+03 0.  0.
        -13    1    3    3    0    0 -0.16042732117E+02 -0.34983322988E+02  0.48424643820E+02  0.61855957144E+02  0.10566000000E+00 0.  1.
         23    2    1    0    0    0 -0.54987961478E+01 -0.19701655396E+02  0.16788494586E+02  0.98537847123E+02  0.94918184669E+02 0.  0.
         13    1    3    3    0    0  0.10543935969E+02  0.15281667592E+02 -0.31636149233E+02  0.36681889980E+02  0.10566000000E+00 0. -1.
         22    1    1    0    0    0  0.54987961478E+01  0.19701655396E+02 -0.16788494586E+02  0.26462152877E+02  0.00000000000E+00 0.  1.
</event>
<event>
 5    1  0.1267616E-004  0.9118800E+02  0.7818608E-02  0.1130116E+00
         25   -1    0    0    0    0  0.00000000000E+00  0.00000000000E+00  0.99999998245E-14  0.12500000000E+03  0.12500000000E+03 0.  0.
        -13    1    3    3    0    0  0.39597045740E+02  0.27833763515E+02  0.90510423541E+01  0.49239993446E+02  0.10566000000E+00 0. -1.
         23    2    1    0    0    0 -0.74109990592E+01  0.24974124351E+02  0.11770987763E+02  0.96413535597E+02  0.92078140181E+02 0.  0.
         13    1    3    3    0    0 -0.47008044800E+02 -0.28596391640E+01  0.27199454086E+01  0.47173542151E+02  0.10566000000E+00 0.  1.
         22    1    1    0    0    0  0.74109990592E+01 -0.24974124351E+02 -0.11770987763E+02  0.28586464403E+02  0.00000000000E+00 0.  1.
</event>
<event>
 5    1  0.1267616E-004  0.9118800E+02  0.7818608E-02  0.1130116E+00
         25   -1    0    0    0    0  0.00000000000E+00  0.00000000000E+00  0.99999998245E-14  0.12500000000E+03  0.12500000000E+03 0.  0.
        -13    1    3    3    0    0 -0.45831965591E+02 -0.18958605042E+02 -0.22763399951E+02  0.54572715861E+02  0.10566000000E+00 0. -1.
         23    2    1    0    0    0 -0.23835510381E+02 -0.11864425055E+02  0.11577292269E+02  0.95966746078E+02  0.91469593415E+02 0.  0.
         13    1    3    3    0    0  0.21996455210E+02  0.70941799868E+01  0.34340692219E+02  0.41394030217E+02  0.10566000000E+00 0.  1.
         22    1    1    0    0    0  0.23835510381E+02  0.11864425055E+02 -0.11577292269E+02  0.29033253922E+02  0.00000000000E+00 0. -1.
</event>
<event>
 5    1  0.1267616E-004  0.9118800E+02  0.7818608E-02  0.1130116E+00
         25   -1    0    0    0    0  0.00000000000E+00  0.00000000000E+00  0.99999998245E-14  0.12500000000E+03  0.12500000000E+03 0.  0.
        -13    1    3    3    0    0 -0.61224774624E+01  0.53836639477E+02 -0.19035268015E+02  0.57430140805E+02  0.10566000000E+00 0. -1.
         23    2    1    0    0    0 -0.18031205842E+02  0.22743918599E+02  0.38073234905E+00  0.95973199031E+02  0.91478411430E+02 0.  0.
         13    1    3    3    0    0 -0.11908728380E+02 -0.31092720878E+02  0.19416000364E+02  0.38543058226E+02  0.10566000000E+00 0.  1.
         22    1    1    0    0    0  0.18031205842E+02 -0.22743918599E+02 -0.38073234905E+00  0.29026800969E+02  0.00000000000E+00 0. -1.
</event>
<event>
 5    1  0.1267616E-004  0.9118800E+02  0.7818608E-02  0.1130116E+00
         25   -1    0    0    0    0  0.00000000000E+00  0.00000000000E+00  0.99999998245E-14  0.12500000000E+03  0.12500000000E+03 0.  0.
        -13    1    3    3    0    0  0.16412885332E+01  0.30521136847E+02 -0.21936102945E+02  0.37622299225E+02  0.10566000000E+00 0. -1.
         23    2    1    0    0    0  0.21925793862E+02 -0.10102996222E+02  0.15363069795E+02  0.96384708936E+02  0.92038998441E+02 0.  0.
         13    1    3    3    0    0  0.20284505329E+02 -0.40624133068E+02  0.37299172740E+02  0.58762409712E+02  0.10566000000E+00 0.  1.
         22    1    1    0    0    0 -0.21925793862E+02  0.10102996222E+02 -0.15363069795E+02  0.28615291064E+02  0.00000000000E+00 0.  1.
</event>
<event>
 5    1  0.1267616E-004  0.9118800E+02  0.7818608E-02  0.1130116E+00
         25   -1    0    0    0    0  0.00000000000E+00  0.00000000000E+00  0.99999998245E-14  0.12500000000E+03  0.12500000000E+03 0.  0.
        -13    1    3    3    0    0  0.21703436383E+02  0.34299958330E+02 -0.45867526098E+02  0.61248407380E+02  0.10566000000E+00 0. -1.
         23    2    1    0    0    0  0.81799741677E+01  0.21935075977E+02 -0.14842982356E+02  0.97280446238E+02  0.93247582058E+02 0.  0.
         13    1    3    3    0    0 -0.13523462215E+02 -0.12364882352E+02  0.31024543742E+02  0.36032038858E+02  0.10566000000E+00 0.  1.
         22    1    1    0    0    0 -0.81799741677E+01 -0.21935075977E+02  0.14842982356E+02  0.27719553762E+02  0.00000000000E+00 0. -1.
</event>
<event>
 5    1  0.1267616E-004  0.9118800E+02  0.7818608E-02  0.1130116E+00
         25   -1    0    0    0    0  0.00000000000E+00  0.00000000000E+00  0.99999998245E-14  0.12500000000E+03  0.12500000000E+03 0.  0.
        -13    1    3    3    0    0  0.28071975734E+02  0.31732746907E+02 -0.38351547873E+02  0.57147663436E+02  0.10566000000E+00 0. -1.
         23    2    1    0    0    0  0.25991419841E+02  0.10036443017E+02 -0.54558783656E+01  0.96608967921E+02  0.92343066769E+02 0.  0.
         13    1    3    3    0    0 -0.20805558933E+01 -0.21696303890E+02  0.32895669508E+02  0.39461304485E+02  0.10566000000E+00 0.  1.
         22    1    1    0    0    0 -0.25991419841E+02 -0.10036443017E+02  0.54558783656E+01  0.28391032079E+02  0.00000000000E+00 0. -1.
</event>
<event>
 5    1  0.1267616E-004  0.9118800E+02  0.7818608E-02  0.1130116E+00
         25   -1    0    0    0    0  0.00000000000E+00  0.00000000000E+00  0.99999998245E-14  0.12500000000E+03  0.12500000000E+03 0.  0.
        -13    1    3    3    0    0 -0.34892740965E+02  0.11269777215E+02 -0.12211007954E+02  0.38647524239E+02  0.10566000000E+00 0.  1.
         23    2    1    0    0    0  0.71478829471E+01  0.62849909900E+01  0.27012152361E+02  0.96359997948E+02  0.92005431834E+02 0.  0.
         13    1    3    3    0    0  0.42040623912E+02 -0.49847862246E+01  0.39223160314E+02  0.57712473710E+02  0.10566000000E+00 0. -1.
         22    1    1    0    0    0 -0.71478829471E+01 -0.62849909900E+01 -0.27012152361E+02  0.28640002052E+02  0.00000000000E+00 0. -1.
</event>
<event>
 5    1  0.1267616E-004  0.9118800E+02  0.7818608E-02  0.1130116E+00
         25   -1    0    0    0    0  0.00000000000E+00  0.00000000000E+00  0.99999998245E-14  0.12500000000E+03  0.12500000000E+03 0.  0.
        -13    1    3    3    0    0  0.18906682418E+02 -0.22919044312E+02  0.50905792718E+02  0.58941972553E+02  0.10566000000E+00 0. -1.
         23    2    1    0    0    0 -0.49048817506E+01  0.17688418979E+01  0.17183810086E+02  0.10704255041E+03  0.10552553057E+03 0.  0.
         13    1    3    3    0    0 -0.23811564169E+02  0.24687886210E+02 -0.33721982631E+02  0.48100577858E+02  0.10566000000E+00 0.  1.
         22    1    1    0    0    0  0.49048817506E+01 -0.17688418979E+01 -0.17183810086E+02  0.17957449589E+02  0.00000000000E+00 0. -1.
</event>
<event>
 5    1  0.1267616E-004  0.9118800E+02  0.7818608E-02  0.1130116E+00
         25   -1    0    0    0    0  0.00000000000E+00  0.00000000000E+00  0.99999998245E-14  0.12500000000E+03  0.12500000000E+03 0.  0.
        -13    1    3    3    0    0  0.38492140890E+02 -0.29569734011E+02 -0.37324000004E+02  0.61229945453E+02  0.10566000000E+00 0. -1.
         23    2    1    0    0    0  0.22682329464E+02 -0.62429002547E+01 -0.16819314025E+02  0.96080262833E+02  0.91624591177E+02 0.  0.
         13    1    3    3    0    0 -0.15809811426E+02  0.23326833756E+02  0.20504685978E+02  0.34850317381E+02  0.10566000000E+00 0.  1.
         22    1    1    0    0    0 -0.22682329464E+02  0.62429002547E+01  0.16819314025E+02  0.28919737167E+02  0.00000000000E+00 0. -1.
</event>
<event>
 5    1  0.1267616E-004  0.9118800E+02  0.7818608E-02  0.1130116E+00
         25   -1    0    0    0    0  0.00000000000E+00  0.00000000000E+00  0.99999998245E-14  0.12500000000E+03  0.12500000000E+03 0.  0.
        -13    1    3    3    0    0 -0.47635822756E+01 -0.10720863338E+02 -0.42887112352E+02  0.44462840628E+02  0.10566000000E+00 0.  1.
         23    2    1    0    0    0 -0.16422963689E+02 -0.22624123241E+02  0.62544267194E+01  0.96352442646E+02  0.91995166512E+02 0.  0.
         13    1    3    3    0    0 -0.11659381413E+02 -0.11903259903E+02  0.49141539071E+02  0.51889602018E+02  0.10566000000E+00 0. -1.
         22    1    1    0    0    0  0.16422963689E+02  0.22624123241E+02 -0.62544267194E+01  0.28647557354E+02  0.00000000000E+00 0. -1.
</event>
<event>
 5    1  0.1267616E-004  0.9118800E+02  0.7818608E-02  0.1130116E+00
         25   -1    0    0    0    0  0.00000000000E+00  0.00000000000E+00  0.99999998245E-14  0.12500000000E+03  0.12500000000E+03 0.  0.
        -13    1    3    3    0    0 -0.26066782145E+02 -0.39048263756E+02  0.33781371490E+02  0.57839746347E+02  0.10566000000E+00 0.  1.
         23    2    1    0    0    0 -0.20025984807E+02 -0.18084127711E+02  0.43837485840E-01  0.98017085698E+02  0.94229886047E+02 0.  0.
         13    1    3    3    0    0  0.60407973385E+01  0.20964136045E+02 -0.33737534004E+02  0.40177339351E+02  0.10566000000E+00 0. -1.
         22    1    1    0    0    0  0.20025984807E+02  0.18084127711E+02 -0.43837485840E-01  0.26982914302E+02  0.00000000000E+00 0.  1.
</event>
<event>
 5    1  0.1267616E-004  0.9118800E+02  0.7818608E-02  0.1130116E+00
         25   -1    0    0    0    0  0.00000000000E+00  0.00000000000E+00  0.99999998245E-14  0.12500000000E+03  0.12500000000E+03 0.  0.
        -13    1    3    3    0    0  0.13879143563E+01 -0.34230278875E+02  0.57940629273E+01  0.34745080621E+02  0.10566000000E+00 0. -1.
         23    2    1    0    0    0 -0.56530443430E+01  0.27430571109E+02  0.18613870821E+01  0.96931193407E+02  0.92778221322E+02 0.  0.
         13    1    3    3    0    0 -0.70409586993E+01  0.61660849984E+02 -0.39326758452E+01  0.62186112786E+02  0.10566000000E+00 0.  1.
         22    1    1    0    0    0  0.56530443430E+01 -0.27430571109E+02 -0.18613870821E+01  0.28068806593E+02  0.00000000000E+00 0.  1.
</event>
<event>
 5    1  0.1267616E-004  0.9118800E+02  0.7818608E-02  0.1130116E+00
         25   -1    0    0    0    0  0.00000000000E+00  0.00000000000E+00  0.99999998245E-14  0.12500000000E+03  0.12500000000E+03 0.  0.
        -13    1    3    3    0    0  0.30041883328E+02 -0.13855418855E+02  0.25583766170E+02  0.41821377799E+02  0.10566000000E+00 0. -1.
         23    2    1    0    0    0  0.17372820253E+02  0.15354946102E+02 -0.17894823142E+02  0.95711538985E+02  0.91120166518E+02 0.  0.
         13    1    3    3    0    0 -0.12669063075E+02  0.29210364957E+02 -0.43478589312E+02  0.53890161186E+02  0.10566000000E+00 0.  1.
         22    1    1    0    0    0 -0.17372820253E+02 -0.15354946102E+02  0.17894823142E+02  0.29288461015E+02  0.00000000000E+00 0.  1.
</event>
<event>
 5    1  0.1267616E-004  0.9118800E+02  0.7818608E-02  0.1130116E+00
         25   -1    0    0    0    0  0.00000000000E+00  0.00000000000E+00  0.99999998245E-14  0.12500000000E+03  0.12500000000E+03 0.  0.
        -13    1    3    3    0    0 -0.44340358117E+02 -0.27166755163E-01 -0.75915693395E+01  0.44985677555E+02  0.10566000000E+00 0.  1.
         23    2    1    0    0    0 -0.56829970487E+01  0.26278990216E+02  0.11840423971E+02  0.95621820648E+02  0.90997006336E+02 0.  0.
         13    1    3    3    0    0  0.38657361068E+02  0.26306156971E+02  0.19431993310E+02  0.50636143094E+02  0.10566000000E+00 0. -1.
         22    1    1    0    0    0  0.56829970487E+01 -0.26278990216E+02 -0.11840423971E+02  0.29378179352E+02  0.00000000000E+00 0. -1.
</event>
<event>
 5    1  0.1267616E-004  0.9118800E+02  0.7818608E-02  0.1130116E+00
         25   -1    0    0    0    0  0.00000000000E+00  0.00000000000E+00  0.99999998245E-14  0.12500000000E+03  0.12500000000E+03 0.  0.
        -13    1    3    3    0    0 -0.39008327316E+02  0.34480849873E+02 -0.83706732949E+01  0.52731944241E+02  0.10566000000E+00 0.  1.
         23    2    1    0    0    0 -0.19366191922E+02 -0.92381226558E+01 -0.11298820537E+02  0.10075014133E+03  0.97788216743E+02 0.  0.
         13    1    3    3    0    0  0.19642135394E+02 -0.43718972529E+02 -0.29281472418E+01  0.48018197094E+02  0.10566000000E+00 0. -1.
         22    1    1    0    0    0  0.19366191922E+02  0.92381226558E+01  0.11298820537E+02  0.24249858665E+02  0.00000000000E+00 0. -1.
</event>
<event>
 5    1  0.1267616E-004  0.9118800E+02  0.7818608E-02  0.1130116E+00
         25   -1    0    0    0    0  0.00000000000E+00  0.00000000000E+00  0.99999998245E-14  0.12500000000E+03  0.12500000000E+03 0.  0.
        -13    1    3    3    0    0 -0.36526021745E+02 -0.19267533398E+02  0.35061895459E+01  0.41445055639E+02  0.10566000000E+00 0.  1.
         23    2    1    0    0    0  0.65491501303E+01 -0.20156277731E+02 -0.24325470059E+02  0.92737089514E+02  0.86944076156E+02 0.  0.
         13    1    3    3    0    0  0.43075171876E+02 -0.88874433279E+00 -0.27831659605E+02  0.51292033875E+02  0.10566000000E+00 0. -1.
         22    1    1    0    0    0 -0.65491501303E+01  0.20156277731E+02  0.24325470059E+02  0.32262910486E+02  0.00000000000E+00 0. -1.
</event>
<event>
 5    1  0.1267616E-004  0.9118800E+02  0.7818608E-02  0.1130116E+00
         25   -1    0    0    0    0  0.00000000000E+00  0.00000000000E+00  0.99999998245E-14  0.12500000000E+03  0.12500000000E+03 0.  0.
        -13    1    3    3    0    0 -0.25872921652E+02  0.12786834283E+02 -0.39294937536E+02  0.48754635531E+02  0.10566000000E+00 0. -1.
         23    2    1    0    0    0  0.10636986719E+02  0.24297528772E+02 -0.11355644414E+02  0.96147512222E+02  0.91716291113E+02 0.  0.
         13    1    3    3    0    0  0.36509908371E+02  0.11510694490E+02  0.27939293121E+02  0.47392876691E+02  0.10566000000E+00 0.  1.
         22    1    1    0    0    0 -0.10636986719E+02 -0.24297528772E+02  0.11355644414E+02  0.28852487778E+02  0.00000000000E+00 0. -1.
</event>
<event>
 5    1  0.1267616E-004  0.9118800E+02  0.7818608E-02  0.1130116E+00
         25   -1    0    0    0    0  0.00000000000E+00  0.00000000000E+00  0.99999998245E-14  0.12500000000E+03  0.12500000000E+03 0.  0.
        -13    1    3    3    0    0  0.23263167627E+02 -0.12516189794E+02  0.21112569721E+02  0.33816885416E+02  0.10566000000E+00 0. -1.
         23    2    1    0    0    0  0.11498841129E+02 -0.28753647467E+02 -0.25709011017E+02  0.84751411982E+02  0.74584535901E+02 0.  0.
         13    1    3    3    0    0 -0.11764326499E+02 -0.16237457673E+02 -0.46821580738E+02  0.50934526566E+02  0.10566000000E+00 0.  1.
         22    1    1    0    0    0 -0.11498841129E+02  0.28753647467E+02  0.25709011017E+02  0.40248588018E+02  0.00000000000E+00 0.  1.
</event>
<event>
 5    1  0.1267616E-004  0.9118800E+02  0.7818608E-02  0.1130116E+00
         25   -1    0    0    0    0  0.00000000000E+00  0.00000000000E+00  0.99999998245E-14  0.12500000000E+03  0.12500000000E+03 0.  0.
        -13    1    3    3    0    0  0.15459465698E+02  0.42691172327E+01 -0.30194931105E+02  0.34190137030E+02  0.10566000000E+00 0. -1.
         23    2    1    0    0    0 -0.23486910865E+02 -0.72058330761E+01  0.15992115611E+02  0.95686065191E+02  0.91085214485E+02 0.  0.
         13    1    3    3    0    0 -0.38946376563E+02 -0.11474950309E+02  0.46187046716E+02  0.61495928161E+02  0.10566000000E+00 0.  1.
         22    1    1    0    0    0  0.23486910865E+02  0.72058330761E+01 -0.15992115611E+02  0.29313934809E+02  0.00000000000E+00 0.  1.
</event>
<event>
 5    1  0.1267616E-004  0.9118800E+02  0.7818608E-02  0.1130116E+00
         25   -1    0    0    0    0  0.00000000000E+00  0.00000000000E+00  0.99999998245E-14  0.12500000000E+03  0.12500000000E+03 0.  0.
        -13    1    3    3    0    0  0.30930803099E+02 -0.16833286615E+02 -0.38445278821E+02  0.52135637968E+02  0.10566000000E+00 0.  1.
         23    2    1    0    0    0  0.30303008852E+02 -0.42785625192E+01  0.18443971441E+01  0.94340902760E+02  0.89220096896E+02 0.  0.
         13    1    3    3    0    0 -0.62779424709E+00  0.12554724096E+02  0.40289675966E+02  0.42205264792E+02  0.10566000000E+00 0. -1.
         22    1    1    0    0    0 -0.30303008852E+02  0.42785625192E+01 -0.18443971441E+01  0.30659097240E+02  0.00000000000E+00 0.  1.
</event>
<event>
 5    1  0.1267616E-004  0.9118800E+02  0.7818608E-02  0.1130116E+00
         25   -1    0    0    0    0  0.00000000000E+00  0.00000000000E+00  0.99999998245E-14  0.12500000000E+03  0.12500000000E+03 0.  0.
        -13    1    3    3    0    0  0.25842876858E+02 -0.26346385205E+02  0.18355642774E+02  0.41218043177E+02  0.10566000000E+00 0. -1.
         23    2    1    0    0    0 -0.82311862240E+01  0.12044568293E+02  0.27981170842E+02  0.93444176865E+02  0.87954785068E+02 0.  0.
         13    1    3    3    0    0 -0.34074063082E+02  0.38390953498E+02  0.96255280679E+01  0.52226133688E+02  0.10566000000E+00 0.  1.
         22    1    1    0    0    0  0.82311862240E+01 -0.12044568293E+02 -0.27981170842E+02  0.31555823135E+02  0.00000000000E+00 0. -1.
</event>
<event>
 5    1  0.1267616E-004  0.9118800E+02  0.7818608E-02  0.1130116E+00
         25   -1    0    0    0    0  0.00000000000E+00  0.00000000000E+00  0.99999998245E-14  0.12500000000E+03  0.12500000000E+03 0.  0.
        -13    1    3    3    0    0 -0.41047820574E+02 -0.13730887570E+02 -0.37699717363E+01  0.43447493578E+02  0.10566000000E+00 0. -1.
         23    2    1    0    0    0  0.68144771302E+01 -0.16876192665E+02 -0.23469162333E+02  0.95300765026E+02  0.90554907412E+02 0.  0.
         13    1    3    3    0    0  0.47862297704E+02 -0.31453050953E+01 -0.19699190597E+02  0.51853271448E+02  0.10566000000E+00 0.  1.
         22    1    1    0    0    0 -0.68144771302E+01  0.16876192665E+02  0.23469162333E+02  0.29699234974E+02  0.00000000000E+00 0.  1.
</event>
<event>
 5    1  0.1267616E-004  0.9118800E+02  0.7818608E-02  0.1130116E+00
         25   -1    0    0    0    0  0.00000000000E+00  0.00000000000E+00  0.99999998245E-14  0.12500000000E+03  0.12500000000E+03 0.  0.
        -13    1    3    3    0    0  0.23822308080E+02  0.33522717576E+02 -0.31955410202E+02  0.52081036484E+02  0.10566000000E+00 0. -1.
         23    2    1    0    0    0 -0.13017812552E+02  0.18000850154E+02 -0.22950042650E+02  0.93059453550E+02  0.87406312057E+02 0.  0.
         13    1    3    3    0    0 -0.36840120632E+02 -0.15521867423E+02  0.90053675523E+01  0.40978417066E+02  0.10566000000E+00 0.  1.
         22    1    1    0    0    0  0.13017812552E+02 -0.18000850154E+02  0.22950042650E+02  0.31940546450E+02  0.00000000000E+00 0. -1.
</event>
<event>
 5    1  0.1267616E-004  0.9118800E+02  0.7818608E-02  0.1130116E+00
         25   -1    0    0    0    0  0.00000000000E+00  0.00000000000E+00  0.99999998245E-14  0.12500000000E+03  0.12500000000E+03 0.  0.
        -13    1    3    3    0    0  0.35726396930E+02  0.23552759349E+02  0.31680237377E+02  0.53242431527E+02  0.10566000000E+00 0.  1.
         23    2    1    0    0    0 -0.52610584103E+01  0.15460429871E+02  0.24382206593E+02  0.95653865233E+02  0.91041014429E+02 0.  0.
         13    1    3    3    0    0 -0.40987455341E+02 -0.80923294781E+01 -0.72980307838E+01  0.42411433707E+02  0.10566000000E+00 0. -1.
         22    1    1    0    0    0  0.52610584103E+01 -0.15460429871E+02 -0.24382206593E+02  0.29346134767E+02  0.00000000000E+00 0.  1.
</event>
<event>
 5    1  0.1267616E-004  0.9118800E+02  0.7818608E-02  0.1130116E+00
         25   -1    0    0    0    0  0.00000000000E+00  0.00000000000E+00  0.99999998245E-14  0.12500000000E+03  0.12500000000E+03 0.  0.
        -13    1    3    3    0    0 -0.39037608385E+02  0.35766548055E+02  0.44568804561E+01  0.53132436191E+02  0.10566000000E+00 0. -1.
         23    2    1    0    0    0 -0.31456903556E+02  0.35005243743E+01  0.17596148728E+02  0.88786537002E+02  0.81065616944E+02 0.  0.
         13    1    3    3    0    0  0.75807048284E+01 -0.32266023681E+02  0.13139268272E+02  0.35654100811E+02  0.10566000000E+00 0.  1.
         22    1    1    0    0    0  0.31456903556E+02 -0.35005243743E+01 -0.17596148728E+02  0.36213462998E+02  0.00000000000E+00 0.  1.
</event>
<event>
 5    1  0.1267616E-004  0.9118800E+02  0.7818608E-02  0.1130116E+00
         25   -1    0    0    0    0  0.00000000000E+00  0.00000000000E+00  0.99999998245E-14  0.12500000000E+03  0.12500000000E+03 0.  0.
        -13    1    3    3    0    0  0.93430944628E+00 -0.15658919034E+02 -0.52853931254E+02  0.55132784189E+02  0.10566000000E+00 0.  1.
         23    2    1    0    0    0 -0.20204543666E+02 -0.90248481976E+01 -0.17802782322E+02  0.96599110434E+02  0.92329722238E+02 0.  0.
         13    1    3    3    0    0 -0.21138853112E+02  0.66340708363E+01  0.35051148932E+02  0.41466326245E+02  0.10566000000E+00 0. -1.
         22    1    1    0    0    0  0.20204543666E+02  0.90248481976E+01  0.17802782322E+02  0.28400889566E+02  0.00000000000E+00 0.  1.
</event>
<event>
 5    1  0.1267616E-004  0.9118800E+02  0.7818608E-02  0.1130116E+00
         25   -1    0    0    0    0  0.00000000000E+00  0.00000000000E+00  0.99999998245E-14  0.12500000000E+03  0.12500000000E+03 0.  0.
        -13    1    3    3    0    0 -0.36467213700E+01 -0.38919938519E+02  0.42643237249E+02  0.57849088482E+02  0.10566000000E+00 0.  1.
         23    2    1    0    0    0 -0.18656132098E+02 -0.16847619839E+02  0.19315504802E+02  0.93298544437E+02  0.87747570389E+02 0.  0.
         13    1    3    3    0    0 -0.15009410728E+02  0.22072318680E+02 -0.23327732448E+02  0.35449455955E+02  0.10566000000E+00 0. -1.
         22    1    1    0    0    0  0.18656132098E+02  0.16847619839E+02 -0.19315504802E+02  0.31701455563E+02  0.00000000000E+00 0.  1.
</event>
<event>
 5    1  0.1267616E-004  0.9118800E+02  0.7818608E-02  0.1130116E+00
         25   -1    0    0    0    0  0.00000000000E+00  0.00000000000E+00  0.99999998245E-14  0.12500000000E+03  0.12500000000E+03 0.  0.
        -13    1    3    3    0    0  0.39963506898E+02  0.20581035789E+02 -0.25105491045E+02  0.51487452475E+02  0.10566000000E+00 0.  1.
         23    2    1    0    0    0 -0.37730681313E+01 -0.12945841952E+02 -0.15229954766E+01  0.11142979801E+03  0.11060040462E+03 0.  0.
         13    1    3    3    0    0 -0.43736575030E+02 -0.33526877740E+02  0.23582495568E+02  0.59942345530E+02  0.10566000000E+00 0. -1.
         22    1    1    0    0    0  0.37730681313E+01  0.12945841952E+02  0.15229954766E+01  0.13570201995E+02  0.00000000000E+00 0. -1.
</event>
<event>
 5    1  0.1267616E-004  0.9118800E+02  0.7818608E-02  0.1130116E+00
         25   -1    0    0    0    0  0.00000000000E+00  0.00000000000E+00  0.99999998245E-14  0.12500000000E+03  0.12500000000E+03 0.  0.
        -13    1    3    3    0    0  0.12279953877E+01 -0.84557532108E+01  0.10405252262E+02  0.13464329679E+02  0.10566000000E+00 0.  1.
         23    2    1    0    0    0  0.21320545854E+02  0.37504036755E+02 -0.25257051743E+02  0.75009629816E+02  0.55923228215E+02 0.  0.
         13    1    3    3    0    0  0.20092550466E+02  0.45959789965E+02 -0.35662304005E+02  0.61545300137E+02  0.10566000000E+00 0. -1.
         22    1    1    0    0    0 -0.21320545854E+02 -0.37504036755E+02  0.25257051743E+02  0.49990370184E+02  0.00000000000E+00 0. -1.
</event>
<event>
 5    1  0.1267616E-004  0.9118800E+02  0.7818608E-02  0.1130116E+00
         25   -1    0    0    0    0  0.00000000000E+00  0.00000000000E+00  0.99999998245E-14  0.12500000000E+03  0.12500000000E+03 0.  0.
        -13    1    3    3    0    0 -0.27083288887E+02 -0.32820790462E+02  0.15918071329E+02  0.45432422149E+02  0.10566000000E+00 0.  1.
         23    2    1    0    0    0  0.14699665496E+02 -0.47841909053E+01  0.24057233221E+02  0.96404211524E+02  0.92065481484E+02 0.  0.
         13    1    3    3    0    0  0.41782954383E+02  0.28036599557E+02  0.81391618922E+01  0.50971789374E+02  0.10566000000E+00 0. -1.
         22    1    1    0    0    0 -0.14699665496E+02  0.47841909053E+01 -0.24057233221E+02  0.28595788476E+02  0.00000000000E+00 0. -1.
</event>
<event>
 5    1  0.1267616E-004  0.9118800E+02  0.7818608E-02  0.1130116E+00
         25   -1    0    0    0    0  0.00000000000E+00  0.00000000000E+00  0.99999998245E-14  0.12500000000E+03  0.12500000000E+03 0.  0.
        -13    1    3    3    0    0  0.25001014691E+02  0.42265309141E+01  0.24662807350E+02  0.35372016193E+02  0.10566000000E+00 0. -1.
         23    2    1    0    0    0 -0.15833406065E+02 -0.19647305176E+02 -0.13711707657E+02  0.96281986922E+02  0.91899383733E+02 0.  0.
         13    1    3    3    0    0 -0.40834420756E+02 -0.23873836090E+02 -0.38374515007E+02  0.60909970729E+02  0.10566000000E+00 0.  1.
         22    1    1    0    0    0  0.15833406065E+02  0.19647305176E+02  0.13711707657E+02  0.28718013078E+02  0.00000000000E+00 0.  1.
</event>
<event>
 5    1  0.1267616E-004  0.9118800E+02  0.7818608E-02  0.1130116E+00
         25   -1    0    0    0    0  0.00000000000E+00  0.00000000000E+00  0.99999998245E-14  0.12500000000E+03  0.12500000000E+03 0.  0.
        -13    1    3    3    0    0  0.28058827719E+02 -0.29406701708E+02 -0.55189506411E+01  0.41018555539E+02  0.10566000000E+00 0.  1.
         23    2    1    0    0    0 -0.93333894057E+01  0.25145882625E+01 -0.28219521185E+02  0.95170875175E+02  0.90375432468E+02 0.  0.
         13    1    3    3    0    0 -0.37392217124E+02  0.31921289971E+02 -0.22700570544E+02  0.54152319636E+02  0.10566000000E+00 0. -1.
         22    1    1    0    0    0  0.93333894057E+01 -0.25145882625E+01  0.28219521185E+02  0.29829124825E+02  0.00000000000E+00 0.  1.
</event>
<event>
 5    1  0.1267616E-004  0.9118800E+02  0.7818608E-02  0.1130116E+00
         25   -1    0    0    0    0  0.00000000000E+00  0.00000000000E+00  0.99999998245E-14  0.12500000000E+03  0.12500000000E+03 0.  0.
        -13    1    3    3    0    0  0.43224054067E+02 -0.10556715745E+02 -0.32983171090E+02  0.55386495074E+02  0.10566000000E+00 0. -1.
         23    2    1    0    0    0  0.23286439263E+02 -0.12943154610E+02  0.45680408536E+01  0.97969452428E+02  0.94166677264E+02 0.  0.
         13    1    3    3    0    0 -0.19937614804E+02 -0.23864388650E+01  0.37551211944E+02  0.42582957354E+02  0.10566000000E+00 0.  1.
         22    1    1    0    0    0 -0.23286439263E+02  0.12943154610E+02 -0.45680408536E+01  0.27030547572E+02  0.00000000000E+00 0. -1.
</event>
<event>
 5    1  0.1267616E-004  0.9118800E+02  0.7818608E-02  0.1130116E+00
         25   -1    0    0    0    0  0.00000000000E+00  0.00000000000E+00  0.99999998245E-14  0.12500000000E+03  0.12500000000E+03 0.  0.
        -13    1    3    3    0    0 -0.24289986286E+02 -0.34183781223E+02  0.19705904519E+02  0.46334308773E+02  0.10566000000E+00 0. -1.
         23    2    1    0    0    0  0.18358119616E+02 -0.88299177077E+01  0.20696744470E+02  0.95959627513E+02  0.91459864849E+02 0.  0.
         13    1    3    3    0    0  0.42648105902E+02  0.25353863516E+02  0.99083995064E+00  0.49625318740E+02  0.10566000000E+00 0.  1.
         22    1    1    0    0    0 -0.18358119616E+02  0.88299177077E+01 -0.20696744470E+02  0.29040372487E+02  0.00000000000E+00 0. -1.
</event>
<event>
 5    1  0.1267616E-004  0.9118800E+02  0.7818608E-02  0.1130116E+00
         25   -1    0    0    0    0  0.00000000000E+00  0.00000000000E+00  0.99999998245E-14  0.12500000000E+03  0.12500000000E+03 0.  0.
        -13    1    3    3    0    0  0.14066886278E+02 -0.30320183786E+01  0.16286970792E+02  0.21733545652E+02  0.10566000000E+00 0.  1.
         23    2    1    0    0    0  0.26346714854E+02  0.72637527949E+01 -0.37918909646E+02  0.78258635054E+02  0.62766701073E+02 0.  0.
         13    1    3    3    0    0  0.12279828576E+02  0.10295771173E+02 -0.54205880437E+02  0.56525089402E+02  0.10566000000E+00 0. -1.
         22    1    1    0    0    0 -0.26346714854E+02 -0.72637527949E+01  0.37918909646E+02  0.46741364946E+02  0.00000000000E+00 0. -1.
</event>
<event>
 5    1  0.1267616E-004  0.9118800E+02  0.7818608E-02  0.1130116E+00
         25   -1    0    0    0    0  0.00000000000E+00  0.00000000000E+00  0.99999998245E-14  0.12500000000E+03  0.12500000000E+03 0.  0.
        -13    1    3    3    0    0  0.23970126762E+02  0.52994139183E+01  0.33075035953E+02  0.41190046519E+02  0.10566000000E+00 0.  1.
         23    2    1    0    0    0 -0.24327856808E+02  0.94513151320E+01  0.18865210328E+01  0.98832636048E+02  0.95305608502E+02 0.  0.
         13    1    3    3    0    0 -0.48297983570E+02  0.41519012137E+01 -0.31188514920E+02  0.57642589529E+02  0.10566000000E+00 0. -1.
         22    1    1    0    0    0  0.24327856808E+02 -0.94513151320E+01 -0.18865210328E+01  0.26167363952E+02  0.00000000000E+00 0. -1.
</event>
<event>
 5    1  0.1267616E-004  0.9118800E+02  0.7818608E-02  0.1130116E+00
         25   -1    0    0    0    0  0.00000000000E+00  0.00000000000E+00  0.99999998245E-14  0.12500000000E+03  0.12500000000E+03 0.  0.
        -13    1    3    3    0    0 -0.95266072190E+01 -0.10331535869E+02  0.24645789263E+02  0.28371164427E+02  0.10566000000E+00 0. -1.
         23    2    1    0    0    0 -0.46764293216E+01  0.26088833812E+02 -0.23939092753E+02  0.89284787517E+02  0.81830293163E+02 0.  0.
         13    1    3    3    0    0  0.48501778974E+01  0.36420369681E+02 -0.48584882016E+02  0.60913623090E+02  0.10566000000E+00 0.  1.
         22    1    1    0    0    0  0.46764293216E+01 -0.26088833812E+02  0.23939092753E+02  0.35715212483E+02  0.00000000000E+00 0.  1.
</event>
<event>
 5    1  0.1267616E-004  0.9118800E+02  0.7818608E-02  0.1130116E+00
         25   -1    0    0    0    0  0.00000000000E+00  0.00000000000E+00  0.99999998245E-14  0.12500000000E+03  0.12500000000E+03 0.  0.
        -13    1    3    3    0    0  0.38817511068E+02 -0.25060209767E+02  0.20489809332E+02  0.50543612154E+02  0.10566000000E+00 0.  1.
         23    2    1    0    0    0 -0.45934879514E+01 -0.11753832611E+02  0.25820979574E+02  0.96260207051E+02  0.91869754342E+02 0.  0.
         13    1    3    3    0    0 -0.43410999019E+02  0.13306377156E+02  0.53311702416E+01  0.45716594898E+02  0.10566000000E+00 0. -1.
         22    1    1    0    0    0  0.45934879514E+01  0.11753832611E+02 -0.25820979574E+02  0.28739792949E+02  0.00000000000E+00 0. -1.
</event>
<event>
 5    1  0.1267616E-004  0.9118800E+02  0.7818608E-02  0.1130116E+00
         25   -1    0    0    0    0  0.00000000000E+00  0.00000000000E+00  0.99999998245E-14  0.12500000000E+03  0.12500000000E+03 0.  0.
        -13    1    3    3    0    0 -0.22957120239E+02 -0.11838353948E+02 -0.20928483454E+02  0.33244376631E+02  0.10566000000E+00 0.  1.
         23    2    1    0    0    0  0.12956325734E+02  0.65180050485E+01  0.26064246436E+02  0.95172232591E+02  0.90377309916E+02 0.  0.
         13    1    3    3    0    0  0.35913445973E+02  0.18356358996E+02  0.46992729890E+02  0.61927855960E+02  0.10566000000E+00 0. -1.
         22    1    1    0    0    0 -0.12956325734E+02 -0.65180050485E+01 -0.26064246436E+02  0.29827767409E+02  0.00000000000E+00 0. -1.
</event>
<event>
 5    1  0.1267616E-004  0.9118800E+02  0.7818608E-02  0.1130116E+00
         25   -1    0    0    0    0  0.00000000000E+00  0.00000000000E+00  0.99999998245E-14  0.12500000000E+03  0.12500000000E+03 0.  0.
        -13    1    3    3    0    0 -0.12714168642E+02 -0.18275257826E+02 -0.26190034099E+02  0.34373888099E+02  0.10566000000E+00 0.  1.
         23    2    1    0    0    0 -0.11222549176E+02  0.30291894223E+02  0.52835740952E+01  0.92266826905E+02  0.86265327486E+02 0.  0.
         13    1    3    3    0    0  0.14916194663E+01  0.48567152049E+02  0.31473608194E+02  0.57892938806E+02  0.10566000000E+00 0. -1.
         22    1    1    0    0    0  0.11222549176E+02 -0.30291894223E+02 -0.52835740952E+01  0.32733173095E+02  0.00000000000E+00 0. -1.
</event>
<event>
 5    1  0.1267616E-004  0.9118800E+02  0.7818608E-02  0.1130116E+00
         25   -1    0    0    0    0  0.00000000000E+00  0.00000000000E+00  0.99999998245E-14  0.12500000000E+03  0.12500000000E+03 0.  0.
        -13    1    3    3    0    0 -0.17246732856E+02 -0.23212706120E+02 -0.18345242050E+02  0.34246731078E+02  0.10566000000E+00 0. -1.
         23    2    1    0    0    0  0.25675346126E+02  0.98081099506E+01  0.10467922417E+02  0.95589120734E+02  0.90952076301E+02 0.  0.
         13    1    3    3    0    0  0.42922078982E+02  0.33020816071E+02  0.28813164466E+02  0.61342389656E+02  0.10566000000E+00 0.  1.
         22    1    1    0    0    0 -0.25675346126E+02 -0.98081099506E+01 -0.10467922417E+02  0.29410879266E+02  0.00000000000E+00 0.  1.
</event>
<event>
 5    1  0.1267616E-004  0.9118800E+02  0.7818608E-02  0.1130116E+00
         25   -1    0    0    0    0  0.00000000000E+00  0.00000000000E+00  0.99999998245E-14  0.12500000000E+03  0.12500000000E+03 0.  0.
        -13    1    3    3    0    0 -0.98815876372E+01 -0.27580300543E+02  0.30711963711E+02  0.42444724423E+02  0.10566000000E+00 0. -1.
         23    2    1    0    0    0 -0.21795585564E+02 -0.25280380369E+01 -0.16733872370E+02  0.97405417001E+02  0.93414957316E+02 0.  0.
         13    1    3    3    0    0 -0.11913997927E+02  0.25052262507E+02 -0.47445836081E+02  0.54960692579E+02  0.10566000000E+00 0.  1.
         22    1    1    0    0    0  0.21795585564E+02  0.25280380369E+01  0.16733872370E+02  0.27594582999E+02  0.00000000000E+00 0.  1.
</event>
<event>
 5    1  0.1267616E-004  0.9118800E+02  0.7818608E-02  0.1130116E+00
         25   -1    0    0    0    0  0.00000000000E+00  0.00000000000E+00  0.99999998245E-14  0.12500000000E+03  0.12500000000E+03 0.  0.
        -13    1    3    3    0    0  0.10434018972E+02  0.25914999136E+02 -0.42834710247E+02  0.51139803462E+02  0.10566000000E+00 0. -1.
         23    2    1    0    0    0  0.28039485914E+02  0.11183884512E+02 -0.64970357475E+01  0.94121147744E+02  0.88911680538E+02 0.  0.
         13    1    3    3    0    0  0.17605466942E+02 -0.14731114624E+02  0.36337674499E+02  0.42981344283E+02  0.10566000000E+00 0.  1.
         22    1    1    0    0    0 -0.28039485914E+02 -0.11183884512E+02  0.64970357475E+01  0.30878852256E+02  0.00000000000E+00 0.  1.
</event>
<event>
 5    1  0.1267616E-004  0.9118800E+02  0.7818608E-02  0.1130116E+00
         25   -1    0    0    0    0  0.00000000000E+00  0.00000000000E+00  0.99999998245E-14  0.12500000000E+03  0.12500000000E+03 0.  0.
        -13    1    3    3    0    0 -0.15755602713E+02 -0.24487362963E+01  0.57404975891E+02  0.59578332868E+02  0.10566000000E+00 0.  1.
         23    2    1    0    0    0 -0.66029816837E+01 -0.14441341627E+02  0.24126898332E+02  0.96116459043E+02  0.91673959011E+02 0.  0.
         13    1    3    3    0    0  0.91526210290E+01 -0.11992605331E+02 -0.33278077559E+02  0.36538126175E+02  0.10566000000E+00 0. -1.
         22    1    1    0    0    0  0.66029816837E+01  0.14441341627E+02 -0.24126898332E+02  0.28883540957E+02  0.00000000000E+00 0.  1.
</event>
<event>
 5    1  0.1267616E-004  0.9118800E+02  0.7818608E-02  0.1130116E+00
         25   -1    0    0    0    0  0.00000000000E+00  0.00000000000E+00  0.99999998245E-14  0.12500000000E+03  0.12500000000E+03 0.  0.
        -13    1    3    3    0    0  0.31995414851E+02 -0.71491189219E+00 -0.10686245657E+02  0.33740549504E+02  0.10566000000E+00 0.  1.
         23    2    1    0    0    0 -0.16681167542E+02  0.19760880746E+02  0.17669236716E+02  0.93679787923E+02  0.88288996940E+02 0.  0.
         13    1    3    3    0    0 -0.48676582394E+02  0.20475792638E+02  0.28355482373E+02  0.59939238420E+02  0.10566000000E+00 0. -1.
         22    1    1    0    0    0  0.16681167542E+02 -0.19760880746E+02 -0.17669236716E+02  0.31320212077E+02  0.00000000000E+00 0. -1.
</event>
<event>
 5    1  0.1267616E-004  0.9118800E+02  0.7818608E-02  0.1130116E+00
         25   -1    0    0    0    0  0.00000000000E+00  0.00000000000E+00  0.99999998245E-14  0.12500000000E+03  0.12500000000E+03 0.  0.
        -13    1    3    3    0    0 -0.45525324286E+02 -0.20747391578E+01  0.88041596519E+01  0.46415343208E+02  0.10566000000E+00 0.  1.
         23    2    1    0    0    0 -0.10688923216E+02  0.27328370781E+02 -0.72973423920E+01  0.94761876132E+02  0.89807956401E+02 0.  0.
         13    1    3    3    0    0  0.34836401070E+02  0.29403109939E+02 -0.16101502044E+02  0.48346532924E+02  0.10566000000E+00 0. -1.
         22    1    1    0    0    0  0.10688923216E+02 -0.27328370781E+02  0.72973423920E+01  0.30238123868E+02  0.00000000000E+00 0.  1.
</event>
<event>
 5    1  0.1267616E-004  0.9118800E+02  0.7818608E-02  0.1130116E+00
         25   -1    0    0    0    0  0.00000000000E+00  0.00000000000E+00  0.99999998245E-14  0.12500000000E+03  0.12500000000E+03 0.  0.
        -13    1    3    3    0    0  0.54661385168E+01 -0.54832772554E+02  0.52606654849E+01  0.55355192905E+02  0.10566000000E+00 0.  1.
         23    2    1    0    0    0  0.20404286872E+02 -0.17690844028E+02 -0.67727097060E+01  0.97158116408E+02  0.93083452353E+02 0.  0.
         13    1    3    3    0    0  0.14938148355E+02  0.37141928525E+02 -0.12033375191E+02  0.41802923503E+02  0.10566000000E+00 0. -1.
         22    1    1    0    0    0 -0.20404286872E+02  0.17690844028E+02  0.67727097060E+01  0.27841883592E+02  0.00000000000E+00 0.  1.
</event>
<event>
 5    1  0.1267616E-004  0.9118800E+02  0.7818608E-02  0.1130116E+00
         25   -1    0    0    0    0  0.00000000000E+00  0.00000000000E+00  0.99999998245E-14  0.12500000000E+03  0.12500000000E+03 0.  0.
        -13    1    3    3    0    0 -0.12792563749E+02 -0.19216596034E+02 -0.27700741425E+02  0.36059249714E+02  0.10566000000E+00 0.  1.
         23    2    1    0    0    0 -0.70031808214E+01 -0.11773894846E+01  0.28636121590E+02  0.95496470595E+02  0.90824653310E+02 0.  0.
         13    1    3    3    0    0  0.57893829278E+01  0.18039206549E+02  0.56336863015E+02  0.59437220881E+02  0.10566000000E+00 0. -1.
         22    1    1    0    0    0  0.70031808214E+01  0.11773894846E+01 -0.28636121590E+02  0.29503529405E+02  0.00000000000E+00 0. -1.
</event>
<event>
 5    1  0.1267616E-004  0.9118800E+02  0.7818608E-02  0.1130116E+00
         25   -1    0    0    0    0  0.00000000000E+00  0.00000000000E+00  0.99999998245E-14  0.12500000000E+03  0.12500000000E+03 0.  0.
        -13    1    3    3    0    0  0.38859755990E+02 -0.23467862592E+01  0.45552425027E+02  0.59921804305E+02  0.10566000000E+00 0.  1.
         23    2    1    0    0    0  0.95531129260E+01 -0.10588076503E+02  0.23493259226E+02  0.97517231586E+02  0.93564458512E+02 0.  0.
         13    1    3    3    0    0 -0.29306643064E+02 -0.82412902441E+01 -0.22059165801E+02  0.37595427281E+02  0.10566000000E+00 0. -1.
         22    1    1    0    0    0 -0.95531129260E+01  0.10588076503E+02 -0.23493259226E+02  0.27482768414E+02  0.00000000000E+00 0.  1.
</event>
<event>
 5    1  0.1267616E-004  0.9118800E+02  0.7818608E-02  0.1130116E+00
         25   -1    0    0    0    0  0.00000000000E+00  0.00000000000E+00  0.99999998245E-14  0.12500000000E+03  0.12500000000E+03 0.  0.
        -13    1    3    3    0    0  0.80942752175E+01 -0.26011243869E+02 -0.23304755885E+02  0.35850033610E+02  0.10566000000E+00 0.  1.
         23    2    1    0    0    0 -0.17489605682E+02  0.30463020358E+01  0.22831749538E+02  0.96078467365E+02  0.91622141654E+02 0.  0.
         13    1    3    3    0    0 -0.25583880900E+02  0.29057545905E+02  0.46136505423E+02  0.60228433755E+02  0.10566000000E+00 0. -1.
         22    1    1    0    0    0  0.17489605682E+02 -0.30463020358E+01 -0.22831749538E+02  0.28921532635E+02  0.00000000000E+00 0. -1.
</event>
<event>
 5    1  0.1267616E-004  0.9118800E+02  0.7818608E-02  0.1130116E+00
         25   -1    0    0    0    0  0.00000000000E+00  0.00000000000E+00  0.99999998245E-14  0.12500000000E+03  0.12500000000E+03 0.  0.
        -13    1    3    3    0    0 -0.98989009945E+01  0.23145897437E+02 -0.31341555682E+02  0.40199814498E+02  0.10566000000E+00 0. -1.
         23    2    1    0    0    0 -0.12291300905E+02 -0.16276797901E+02  0.13947172816E+02  0.10029101667E+03  0.97199558468E+02 0.  0.
         13    1    3    3    0    0 -0.23923999107E+01 -0.39422695338E+02  0.45288728498E+02  0.60091202168E+02  0.10566000000E+00 0.  1.
         22    1    1    0    0    0  0.12291300905E+02  0.16276797901E+02 -0.13947172816E+02  0.24708983334E+02  0.00000000000E+00 0.  1.
</event>
<event>
 5    1  0.1267616E-004  0.9118800E+02  0.7818608E-02  0.1130116E+00
         25   -1    0    0    0    0  0.00000000000E+00  0.00000000000E+00  0.99999998245E-14  0.12500000000E+03  0.12500000000E+03 0.  0.
        -13    1    3    3    0    0  0.17720083258E+02  0.36556590518E+00  0.41695862198E+02  0.45306633924E+02  0.10566000000E+00 0.  1.
         23    2    1    0    0    0 -0.17356370097E+02  0.20950586926E+02  0.18030974919E+02  0.92361269449E+02  0.86402068044E+02 0.  0.
         13    1    3    3    0    0 -0.35076453355E+02  0.20585021021E+02 -0.23664887279E+02  0.47054635525E+02  0.10566000000E+00 0. -1.
         22    1    1    0    0    0  0.17356370097E+02 -0.20950586926E+02 -0.18030974919E+02  0.32638730551E+02  0.00000000000E+00 0.  1.
</event>
<event>
 5    1  0.1267616E-004  0.9118800E+02  0.7818608E-02  0.1130116E+00
         25   -1    0    0    0    0  0.00000000000E+00  0.00000000000E+00  0.99999998245E-14  0.12500000000E+03  0.12500000000E+03 0.  0.
        -13    1    3    3    0    0 -0.67380389275E+00 -0.17222969839E+02  0.39743295603E+02  0.43320034756E+02  0.10566000000E+00 0.  1.
         23    2    1    0    0    0 -0.85804173976E+01 -0.26033683907E+02 -0.11028170700E+02  0.95453480586E+02  0.90765467809E+02 0.  0.
         13    1    3    3    0    0 -0.79066135049E+01 -0.88107140674E+01 -0.50771466304E+02  0.52133445831E+02  0.10566000000E+00 0. -1.
         22    1    1    0    0    0  0.85804173976E+01  0.26033683907E+02  0.11028170700E+02  0.29546519414E+02  0.00000000000E+00 0. -1.
</event>
<event>
 5    1  0.1267616E-004  0.9118800E+02  0.7818608E-02  0.1130116E+00
         25   -1    0    0    0    0  0.00000000000E+00  0.00000000000E+00  0.99999998245E-14  0.12500000000E+03  0.12500000000E+03 0.  0.
        -13    1    3    3    0    0 -0.29406885081E+02  0.22617299545E+02  0.15457637313E+02  0.40190258076E+02  0.10566000000E+00 0.  1.
         23    2    1    0    0    0 -0.12250156171E+02 -0.27628856923E+02  0.73013634076E+01  0.93907718503E+02  0.88611114572E+02 0.  0.
         13    1    3    3    0    0  0.17156728910E+02 -0.50246156468E+02 -0.81562739051E+01  0.53717460427E+02  0.10566000000E+00 0. -1.
         22    1    1    0    0    0  0.12250156171E+02  0.27628856923E+02 -0.73013634076E+01  0.31092281497E+02  0.00000000000E+00 0. -1.
</event>
<event>
 5    1  0.1267616E-004  0.9118800E+02  0.7818608E-02  0.1130116E+00
         25   -1    0    0    0    0  0.00000000000E+00  0.00000000000E+00  0.99999998245E-14  0.12500000000E+03  0.12500000000E+03 0.  0.
        -13    1    3    3    0    0  0.22645666723E+02 -0.22935663884E+02  0.46389574748E+02  0.56487827968E+02  0.10566000000E+00 0.  1.
         23    2    1    0    0    0 -0.81150553000E+01 -0.10748879544E+02  0.26973435228E+02  0.94851057366E+02  0.89931998429E+02 0.  0.
         13    1    3    3    0    0 -0.30760722023E+02  0.12186784341E+02 -0.19416139521E+02  0.38363229398E+02  0.10566000000E+00 0. -1.
         22    1    1    0    0    0  0.81150553000E+01  0.10748879544E+02 -0.26973435228E+02  0.30148942634E+02  0.00000000000E+00 0.  1.
</event>
<event>
 5    1  0.1267616E-004  0.9118800E+02  0.7818608E-02  0.1130116E+00
         25   -1    0    0    0    0  0.00000000000E+00  0.00000000000E+00  0.99999998245E-14  0.12500000000E+03  0.12500000000E+03 0.  0.
        -13    1    3    3    0    0  0.88953074753E+01 -0.36492317683E+02 -0.23974491931E+02  0.44560107409E+02  0.10566000000E+00 0.  1.
         23    2    1    0    0    0  0.61024140105E+01 -0.30411257897E+02  0.19378503520E+02  0.88426642726E+02  0.80508761520E+02 0.  0.
         13    1    3    3    0    0 -0.27928934648E+01  0.60810597856E+01  0.43352995451E+02  0.43866535316E+02  0.10566000000E+00 0. -1.
         22    1    1    0    0    0 -0.61024140105E+01  0.30411257897E+02 -0.19378503520E+02  0.36573357274E+02  0.00000000000E+00 0. -1.
</event>
<event>
 5    1  0.1267616E-004  0.9118800E+02  0.7818608E-02  0.1130116E+00
         25   -1    0    0    0    0  0.00000000000E+00  0.00000000000E+00  0.99999998245E-14  0.12500000000E+03  0.12500000000E+03 0.  0.
        -13    1    3    3    0    0 -0.94245049784E+01 -0.16648565196E+02 -0.29796776214E+02  0.35409815786E+02  0.10566000000E+00 0.  1.
         23    2    1    0    0    0  0.31640717240E+02  0.43128213422E+00  0.63543554217E+01  0.92724640598E+02  0.86926176434E+02 0.  0.
         13    1    3    3    0    0  0.41065222218E+02  0.17079847330E+02  0.36151131636E+02  0.57314824812E+02  0.10566000000E+00 0. -1.
         22    1    1    0    0    0 -0.31640717240E+02 -0.43128213422E+00 -0.63543554217E+01  0.32275359402E+02  0.00000000000E+00 0. -1.
</event>
<event>
 5    1  0.1267616E-004  0.9118800E+02  0.7818608E-02  0.1130116E+00
         25   -1    0    0    0    0  0.00000000000E+00  0.00000000000E+00  0.99999998245E-14  0.12500000000E+03  0.12500000000E+03 0.  0.
        -13    1    3    3    0    0  0.60351452137E+01  0.38657504586E+02  0.46155314981E+02  0.60507436763E+02  0.10566000000E+00 0.  1.
         23    2    1    0    0    0  0.17182360535E+01  0.27038119919E+02  0.15013723588E+02  0.94025427205E+02  0.88777006039E+02 0.  0.
         13    1    3    3    0    0 -0.43169091601E+01 -0.11619384668E+02 -0.31141591393E+02  0.33517990442E+02  0.10566000000E+00 0. -1.
         22    1    1    0    0    0 -0.17182360535E+01 -0.27038119919E+02 -0.15013723588E+02  0.30974572795E+02  0.00000000000E+00 0.  1.
</event>
<event>
 5    1  0.1267616E-004  0.9118800E+02  0.7818608E-02  0.1130116E+00
         25   -1    0    0    0    0  0.00000000000E+00  0.00000000000E+00  0.99999998245E-14  0.12500000000E+03  0.12500000000E+03 0.  0.
        -13    1    3    3    0    0 -0.40172714889E+02  0.32553296158E+02  0.20212825887E+02  0.55516966837E+02  0.10566000000E+00 0. -1.
         23    2    1    0    0    0 -0.21847686685E+02  0.30029917261E+02 -0.57761584841E+01  0.87417007157E+02  0.78925609211E+02 0.  0.
         13    1    3    3    0    0  0.18325028205E+02 -0.25233788967E+01 -0.25988984371E+02  0.31900040321E+02  0.10566000000E+00 0.  1.
         22    1    1    0    0    0  0.21847686685E+02 -0.30029917261E+02  0.57761584841E+01  0.37582992843E+02  0.00000000000E+00 0. -1.
</event>
<event>
 4    1  0.1267616E-004  0.9118800E+02  0.7818608E-02  0.1130116E+00
         25   -1    0    0    0    0  0.00000000000E+00  0.00000000000E+00  0.99999998245E-14  0.12500000000E+03  0.12500000000E+03 0.  0.
        -13    1    1    0    0    0  0.88985557873E+01 -0.67939575499E+01 -0.20244011360E+00  0.11197959650E+02  0.10566000000E+00 0. -1.
         13    1    1    0    0    0 -0.23945651870E+02  0.74053046802E+01 -0.52936376332E+02  0.58570503533E+02  0.10566000000E+00 0.  1.
         22    1    1    0    0    0  0.15047096083E+02 -0.61134713030E+00  0.53138816446E+02  0.55231536817E+02  0.00000000000E+00 0.  1.
</event>
<event>
 5    1  0.1267616E-004  0.9118800E+02  0.7818608E-02  0.1130116E+00
         25   -1    0    0    0    0  0.00000000000E+00  0.00000000000E+00  0.99999998245E-14  0.12500000000E+03  0.12500000000E+03 0.  0.
        -13    1    3    3    0    0  0.40289447534E+02  0.69674145573E+01  0.71495666935E+01  0.41507974128E+02  0.10566000000E+00 0.  1.
         23    2    1    0    0    0 -0.27469441963E+01  0.21842815511E+02 -0.20615014468E+02  0.94839875442E+02  0.89916454893E+02 0.  0.
         13    1    3    3    0    0 -0.43036391731E+02  0.14875400954E+02 -0.27764581161E+02  0.53331901314E+02  0.10566000000E+00 0. -1.
         22    1    1    0    0    0  0.27469441963E+01 -0.21842815511E+02  0.20615014468E+02  0.30160124558E+02  0.00000000000E+00 0. -1.
</event>
<event>
 5    1  0.1267616E-004  0.9118800E+02  0.7818608E-02  0.1130116E+00
         25   -1    0    0    0    0  0.00000000000E+00  0.00000000000E+00  0.99999998245E-14  0.12500000000E+03  0.12500000000E+03 0.  0.
        -13    1    3    3    0    0  0.80423650975E+01  0.53729939117E+02 -0.18204390227E+02  0.57297443063E+02  0.10566000000E+00 0.  1.
         23    2    1    0    0    0  0.15367863452E+02  0.23471133271E+02  0.54795573749E+01  0.96415198564E+02  0.92080397702E+02 0.  0.
         13    1    3    3    0    0  0.73254983548E+01 -0.30258805846E+02  0.23683947602E+02  0.39117755501E+02  0.10566000000E+00 0. -1.
         22    1    1    0    0    0 -0.15367863452E+02 -0.23471133271E+02 -0.54795573749E+01  0.28584801436E+02  0.00000000000E+00 0.  1.
</event>
<event>
 5    1  0.1267616E-004  0.9118800E+02  0.7818608E-02  0.1130116E+00
         25   -1    0    0    0    0  0.00000000000E+00  0.00000000000E+00  0.99999998245E-14  0.12500000000E+03  0.12500000000E+03 0.  0.
        -13    1    3    3    0    0  0.35648253810E+01  0.45171979532E+02  0.28494829920E+02  0.53527396827E+02  0.10566000000E+00 0.  1.
         23    2    1    0    0    0  0.20477358468E+02  0.20573585891E+02 -0.16157970218E+01  0.95927582724E+02  0.91416058113E+02 0.  0.
         13    1    3    3    0    0  0.16912533087E+02 -0.24598393641E+02 -0.30110626942E+02  0.42400185896E+02  0.10566000000E+00 0. -1.
         22    1    1    0    0    0 -0.20477358468E+02 -0.20573585891E+02  0.16157970218E+01  0.29072417276E+02  0.00000000000E+00 0.  1.
</event>
<event>
 5    1  0.1267616E-004  0.9118800E+02  0.7818608E-02  0.1130116E+00
         25   -1    0    0    0    0  0.00000000000E+00  0.00000000000E+00  0.99999998245E-14  0.12500000000E+03  0.12500000000E+03 0.  0.
        -13    1    3    3    0    0 -0.35227947083E+02 -0.12240061500E+02  0.46317405735E+02  0.59465457194E+02  0.10566000000E+00 0. -1.
         23    2    1    0    0    0 -0.22253426138E+02  0.66115877557E+01  0.19841465909E+02  0.94461305906E+02  0.89388626103E+02 0.  0.
         13    1    3    3    0    0  0.12974520945E+02  0.18851649255E+02 -0.26475939826E+02  0.34995848713E+02  0.10566000000E+00 0.  1.
         22    1    1    0    0    0  0.22253426138E+02 -0.66115877557E+01 -0.19841465909E+02  0.30538694094E+02  0.00000000000E+00 0. -1.
</event>
<event>
 5    1  0.1267616E-004  0.9118800E+02  0.7818608E-02  0.1130116E+00
         25   -1    0    0    0    0  0.00000000000E+00  0.00000000000E+00  0.99999998245E-14  0.12500000000E+03  0.12500000000E+03 0.  0.
        -13    1    3    3    0    0 -0.59662852595E+01 -0.80144000124E+01 -0.35813041683E+02  0.37180805343E+02  0.10566000000E+00 0.  1.
         23    2    1    0    0    0 -0.59711081551E+01 -0.12514363261E+02  0.24064109659E+02  0.97226905212E+02  0.93175781740E+02 0.  0.
         13    1    3    3    0    0 -0.48228956012E-02 -0.44999632484E+01  0.59877151342E+02  0.60046099868E+02  0.10566000000E+00 0. -1.
         22    1    1    0    0    0  0.59711081551E+01  0.12514363261E+02 -0.24064109659E+02  0.27773094788E+02  0.00000000000E+00 0. -1.
</event>
<event>
 5    1  0.1267616E-004  0.9118800E+02  0.7818608E-02  0.1130116E+00
         25   -1    0    0    0    0  0.00000000000E+00  0.00000000000E+00  0.99999998245E-14  0.12500000000E+03  0.12500000000E+03 0.  0.
        -13    1    3    3    0    0  0.43067817665E+02 -0.40457117752E+02 -0.10856692598E+02  0.60079066516E+02  0.10566000000E+00 0. -1.
         23    2    1    0    0    0  0.26539416974E+02 -0.11812901740E+02  0.27090094734E+01  0.95824256082E+02  0.91274662533E+02 0.  0.
         13    1    3    3    0    0 -0.16528400691E+02  0.28644216013E+02  0.13565702071E+02  0.35745189566E+02  0.10566000000E+00 0.  1.
         22    1    1    0    0    0 -0.26539416974E+02  0.11812901740E+02 -0.27090094734E+01  0.29175743918E+02  0.00000000000E+00 0. -1.
</event>
<event>
 5    1  0.1267616E-004  0.9118800E+02  0.7818608E-02  0.1130116E+00
         25   -1    0    0    0    0  0.00000000000E+00  0.00000000000E+00  0.99999998245E-14  0.12500000000E+03  0.12500000000E+03 0.  0.
        -13    1    3    3    0    0 -0.91832713659E+01 -0.24878409620E+02  0.21871942785E+02  0.34375293212E+02  0.10566000000E+00 0.  1.
         23    2    1    0    0    0 -0.13132687227E+02  0.27202208926E+02 -0.69134622390E+01  0.94012525040E+02  0.88758837645E+02 0.  0.
         13    1    3    3    0    0 -0.39494158612E+01  0.52080618545E+02 -0.28785405024E+02  0.59637231828E+02  0.10566000000E+00 0. -1.
         22    1    1    0    0    0  0.13132687227E+02 -0.27202208926E+02  0.69134622390E+01  0.30987474960E+02  0.00000000000E+00 0. -1.
</event>
<event>
 5    1  0.1267616E-004  0.9118800E+02  0.7818608E-02  0.1130116E+00
         25   -1    0    0    0    0  0.00000000000E+00  0.00000000000E+00  0.99999998245E-14  0.12500000000E+03  0.12500000000E+03 0.  0.
        -13    1    3    3    0    0 -0.52408045596E+02 -0.24824628804E+02 -0.18439023968E+02  0.60851246555E+02  0.10566000000E+00 0.  1.
         23    2    1    0    0    0 -0.25235560888E+02 -0.16682635606E+01 -0.11486599080E+02  0.97223056413E+02  0.93170618239E+02 0.  0.
         13    1    3    3    0    0  0.27172484707E+02  0.23156365243E+02  0.69524248880E+01  0.36371809857E+02  0.10566000000E+00 0. -1.
         22    1    1    0    0    0  0.25235560888E+02  0.16682635606E+01  0.11486599080E+02  0.27776943587E+02  0.00000000000E+00 0.  1.
</event>
<event>
 5    1  0.1267616E-004  0.9118800E+02  0.7818608E-02  0.1130116E+00
         25   -1    0    0    0    0  0.00000000000E+00  0.00000000000E+00  0.99999998245E-14  0.12500000000E+03  0.12500000000E+03 0.  0.
        -13    1    3    3    0    0 -0.14851425115E+02 -0.22127329518E+02 -0.20254969313E+02  0.33473250297E+02  0.10566000000E+00 0. -1.
         23    2    1    0    0    0  0.17095929497E+02  0.12136596225E+02  0.20581376350E+02  0.95620401198E+02  0.90995056457E+02 0.  0.
         13    1    3    3    0    0  0.31947354612E+02  0.34263925743E+02  0.40836345663E+02  0.62147150901E+02  0.10566000000E+00 0.  1.
         22    1    1    0    0    0 -0.17095929497E+02 -0.12136596225E+02 -0.20581376350E+02  0.29379598802E+02  0.00000000000E+00 0.  1.
</event>
<event>
 5    1  0.1267616E-004  0.9118800E+02  0.7818608E-02  0.1130116E+00
         25   -1    0    0    0    0  0.00000000000E+00  0.00000000000E+00  0.99999998245E-14  0.12500000000E+03  0.12500000000E+03 0.  0.
        -13    1    3    3    0    0  0.54192155274E+02  0.16881481530E+02  0.30038254705E+01  0.56840199185E+02  0.10566000000E+00 0. -1.
         23    2    1    0    0    0  0.26687387386E+02 -0.92482437292E+01  0.92301488168E+01  0.95285654900E+02  0.90534047325E+02 0.  0.
         13    1    3    3    0    0 -0.27504767888E+02 -0.26129725259E+02  0.62263233463E+01  0.38445455715E+02  0.10566000000E+00 0.  1.
         22    1    1    0    0    0 -0.26687387386E+02  0.92482437292E+01 -0.92301488168E+01  0.29714345100E+02  0.00000000000E+00 0. -1.
</event>
<event>
 5    1  0.1267616E-004  0.9118800E+02  0.7818608E-02  0.1130116E+00
         25   -1    0    0    0    0  0.00000000000E+00  0.00000000000E+00  0.99999998245E-14  0.12500000000E+03  0.12500000000E+03 0.  0.
        -13    1    3    3    0    0 -0.19291701102E+02  0.69126843458E+01 -0.30668048752E+02  0.36884892769E+02  0.10566000000E+00 0. -1.
         23    2    1    0    0    0 -0.11070593522E+01 -0.28464384286E+02  0.10975143570E+02  0.94472954130E+02  0.89404913357E+02 0.  0.
         13    1    3    3    0    0  0.18184641750E+02 -0.35377068632E+02  0.41643192322E+02  0.57588061361E+02  0.10566000000E+00 0.  1.
         22    1    1    0    0    0  0.11070593522E+01  0.28464384286E+02 -0.10975143570E+02  0.30527045870E+02  0.00000000000E+00 0.  1.
</event>
<event>
 5    1  0.1267616E-004  0.9118800E+02  0.7818608E-02  0.1130116E+00
         25   -1    0    0    0    0  0.00000000000E+00  0.00000000000E+00  0.99999998245E-14  0.12500000000E+03  0.12500000000E+03 0.  0.
        -13    1    3    3    0    0 -0.32183919248E+02  0.47541510583E+00 -0.16101476172E+02  0.35990267804E+02  0.10566000000E+00 0. -1.
         23    2    1    0    0    0  0.61438742974E+01 -0.14053812820E+02  0.26040129548E+02  0.94778398569E+02  0.89830950359E+02 0.  0.
         13    1    3    3    0    0  0.38327793545E+02 -0.14529227926E+02  0.42141605720E+02  0.58788130765E+02  0.10566000000E+00 0.  1.
         22    1    1    0    0    0 -0.61438742974E+01  0.14053812820E+02 -0.26040129548E+02  0.30221601431E+02  0.00000000000E+00 0.  1.
</event>
<event>
 5    1  0.1267616E-004  0.9118800E+02  0.7818608E-02  0.1130116E+00
         25   -1    0    0    0    0  0.00000000000E+00  0.00000000000E+00  0.99999998245E-14  0.12500000000E+03  0.12500000000E+03 0.  0.
        -13    1    3    3    0    0 -0.40799740823E+02 -0.14135101594E+02 -0.15578509684E+02  0.45903388506E+02  0.10566000000E+00 0.  1.
         23    2    1    0    0    0 -0.20061905029E+02  0.91074306532E+01  0.21422111203E+02  0.94270011798E+02  0.89120721213E+02 0.  0.
         13    1    3    3    0    0  0.20737835794E+02  0.23242532247E+02  0.37000620887E+02  0.48366623292E+02  0.10566000000E+00 0. -1.
         22    1    1    0    0    0  0.20061905029E+02 -0.91074306532E+01 -0.21422111203E+02  0.30729988202E+02  0.00000000000E+00 0. -1.
</event>
<event>
 5    1  0.1267616E-004  0.9118800E+02  0.7818608E-02  0.1130116E+00
         25   -1    0    0    0    0  0.00000000000E+00  0.00000000000E+00  0.99999998245E-14  0.12500000000E+03  0.12500000000E+03 0.  0.
        -13    1    3    3    0    0  0.49546964530E+00 -0.41359242134E+02 -0.16224480256E+01  0.41394152990E+02  0.10566000000E+00 0. -1.
         23    2    1    0    0    0 -0.25351286070E+02  0.81515700348E+01 -0.68900630445E+01  0.97493477715E+02  0.93532718494E+02 0.  0.
         13    1    3    3    0    0 -0.25846755715E+02  0.49510812169E+02 -0.52676150189E+01  0.56099324726E+02  0.10566000000E+00 0.  1.
         22    1    1    0    0    0  0.25351286070E+02 -0.81515700348E+01  0.68900630445E+01  0.27506522285E+02  0.00000000000E+00 0.  1.
</event>
<event>
 5    1  0.1267616E-004  0.9118800E+02  0.7818608E-02  0.1130116E+00
         25   -1    0    0    0    0  0.00000000000E+00  0.00000000000E+00  0.99999998245E-14  0.12500000000E+03  0.12500000000E+03 0.  0.
        -13    1    3    3    0    0  0.15728869700E+02  0.16098005268E+02 -0.30071442015E+02  0.37561228742E+02  0.10566000000E+00 0.  1.
         23    2    1    0    0    0  0.15155202536E+02 -0.23653924567E+02  0.11099631044E+02  0.94794203857E+02  0.89852940765E+02 0.  0.
         13    1    3    3    0    0 -0.57366716346E+00 -0.39751929836E+02  0.41171073059E+02  0.57232975115E+02  0.10566000000E+00 0. -1.
         22    1    1    0    0    0 -0.15155202536E+02  0.23653924567E+02 -0.11099631044E+02  0.30205796143E+02  0.00000000000E+00 0. -1.
</event>
<event>
 5    1  0.1267616E-004  0.9118800E+02  0.7818608E-02  0.1130116E+00
         25   -1    0    0    0    0  0.00000000000E+00  0.00000000000E+00  0.99999998245E-14  0.12500000000E+03  0.12500000000E+03 0.  0.
        -13    1    3    3    0    0 -0.68854643686E+00 -0.31478149765E+02 -0.51752438320E+02  0.60577834601E+02  0.10566000000E+00 0.  1.
         23    2    1    0    0    0  0.70554591664E+01 -0.20778504838E+02 -0.18709159636E+02  0.96163245300E+02  0.91737731196E+02 0.  0.
         13    1    3    3    0    0  0.77440056032E+01  0.10699644927E+02  0.33043278685E+02  0.35585410699E+02  0.10566000000E+00 0. -1.
         22    1    1    0    0    0 -0.70554591664E+01  0.20778504838E+02  0.18709159636E+02  0.28836754700E+02  0.00000000000E+00 0.  1.
</event>
<event>
 5    1  0.1267616E-004  0.9118800E+02  0.7818608E-02  0.1130116E+00
         25   -1    0    0    0    0  0.00000000000E+00  0.00000000000E+00  0.99999998245E-14  0.12500000000E+03  0.12500000000E+03 0.  0.
        -13    1    3    3    0    0 -0.34162884734E+01 -0.51398211886E+02 -0.15760290850E+02  0.53868777077E+02  0.10566000000E+00 0. -1.
         23    2    1    0    0    0 -0.29024124354E+01 -0.67763491704E+01 -0.24563871342E+02  0.99353817412E+02  0.95986740506E+02 0.  0.
         13    1    3    3    0    0  0.51387603796E+00  0.44621862716E+02 -0.88035804921E+01  0.45485040335E+02  0.10566000000E+00 0.  1.
         22    1    1    0    0    0  0.29024124354E+01  0.67763491704E+01  0.24563871342E+02  0.25646182588E+02  0.00000000000E+00 0. -1.
</event>
<event>
 5    1  0.1267616E-004  0.9118800E+02  0.7818608E-02  0.1130116E+00
         25   -1    0    0    0    0  0.00000000000E+00  0.00000000000E+00  0.99999998245E-14  0.12500000000E+03  0.12500000000E+03 0.  0.
        -13    1    3    3    0    0 -0.26264826188E+02  0.40864666569E+01 -0.23378468755E+02  0.35399212841E+02  0.10566000000E+00 0.  1.
         23    2    1    0    0    0  0.41607383357E+01 -0.10456697402E+02  0.26843504509E+02  0.95892818783E+02  0.91368510417E+02 0.  0.
         13    1    3    3    0    0  0.30425564524E+02 -0.14543164059E+02  0.50221973263E+02  0.60493605943E+02  0.10566000000E+00 0. -1.
         22    1    1    0    0    0 -0.41607383357E+01  0.10456697402E+02 -0.26843504509E+02  0.29107181217E+02  0.00000000000E+00 0. -1.
</event>
<event>
 5    1  0.1267616E-004  0.9118800E+02  0.7818608E-02  0.1130116E+00
         25   -1    0    0    0    0  0.00000000000E+00  0.00000000000E+00  0.99999998245E-14  0.12500000000E+03  0.12500000000E+03 0.  0.
        -13    1    3    3    0    0  0.78261901330E+01  0.48944913684E+02 -0.90877958966E+00  0.49575103348E+02  0.10566000000E+00 0. -1.
         23    2    1    0    0    0 -0.15178556668E+02  0.15041260792E+02 -0.20852229574E+02  0.95142947450E+02  0.90336796836E+02 0.  0.
         13    1    3    3    0    0 -0.23004746801E+02 -0.33903652893E+02 -0.19943449985E+02  0.45567844103E+02  0.10566000000E+00 0.  1.
         22    1    1    0    0    0  0.15178556668E+02 -0.15041260792E+02  0.20852229574E+02  0.29857052550E+02  0.00000000000E+00 0. -1.
</event>
<event>
 5    1  0.1267616E-004  0.9118800E+02  0.7818608E-02  0.1130116E+00
         25   -1    0    0    0    0  0.00000000000E+00  0.00000000000E+00  0.99999998245E-14  0.12500000000E+03  0.12500000000E+03 0.  0.
        -13    1    3    3    0    0 -0.10030370647E+02  0.35824355393E+02 -0.47740752008E+02  0.60524237633E+02  0.10566000000E+00 0.  1.
         23    2    1    0    0    0 -0.12978521826E+02  0.94163544346E+01 -0.23872532312E+02  0.96242260891E+02  0.91845333158E+02 0.  0.
         13    1    3    3    0    0 -0.29481511791E+01 -0.26408000959E+02  0.23868219696E+02  0.35718023259E+02  0.10566000000E+00 0. -1.
         22    1    1    0    0    0  0.12978521826E+02 -0.94163544346E+01  0.23872532312E+02  0.28757739109E+02  0.00000000000E+00 0.  1.
</event>
<event>
 5    1  0.1267616E-004  0.9118800E+02  0.7818608E-02  0.1130116E+00
         25   -1    0    0    0    0  0.00000000000E+00  0.00000000000E+00  0.99999998245E-14  0.12500000000E+03  0.12500000000E+03 0.  0.
        -13    1    3    3    0    0  0.38518413663E+02 -0.16870875900E+02  0.43304227672E+00  0.42053458056E+02  0.10566000000E+00 0.  1.
         23    2    1    0    0    0  0.45204658181E+01 -0.45188209698E+01  0.33399397598E+02  0.90994498767E+02  0.84401568065E+02 0.  0.
         13    1    3    3    0    0 -0.33997947845E+02  0.12352054930E+02  0.32966355322E+02  0.48941040711E+02  0.10566000000E+00 0. -1.
         22    1    1    0    0    0 -0.45204658181E+01  0.45188209698E+01 -0.33399397598E+02  0.34005501233E+02  0.00000000000E+00 0. -1.
</event>
<event>
 5    1  0.1267616E-004  0.9118800E+02  0.7818608E-02  0.1130116E+00
         25   -1    0    0    0    0  0.00000000000E+00  0.00000000000E+00  0.99999998245E-14  0.12500000000E+03  0.12500000000E+03 0.  0.
        -13    1    3    3    0    0 -0.38919902690E+02 -0.33171748660E+02 -0.27663484342E+02  0.58141235492E+02  0.10566000000E+00 0.  1.
         23    2    1    0    0    0 -0.26444910075E+02 -0.13184555175E+01 -0.14630575309E+02  0.94748961543E+02  0.89789979317E+02 0.  0.
         13    1    3    3    0    0  0.12474992615E+02  0.31853293142E+02  0.13032909033E+02  0.36607726051E+02  0.10566000000E+00 0. -1.
         22    1    1    0    0    0  0.26444910075E+02  0.13184555175E+01  0.14630575309E+02  0.30251038457E+02  0.00000000000E+00 0.  1.
</event>
<event>
 5    1  0.1267616E-004  0.9118800E+02  0.7818608E-02  0.1130116E+00
         25   -1    0    0    0    0  0.00000000000E+00  0.00000000000E+00  0.99999998245E-14  0.12500000000E+03  0.12500000000E+03 0.  0.
        -13    1    3    3    0    0  0.44010654781E+01  0.32985660688E+02 -0.46528347302E+02  0.57204208369E+02  0.10566000000E+00 0.  1.
         23    2    1    0    0    0  0.20372410801E+00  0.29040871350E+02 -0.98481715281E+01  0.94334054805E+02  0.89210502191E+02 0.  0.
         13    1    3    3    0    0 -0.41973413700E+01 -0.39447893383E+01  0.36680175774E+02  0.37129846436E+02  0.10566000000E+00 0. -1.
         22    1    1    0    0    0 -0.20372410801E+00 -0.29040871350E+02  0.98481715281E+01  0.30665945195E+02  0.00000000000E+00 0.  1.
</event>
<event>
 5    1  0.1267616E-004  0.9118800E+02  0.7818608E-02  0.1130116E+00
         25   -1    0    0    0    0  0.00000000000E+00  0.00000000000E+00  0.99999998245E-14  0.12500000000E+03  0.12500000000E+03 0.  0.
        -13    1    3    3    0    0  0.13597064543E+02 -0.41506447547E+02  0.25143880387E+02  0.50397333631E+02  0.10566000000E+00 0.  1.
         23    2    1    0    0    0  0.86104950428E+01 -0.10397919006E+02  0.38187411267E+02  0.84496472700E+02  0.74156039369E+02 0.  0.
         13    1    3    3    0    0 -0.49865694999E+01  0.31108528541E+02  0.13043530879E+02  0.34099139069E+02  0.10566000000E+00 0. -1.
         22    1    1    0    0    0 -0.86104950428E+01  0.10397919006E+02 -0.38187411267E+02  0.40503527300E+02  0.00000000000E+00 0.  1.
</event>
<event>
 5    1  0.1267616E-004  0.9118800E+02  0.7818608E-02  0.1130116E+00
         25   -1    0    0    0    0  0.00000000000E+00  0.00000000000E+00  0.99999998245E-14  0.12500000000E+03  0.12500000000E+03 0.  0.
        -13    1    3    3    0    0  0.59489144846E+01  0.26161475345E+02 -0.25116953419E+02  0.36751665117E+02  0.10566000000E+00 0.  1.
         23    2    1    0    0    0 -0.23853135793E+02 -0.17763441664E+02 -0.51948447655E+00  0.95254717836E+02  0.90491322562E+02 0.  0.
         13    1    3    3    0    0 -0.29802050278E+02 -0.43924917010E+02  0.24597468942E+02  0.58503052719E+02  0.10566000000E+00 0. -1.
         22    1    1    0    0    0  0.23853135793E+02  0.17763441664E+02  0.51948447655E+00  0.29745282164E+02  0.00000000000E+00 0. -1.
</event>
<event>
 5    1  0.1267616E-004  0.9118800E+02  0.7818608E-02  0.1130116E+00
         25   -1    0    0    0    0  0.00000000000E+00  0.00000000000E+00  0.99999998245E-14  0.12500000000E+03  0.12500000000E+03 0.  0.
        -13    1    3    3    0    0 -0.42834599691E+02 -0.17056348577E+02 -0.22206027381E+02  0.51174610634E+02  0.10566000000E+00 0.  1.
         23    2    1    0    0    0 -0.12839533305E+02 -0.24539442751E+02  0.97514322561E+01  0.95637978662E+02  0.91019199433E+02 0.  0.
         13    1    3    3    0    0  0.29995066386E+02 -0.74830941740E+01  0.31957459637E+02  0.44463368028E+02  0.10566000000E+00 0. -1.
         22    1    1    0    0    0  0.12839533305E+02  0.24539442751E+02 -0.97514322561E+01  0.29362021338E+02  0.00000000000E+00 0.  1.
</event>
<event>
 5    1  0.1267616E-004  0.9118800E+02  0.7818608E-02  0.1130116E+00
         25   -1    0    0    0    0  0.00000000000E+00  0.00000000000E+00  0.99999998245E-14  0.12500000000E+03  0.12500000000E+03 0.  0.
        -13    1    3    3    0    0 -0.32737498007E+02 -0.13666206475E+02 -0.16868717464E+02  0.39281977650E+02  0.10566000000E+00 0. -1.
         23    2    1    0    0    0  0.72087949702E+01 -0.30900874028E+02  0.11533741162E+02  0.91238217971E+02  0.84761751355E+02 0.  0.
         13    1    3    3    0    0  0.39946292977E+02 -0.17234667553E+02  0.28402458626E+02  0.51956240321E+02  0.10566000000E+00 0.  1.
         22    1    1    0    0    0 -0.72087949702E+01  0.30900874028E+02 -0.11533741162E+02  0.33761782029E+02  0.00000000000E+00 0.  1.
</event>
<event>
 5    1  0.1267616E-004  0.9118800E+02  0.7818608E-02  0.1130116E+00
         25   -1    0    0    0    0  0.00000000000E+00  0.00000000000E+00  0.99999998245E-14  0.12500000000E+03  0.12500000000E+03 0.  0.
        -13    1    3    3    0    0 -0.17240946481E+02  0.88333632872E+01 -0.34222861270E+02  0.39325487156E+02  0.10566000000E+00 0. -1.
         23    2    1    0    0    0  0.26605022303E+02 -0.12626451895E+02 -0.94218954058E+01  0.94080319985E+02  0.88854262679E+02 0.  0.
         13    1    3    3    0    0  0.43845968784E+02 -0.21459815182E+02  0.24800965864E+02  0.54754832829E+02  0.10566000000E+00 0.  1.
         22    1    1    0    0    0 -0.26605022303E+02  0.12626451895E+02  0.94218954058E+01  0.30919680015E+02  0.00000000000E+00 0.  1.
</event>
<event>
 5    1  0.1267616E-004  0.9118800E+02  0.7818608E-02  0.1130116E+00
         25   -1    0    0    0    0  0.00000000000E+00  0.00000000000E+00  0.99999998245E-14  0.12500000000E+03  0.12500000000E+03 0.  0.
        -13    1    3    3    0    0 -0.39064687032E+02  0.46799787654E+02 -0.63987449884E+01  0.61296207051E+02  0.10566000000E+00 0.  1.
         23    2    1    0    0    0 -0.20716165846E+02  0.18035823547E+02 -0.10360873150E+02  0.95643601195E+02  0.91026920736E+02 0.  0.
         13    1    3    3    0    0  0.18348521186E+02 -0.28763964107E+02 -0.39621281617E+01  0.34347394144E+02  0.10566000000E+00 0. -1.
         22    1    1    0    0    0  0.20716165846E+02 -0.18035823547E+02  0.10360873150E+02  0.29356398805E+02  0.00000000000E+00 0.  1.
</event>
<event>
 5    1  0.1267616E-004  0.9118800E+02  0.7818608E-02  0.1130116E+00
         25   -1    0    0    0    0  0.00000000000E+00  0.00000000000E+00  0.99999998245E-14  0.12500000000E+03  0.12500000000E+03 0.  0.
        -13    1    3    3    0    0  0.26018860148E+02  0.10524144501E+02  0.21872364455E+02  0.35583004254E+02  0.10566000000E+00 0. -1.
         23    2    1    0    0    0 -0.17632559701E+02 -0.24761007717E+02  0.10398191713E+02  0.92873110084E+02  0.87139414280E+02 0.  0.
         13    1    3    3    0    0 -0.43651419849E+02 -0.35285152218E+02 -0.11474172742E+02  0.57290105830E+02  0.10566000000E+00 0.  1.
         22    1    1    0    0    0  0.17632559701E+02  0.24761007717E+02 -0.10398191713E+02  0.32126889916E+02  0.00000000000E+00 0.  1.
</event>
<event>
 5    1  0.1267616E-004  0.9118800E+02  0.7818608E-02  0.1130116E+00
         25   -1    0    0    0    0  0.00000000000E+00  0.00000000000E+00  0.99999998245E-14  0.12500000000E+03  0.12500000000E+03 0.  0.
        -13    1    3    3    0    0 -0.95571512648E+01  0.47163888049E+02  0.18409250174E+02  0.51523617227E+02  0.10566000000E+00 0.  1.
         23    2    1    0    0    0 -0.32988803386E+01  0.65335429802E+01  0.29906646272E+02  0.94210760214E+02  0.89037576638E+02 0.  0.
         13    1    3    3    0    0  0.62582709263E+01 -0.40630345068E+02  0.11497396098E+02  0.42687142987E+02  0.10566000000E+00 0. -1.
         22    1    1    0    0    0  0.32988803386E+01 -0.65335429802E+01 -0.29906646272E+02  0.30789239786E+02  0.00000000000E+00 0. -1.
</event>
<event>
 5    1  0.1267616E-004  0.9118800E+02  0.7818608E-02  0.1130116E+00
         25   -1    0    0    0    0  0.00000000000E+00  0.00000000000E+00  0.99999998245E-14  0.12500000000E+03  0.12500000000E+03 0.  0.
        -13    1    3    3    0    0 -0.25685544154E+02 -0.11192026129E+02 -0.21839360493E+02  0.35524322064E+02  0.10566000000E+00 0.  1.
         23    2    1    0    0    0  0.29133802492E+02 -0.12552400528E+02 -0.11018053210E+02  0.91418178977E+02  0.85026729587E+02 0.  0.
         13    1    3    3    0    0  0.54819346647E+02 -0.13603743990E+01  0.10821307282E+02  0.55893856913E+02  0.10566000000E+00 0. -1.
         22    1    1    0    0    0 -0.29133802492E+02  0.12552400528E+02  0.11018053210E+02  0.33581821023E+02  0.00000000000E+00 0. -1.
</event>
<event>
 5    1  0.1267616E-004  0.9118800E+02  0.7818608E-02  0.1130116E+00
         25   -1    0    0    0    0  0.00000000000E+00  0.00000000000E+00  0.99999998245E-14  0.12500000000E+03  0.12500000000E+03 0.  0.
        -13    1    3    3    0    0 -0.19182199147E+02 -0.23908356628E+02  0.21234884948E+02  0.37289378964E+02  0.10566000000E+00 0. -1.
         23    2    1    0    0    0  0.22239240222E+02  0.15908268510E+02  0.34173902547E+01  0.97443959487E+02  0.93466517383E+02 0.  0.
         13    1    3    3    0    0  0.41421439369E+02  0.39816625137E+02 -0.17817494693E+02  0.60154580523E+02  0.10566000000E+00 0.  1.
         22    1    1    0    0    0 -0.22239240222E+02 -0.15908268510E+02 -0.34173902547E+01  0.27556040513E+02  0.00000000000E+00 0.  1.
</event>
<event>
 5    1  0.1267616E-004  0.9118800E+02  0.7818608E-02  0.1130116E+00
         25   -1    0    0    0    0  0.00000000000E+00  0.00000000000E+00  0.99999998245E-14  0.12500000000E+03  0.12500000000E+03 0.  0.
        -13    1    3    3    0    0  0.42181402933E+01  0.30715993606E+02 -0.15121622651E+02  0.34495501248E+02  0.10566000000E+00 0. -1.
         23    2    1    0    0    0  0.97314957352E+01 -0.24242161948E+02  0.12259321207E+02  0.96143884849E+02  0.91711347238E+02 0.  0.
         13    1    3    3    0    0  0.55133554419E+01 -0.54958155553E+02  0.27380943858E+02  0.61648383601E+02  0.10566000000E+00 0.  1.
         22    1    1    0    0    0 -0.97314957352E+01  0.24242161948E+02 -0.12259321207E+02  0.28856115151E+02  0.00000000000E+00 0.  1.
</event>
<event>
 5    1  0.1267616E-004  0.9118800E+02  0.7818608E-02  0.1130116E+00
         25   -1    0    0    0    0  0.00000000000E+00  0.00000000000E+00  0.99999998245E-14  0.12500000000E+03  0.12500000000E+03 0.  0.
        -13    1    3    3    0    0  0.35626183042E+02  0.42761908739E+01 -0.61462307647E+01  0.36404643155E+02  0.10566000000E+00 0.  1.
         23    2    1    0    0    0 -0.19394934653E+02 -0.88995700053E+01 -0.21168873129E+02  0.94941939084E+02  0.90058229891E+02 0.  0.
         13    1    3    3    0    0 -0.55021117695E+02 -0.13175760879E+02 -0.15022642364E+02  0.58537295930E+02  0.10566000000E+00 0. -1.
         22    1    1    0    0    0  0.19394934653E+02  0.88995700053E+01  0.21168873129E+02  0.30058060916E+02  0.00000000000E+00 0. -1.
</event>
<event>
 5    1  0.1267616E-004  0.9118800E+02  0.7818608E-02  0.1130116E+00
         25   -1    0    0    0    0  0.00000000000E+00  0.00000000000E+00  0.99999998245E-14  0.12500000000E+03  0.12500000000E+03 0.  0.
        -13    1    3    3    0    0 -0.23207901269E+02  0.24349018881E+02 -0.43115680456E+01  0.33912861643E+02  0.10566000000E+00 0.  1.
         23    2    1    0    0    0  0.95525317015E+01 -0.17486314623E+02  0.23745926835E+02  0.94001756465E+02  0.88743670851E+02 0.  0.
         13    1    3    3    0    0  0.32760432971E+02 -0.41835333504E+02  0.28057494881E+02  0.60088894821E+02  0.10566000000E+00 0. -1.
         22    1    1    0    0    0 -0.95525317015E+01  0.17486314623E+02 -0.23745926835E+02  0.30998243535E+02  0.00000000000E+00 0. -1.
</event>
<event>
 5    1  0.1267616E-004  0.9118800E+02  0.7818608E-02  0.1130116E+00
         25   -1    0    0    0    0  0.00000000000E+00  0.00000000000E+00  0.99999998245E-14  0.12500000000E+03  0.12500000000E+03 0.  0.
        -13    1    3    3    0    0  0.33669667266E+01  0.27118633371E+02 -0.62718024417E+01  0.28037535747E+02  0.10566000000E+00 0. -1.
         23    2    1    0    0    0 -0.15464375569E+02 -0.29261590160E+02  0.11308295144E+02  0.90024792931E+02  0.82952988088E+02 0.  0.
         13    1    3    3    0    0 -0.18831342296E+02 -0.56380223531E+02  0.17580097586E+02  0.61987257184E+02  0.10566000000E+00 0.  1.
         22    1    1    0    0    0  0.15464375569E+02  0.29261590160E+02 -0.11308295144E+02  0.34975207069E+02  0.00000000000E+00 0.  1.
</event>
<event>
 5    1  0.1267616E-004  0.9118800E+02  0.7818608E-02  0.1130116E+00
         25   -1    0    0    0    0  0.00000000000E+00  0.00000000000E+00  0.99999998245E-14  0.12500000000E+03  0.12500000000E+03 0.  0.
        -13    1    3    3    0    0 -0.51121610605E+02  0.17573574201E+02 -0.14453834107E+02  0.55956894709E+02  0.10566000000E+00 0. -1.
         23    2    1    0    0    0 -0.19568416362E+02  0.60402343621E+01 -0.26377870843E+02  0.91605398336E+02  0.85301521581E+02 0.  0.
         13    1    3    3    0    0  0.31553194243E+02 -0.11533339839E+02 -0.11924036736E+02  0.35648503628E+02  0.10566000000E+00 0.  1.
         22    1    1    0    0    0  0.19568416362E+02 -0.60402343621E+01  0.26377870843E+02  0.33394601664E+02  0.00000000000E+00 0. -1.
</event>
<event>
 5    1  0.1267616E-004  0.9118800E+02  0.7818608E-02  0.1130116E+00
         25   -1    0    0    0    0  0.00000000000E+00  0.00000000000E+00  0.99999998245E-14  0.12500000000E+03  0.12500000000E+03 0.  0.
        -13    1    3    3    0    0  0.52021820494E+02 -0.22846295419E+02  0.12127112463E+02  0.58097341097E+02  0.10566000000E+00 0. -1.
         23    2    1    0    0    0  0.25359323429E+02  0.42560236211E+01  0.13126495931E+02  0.96129358904E+02  0.91691546644E+02 0.  0.
         13    1    3    3    0    0 -0.26662497064E+02  0.27102319040E+02  0.99938346869E+00  0.38032017806E+02  0.10566000000E+00 0.  1.
         22    1    1    0    0    0 -0.25359323429E+02 -0.42560236211E+01 -0.13126495931E+02  0.28870641096E+02  0.00000000000E+00 0. -1.
</event>
<event>
 5    1  0.1267616E-004  0.9118800E+02  0.7818608E-02  0.1130116E+00
         25   -1    0    0    0    0  0.00000000000E+00  0.00000000000E+00  0.99999998245E-14  0.12500000000E+03  0.12500000000E+03 0.  0.
        -13    1    3    3    0    0 -0.12532259711E+02 -0.51892256449E+02 -0.50088690642E+01  0.53618688404E+02  0.10566000000E+00 0.  1.
         23    2    1    0    0    0 -0.10878500718E+02 -0.13911701034E+02 -0.23264900361E+02  0.95791562994E+02  0.91229878595E+02 0.  0.
         13    1    3    3    0    0  0.16537589927E+01  0.37980555415E+02 -0.18256031297E+02  0.42172874590E+02  0.10566000000E+00 0. -1.
         22    1    1    0    0    0  0.10878500718E+02  0.13911701034E+02  0.23264900361E+02  0.29208437006E+02  0.00000000000E+00 0. -1.
</event>
<event>
 5    1  0.1267616E-004  0.9118800E+02  0.7818608E-02  0.1130116E+00
         25   -1    0    0    0    0  0.00000000000E+00  0.00000000000E+00  0.99999998245E-14  0.12500000000E+03  0.12500000000E+03 0.  0.
        -13    1    3    3    0    0 -0.30724512468E+02  0.43083788874E+02  0.27656008853E+02  0.59708244991E+02  0.10566000000E+00 0.  1.
         23    2    1    0    0    0 -0.22227350377E+01  0.25500707009E+02  0.13424941538E+02  0.96095750065E+02  0.91645717391E+02 0.  0.
         13    1    3    3    0    0  0.28501777430E+02 -0.17583081865E+02 -0.14231067315E+02  0.36387505074E+02  0.10566000000E+00 0. -1.
         22    1    1    0    0    0  0.22227350377E+01 -0.25500707009E+02 -0.13424941538E+02  0.28904249935E+02  0.00000000000E+00 0.  1.
</event>
<event>
 5    1  0.1267616E-004  0.9118800E+02  0.7818608E-02  0.1130116E+00
         25   -1    0    0    0    0  0.00000000000E+00  0.00000000000E+00  0.99999998245E-14  0.12500000000E+03  0.12500000000E+03 0.  0.
        -13    1    3    3    0    0 -0.84576536520E+01  0.22291251518E+02  0.47047966007E+02  0.52744232566E+02  0.10566000000E+00 0.  1.
         23    2    1    0    0    0  0.11807745727E+02  0.24906290023E+02  0.88736735683E+01  0.96043338858E+02  0.91574203325E+02 0.  0.
         13    1    3    3    0    0  0.20265399379E+02  0.26150385051E+01 -0.38174292439E+02  0.43299106292E+02  0.10566000000E+00 0. -1.
         22    1    1    0    0    0 -0.11807745727E+02 -0.24906290023E+02 -0.88736735683E+01  0.28956661142E+02  0.00000000000E+00 0.  1.
</event>
<event>
 5    1  0.1267616E-004  0.9118800E+02  0.7818608E-02  0.1130116E+00
         25   -1    0    0    0    0  0.00000000000E+00  0.00000000000E+00  0.99999998245E-14  0.12500000000E+03  0.12500000000E+03 0.  0.
        -13    1    3    3    0    0  0.19468521128E+01  0.22745355675E+02  0.18881207662E+02  0.29625202189E+02  0.10566000000E+00 0. -1.
         23    2    1    0    0    0 -0.24359506515E+02 -0.55045231389E+01 -0.26084823128E+02  0.88887629124E+02  0.81221347447E+02 0.  0.
         13    1    3    3    0    0 -0.26306358628E+02 -0.28249878814E+02 -0.44966030790E+02  0.59262426935E+02  0.10566000000E+00 0.  1.
         22    1    1    0    0    0  0.24359506515E+02  0.55045231389E+01  0.26084823128E+02  0.36112370876E+02  0.00000000000E+00 0.  1.
</event>
<event>
 5    1  0.1267616E-004  0.9118800E+02  0.7818608E-02  0.1130116E+00
         25   -1    0    0    0    0  0.00000000000E+00  0.00000000000E+00  0.99999998245E-14  0.12500000000E+03  0.12500000000E+03 0.  0.
        -13    1    3    3    0    0 -0.39560922605E+02  0.29841795336E+02  0.83867718197E+01  0.50258814668E+02  0.10566000000E+00 0. -1.
         23    2    1    0    0    0 -0.17529815282E+02 -0.67948107847E+01  0.22868189793E+02  0.95395642519E+02  0.90685779645E+02 0.  0.
         13    1    3    3    0    0  0.22031107323E+02 -0.36636606121E+02  0.14481417974E+02  0.45136827852E+02  0.10566000000E+00 0.  1.
         22    1    1    0    0    0  0.17529815282E+02  0.67948107847E+01 -0.22868189793E+02  0.29604357481E+02  0.00000000000E+00 0. -1.
</event>
<event>
 5    1  0.1267616E-004  0.9118800E+02  0.7818608E-02  0.1130116E+00
         25   -1    0    0    0    0  0.00000000000E+00  0.00000000000E+00  0.99999998245E-14  0.12500000000E+03  0.12500000000E+03 0.  0.
        -13    1    3    3    0    0 -0.36119349273E+02  0.72825085043E+01  0.33994352187E+02  0.50132519053E+02  0.10566000000E+00 0. -1.
         23    2    1    0    0    0 -0.10626204554E+02  0.80961950052E+01  0.45108327486E+02  0.77955066103E+02  0.62159203066E+02 0.  0.
         13    1    3    3    0    0  0.25493144719E+02  0.81368650087E+00  0.11113975299E+02  0.27822547050E+02  0.10566000000E+00 0.  1.
         22    1    1    0    0    0  0.10626204554E+02 -0.80961950052E+01 -0.45108327486E+02  0.47044933897E+02  0.00000000000E+00 0. -1.
</event>
<event>
 5    1  0.1267616E-004  0.9118800E+02  0.7818608E-02  0.1130116E+00
         25   -1    0    0    0    0  0.00000000000E+00  0.00000000000E+00  0.99999998245E-14  0.12500000000E+03  0.12500000000E+03 0.  0.
        -13    1    3    3    0    0  0.54195488557E+02 -0.17909723012E+01 -0.97190739405E+01  0.55089292281E+02  0.10566000000E+00 0. -1.
         23    2    1    0    0    0  0.21311986577E+02  0.13548986671E+02  0.11637526990E+02  0.97193384850E+02  0.93130801632E+02 0.  0.
         13    1    3    3    0    0 -0.32883501980E+02  0.15339958972E+02  0.21356600930E+02  0.42104092569E+02  0.10566000000E+00 0.  1.
         22    1    1    0    0    0 -0.21311986577E+02 -0.13548986671E+02 -0.11637526990E+02  0.27806615150E+02  0.00000000000E+00 0. -1.
</event>
<event>
 5    1  0.1267616E-004  0.9118800E+02  0.7818608E-02  0.1130116E+00
         25   -1    0    0    0    0  0.00000000000E+00  0.00000000000E+00  0.99999998245E-14  0.12500000000E+03  0.12500000000E+03 0.  0.
        -13    1    3    3    0    0 -0.22850488898E+02 -0.33071949624E+02 -0.46780193858E+02  0.61678978560E+02  0.10566000000E+00 0. -1.
         23    2    1    0    0    0 -0.92170291349E+01 -0.21156938981E+02 -0.17780053820E+02  0.95867543753E+02  0.91333925451E+02 0.  0.
         13    1    3    3    0    0  0.13633459763E+02  0.11915010643E+02  0.29000140038E+02  0.34188565193E+02  0.10566000000E+00 0.  1.
         22    1    1    0    0    0  0.92170291349E+01  0.21156938981E+02  0.17780053820E+02  0.29132456247E+02  0.00000000000E+00 0. -1.
</event>
<event>
 5    1  0.1267616E-004  0.9118800E+02  0.7818608E-02  0.1130116E+00
         25   -1    0    0    0    0  0.00000000000E+00  0.00000000000E+00  0.99999998245E-14  0.12500000000E+03  0.12500000000E+03 0.  0.
        -13    1    3    3    0    0  0.23421868960E+02 -0.56337907806E+02 -0.53235688161E+01  0.61244553640E+02  0.10566000000E+00 0.  1.
         23    2    1    0    0    0  0.88138768621E+01 -0.24518937369E+02 -0.11007779298E+02  0.96715129130E+02  0.92486660025E+02 0.  0.
         13    1    3    3    0    0 -0.14607992098E+02  0.31818970437E+02 -0.56842104816E+01  0.35470575491E+02  0.10566000000E+00 0. -1.
         22    1    1    0    0    0 -0.88138768621E+01  0.24518937369E+02  0.11007779298E+02  0.28284870870E+02  0.00000000000E+00 0.  1.
</event>
<event>
 4    1  0.1267616E-004  0.9118800E+02  0.7818608E-02  0.1130116E+00
         25   -1    0    0    0    0  0.00000000000E+00  0.00000000000E+00  0.99999998245E-14  0.12500000000E+03  0.12500000000E+03 0.  0.
        -13    1    1    0    0    0 -0.15459489600E+02  0.22601736172E+02 -0.56433700699E+01  0.27958774767E+02  0.10566000000E+00 0.  1.
         13    1    1    0    0    0  0.38614052316E+02  0.23510602802E+02  0.80480591112E+00  0.45215620718E+02  0.10566000000E+00 0. -1.
         22    1    1    0    0    0 -0.23154562716E+02 -0.46112338974E+02  0.48385641587E+01  0.51825604515E+02  0.00000000000E+00 0. -1.
</event>
<event>
 5    1  0.1267616E-004  0.9118800E+02  0.7818608E-02  0.1130116E+00
         25   -1    0    0    0    0  0.00000000000E+00  0.00000000000E+00  0.99999998245E-14  0.12500000000E+03  0.12500000000E+03 0.  0.
        -13    1    3    3    0    0  0.31043311888E+02 -0.16201507870E+02  0.25391339519E+02  0.43253986601E+02  0.10566000000E+00 0.  1.
         23    2    1    0    0    0  0.22874143224E+02  0.22316778967E+01 -0.21019146650E+02  0.93854994938E+02  0.88536708400E+02 0.  0.
         13    1    3    3    0    0 -0.81691686645E+01  0.18433185767E+02 -0.46410486169E+02  0.50601008337E+02  0.10566000000E+00 0. -1.
         22    1    1    0    0    0 -0.22874143224E+02 -0.22316778967E+01  0.21019146650E+02  0.31145005062E+02  0.00000000000E+00 0. -1.
</event>
<event>
 5    1  0.1267616E-004  0.9118800E+02  0.7818608E-02  0.1130116E+00
         25   -1    0    0    0    0  0.00000000000E+00  0.00000000000E+00  0.99999998245E-14  0.12500000000E+03  0.12500000000E+03 0.  0.
        -13    1    3    3    0    0 -0.74604260328E+01  0.23499806840E+02 -0.27360487399E+02  0.36830779423E+02  0.10566000000E+00 0. -1.
         23    2    1    0    0    0 -0.10873310736E+02  0.20508595343E+02  0.25863084354E+02  0.90247582795E+02  0.83288028543E+02 0.  0.
         13    1    3    3    0    0 -0.34128847033E+01 -0.29912114969E+01  0.53223571754E+02  0.53416803372E+02  0.10566000000E+00 0.  1.
         22    1    1    0    0    0  0.10873310736E+02 -0.20508595343E+02 -0.25863084354E+02  0.34752417205E+02  0.00000000000E+00 0.  1.
</event>
<event>
 5    1  0.1267616E-004  0.9118800E+02  0.7818608E-02  0.1130116E+00
         25   -1    0    0    0    0  0.00000000000E+00  0.00000000000E+00  0.99999998245E-14  0.12500000000E+03  0.12500000000E+03 0.  0.
        -13    1    3    3    0    0 -0.12322534691E+02 -0.52621656050E+01 -0.39316950942E+02  0.41537561838E+02  0.10566000000E+00 0. -1.
         23    2    1    0    0    0 -0.26465121454E+02 -0.71876871474E+01  0.12192431370E+02  0.94987987691E+02  0.90122122271E+02 0.  0.
         13    1    3    3    0    0 -0.14142586764E+02 -0.19255215423E+01  0.51509382312E+02  0.53450425852E+02  0.10566000000E+00 0.  1.
         22    1    1    0    0    0  0.26465121454E+02  0.71876871474E+01 -0.12192431370E+02  0.30012012309E+02  0.00000000000E+00 0. -1.
</event>
<event>
 5    1  0.1267616E-004  0.9118800E+02  0.7818608E-02  0.1130116E+00
         25   -1    0    0    0    0  0.00000000000E+00  0.00000000000E+00  0.99999998245E-14  0.12500000000E+03  0.12500000000E+03 0.  0.
        -13    1    3    3    0    0 -0.89777785879E+01  0.39037468330E+02  0.44735514149E+02  0.60048329138E+02  0.10566000000E+00 0. -1.
         23    2    1    0    0    0 -0.12873926587E+02  0.11295670745E+02  0.26405535178E+02  0.93526480156E+02  0.88071675577E+02 0.  0.
         13    1    3    3    0    0 -0.38961479990E+01 -0.27741797585E+02 -0.18329978971E+02  0.33478151018E+02  0.10566000000E+00 0.  1.
         22    1    1    0    0    0  0.12873926587E+02 -0.11295670745E+02 -0.26405535178E+02  0.31473519844E+02  0.00000000000E+00 0. -1.
</event>
<event>
 5    1  0.1267616E-004  0.9118800E+02  0.7818608E-02  0.1130116E+00
         25   -1    0    0    0    0  0.00000000000E+00  0.00000000000E+00  0.99999998245E-14  0.12500000000E+03  0.12500000000E+03 0.  0.
        -13    1    3    3    0    0  0.13725637548E+02 -0.16441193835E+02 -0.27158022059E+02  0.34587213056E+02  0.10566000000E+00 0.  1.
         23    2    1    0    0    0  0.20330072916E+01  0.23245264333E+02  0.17775108244E+02  0.95666914488E+02  0.91058929392E+02 0.  0.
         13    1    3    3    0    0 -0.11692630256E+02  0.39686458167E+02  0.44933130303E+02  0.61079701432E+02  0.10566000000E+00 0. -1.
         22    1    1    0    0    0 -0.20330072916E+01 -0.23245264333E+02 -0.17775108244E+02  0.29333085512E+02  0.00000000000E+00 0. -1.
</event>
<event>
 5    1  0.1267616E-004  0.9118800E+02  0.7818608E-02  0.1130116E+00
         25   -1    0    0    0    0  0.00000000000E+00  0.00000000000E+00  0.99999998245E-14  0.12500000000E+03  0.12500000000E+03 0.  0.
        -13    1    3    3    0    0 -0.53060446943E+02 -0.87609448431E+01  0.22967318811E+02  0.58477979460E+02  0.10566000000E+00 0.  1.
         23    2    1    0    0    0 -0.17647401457E+02 -0.42734259069E+01  0.24849005375E+02  0.94223937625E+02  0.89056074505E+02 0.  0.
         13    1    3    3    0    0  0.35413045485E+02  0.44875189363E+01  0.18816865640E+01  0.35745958165E+02  0.10566000000E+00 0. -1.
         22    1    1    0    0    0  0.17647401457E+02  0.42734259069E+01 -0.24849005375E+02  0.30776062375E+02  0.00000000000E+00 0.  1.
</event>
<event>
 5    1  0.1267616E-004  0.9118800E+02  0.7818608E-02  0.1130116E+00
         25   -1    0    0    0    0  0.00000000000E+00  0.00000000000E+00  0.99999998245E-14  0.12500000000E+03  0.12500000000E+03 0.  0.
        -13    1    3    3    0    0 -0.17050809913E+02  0.46609992699E+02  0.30136729229E+02  0.58064232973E+02  0.10566000000E+00 0.  1.
         23    2    1    0    0    0 -0.22875017661E+02  0.14573269382E+02  0.11944578848E+02  0.95363543104E+02  0.90641523465E+02 0.  0.
         13    1    3    3    0    0 -0.58242077482E+01 -0.32036723317E+02 -0.18192150381E+02  0.37299310132E+02  0.10566000000E+00 0. -1.
         22    1    1    0    0    0  0.22875017661E+02 -0.14573269382E+02 -0.11944578848E+02  0.29636456896E+02  0.00000000000E+00 0.  1.
</event>
<event>
 5    1  0.1267616E-004  0.9118800E+02  0.7818608E-02  0.1130116E+00
         25   -1    0    0    0    0  0.00000000000E+00  0.00000000000E+00  0.99999998245E-14  0.12500000000E+03  0.12500000000E+03 0.  0.
        -13    1    3    3    0    0  0.76102542545E+01  0.42910413150E+01 -0.40024006311E+02  0.40966587002E+02  0.10566000000E+00 0.  1.
         23    2    1    0    0    0  0.16255461235E+02 -0.10061279081E+01  0.18494224728E+02  0.10035677250E+03  0.97284084644E+02 0.  0.
         13    1    3    3    0    0  0.86452069805E+01 -0.52971692231E+01  0.58518231039E+02  0.59390185498E+02  0.10566000000E+00 0. -1.
         22    1    1    0    0    0 -0.16255461235E+02  0.10061279081E+01 -0.18494224728E+02  0.24643227500E+02  0.00000000000E+00 0. -1.
</event>
<event>
 5    1  0.1267616E-004  0.9118800E+02  0.7818608E-02  0.1130116E+00
         25   -1    0    0    0    0  0.00000000000E+00  0.00000000000E+00  0.99999998245E-14  0.12500000000E+03  0.12500000000E+03 0.  0.
        -13    1    3    3    0    0 -0.23684030096E+02 -0.11080717303E+02 -0.32919382088E+02  0.42040604880E+02  0.10566000000E+00 0.  1.
         23    2    1    0    0    0  0.24291138208E+02  0.49217217506E+01 -0.16549982974E+02  0.95197572634E+02  0.90412350697E+02 0.  0.
         13    1    3    3    0    0  0.47975168304E+02  0.16002439054E+02  0.16369399114E+02  0.53156967755E+02  0.10566000000E+00 0. -1.
         22    1    1    0    0    0 -0.24291138208E+02 -0.49217217506E+01  0.16549982974E+02  0.29802427366E+02  0.00000000000E+00 0. -1.
</event>
<event>
 5    1  0.1267616E-004  0.9118800E+02  0.7818608E-02  0.1130116E+00
         25   -1    0    0    0    0  0.00000000000E+00  0.00000000000E+00  0.99999998245E-14  0.12500000000E+03  0.12500000000E+03 0.  0.
        -13    1    3    3    0    0 -0.37288396859E+02  0.38599475864E+02 -0.11466938314E+02  0.54880287131E+02  0.10566000000E+00 0.  1.
         23    2    1    0    0    0 -0.20068471027E+01  0.23424952449E+02 -0.19895530563E+02  0.94200844672E+02  0.89023655104E+02 0.  0.
         13    1    3    3    0    0  0.35281549756E+02 -0.15174523414E+02 -0.84285922485E+01  0.39320557541E+02  0.10566000000E+00 0. -1.
         22    1    1    0    0    0  0.20068471027E+01 -0.23424952449E+02  0.19895530563E+02  0.30799155328E+02  0.00000000000E+00 0.  1.
</event>
<event>
 5    1  0.1267616E-004  0.9118800E+02  0.7818608E-02  0.1130116E+00
         25   -1    0    0    0    0  0.00000000000E+00  0.00000000000E+00  0.99999998245E-14  0.12500000000E+03  0.12500000000E+03 0.  0.
        -13    1    3    3    0    0  0.43546433548E+02  0.18739702453E+02 -0.17000522131E+02  0.50363649982E+02  0.10566000000E+00 0. -1.
         23    2    1    0    0    0  0.29631816031E+01  0.26311834701E+02  0.63189551957E+01  0.97778275490E+02  0.93912559716E+02 0.  0.
         13    1    3    3    0    0 -0.40583251945E+02  0.75721322484E+01  0.23319477326E+02  0.47414625508E+02  0.10566000000E+00 0.  1.
         22    1    1    0    0    0 -0.29631816031E+01 -0.26311834701E+02 -0.63189551957E+01  0.27221724510E+02  0.00000000000E+00 0.  1.
</event>
<event>
 5    1  0.1267616E-004  0.9118800E+02  0.7818608E-02  0.1130116E+00
         25   -1    0    0    0    0  0.00000000000E+00  0.00000000000E+00  0.99999998245E-14  0.12500000000E+03  0.12500000000E+03 0.  0.
        -13    1    3    3    0    0 -0.28998992426E+02 -0.19521433039E+02 -0.44979479201E+02  0.56966592165E+02  0.10566000000E+00 0. -1.
         23    2    1    0    0    0 -0.26890587202E+02 -0.10952455187E+01 -0.10512406291E+02  0.96106853255E+02  0.91660860315E+02 0.  0.
         13    1    3    3    0    0  0.21084052235E+01  0.18426187520E+02  0.34467072910E+02  0.39140261090E+02  0.10566000000E+00 0.  1.
         22    1    1    0    0    0  0.26890587202E+02  0.10952455187E+01  0.10512406291E+02  0.28893146745E+02  0.00000000000E+00 0. -1.
</event>
<event>
 5    1  0.1267616E-004  0.9118800E+02  0.7818608E-02  0.1130116E+00
         25   -1    0    0    0    0  0.00000000000E+00  0.00000000000E+00  0.99999998245E-14  0.12500000000E+03  0.12500000000E+03 0.  0.
        -13    1    3    3    0    0 -0.72032779090E+01 -0.39418547904E+02 -0.10848344730E+02  0.41513935960E+02  0.10566000000E+00 0.  1.
         23    2    1    0    0    0 -0.42427301005E+01  0.12156180271E+02 -0.26537903149E+02  0.95503664956E+02  0.90834554213E+02 0.  0.
         13    1    3    3    0    0  0.29605478085E+01  0.51574728175E+02 -0.15689558419E+02  0.53989728996E+02  0.10566000000E+00 0. -1.
         22    1    1    0    0    0  0.42427301005E+01 -0.12156180271E+02  0.26537903149E+02  0.29496335044E+02  0.00000000000E+00 0. -1.
</event>
<event>
 5    1  0.1267616E-004  0.9118800E+02  0.7818608E-02  0.1130116E+00
         25   -1    0    0    0    0  0.00000000000E+00  0.00000000000E+00  0.99999998245E-14  0.12500000000E+03  0.12500000000E+03 0.  0.
        -13    1    3    3    0    0 -0.16219253814E+02  0.58361649085E+02  0.10869048988E+02  0.61540991771E+02  0.10566000000E+00 0. -1.
         23    2    1    0    0    0 -0.80028658253E+01  0.24324953201E+02  0.12314385299E+02  0.96585333101E+02  0.92311068000E+02 0.  0.
         13    1    3    3    0    0  0.82163879887E+01 -0.34036695883E+02  0.14453363108E+01  0.35044341331E+02  0.10566000000E+00 0.  1.
         22    1    1    0    0    0  0.80028658253E+01 -0.24324953201E+02 -0.12314385299E+02  0.28414666899E+02  0.00000000000E+00 0. -1.
</event>
<event>
 5    1  0.1267616E-004  0.9118800E+02  0.7818608E-02  0.1130116E+00
         25   -1    0    0    0    0  0.00000000000E+00  0.00000000000E+00  0.99999998245E-14  0.12500000000E+03  0.12500000000E+03 0.  0.
        -13    1    3    3    0    0  0.11304954072E+02  0.19423291419E+02 -0.51914627622E+02  0.56570362924E+02  0.10566000000E+00 0.  1.
         23    2    1    0    0    0  0.68992488078E+01  0.25101092394E+02 -0.13453919476E+02  0.95696887149E+02  0.91100064694E+02 0.  0.
         13    1    3    3    0    0 -0.44057052646E+01  0.56778009751E+01  0.38460708146E+02  0.39126524225E+02  0.10566000000E+00 0. -1.
         22    1    1    0    0    0 -0.68992488078E+01 -0.25101092394E+02  0.13453919476E+02  0.29303112851E+02  0.00000000000E+00 0.  1.
</event>
<event>
 5    1  0.1267616E-004  0.9118800E+02  0.7818608E-02  0.1130116E+00
         25   -1    0    0    0    0  0.00000000000E+00  0.00000000000E+00  0.99999998245E-14  0.12500000000E+03  0.12500000000E+03 0.  0.
        -13    1    3    3    0    0  0.25057358371E+02  0.36901330792E+02 -0.13204313361E+02  0.46518216627E+02  0.10566000000E+00 0. -1.
         23    2    1    0    0    0  0.23138073277E+01 -0.49244656041E+01 -0.28080009426E+02  0.96397709966E+02  0.92056653705E+02 0.  0.
         13    1    3    3    0    0 -0.22743551044E+02 -0.41825796396E+02 -0.14875696065E+02  0.49879493339E+02  0.10566000000E+00 0.  1.
         22    1    1    0    0    0 -0.23138073277E+01  0.49244656041E+01  0.28080009426E+02  0.28602290034E+02  0.00000000000E+00 0. -1.
</event>
<event>
 5    1  0.1267616E-004  0.9118800E+02  0.7818608E-02  0.1130116E+00
         25   -1    0    0    0    0  0.00000000000E+00  0.00000000000E+00  0.99999998245E-14  0.12500000000E+03  0.12500000000E+03 0.  0.
        -13    1    3    3    0    0 -0.55761343209E+02 -0.10365760556E+02 -0.10703766313E+02  0.57717918931E+02  0.10566000000E+00 0.  1.
         23    2    1    0    0    0 -0.19653927782E+02 -0.36470627400E+01 -0.21146482794E+02  0.95901002106E+02  0.91379705222E+02 0.  0.
         13    1    3    3    0    0  0.36107415428E+02  0.67186978159E+01 -0.10442716482E+02  0.38183083175E+02  0.10566000000E+00 0. -1.
         22    1    1    0    0    0  0.19653927782E+02  0.36470627400E+01  0.21146482794E+02  0.29098997894E+02  0.00000000000E+00 0.  1.
</event>
<event>
 5    1  0.1267616E-004  0.9118800E+02  0.7818608E-02  0.1130116E+00
         25   -1    0    0    0    0  0.00000000000E+00  0.00000000000E+00  0.99999998245E-14  0.12500000000E+03  0.12500000000E+03 0.  0.
        -13    1    3    3    0    0  0.67571385438E+01 -0.38890100022E+02  0.88156471117E+01  0.40445340882E+02  0.10566000000E+00 0.  1.
         23    2    1    0    0    0  0.17500711411E+02 -0.19975677870E+00 -0.26044886627E+02  0.93620852114E+02  0.88205515862E+02 0.  0.
         13    1    3    3    0    0  0.10743572867E+02  0.38690343243E+02 -0.34860533739E+02  0.53175511232E+02  0.10566000000E+00 0. -1.
         22    1    1    0    0    0 -0.17500711411E+02  0.19975677870E+00  0.26044886627E+02  0.31379147886E+02  0.00000000000E+00 0. -1.
</event>
<event>
 5    1  0.1267616E-004  0.9118800E+02  0.7818608E-02  0.1130116E+00
         25   -1    0    0    0    0  0.00000000000E+00  0.00000000000E+00  0.99999998245E-14  0.12500000000E+03  0.12500000000E+03 0.  0.
        -13    1    3    3    0    0 -0.25637680152E+02 -0.12730357208E+02 -0.26477230565E+02  0.38992403628E+02  0.10566000000E+00 0.  1.
         23    2    1    0    0    0 -0.13250270776E+02  0.22397833012E+02  0.15178666555E+02  0.94873192707E+02  0.89962759944E+02 0.  0.
         13    1    3    3    0    0  0.12387409376E+02  0.35128190220E+02  0.41655897120E+02  0.55880789079E+02  0.10566000000E+00 0. -1.
         22    1    1    0    0    0  0.13250270776E+02 -0.22397833012E+02 -0.15178666555E+02  0.30126807293E+02  0.00000000000E+00 0. -1.
</event>
<event>
 5    1  0.1267616E-004  0.9118800E+02  0.7818608E-02  0.1130116E+00
         25   -1    0    0    0    0  0.00000000000E+00  0.00000000000E+00  0.99999998245E-14  0.12500000000E+03  0.12500000000E+03 0.  0.
        -13    1    3    3    0    0 -0.30688943170E+02  0.12536038877E+02  0.77570696185E+01  0.34046244972E+02  0.10566000000E+00 0.  1.
         23    2    1    0    0    0  0.27239261145E+02  0.34208384763E+01 -0.10717931804E+02  0.95528767489E+02  0.90869091952E+02 0.  0.
         13    1    3    3    0    0  0.57928204314E+02 -0.91152004004E+01 -0.18475001422E+02  0.61482522517E+02  0.10566000000E+00 0. -1.
         22    1    1    0    0    0 -0.27239261145E+02 -0.34208384763E+01  0.10717931804E+02  0.29471232511E+02  0.00000000000E+00 0. -1.
</event>
<event>
 5    1  0.1267616E-004  0.9118800E+02  0.7818608E-02  0.1130116E+00
         25   -1    0    0    0    0  0.00000000000E+00  0.00000000000E+00  0.99999998245E-14  0.12500000000E+03  0.12500000000E+03 0.  0.
        -13    1    3    3    0    0 -0.13680964613E+02 -0.21757425365E+02 -0.45609129168E+02  0.52352250943E+02  0.10566000000E+00 0. -1.
         23    2    1    0    0    0 -0.27031501826E+02 -0.10070823213E+02 -0.63097895602E+01  0.95471420362E+02  0.90790170671E+02 0.  0.
         13    1    3    3    0    0 -0.13350537212E+02  0.11686602152E+02  0.39299339608E+02  0.43119169419E+02  0.10566000000E+00 0.  1.
         22    1    1    0    0    0  0.27031501826E+02  0.10070823213E+02  0.63097895602E+01  0.29528579638E+02  0.00000000000E+00 0. -1.
</event>
<event>
 5    1  0.1267616E-004  0.9118800E+02  0.7818608E-02  0.1130116E+00
         25   -1    0    0    0    0  0.00000000000E+00  0.00000000000E+00  0.99999998245E-14  0.12500000000E+03  0.12500000000E+03 0.  0.
        -13    1    3    3    0    0  0.19152062679E+02  0.56680849883E+02  0.18046677979E+02  0.62491711438E+02  0.10566000000E+00 0. -1.
         23    2    1    0    0    0  0.83296532930E+01  0.26567472978E+02  0.80100190857E+01  0.96028045455E+02  0.91553325246E+02 0.  0.
         13    1    3    3    0    0 -0.10822409386E+02 -0.30113376905E+02 -0.10036658893E+02  0.33536334017E+02  0.10566000000E+00 0.  1.
         22    1    1    0    0    0 -0.83296532930E+01 -0.26567472978E+02 -0.80100190857E+01  0.28971954545E+02  0.00000000000E+00 0. -1.
</event>
<event>
 5    1  0.1267616E-004  0.9118800E+02  0.7818608E-02  0.1130116E+00
         25   -1    0    0    0    0  0.00000000000E+00  0.00000000000E+00  0.99999998245E-14  0.12500000000E+03  0.12500000000E+03 0.  0.
        -13    1    3    3    0    0 -0.77912489066E+01  0.73707954315E+01  0.46604975080E+02  0.47823289839E+02  0.10566000000E+00 0.  1.
         23    2    1    0    0    0  0.84963625261E+01 -0.24224434982E+02  0.15833667215E+02  0.94838494005E+02  0.89914534428E+02 0.  0.
         13    1    3    3    0    0  0.16287611433E+02 -0.31595230414E+02 -0.30771307865E+02  0.47015204166E+02  0.10566000000E+00 0. -1.
         22    1    1    0    0    0 -0.84963625261E+01  0.24224434982E+02 -0.15833667215E+02  0.30161505995E+02  0.00000000000E+00 0. -1.
</event>
<event>
 5    1  0.1267616E-004  0.9118800E+02  0.7818608E-02  0.1130116E+00
         25   -1    0    0    0    0  0.00000000000E+00  0.00000000000E+00  0.99999998245E-14  0.12500000000E+03  0.12500000000E+03 0.  0.
        -13    1    3    3    0    0 -0.85424427590E+01 -0.45649179522E+02  0.99621627854E+01  0.47498176499E+02  0.10566000000E+00 0.  1.
         23    2    1    0    0    0 -0.29638644032E+02 -0.51431164447E+01 -0.24308955959E+01  0.94820369117E+02  0.89889333512E+02 0.  0.
         13    1    3    3    0    0 -0.21096201273E+02  0.40506063077E+02 -0.12393058381E+02  0.47322192619E+02  0.10566000000E+00 0. -1.
         22    1    1    0    0    0  0.29638644032E+02  0.51431164447E+01  0.24308955959E+01  0.30179630883E+02  0.00000000000E+00 0. -1.
</event>
<event>
 5    1  0.1267616E-004  0.9118800E+02  0.7818608E-02  0.1130116E+00
         25   -1    0    0    0    0  0.00000000000E+00  0.00000000000E+00  0.99999998245E-14  0.12500000000E+03  0.12500000000E+03 0.  0.
        -13    1    3    3    0    0  0.27649675929E+02 -0.27461306773E+02 -0.10230738970E+02  0.40290285834E+02  0.10566000000E+00 0.  1.
         23    2    1    0    0    0  0.10779022415E+02  0.13328986798E+02  0.23548023571E+02  0.95873403437E+02  0.91341944687E+02 0.  0.
         13    1    3    3    0    0 -0.16870653513E+02  0.40790293571E+02  0.33778762541E+02  0.55583117603E+02  0.10566000000E+00 0. -1.
         22    1    1    0    0    0 -0.10779022415E+02 -0.13328986798E+02 -0.23548023571E+02  0.29126596563E+02  0.00000000000E+00 0. -1.
</event>
<event>
 5    1  0.1267616E-004  0.9118800E+02  0.7818608E-02  0.1130116E+00
         25   -1    0    0    0    0  0.00000000000E+00  0.00000000000E+00  0.99999998245E-14  0.12500000000E+03  0.12500000000E+03 0.  0.
        -13    1    3    3    0    0 -0.26371688240E+02 -0.39342415179E+01 -0.22760235654E+02  0.35056863637E+02  0.10566000000E+00 0.  1.
         23    2    1    0    0    0  0.71625489470E+01  0.13843418748E+02  0.24678936356E+02  0.95811093722E+02  0.91256634995E+02 0.  0.
         13    1    3    3    0    0  0.33534237187E+02  0.17777660266E+02  0.47439172010E+02  0.60754230086E+02  0.10566000000E+00 0. -1.
         22    1    1    0    0    0 -0.71625489470E+01 -0.13843418748E+02 -0.24678936356E+02  0.29188906278E+02  0.00000000000E+00 0. -1.
</event>
<event>
 5    1  0.1267616E-004  0.9118800E+02  0.7818608E-02  0.1130116E+00
         25   -1    0    0    0    0  0.00000000000E+00  0.00000000000E+00  0.99999998245E-14  0.12500000000E+03  0.12500000000E+03 0.  0.
        -13    1    3    3    0    0 -0.52093374412E+02  0.16758602915E+02  0.21822156087E+01  0.54766263870E+02  0.10566000000E+00 0. -1.
         23    2    1    0    0    0 -0.17199989300E+02  0.13728947920E+02  0.21047000920E+02  0.94548400853E+02  0.89510335789E+02 0.  0.
         13    1    3    3    0    0  0.34893385112E+02 -0.30296549952E+01  0.18864785312E+02  0.39782136982E+02  0.10566000000E+00 0.  1.
         22    1    1    0    0    0  0.17199989300E+02 -0.13728947920E+02 -0.21047000920E+02  0.30451599147E+02  0.00000000000E+00 0. -1.
</event>
<event>
 5    1  0.1267616E-004  0.9118800E+02  0.7818608E-02  0.1130116E+00
         25   -1    0    0    0    0  0.00000000000E+00  0.00000000000E+00  0.99999998245E-14  0.12500000000E+03  0.12500000000E+03 0.  0.
        -13    1    3    3    0    0  0.68905986753E+01  0.38369907409E+02  0.26606548313E+01  0.39074549170E+02  0.10566000000E+00 0. -1.
         23    2    1    0    0    0  0.24835940179E+02 -0.15372317158E+02  0.17043728356E+01  0.95741890933E+02  0.91161794263E+02 0.  0.
         13    1    3    3    0    0  0.17945341504E+02 -0.53742224567E+02 -0.95628199573E+00  0.56667341763E+02  0.10566000000E+00 0.  1.
         22    1    1    0    0    0 -0.24835940179E+02  0.15372317158E+02 -0.17043728356E+01  0.29258109067E+02  0.00000000000E+00 0.  1.
</event>
<event>
 5    1  0.1267616E-004  0.9118800E+02  0.7818608E-02  0.1130116E+00
         25   -1    0    0    0    0  0.00000000000E+00  0.00000000000E+00  0.99999998245E-14  0.12500000000E+03  0.12500000000E+03 0.  0.
        -13    1    3    3    0    0 -0.10007963506E+02 -0.22311852858E+02 -0.51453875867E+02  0.56969207624E+02  0.10566000000E+00 0.  1.
         23    2    1    0    0    0 -0.12763132574E+02  0.37073891349E+00 -0.40927765998E+02  0.82126732921E+02  0.70047721092E+02 0.  0.
         13    1    3    3    0    0 -0.27551690681E+01  0.22682591771E+02  0.10526109869E+02  0.25157525297E+02  0.10566000000E+00 0. -1.
         22    1    1    0    0    0  0.12763132574E+02 -0.37073891349E+00  0.40927765998E+02  0.42873267079E+02  0.00000000000E+00 0.  1.
</event>
<event>
 5    1  0.1267616E-004  0.9118800E+02  0.7818608E-02  0.1130116E+00
         25   -1    0    0    0    0  0.00000000000E+00  0.00000000000E+00  0.99999998245E-14  0.12500000000E+03  0.12500000000E+03 0.  0.
        -13    1    3    3    0    0 -0.59951257029E+02 -0.81266442920E-01 -0.73082642125E+01  0.60395212670E+02  0.10566000000E+00 0.  1.
         23    2    1    0    0    0 -0.25624540428E+02 -0.11382104629E+02 -0.38166354255E+01  0.96702719496E+02  0.92469886310E+02 0.  0.
         13    1    3    3    0    0  0.34326716601E+02 -0.11300838186E+02  0.34916287870E+01  0.36307506827E+02  0.10566000000E+00 0. -1.
         22    1    1    0    0    0  0.25624540428E+02  0.11382104629E+02  0.38166354255E+01  0.28297280504E+02  0.00000000000E+00 0.  1.
</event>
<event>
 5    1  0.1267616E-004  0.9118800E+02  0.7818608E-02  0.1130116E+00
         25   -1    0    0    0    0  0.00000000000E+00  0.00000000000E+00  0.99999998245E-14  0.12500000000E+03  0.12500000000E+03 0.  0.
        -13    1    3    3    0    0 -0.11438027733E+02  0.24002309887E+02  0.16591368527E+02  0.31340453602E+02  0.10566000000E+00 0. -1.
         23    2    1    0    0    0  0.37998955507E+02  0.17579217291E+02  0.12222800518E+02  0.81384104357E+02  0.68709723398E+02 0.  0.
         13    1    3    3    0    0  0.49436983241E+02 -0.64230925965E+01 -0.43685680094E+01  0.50043650755E+02  0.10566000000E+00 0.  1.
         22    1    1    0    0    0 -0.37998955507E+02 -0.17579217291E+02 -0.12222800518E+02  0.43615895643E+02  0.00000000000E+00 0.  1.
</event>
<event>
 5    1  0.1267616E-004  0.9118800E+02  0.7818608E-02  0.1130116E+00
         25   -1    0    0    0    0  0.00000000000E+00  0.00000000000E+00  0.99999998245E-14  0.12500000000E+03  0.12500000000E+03 0.  0.
        -13    1    3    3    0    0  0.37349892655E+02  0.17253628440E+02 -0.24250102789E+02  0.47757521135E+02  0.10566000000E+00 0. -1.
         23    2    1    0    0    0 -0.99890281546E+01  0.23369327901E+02 -0.11091172405E+02  0.97270588262E+02  0.93234366332E+02 0.  0.
         13    1    3    3    0    0 -0.47338920810E+02  0.61156994617E+01  0.13158930384E+02  0.49513067126E+02  0.10566000000E+00 0.  1.
         22    1    1    0    0    0  0.99890281546E+01 -0.23369327901E+02  0.11091172405E+02  0.27729411738E+02  0.00000000000E+00 0.  1.
</event>
<event>
 5    1  0.1267616E-004  0.9118800E+02  0.7818608E-02  0.1130116E+00
         25   -1    0    0    0    0  0.00000000000E+00  0.00000000000E+00  0.99999998245E-14  0.12500000000E+03  0.12500000000E+03 0.  0.
        -13    1    3    3    0    0 -0.58548011915E+01 -0.16083949816E+02 -0.29107493355E+02  0.33767284050E+02  0.10566000000E+00 0.  1.
         23    2    1    0    0    0  0.16327333076E+02  0.25818683667E+02  0.73553295957E+01  0.93578874859E+02  0.88146007934E+02 0.  0.
         13    1    3    3    0    0  0.22182134268E+02  0.41902633483E+02  0.36462822951E+02  0.59811590809E+02  0.10566000000E+00 0. -1.
         22    1    1    0    0    0 -0.16327333076E+02 -0.25818683667E+02 -0.73553295957E+01  0.31421125141E+02  0.00000000000E+00 0. -1.
</event>
<event>
 5    1  0.1267616E-004  0.9118800E+02  0.7818608E-02  0.1130116E+00
         25   -1    0    0    0    0  0.00000000000E+00  0.00000000000E+00  0.99999998245E-14  0.12500000000E+03  0.12500000000E+03 0.  0.
        -13    1    3    3    0    0  0.13349463444E+02  0.35838011277E+02 -0.54431923057E+01  0.38629143571E+02  0.10566000000E+00 0. -1.
         23    2    1    0    0    0 -0.67659525043E+01 -0.93051554616E+01  0.25559511733E+02  0.96970503546E+02  0.92831168723E+02 0.  0.
         13    1    3    3    0    0 -0.20115415948E+02 -0.45143166739E+02  0.31002704039E+02  0.58341359975E+02  0.10566000000E+00 0.  1.
         22    1    1    0    0    0  0.67659525043E+01  0.93051554616E+01 -0.25559511733E+02  0.28029496454E+02  0.00000000000E+00 0.  1.
</event>
<event>
 5    1  0.1267616E-004  0.9118800E+02  0.7818608E-02  0.1130116E+00
         25   -1    0    0    0    0  0.00000000000E+00  0.00000000000E+00  0.99999998245E-14  0.12500000000E+03  0.12500000000E+03 0.  0.
        -13    1    3    3    0    0  0.39334450697E+02 -0.28842045277E+02 -0.29922121849E+02  0.57222435525E+02  0.10566000000E+00 0. -1.
         23    2    1    0    0    0  0.14317060027E+02 -0.25055586344E+02 -0.35222711042E+00  0.96140258512E+02  0.91706404509E+02 0.  0.
         13    1    3    3    0    0 -0.25017390670E+02  0.37864589339E+01  0.29569894739E+02  0.38917822987E+02  0.10566000000E+00 0.  1.
         22    1    1    0    0    0 -0.14317060027E+02  0.25055586344E+02  0.35222711042E+00  0.28859741488E+02  0.00000000000E+00 0. -1.
</event>
<event>
 5    1  0.1267616E-004  0.9118800E+02  0.7818608E-02  0.1130116E+00
         25   -1    0    0    0    0  0.00000000000E+00  0.00000000000E+00  0.99999998245E-14  0.12500000000E+03  0.12500000000E+03 0.  0.
        -13    1    3    3    0    0  0.30348731994E+02  0.32596370286E+02  0.43501154422E+01  0.44749341423E+02  0.10566000000E+00 0.  1.
         23    2    1    0    0    0 -0.16720648009E+01  0.64408453762E+01 -0.27352118437E+02  0.96850067978E+02  0.92668856659E+02 0.  0.
         13    1    3    3    0    0 -0.32020796794E+02 -0.26155524909E+02 -0.31702233879E+02  0.52100726555E+02  0.10566000000E+00 0. -1.
         22    1    1    0    0    0  0.16720648009E+01 -0.64408453762E+01  0.27352118437E+02  0.28149932022E+02  0.00000000000E+00 0. -1.
</event>
<event>
 5    1  0.1267616E-004  0.9118800E+02  0.7818608E-02  0.1130116E+00
         25   -1    0    0    0    0  0.00000000000E+00  0.00000000000E+00  0.99999998245E-14  0.12500000000E+03  0.12500000000E+03 0.  0.
        -13    1    3    3    0    0  0.10524826144E+02  0.12762920163E+02 -0.31938795532E+02  0.35968902131E+02  0.10566000000E+00 0.  1.
         23    2    1    0    0    0 -0.28587505369E+02  0.32380197070E+00  0.10060217050E+02  0.94692273625E+02  0.89711027228E+02 0.  0.
         13    1    3    3    0    0 -0.39112331513E+02 -0.12439118192E+02  0.41999012582E+02  0.58723371494E+02  0.10566000000E+00 0. -1.
         22    1    1    0    0    0  0.28587505369E+02 -0.32380197070E+00 -0.10060217050E+02  0.30307726375E+02  0.00000000000E+00 0. -1.
</event>
<event>
 5    1  0.1267616E-004  0.9118800E+02  0.7818608E-02  0.1130116E+00
         25   -1    0    0    0    0  0.00000000000E+00  0.00000000000E+00  0.99999998245E-14  0.12500000000E+03  0.12500000000E+03 0.  0.
        -13    1    3    3    0    0  0.34100388359E+02 -0.14102844871E+02  0.62376672479E+01  0.37425210439E+02  0.10566000000E+00 0. -1.
         23    2    1    0    0    0 -0.37933186041E+01  0.26438928850E+02 -0.11831998151E+02  0.95786948037E+02  0.91223555122E+02 0.  0.
         13    1    3    3    0    0 -0.37893706963E+02  0.40541773721E+02 -0.18069665399E+02  0.58361737598E+02  0.10566000000E+00 0.  1.
         22    1    1    0    0    0  0.37933186041E+01 -0.26438928850E+02  0.11831998151E+02  0.29213051963E+02  0.00000000000E+00 0.  1.
</event>
<event>
 5    1  0.1267616E-004  0.9118800E+02  0.7818608E-02  0.1130116E+00
         25   -1    0    0    0    0  0.00000000000E+00  0.00000000000E+00  0.99999998245E-14  0.12500000000E+03  0.12500000000E+03 0.  0.
        -13    1    3    3    0    0  0.38510339107E+02  0.27679389300E+02 -0.31079835687E+02  0.56702399954E+02  0.10566000000E+00 0. -1.
         23    2    1    0    0    0  0.15637607887E+02 -0.41256757009E+01 -0.23290622502E+02  0.96644946183E+02  0.92391755832E+02 0.  0.
         13    1    3    3    0    0 -0.22872731220E+02 -0.31805065001E+02  0.77892131848E+01  0.39942546229E+02  0.10566000000E+00 0.  1.
         22    1    1    0    0    0 -0.15637607887E+02  0.41256757009E+01  0.23290622502E+02  0.28355053817E+02  0.00000000000E+00 0. -1.
</event>
<event>
 5    1  0.1267616E-004  0.9118800E+02  0.7818608E-02  0.1130116E+00
         25   -1    0    0    0    0  0.00000000000E+00  0.00000000000E+00  0.99999998245E-14  0.12500000000E+03  0.12500000000E+03 0.  0.
        -13    1    3    3    0    0 -0.12070583488E+02  0.12039669517E+02 -0.57106520052E+02  0.59597134363E+02  0.10566000000E+00 0.  1.
         23    2    1    0    0    0 -0.18451867158E+01 -0.66833544406E+01 -0.30610007295E+02  0.93614581615E+02  0.88196629208E+02 0.  0.
         13    1    3    3    0    0  0.10225396772E+02 -0.18723023958E+02  0.26496512756E+02  0.34017447252E+02  0.10566000000E+00 0. -1.
         22    1    1    0    0    0  0.18451867158E+01  0.66833544406E+01  0.30610007295E+02  0.31385418385E+02  0.00000000000E+00 0.  1.
</event>
<event>
 5    1  0.1267616E-004  0.9118800E+02  0.7818608E-02  0.1130116E+00
         25   -1    0    0    0    0  0.00000000000E+00  0.00000000000E+00  0.99999998245E-14  0.12500000000E+03  0.12500000000E+03 0.  0.
        -13    1    3    3    0    0  0.48972279486E+02 -0.13155464436E+02  0.10553135230E+02  0.51795079205E+02  0.10566000000E+00 0. -1.
         23    2    1    0    0    0  0.23728326910E+02  0.19757758093E+02  0.27666424172E+01  0.93999083674E+02  0.88739906009E+02 0.  0.
         13    1    3    3    0    0 -0.25243952576E+02  0.32913222528E+02 -0.77864928132E+01  0.42204004469E+02  0.10566000000E+00 0.  1.
         22    1    1    0    0    0 -0.23728326910E+02 -0.19757758093E+02 -0.27666424172E+01  0.31000916326E+02  0.00000000000E+00 0.  1.
</event>
<event>
 5    1  0.1267616E-004  0.9118800E+02  0.7818608E-02  0.1130116E+00
         25   -1    0    0    0    0  0.00000000000E+00  0.00000000000E+00  0.99999998245E-14  0.12500000000E+03  0.12500000000E+03 0.  0.
        -13    1    3    3    0    0  0.40070425066E+02 -0.10291210190E+02  0.15422018288E+02  0.44151985054E+02  0.10566000000E+00 0. -1.
         23    2    1    0    0    0 -0.16329699517E+01  0.19308722416E+02  0.21964879596E+02  0.95709228623E+02  0.91116997073E+02 0.  0.
         13    1    3    3    0    0 -0.41703395017E+02  0.29599932606E+02  0.65428613081E+01  0.51557243568E+02  0.10566000000E+00 0.  1.
         22    1    1    0    0    0  0.16329699517E+01 -0.19308722416E+02 -0.21964879596E+02  0.29290771377E+02  0.00000000000E+00 0. -1.
</event>
<event>
 5    1  0.1267616E-004  0.9118800E+02  0.7818608E-02  0.1130116E+00
         25   -1    0    0    0    0  0.00000000000E+00  0.00000000000E+00  0.99999998245E-14  0.12500000000E+03  0.12500000000E+03 0.  0.
        -13    1    3    3    0    0  0.34720750264E+02 -0.99643153986E+01 -0.17893783165E+02  0.40311496130E+02  0.10566000000E+00 0. -1.
         23    2    1    0    0    0 -0.67549192080E+01  0.21872914601E+02 -0.22628220821E+02  0.92811652665E+02  0.87051210021E+02 0.  0.
         13    1    3    3    0    0 -0.41475669472E+02  0.31837230000E+02 -0.47344376559E+01  0.52500156535E+02  0.10566000000E+00 0.  1.
         22    1    1    0    0    0  0.67549192080E+01 -0.21872914601E+02  0.22628220821E+02  0.32188347335E+02  0.00000000000E+00 0.  1.
</event>
<event>
 5    1  0.1267616E-004  0.9118800E+02  0.7818608E-02  0.1130116E+00
         25   -1    0    0    0    0  0.00000000000E+00  0.00000000000E+00  0.99999998245E-14  0.12500000000E+03  0.12500000000E+03 0.  0.
        -13    1    3    3    0    0  0.18826955300E+02 -0.27910272785E+02  0.44905828266E+02  0.56124701773E+02  0.10566000000E+00 0. -1.
         23    2    1    0    0    0 -0.49787712085E+01 -0.25825807171E+02  0.13959993348E+02  0.95223467410E+02  0.90448144550E+02 0.  0.
         13    1    3    3    0    0 -0.23805726509E+02  0.20844656143E+01 -0.30945834919E+02  0.39098765637E+02  0.10566000000E+00 0.  1.
         22    1    1    0    0    0  0.49787712085E+01  0.25825807171E+02 -0.13959993348E+02  0.29776532590E+02  0.00000000000E+00 0. -1.
</event>
<event>
 5    1  0.1267616E-004  0.9118800E+02  0.7818608E-02  0.1130116E+00
         25   -1    0    0    0    0  0.00000000000E+00  0.00000000000E+00  0.99999998245E-14  0.12500000000E+03  0.12500000000E+03 0.  0.
        -13    1    3    3    0    0  0.80769855949E+00  0.56302156923E+02 -0.11712784771E+02  0.57513352730E+02  0.10566000000E+00 0.  1.
         23    2    1    0    0    0  0.14828849477E+00  0.19357733683E+02 -0.21829234882E+02  0.95823651045E+02  0.91273833935E+02 0.  0.
         13    1    3    3    0    0 -0.65941006472E+00 -0.36944423239E+02 -0.10116450110E+02  0.38310298315E+02  0.10566000000E+00 0. -1.
         22    1    1    0    0    0 -0.14828849477E+00 -0.19357733683E+02  0.21829234882E+02  0.29176348955E+02  0.00000000000E+00 0.  1.
</event>
<event>
 5    1  0.1267616E-004  0.9118800E+02  0.7818608E-02  0.1130116E+00
         25   -1    0    0    0    0  0.00000000000E+00  0.00000000000E+00  0.99999998245E-14  0.12500000000E+03  0.12500000000E+03 0.  0.
        -13    1    3    3    0    0 -0.13136297550E+02  0.34787813952E+02 -0.24262385208E+02  0.44400774913E+02  0.10566000000E+00 0.  1.
         23    2    1    0    0    0 -0.13915456765E+02  0.14594720818E+02  0.22164342117E+02  0.95034955795E+02  0.90187243825E+02 0.  0.
         13    1    3    3    0    0 -0.77915921554E+00 -0.20193093134E+02  0.46426727325E+02  0.50634180882E+02  0.10566000000E+00 0. -1.
         22    1    1    0    0    0  0.13915456765E+02 -0.14594720818E+02 -0.22164342117E+02  0.29965044205E+02  0.00000000000E+00 0.  1.
</event>
<event>
 5    1  0.1267616E-004  0.9118800E+02  0.7818608E-02  0.1130116E+00
         25   -1    0    0    0    0  0.00000000000E+00  0.00000000000E+00  0.99999998245E-14  0.12500000000E+03  0.12500000000E+03 0.  0.
        -13    1    3    3    0    0  0.30390680613E+02  0.14376903839E+02 -0.17619460490E+02  0.37957151949E+02  0.10566000000E+00 0.  1.
         23    2    1    0    0    0 -0.31115159499E+01 -0.29345971995E+02 -0.10782613720E+01  0.95469841663E+02  0.90787997090E+02 0.  0.
         13    1    3    3    0    0 -0.33502196563E+02 -0.43722875834E+02  0.16541199118E+02  0.57512689713E+02  0.10566000000E+00 0. -1.
         22    1    1    0    0    0  0.31115159499E+01  0.29345971995E+02  0.10782613720E+01  0.29530158337E+02  0.00000000000E+00 0. -1.
</event>
<event>
 5    1  0.1267616E-004  0.9118800E+02  0.7818608E-02  0.1130116E+00
         25   -1    0    0    0    0  0.00000000000E+00  0.00000000000E+00  0.99999998245E-14  0.12500000000E+03  0.12500000000E+03 0.  0.
        -13    1    3    3    0    0  0.19583630233E+02 -0.10500083535E+02  0.34721614874E+02  0.41223440308E+02  0.10566000000E+00 0. -1.
         23    2    1    0    0    0  0.16816798781E+02  0.22621609015E+02 -0.83252924324E+01  0.95608633755E+02  0.90978890072E+02 0.  0.
         13    1    3    3    0    0 -0.27668314515E+01  0.33121692550E+02 -0.43046907306E+02  0.54385193447E+02  0.10566000000E+00 0.  1.
         22    1    1    0    0    0 -0.16816798781E+02 -0.22621609015E+02  0.83252924324E+01  0.29391366245E+02  0.00000000000E+00 0.  1.
</event>
<event>
 5    1  0.1267616E-004  0.9118800E+02  0.7818608E-02  0.1130116E+00
         25   -1    0    0    0    0  0.00000000000E+00  0.00000000000E+00  0.99999998245E-14  0.12500000000E+03  0.12500000000E+03 0.  0.
        -13    1    3    3    0    0  0.33130516511E+02  0.21896550964E+02  0.12562056983E+02  0.41652208922E+02  0.10566000000E+00 0. -1.
         23    2    1    0    0    0 -0.13940126889E+02  0.19084488677E+02 -0.15699186355E+02  0.96627314228E+02  0.92367897870E+02 0.  0.
         13    1    3    3    0    0 -0.47070643400E+02 -0.28120622870E+01 -0.28261243338E+02  0.54975105306E+02  0.10566000000E+00 0.  1.
         22    1    1    0    0    0  0.13940126889E+02 -0.19084488677E+02  0.15699186355E+02  0.28372685772E+02  0.00000000000E+00 0.  1.
</event>
<event>
 5    1  0.1267616E-004  0.9118800E+02  0.7818608E-02  0.1130116E+00
         25   -1    0    0    0    0  0.00000000000E+00  0.00000000000E+00  0.99999998245E-14  0.12500000000E+03  0.12500000000E+03 0.  0.
        -13    1    3    3    0    0  0.37812909318E+02  0.33905791886E+02  0.10313854346E+02  0.51824758466E+02  0.10566000000E+00 0.  1.
         23    2    1    0    0    0 -0.80372572978E+01  0.23766047654E+02  0.72615091192E+01  0.98881959479E+02  0.95370277706E+02 0.  0.
         13    1    3    3    0    0 -0.45850166616E+02 -0.10139744231E+02 -0.30523452268E+01  0.47057201013E+02  0.10566000000E+00 0. -1.
         22    1    1    0    0    0  0.80372572978E+01 -0.23766047654E+02 -0.72615091192E+01  0.26118040521E+02  0.00000000000E+00 0. -1.
</event>
<event>
 5    1  0.1267616E-004  0.9118800E+02  0.7818608E-02  0.1130116E+00
         25   -1    0    0    0    0  0.00000000000E+00  0.00000000000E+00  0.99999998245E-14  0.12500000000E+03  0.12500000000E+03 0.  0.
        -13    1    3    3    0    0  0.23290962186E+02 -0.26148189718E+02 -0.11252370132E+01  0.35035325993E+02  0.10566000000E+00 0. -1.
         23    2    1    0    0    0 -0.18614252344E+02  0.18904595827E+02 -0.88157687215E+01  0.97043034645E+02  0.92928782738E+02 0.  0.
         13    1    3    3    0    0 -0.41905214530E+02  0.45052785545E+02 -0.76905317083E+01  0.62007708651E+02  0.10566000000E+00 0.  1.
         22    1    1    0    0    0  0.18614252344E+02 -0.18904595827E+02  0.88157687215E+01  0.27956965355E+02  0.00000000000E+00 0.  1.
</event>
<event>
 5    1  0.1267616E-004  0.9118800E+02  0.7818608E-02  0.1130116E+00
         25   -1    0    0    0    0  0.00000000000E+00  0.00000000000E+00  0.99999998245E-14  0.12500000000E+03  0.12500000000E+03 0.  0.
        -13    1    3    3    0    0  0.81752128697E+01 -0.60353234459E+00 -0.33548260898E+02  0.34535421382E+02  0.10566000000E+00 0.  1.
         23    2    1    0    0    0  0.84963851264E+01 -0.74331588917E-01  0.27822304047E+02  0.95909199257E+02  0.91390917570E+02 0.  0.
         13    1    3    3    0    0  0.32117225670E+00  0.52920075567E+00  0.61370564944E+02  0.61373777875E+02  0.10566000000E+00 0. -1.
         22    1    1    0    0    0 -0.84963851264E+01  0.74331588917E-01 -0.27822304047E+02  0.29090800743E+02  0.00000000000E+00 0. -1.
</event>
<event>
 5    1  0.1267616E-004  0.9118800E+02  0.7818608E-02  0.1130116E+00
         25   -1    0    0    0    0  0.00000000000E+00  0.00000000000E+00  0.99999998245E-14  0.12500000000E+03  0.12500000000E+03 0.  0.
        -13    1    3    3    0    0  0.38473389546E+02  0.26291263467E+02  0.39525877479E+02  0.61104323843E+02  0.10566000000E+00 0.  1.
         23    2    1    0    0    0  0.15230621072E+02  0.20657084702E+02  0.15431694112E+02  0.95052977614E+02  0.90212218704E+02 0.  0.
         13    1    3    3    0    0 -0.23242768474E+02 -0.56341787651E+01 -0.24094183366E+02  0.33948653770E+02  0.10566000000E+00 0. -1.
         22    1    1    0    0    0 -0.15230621072E+02 -0.20657084702E+02 -0.15431694112E+02  0.29947022386E+02  0.00000000000E+00 0.  1.
</event>
<event>
 5    1  0.1267616E-004  0.9118800E+02  0.7818608E-02  0.1130116E+00
         25   -1    0    0    0    0  0.00000000000E+00  0.00000000000E+00  0.99999998245E-14  0.12500000000E+03  0.12500000000E+03 0.  0.
        -13    1    3    3    0    0  0.22999853943E+02 -0.27418842893E+02  0.25549436302E+02  0.43972390046E+02  0.10566000000E+00 0. -1.
         23    2    1    0    0    0 -0.20913459273E+02  0.39471209541E+00  0.19674414608E+02  0.96283956287E+02  0.91902062391E+02 0.  0.
         13    1    3    3    0    0 -0.43913313215E+02  0.27813554988E+02 -0.58750216944E+01  0.52311566241E+02  0.10566000000E+00 0.  1.
         22    1    1    0    0    0  0.20913459273E+02 -0.39471209541E+00 -0.19674414608E+02  0.28716043713E+02  0.00000000000E+00 0.  1.
</event>
<event>
 5    1  0.1267616E-004  0.9118800E+02  0.7818608E-02  0.1130116E+00
         25   -1    0    0    0    0  0.00000000000E+00  0.00000000000E+00  0.99999998245E-14  0.12500000000E+03  0.12500000000E+03 0.  0.
        -13    1    3    3    0    0  0.42830745325E+01 -0.22816030528E+02  0.41472109729E+02  0.47527497577E+02  0.10566000000E+00 0. -1.
         23    2    1    0    0    0  0.11806264250E+02 -0.25195248982E+02 -0.67317597886E+01  0.96373001613E+02  0.92023097118E+02 0.  0.
         13    1    3    3    0    0  0.75231897171E+01 -0.23792184547E+01 -0.48203869518E+02  0.48845504036E+02  0.10566000000E+00 0.  1.
         22    1    1    0    0    0 -0.11806264250E+02  0.25195248982E+02  0.67317597886E+01  0.28626998387E+02  0.00000000000E+00 0. -1.
</event>
<event>
 5    1  0.1267616E-004  0.9118800E+02  0.7818608E-02  0.1130116E+00
         25   -1    0    0    0    0  0.00000000000E+00  0.00000000000E+00  0.99999998245E-14  0.12500000000E+03  0.12500000000E+03 0.  0.
        -13    1    3    3    0    0 -0.34790996834E+02 -0.28436560200E+02  0.52214686946E+01  0.45236338447E+02  0.10566000000E+00 0.  1.
         23    2    1    0    0    0  0.15714247138E+02  0.19288005253E+01 -0.10218847363E+02  0.10615636245E+03  0.10447052509E+03 0.  0.
         13    1    3    3    0    0  0.50505243973E+02  0.30365360726E+02 -0.15440316058E+02  0.60920024005E+02  0.10566000000E+00 0. -1.
         22    1    1    0    0    0 -0.15714247138E+02 -0.19288005253E+01  0.10218847363E+02  0.18843637548E+02  0.00000000000E+00 0. -1.
</event>
<event>
 5    1  0.1267616E-004  0.9118800E+02  0.7818608E-02  0.1130116E+00
         25   -1    0    0    0    0  0.00000000000E+00  0.00000000000E+00  0.99999998245E-14  0.12500000000E+03  0.12500000000E+03 0.  0.
        -13    1    3    3    0    0  0.35674529130E+02  0.29482940763E+02 -0.40557624297E+02  0.61537369763E+02  0.10566000000E+00 0.  1.
         23    2    1    0    0    0  0.15219944347E+02  0.81076974272E+01 -0.24018383970E+02  0.95432040448E+02  0.90735936167E+02 0.  0.
         13    1    3    3    0    0 -0.20454584782E+02 -0.21375243335E+02  0.16539240327E+02  0.33894670686E+02  0.10566000000E+00 0. -1.
         22    1    1    0    0    0 -0.15219944347E+02 -0.81076974272E+01  0.24018383970E+02  0.29567959552E+02  0.00000000000E+00 0.  1.
</event>
<event>
 5    1  0.1267616E-004  0.9118800E+02  0.7818608E-02  0.1130116E+00
         25   -1    0    0    0    0  0.00000000000E+00  0.00000000000E+00  0.99999998245E-14  0.12500000000E+03  0.12500000000E+03 0.  0.
        -13    1    3    3    0    0  0.11098253319E+01  0.96909188152E+01 -0.46936534571E+02  0.47939493753E+02  0.10566000000E+00 0.  1.
         23    2    1    0    0    0 -0.95345330299E+01 -0.23395464363E+02 -0.12710426222E+02  0.96719087575E+02  0.92492009891E+02 0.  0.
         13    1    3    3    0    0 -0.10644358362E+02 -0.33086383178E+02  0.34226108348E+02  0.48779593822E+02  0.10566000000E+00 0. -1.
         22    1    1    0    0    0  0.95345330299E+01  0.23395464363E+02  0.12710426222E+02  0.28280912425E+02  0.00000000000E+00 0. -1.
</event>
<event>
 5    1  0.1267616E-004  0.9118800E+02  0.7818608E-02  0.1130116E+00
         25   -1    0    0    0    0  0.00000000000E+00  0.00000000000E+00  0.99999998245E-14  0.12500000000E+03  0.12500000000E+03 0.  0.
        -13    1    3    3    0    0  0.22969489525E+02  0.51408331575E+02  0.10572723072E+02  0.57290554558E+02  0.10566000000E+00 0. -1.
         23    2    1    0    0    0 -0.66445122662E+01  0.26652182207E+02  0.96038388042E+01  0.95901510702E+02  0.91380400937E+02 0.  0.
         13    1    3    3    0    0 -0.29614001791E+02 -0.24756149368E+02 -0.96888426756E+00  0.38610956144E+02  0.10566000000E+00 0.  1.
         22    1    1    0    0    0  0.66445122662E+01 -0.26652182207E+02 -0.96038388042E+01  0.29098489298E+02  0.00000000000E+00 0. -1.
</event>
<event>
 5    1  0.1267616E-004  0.9118800E+02  0.7818608E-02  0.1130116E+00
         25   -1    0    0    0    0  0.00000000000E+00  0.00000000000E+00  0.99999998245E-14  0.12500000000E+03  0.12500000000E+03 0.  0.
        -13    1    3    3    0    0  0.23957877075E+02  0.12793661794E+02  0.31409185129E+02  0.41523556333E+02  0.10566000000E+00 0.  1.
         23    2    1    0    0    0 -0.15648341209E+02  0.25376886790E+02 -0.23906254920E+01  0.95090602547E+02  0.90264337569E+02 0.  0.
         13    1    3    3    0    0 -0.39606218284E+02  0.12583224996E+02 -0.33799810621E+02  0.53567046214E+02  0.10566000000E+00 0. -1.
         22    1    1    0    0    0  0.15648341209E+02 -0.25376886790E+02  0.23906254920E+01  0.29909397453E+02  0.00000000000E+00 0. -1.
</event>
<event>
 5    1  0.1267616E-004  0.9118800E+02  0.7818608E-02  0.1130116E+00
         25   -1    0    0    0    0  0.00000000000E+00  0.00000000000E+00  0.99999998245E-14  0.12500000000E+03  0.12500000000E+03 0.  0.
        -13    1    3    3    0    0 -0.20313827814E+01  0.54173729525E+02 -0.21731109894E+02  0.58405237675E+02  0.10566000000E+00 0.  1.
         23    2    1    0    0    0 -0.13260158974E+02  0.25550389674E+02  0.26863399193E+00  0.96212391681E+02  0.91804672649E+02 0.  0.
         13    1    3    3    0    0 -0.11228776192E+02 -0.28623339850E+02  0.21999743886E+02  0.37807154006E+02  0.10566000000E+00 0. -1.
         22    1    1    0    0    0  0.13260158974E+02 -0.25550389674E+02 -0.26863399193E+00  0.28787608319E+02  0.00000000000E+00 0.  1.
</event>
<event>
 5    1  0.1267616E-004  0.9118800E+02  0.7818608E-02  0.1130116E+00
         25   -1    0    0    0    0  0.00000000000E+00  0.00000000000E+00  0.99999998245E-14  0.12500000000E+03  0.12500000000E+03 0.  0.
        -13    1    3    3    0    0 -0.26070309517E+02  0.35982780265E+02 -0.44905917927E+00  0.44436857811E+02  0.10566000000E+00 0.  1.
         23    2    1    0    0    0  0.45329150107E+01  0.12745481017E+02  0.29099339374E+02  0.92910030277E+02  0.87192359580E+02 0.  0.
         13    1    3    3    0    0  0.30603224528E+02 -0.23237299248E+02  0.29548398553E+02  0.48473172466E+02  0.10566000000E+00 0. -1.
         22    1    1    0    0    0 -0.45329150107E+01 -0.12745481017E+02 -0.29099339374E+02  0.32089969723E+02  0.00000000000E+00 0.  1.
</event>
<event>
 5    1  0.1267616E-004  0.9118800E+02  0.7818608E-02  0.1130116E+00
         25   -1    0    0    0    0  0.00000000000E+00  0.00000000000E+00  0.99999998245E-14  0.12500000000E+03  0.12500000000E+03 0.  0.
        -13    1    3    3    0    0  0.24472983861E+02 -0.22218760124E+02 -0.16856730982E+02  0.37104727245E+02  0.10566000000E+00 0.  1.
         23    2    1    0    0    0 -0.45331912090E+01 -0.43342034704E+01  0.29613119831E+02  0.94730014728E+02  0.89763598869E+02 0.  0.
         13    1    3    3    0    0 -0.29006175070E+02  0.17884556654E+02  0.46469850812E+02  0.57625287483E+02  0.10566000000E+00 0. -1.
         22    1    1    0    0    0  0.45331912090E+01  0.43342034704E+01 -0.29613119831E+02  0.30269985272E+02  0.00000000000E+00 0. -1.
</event>
<event>
 5    1  0.1267616E-004  0.9118800E+02  0.7818608E-02  0.1130116E+00
         25   -1    0    0    0    0  0.00000000000E+00  0.00000000000E+00  0.99999998245E-14  0.12500000000E+03  0.12500000000E+03 0.  0.
        -13    1    3    3    0    0 -0.13729115150E+02 -0.34793132940E+01  0.31997401767E+02  0.34991986335E+02  0.10566000000E+00 0. -1.
         23    2    1    0    0    0  0.30108058766E+02  0.95806719726E+00 -0.72701419761E+01  0.94011807736E+02  0.88757827452E+02 0.  0.
         13    1    3    3    0    0  0.43837173916E+02  0.44373804913E+01 -0.39267543743E+02  0.59019821401E+02  0.10566000000E+00 0.  1.
         22    1    1    0    0    0 -0.30108058766E+02 -0.95806719726E+00  0.72701419761E+01  0.30988192264E+02  0.00000000000E+00 0.  1.
</event>
<event>
 5    1  0.1267616E-004  0.9118800E+02  0.7818608E-02  0.1130116E+00
         25   -1    0    0    0    0  0.00000000000E+00  0.00000000000E+00  0.99999998245E-14  0.12500000000E+03  0.12500000000E+03 0.  0.
        -13    1    3    3    0    0  0.25046297508E+02  0.26520052036E+02 -0.47811009874E+02  0.60137625561E+02  0.10566000000E+00 0.  1.
         23    2    1    0    0    0  0.21326406740E+02  0.17828609424E+02 -0.16885188280E+02  0.92476400543E+02  0.86568470794E+02 0.  0.
         13    1    3    3    0    0 -0.37198907676E+01 -0.86914426121E+01  0.30925821595E+02  0.32338774982E+02  0.10566000000E+00 0. -1.
         22    1    1    0    0    0 -0.21326406740E+02 -0.17828609424E+02  0.16885188280E+02  0.32523599457E+02  0.00000000000E+00 0.  1.
</event>
<event>
 5    1  0.1267616E-004  0.9118800E+02  0.7818608E-02  0.1130116E+00
         25   -1    0    0    0    0  0.00000000000E+00  0.00000000000E+00  0.99999998245E-14  0.12500000000E+03  0.12500000000E+03 0.  0.
        -13    1    3    3    0    0 -0.13063661707E+01  0.16712201063E+02  0.30373590925E+02  0.34692512833E+02  0.10566000000E+00 0.  1.
         23    2    1    0    0    0  0.17199686376E+02 -0.46787556357E+01 -0.23479014547E+02  0.95521463913E+02  0.90859044560E+02 0.  0.
         13    1    3    3    0    0  0.18506052546E+02 -0.21390956699E+02 -0.53852605472E+02  0.60828951080E+02  0.10566000000E+00 0. -1.
         22    1    1    0    0    0 -0.17199686376E+02  0.46787556357E+01  0.23479014547E+02  0.29478536087E+02  0.00000000000E+00 0. -1.
</event>
<event>
 5    1  0.1267616E-004  0.9118800E+02  0.7818608E-02  0.1130116E+00
         25   -1    0    0    0    0  0.00000000000E+00  0.00000000000E+00  0.99999998245E-14  0.12500000000E+03  0.12500000000E+03 0.  0.
        -13    1    3    3    0    0  0.79158592539E+01  0.75824239966E+01  0.60883939424E+02  0.61862906699E+02  0.10566000000E+00 0. -1.
         23    2    1    0    0    0  0.10032171924E+02  0.57844791378E+01  0.30469082063E+02  0.92404453767E+02  0.86464521290E+02 0.  0.
         13    1    3    3    0    0  0.21163126701E+01 -0.17979448588E+01 -0.30414857361E+02  0.30541547069E+02  0.10566000000E+00 0.  1.
         22    1    1    0    0    0 -0.10032171924E+02 -0.57844791378E+01 -0.30469082063E+02  0.32595546233E+02  0.00000000000E+00 0. -1.
</event>
<event>
 5    1  0.1267616E-004  0.9118800E+02  0.7818608E-02  0.1130116E+00
         25   -1    0    0    0    0  0.00000000000E+00  0.00000000000E+00  0.99999998245E-14  0.12500000000E+03  0.12500000000E+03 0.  0.
        -13    1    3    3    0    0 -0.52944245478E+02 -0.10209958065E+01 -0.15467339103E+02  0.55166885943E+02  0.10566000000E+00 0.  1.
         23    2    1    0    0    0 -0.15857355870E+02 -0.46021499500E+01 -0.26279753026E+02  0.93963554675E+02  0.88689845352E+02 0.  0.
         13    1    3    3    0    0  0.37086889608E+02 -0.35811541435E+01 -0.10812413923E+02  0.38796668732E+02  0.10566000000E+00 0. -1.
         22    1    1    0    0    0  0.15857355870E+02  0.46021499500E+01  0.26279753026E+02  0.31036445325E+02  0.00000000000E+00 0.  1.
</event>
<event>
 5    1  0.1267616E-004  0.9118800E+02  0.7818608E-02  0.1130116E+00
         25   -1    0    0    0    0  0.00000000000E+00  0.00000000000E+00  0.99999998245E-14  0.12500000000E+03  0.12500000000E+03 0.  0.
        -13    1    3    3    0    0  0.45752706258E+02  0.60171687730E+01  0.36344094798E+02  0.58740282947E+02  0.10566000000E+00 0.  1.
         23    2    1    0    0    0  0.14548967292E+02  0.16112996220E+02  0.20410794200E+02  0.95202321965E+02  0.90418916667E+02 0.  0.
         13    1    3    3    0    0 -0.31203738967E+02  0.10095827447E+02 -0.15933300598E+02  0.36462039018E+02  0.10566000000E+00 0. -1.
         22    1    1    0    0    0 -0.14548967292E+02 -0.16112996220E+02 -0.20410794200E+02  0.29797678035E+02  0.00000000000E+00 0.  1.
</event>
<event>
 5    1  0.1267616E-004  0.9118800E+02  0.7818608E-02  0.1130116E+00
         25   -1    0    0    0    0  0.00000000000E+00  0.00000000000E+00  0.99999998245E-14  0.12500000000E+03  0.12500000000E+03 0.  0.
        -13    1    3    3    0    0 -0.33531370649E+02  0.11385059081E+02  0.26326367533E+01  0.35509355502E+02  0.10566000000E+00 0. -1.
         23    2    1    0    0    0  0.17337284116E+02 -0.13015550990E+02 -0.19235406789E+02  0.96017473154E+02  0.91538889487E+02 0.  0.
         13    1    3    3    0    0  0.50868654764E+02 -0.24400610070E+02 -0.21868043542E+02  0.60508117652E+02  0.10566000000E+00 0.  1.
         22    1    1    0    0    0 -0.17337284116E+02  0.13015550990E+02  0.19235406789E+02  0.28982526846E+02  0.00000000000E+00 0.  1.
</event>
<event>
 5    1  0.1267616E-004  0.9118800E+02  0.7818608E-02  0.1130116E+00
         25   -1    0    0    0    0  0.00000000000E+00  0.00000000000E+00  0.99999998245E-14  0.12500000000E+03  0.12500000000E+03 0.  0.
        -13    1    3    3    0    0  0.43368459827E+01  0.26270707743E+02 -0.37099306372E+02  0.45665391882E+02  0.10566000000E+00 0. -1.
         23    2    1    0    0    0  0.24478435547E+02  0.16999908100E+02  0.64255425633E+01  0.94512653781E+02  0.89460401548E+02 0.  0.
         13    1    3    3    0    0  0.20141589565E+02 -0.92707996433E+01  0.43524848935E+02  0.48847261899E+02  0.10566000000E+00 0.  1.
         22    1    1    0    0    0 -0.24478435547E+02 -0.16999908100E+02 -0.64255425633E+01  0.30487346219E+02  0.00000000000E+00 0.  1.
</event>
<event>
 5    1  0.1267616E-004  0.9118800E+02  0.7818608E-02  0.1130116E+00
         25   -1    0    0    0    0  0.00000000000E+00  0.00000000000E+00  0.99999998245E-14  0.12500000000E+03  0.12500000000E+03 0.  0.
        -13    1    3    3    0    0 -0.43519776595E+01 -0.43880507016E+02  0.60449762572E+01  0.44508330766E+02  0.10566000000E+00 0.  1.
         23    2    1    0    0    0 -0.13500021361E+02 -0.60186547967E+01 -0.26096201852E+02  0.95008558997E+02  0.90150650298E+02 0.  0.
         13    1    3    3    0    0 -0.91480437019E+01  0.37861852220E+02 -0.32141178110E+02  0.50500228231E+02  0.10566000000E+00 0. -1.
         22    1    1    0    0    0  0.13500021361E+02  0.60186547967E+01  0.26096201852E+02  0.29991441003E+02  0.00000000000E+00 0. -1.
</event>
<event>
 5    1  0.1267616E-004  0.9118800E+02  0.7818608E-02  0.1130116E+00
         25   -1    0    0    0    0  0.00000000000E+00  0.00000000000E+00  0.99999998245E-14  0.12500000000E+03  0.12500000000E+03 0.  0.
        -13    1    3    3    0    0 -0.80581190592E+01 -0.37136859828E+02  0.23252359383E+02  0.44550679249E+02  0.10566000000E+00 0. -1.
         23    2    1    0    0    0 -0.28150684200E+02  0.37766802863E+01  0.20028426031E+02  0.90245688265E+02  0.83285185155E+02 0.  0.
         13    1    3    3    0    0 -0.20092565141E+02  0.40913540115E+02 -0.32239333517E+01  0.45695009016E+02  0.10566000000E+00 0.  1.
         22    1    1    0    0    0  0.28150684200E+02 -0.37766802863E+01 -0.20028426031E+02  0.34754311735E+02  0.00000000000E+00 0.  1.
</event>
<event>
 5    1  0.1267616E-004  0.9118800E+02  0.7818608E-02  0.1130116E+00
         25   -1    0    0    0    0  0.00000000000E+00  0.00000000000E+00  0.99999998245E-14  0.12500000000E+03  0.12500000000E+03 0.  0.
        -13    1    3    3    0    0  0.20117303385E+02  0.51222443682E+02 -0.24441333410E+01  0.55085656791E+02  0.10566000000E+00 0.  1.
         23    2    1    0    0    0  0.24700362805E+02  0.10767842183E+02 -0.95453924875E+01  0.96413834365E+02  0.92078545771E+02 0.  0.
         13    1    3    3    0    0  0.45830594199E+01 -0.40454601500E+02 -0.71012591466E+01  0.41328177575E+02  0.10566000000E+00 0. -1.
         22    1    1    0    0    0 -0.24700362805E+02 -0.10767842183E+02  0.95453924875E+01  0.28586165635E+02  0.00000000000E+00 0.  1.
</event>
<event>
 5    1  0.1267616E-004  0.9118800E+02  0.7818608E-02  0.1130116E+00
         25   -1    0    0    0    0  0.00000000000E+00  0.00000000000E+00  0.99999998245E-14  0.12500000000E+03  0.12500000000E+03 0.  0.
        -13    1    3    3    0    0 -0.43860002090E+01  0.18307177620E+02 -0.28289477376E+02  0.33980809944E+02  0.10566000000E+00 0.  1.
         23    2    1    0    0    0 -0.15690337887E+02 -0.15634077632E+02  0.20727735306E+02  0.94664375772E+02  0.89672146974E+02 0.  0.
         13    1    3    3    0    0 -0.11304337678E+02 -0.33941255252E+02  0.49017212682E+02  0.60683565827E+02  0.10566000000E+00 0. -1.
         22    1    1    0    0    0  0.15690337887E+02  0.15634077632E+02 -0.20727735306E+02  0.30335624228E+02  0.00000000000E+00 0. -1.
</event>
<event>
 5    1  0.1267616E-004  0.9118800E+02  0.7818608E-02  0.1130116E+00
         25   -1    0    0    0    0  0.00000000000E+00  0.00000000000E+00  0.99999998245E-14  0.12500000000E+03  0.12500000000E+03 0.  0.
        -13    1    3    3    0    0 -0.17323883870E+02 -0.49622006605E+02  0.98871764532E+01  0.53481098662E+02  0.10566000000E+00 0.  1.
         23    2    1    0    0    0 -0.25361669216E+02 -0.13043691598E+02 -0.85527620728E+01  0.95225818315E+02  0.90451393460E+02 0.  0.
         13    1    3    3    0    0 -0.80377853453E+01  0.36578315007E+02 -0.18439938526E+02  0.41744719653E+02  0.10566000000E+00 0. -1.
         22    1    1    0    0    0  0.25361669216E+02  0.13043691598E+02  0.85527620728E+01  0.29774181685E+02  0.00000000000E+00 0.  1.
</event>
<event>
 5    1  0.1267616E-004  0.9118800E+02  0.7818608E-02  0.1130116E+00
         25   -1    0    0    0    0  0.00000000000E+00  0.00000000000E+00  0.99999998245E-14  0.12500000000E+03  0.12500000000E+03 0.  0.
        -13    1    3    3    0    0 -0.15369853326E+02  0.37456504695E+01  0.32026743619E+02  0.35720942871E+02  0.10566000000E+00 0. -1.
         23    2    1    0    0    0  0.18192484831E+02 -0.17894323175E+02 -0.13377436096E+02  0.96188038895E+02  0.91771508235E+02 0.  0.
         13    1    3    3    0    0  0.33562338158E+02 -0.21639973645E+02 -0.45404179715E+02  0.60467096024E+02  0.10566000000E+00 0.  1.
         22    1    1    0    0    0 -0.18192484831E+02  0.17894323175E+02  0.13377436096E+02  0.28811961105E+02  0.00000000000E+00 0.  1.
</event>
<event>
 5    1  0.1267616E-004  0.9118800E+02  0.7818608E-02  0.1130116E+00
         25   -1    0    0    0    0  0.00000000000E+00  0.00000000000E+00  0.99999998245E-14  0.12500000000E+03  0.12500000000E+03 0.  0.
        -13    1    3    3    0    0  0.12689500017E+02  0.37526041723E+02  0.33278592944E+02  0.51736864327E+02  0.10566000000E+00 0. -1.
         23    2    1    0    0    0 -0.19088792102E+02  0.21443431605E+02  0.87323054580E+01  0.94992402604E+02  0.90128245578E+02 0.  0.
         13    1    3    3    0    0 -0.31778292119E+02 -0.16082610119E+02 -0.24546287486E+02  0.43255538276E+02  0.10566000000E+00 0.  1.
         22    1    1    0    0    0  0.19088792102E+02 -0.21443431605E+02 -0.87323054580E+01  0.30007597396E+02  0.00000000000E+00 0. -1.
</event>
<event>
 5    1  0.1267616E-004  0.9118800E+02  0.7818608E-02  0.1130116E+00
         25   -1    0    0    0    0  0.00000000000E+00  0.00000000000E+00  0.99999998245E-14  0.12500000000E+03  0.12500000000E+03 0.  0.
        -13    1    3    3    0    0  0.40943134590E+02 -0.51792463773E+01 -0.25269020957E+02  0.48391109176E+02  0.10566000000E+00 0.  1.
         23    2    1    0    0    0 -0.47009108049E+01 -0.22377553694E+02 -0.13038426175E+02  0.98677879477E+02  0.95102417788E+02 0.  0.
         13    1    3    3    0    0 -0.45644045395E+02 -0.17198307317E+02  0.12230594782E+02  0.50286770301E+02  0.10566000000E+00 0. -1.
         22    1    1    0    0    0  0.47009108049E+01  0.22377553694E+02  0.13038426175E+02  0.26322120523E+02  0.00000000000E+00 0.  1.
</event>
<event>
 5    1  0.1267616E-004  0.9118800E+02  0.7818608E-02  0.1130116E+00
         25   -1    0    0    0    0  0.00000000000E+00  0.00000000000E+00  0.99999998245E-14  0.12500000000E+03  0.12500000000E+03 0.  0.
        -13    1    3    3    0    0  0.33106928265E+02 -0.12094446779E+02 -0.11962526577E+02  0.37221734890E+02  0.10566000000E+00 0. -1.
         23    2    1    0    0    0 -0.16554301717E+02 -0.15286192433E+02  0.18738587652E+02  0.95693904190E+02  0.91095971631E+02 0.  0.
         13    1    3    3    0    0 -0.49661229982E+02 -0.31917456542E+01  0.30701114229E+02  0.58472169300E+02  0.10566000000E+00 0.  1.
         22    1    1    0    0    0  0.16554301717E+02  0.15286192433E+02 -0.18738587652E+02  0.29306095810E+02  0.00000000000E+00 0.  1.
</event>
<event>
 5    1  0.1267616E-004  0.9118800E+02  0.7818608E-02  0.1130116E+00
         25   -1    0    0    0    0  0.00000000000E+00  0.00000000000E+00  0.99999998245E-14  0.12500000000E+03  0.12500000000E+03 0.  0.
        -13    1    3    3    0    0  0.33859540640E+02 -0.93513598965E+01 -0.77264574261E+01  0.35967008948E+02  0.10566000000E+00 0.  1.
         23    2    1    0    0    0 -0.24950712446E+02 -0.15693131125E+02 -0.42402663950E+01  0.95220942339E+02  0.90444654816E+02 0.  0.
         13    1    3    3    0    0 -0.58810253086E+02 -0.63417712290E+01  0.34861910311E+01  0.59253933391E+02  0.10566000000E+00 0. -1.
         22    1    1    0    0    0  0.24950712446E+02  0.15693131125E+02  0.42402663950E+01  0.29779057661E+02  0.00000000000E+00 0. -1.
</event>
<event>
 5    1  0.1267616E-004  0.9118800E+02  0.7818608E-02  0.1130116E+00
         25   -1    0    0    0    0  0.00000000000E+00  0.00000000000E+00  0.99999998245E-14  0.12500000000E+03  0.12500000000E+03 0.  0.
        -13    1    3    3    0    0 -0.11578419286E+01 -0.52830136033E+02  0.24023703094E+02  0.58047509383E+02  0.10566000000E+00 0. -1.
         23    2    1    0    0    0  0.60935111636E+01 -0.35292956207E+02 -0.65456170151E+00  0.89178887690E+02  0.81668365494E+02 0.  0.
         13    1    3    3    0    0  0.72513530922E+01  0.17537179826E+02 -0.24678264796E+02  0.31131378307E+02  0.10566000000E+00 0.  1.
         22    1    1    0    0    0 -0.60935111636E+01  0.35292956207E+02  0.65456170151E+00  0.35821112310E+02  0.00000000000E+00 0. -1.
</event>
<event>
 5    1  0.1267616E-004  0.9118800E+02  0.7818608E-02  0.1130116E+00
         25   -1    0    0    0    0  0.00000000000E+00  0.00000000000E+00  0.99999998245E-14  0.12500000000E+03  0.12500000000E+03 0.  0.
        -13    1    3    3    0    0 -0.30730952868E+02  0.47820850920E+02 -0.25723157152E+02  0.62393246628E+02  0.10566000000E+00 0. -1.
         23    2    1    0    0    0 -0.15946366677E+02  0.24090985426E+02 -0.10271088240E+02  0.94338013068E+02  0.89216048260E+02 0.  0.
         13    1    3    3    0    0  0.14784586192E+02 -0.23729865494E+02  0.15452068912E+02  0.31944766440E+02  0.10566000000E+00 0.  1.
         22    1    1    0    0    0  0.15946366677E+02 -0.24090985426E+02  0.10271088240E+02  0.30661986932E+02  0.00000000000E+00 0. -1.
</event>
<event>
 5    1  0.1267616E-004  0.9118800E+02  0.7818608E-02  0.1130116E+00
         25   -1    0    0    0    0  0.00000000000E+00  0.00000000000E+00  0.99999998245E-14  0.12500000000E+03  0.12500000000E+03 0.  0.
        -13    1    3    3    0    0  0.26364075964E+02 -0.12873205360E+02 -0.28639465748E+02  0.41000171708E+02  0.10566000000E+00 0.  1.
         23    2    1    0    0    0  0.13003848996E+02 -0.80942679007E+01  0.24557547891E+02  0.96057117973E+02  0.91593010068E+02 0.  0.
         13    1    3    3    0    0 -0.13360226968E+02  0.47789374590E+01  0.53197013640E+02  0.55056946266E+02  0.10566000000E+00 0. -1.
         22    1    1    0    0    0 -0.13003848996E+02  0.80942679007E+01 -0.24557547891E+02  0.28942882027E+02  0.00000000000E+00 0. -1.
</event>
<event>
 5    1  0.1267616E-004  0.9118800E+02  0.7818608E-02  0.1130116E+00
         25   -1    0    0    0    0  0.00000000000E+00  0.00000000000E+00  0.99999998245E-14  0.12500000000E+03  0.12500000000E+03 0.  0.
        -13    1    3    3    0    0 -0.39374507696E+02  0.14988240509E+02 -0.55172844522E+01  0.42490596626E+02  0.10566000000E+00 0. -1.
         23    2    1    0    0    0 -0.41044115768E+01  0.27101090123E+01  0.30339936893E+02  0.94263984384E+02  0.89112266811E+02 0.  0.
         13    1    3    3    0    0  0.35270096119E+02 -0.12278131497E+02  0.35857221345E+02  0.51773387758E+02  0.10566000000E+00 0.  1.
         22    1    1    0    0    0  0.41044115768E+01 -0.27101090123E+01 -0.30339936893E+02  0.30736015616E+02  0.00000000000E+00 0.  1.
</event>
<event>
 5    1  0.1267616E-004  0.9118800E+02  0.7818608E-02  0.1130116E+00
         25   -1    0    0    0    0  0.00000000000E+00  0.00000000000E+00  0.99999998245E-14  0.12500000000E+03  0.12500000000E+03 0.  0.
        -13    1    3    3    0    0 -0.36012210361E+02 -0.45316447550E+02 -0.10440414998E+02  0.58817286090E+02  0.10566000000E+00 0.  1.
         23    2    1    0    0    0 -0.90529232282E+01 -0.28780981150E+02  0.56542964325E+01  0.94303561068E+02  0.89167764731E+02 0.  0.
         13    1    3    3    0    0  0.26959287133E+02  0.16535466400E+02  0.16094711430E+02  0.35486274978E+02  0.10566000000E+00 0. -1.
         22    1    1    0    0    0  0.90529232282E+01  0.28780981150E+02 -0.56542964325E+01  0.30696438932E+02  0.00000000000E+00 0.  1.
</event>
<event>
 5    1  0.1267616E-004  0.9118800E+02  0.7818608E-02  0.1130116E+00
         25   -1    0    0    0    0  0.00000000000E+00  0.00000000000E+00  0.99999998245E-14  0.12500000000E+03  0.12500000000E+03 0.  0.
        -13    1    3    3    0    0 -0.42296733655E+02  0.22523444767E+02 -0.29615540179E+02  0.56333033170E+02  0.10566000000E+00 0. -1.
         23    2    1    0    0    0 -0.28115425126E+02 -0.58318419463E+01 -0.65259282763E+01  0.95553858480E+02  0.90903600699E+02 0.  0.
         13    1    3    3    0    0  0.14181308528E+02 -0.28355286713E+02  0.23089611903E+02  0.39220825310E+02  0.10566000000E+00 0.  1.
         22    1    1    0    0    0  0.28115425126E+02  0.58318419463E+01  0.65259282763E+01  0.29446141520E+02  0.00000000000E+00 0. -1.
</event>
<event>
 5    1  0.1267616E-004  0.9118800E+02  0.7818608E-02  0.1130116E+00
         25   -1    0    0    0    0  0.00000000000E+00  0.00000000000E+00  0.99999998245E-14  0.12500000000E+03  0.12500000000E+03 0.  0.
        -13    1    3    3    0    0  0.23113978242E+02  0.34951178439E+02 -0.40049527860E+02  0.57963925939E+02  0.10566000000E+00 0.  1.
         23    2    1    0    0    0  0.86681227367E+00  0.26820065102E+02 -0.96914198196E+01  0.96469474703E+02  0.92154048613E+02 0.  0.
         13    1    3    3    0    0 -0.22247165969E+02 -0.81311133365E+01  0.30358108041E+02  0.38505548763E+02  0.10566000000E+00 0. -1.
         22    1    1    0    0    0 -0.86681227367E+00 -0.26820065102E+02  0.96914198196E+01  0.28530525297E+02  0.00000000000E+00 0.  1.
</event>
<event>
 5    1  0.1267616E-004  0.9118800E+02  0.7818608E-02  0.1130116E+00
         25   -1    0    0    0    0  0.00000000000E+00  0.00000000000E+00  0.99999998245E-14  0.12500000000E+03  0.12500000000E+03 0.  0.
        -13    1    3    3    0    0 -0.37295990348E+02 -0.17294069460E+01 -0.44055192557E+02  0.57748185250E+02  0.10566000000E+00 0.  1.
         23    2    1    0    0    0 -0.25619810910E+02 -0.10933812082E+02 -0.91628693288E+01  0.95676270154E+02  0.91071771359E+02 0.  0.
         13    1    3    3    0    0  0.11676179438E+02 -0.92044051363E+01  0.34892323228E+02  0.37928084904E+02  0.10566000000E+00 0. -1.
         22    1    1    0    0    0  0.25619810910E+02  0.10933812082E+02  0.91628693288E+01  0.29323729846E+02  0.00000000000E+00 0.  1.
</event>
<event>
 5    1  0.1267616E-004  0.9118800E+02  0.7818608E-02  0.1130116E+00
         25   -1    0    0    0    0  0.00000000000E+00  0.00000000000E+00  0.99999998245E-14  0.12500000000E+03  0.12500000000E+03 0.  0.
        -13    1    3    3    0    0  0.21158488101E+02 -0.24625117194E+01 -0.30275887119E+02  0.37018726174E+02  0.10566000000E+00 0.  1.
         23    2    1    0    0    0 -0.26650034291E+02 -0.10975154779E+02  0.32023837420E+01  0.96001144648E+02  0.91516589545E+02 0.  0.
         13    1    3    3    0    0 -0.47808522392E+02 -0.85126430592E+01  0.33478270861E+02  0.58982418474E+02  0.10566000000E+00 0. -1.
         22    1    1    0    0    0  0.26650034291E+02  0.10975154779E+02 -0.32023837420E+01  0.28998855352E+02  0.00000000000E+00 0. -1.
</event>
<event>
 5    1  0.1267616E-004  0.9118800E+02  0.7818608E-02  0.1130116E+00
         25   -1    0    0    0    0  0.00000000000E+00  0.00000000000E+00  0.99999998245E-14  0.12500000000E+03  0.12500000000E+03 0.  0.
        -13    1    3    3    0    0  0.15957661623E+02 -0.18995472246E+02  0.55128572190E+02  0.60453664621E+02  0.10566000000E+00 0.  1.
         23    2    1    0    0    0  0.46932269734E+01 -0.19069216670E+02  0.21681793664E+02  0.95746597115E+02  0.91168247098E+02 0.  0.
         13    1    3    3    0    0 -0.11264434650E+02 -0.73744424592E-01 -0.33446778527E+02  0.35292932495E+02  0.10566000000E+00 0. -1.
         22    1    1    0    0    0 -0.46932269734E+01  0.19069216670E+02 -0.21681793664E+02  0.29253402885E+02  0.00000000000E+00 0.  1.
</event>
<event>
 5    1  0.1267616E-004  0.9118800E+02  0.7818608E-02  0.1130116E+00
         25   -1    0    0    0    0  0.00000000000E+00  0.00000000000E+00  0.99999998245E-14  0.12500000000E+03  0.12500000000E+03 0.  0.
        -13    1    3    3    0    0  0.29138926505E+02 -0.33155186191E+02 -0.41242390834E+02  0.60409348407E+02  0.10566000000E+00 0. -1.
         23    2    1    0    0    0  0.13194999987E+02 -0.23939644808E+02 -0.11602791214E+02  0.95304219456E+02  0.90559675706E+02 0.  0.
         13    1    3    3    0    0 -0.15943926518E+02  0.92155413832E+01  0.29639599621E+02  0.34894871049E+02  0.10566000000E+00 0.  1.
         22    1    1    0    0    0 -0.13194999987E+02  0.23939644808E+02  0.11602791214E+02  0.29695780544E+02  0.00000000000E+00 0. -1.
</event>
<event>
 5    1  0.1267616E-004  0.9118800E+02  0.7818608E-02  0.1130116E+00
         25   -1    0    0    0    0  0.00000000000E+00  0.00000000000E+00  0.99999998245E-14  0.12500000000E+03  0.12500000000E+03 0.  0.
        -13    1    3    3    0    0 -0.23161809013E+02  0.24142302005E+02  0.52132636609E+02  0.61944677791E+02  0.10566000000E+00 0.  1.
         23    2    1    0    0    0 -0.72757269315E+01  0.15849783683E+02  0.23232122905E+02  0.95950329092E+02  0.91447155631E+02 0.  0.
         13    1    3    3    0    0  0.15886082082E+02 -0.82925183220E+01 -0.28900513703E+02  0.34005651301E+02  0.10566000000E+00 0. -1.
         22    1    1    0    0    0  0.72757269315E+01 -0.15849783683E+02 -0.23232122905E+02  0.29049670908E+02  0.00000000000E+00 0.  1.
</event>
<event>
 5    1  0.1267616E-004  0.9118800E+02  0.7818608E-02  0.1130116E+00
         25   -1    0    0    0    0  0.00000000000E+00  0.00000000000E+00  0.99999998245E-14  0.12500000000E+03  0.12500000000E+03 0.  0.
        -13    1    3    3    0    0  0.92723123165E+01  0.32645831107E+02 -0.19869041734E+02  0.39325768242E+02  0.10566000000E+00 0.  1.
         23    2    1    0    0    0 -0.30127842611E+02 -0.27934631567E+01 -0.91173697287E+01  0.93399101792E+02  0.87890701715E+02 0.  0.
         13    1    3    3    0    0 -0.39400154927E+02 -0.35439294264E+02  0.10751672005E+02  0.54073333550E+02  0.10566000000E+00 0. -1.
         22    1    1    0    0    0  0.30127842611E+02  0.27934631567E+01  0.91173697287E+01  0.31600898208E+02  0.00000000000E+00 0. -1.
</event>
<event>
 4    1  0.1267616E-004  0.9118800E+02  0.7818608E-02  0.1130116E+00
         25   -1    0    0    0    0  0.00000000000E+00  0.00000000000E+00  0.99999998245E-14  0.12500000000E+03  0.12500000000E+03 0.  0.
        -13    1    1    0    0    0 -0.17417831742E+02  0.57664447478E+02  0.11024344587E+02  0.61238196440E+02  0.10566000000E+00 0.  1.
         13    1    1    0    0    0  0.66328929354E+01 -0.33673938737E+01 -0.10665896464E+01  0.75155430744E+01  0.10566000000E+00 0. -1.
         22    1    1    0    0    0  0.10784938807E+02 -0.54297053604E+02 -0.99577549407E+01  0.56246260486E+02  0.00000000000E+00 0.  1.
</event>
<event>
 5    1  0.1267616E-004  0.9118800E+02  0.7818608E-02  0.1130116E+00
         25   -1    0    0    0    0  0.00000000000E+00  0.00000000000E+00  0.99999998245E-14  0.12500000000E+03  0.12500000000E+03 0.  0.
        -13    1    3    3    0    0  0.90239849287E+01 -0.45918488208E+01 -0.48351284086E+02  0.49400154012E+02  0.10566000000E+00 0.  1.
         23    2    1    0    0    0 -0.23485028795E+02  0.36135287239E+01 -0.26430535787E+02  0.89458793080E+02  0.82095665354E+02 0.  0.
         13    1    3    3    0    0 -0.32509013724E+02  0.82053775447E+01  0.21920748299E+02  0.40058639068E+02  0.10566000000E+00 0. -1.
         22    1    1    0    0    0  0.23485028795E+02 -0.36135287239E+01  0.26430535787E+02  0.35541206920E+02  0.00000000000E+00 0. -1.
</event>
<event>
 5    1  0.1267616E-004  0.9118800E+02  0.7818608E-02  0.1130116E+00
         25   -1    0    0    0    0  0.00000000000E+00  0.00000000000E+00  0.99999998245E-14  0.12500000000E+03  0.12500000000E+03 0.  0.
        -13    1    3    3    0    0  0.18993959006E+02 -0.25214006688E+02  0.44039169760E+02  0.54184649571E+02  0.10566000000E+00 0. -1.
         23    2    1    0    0    0 -0.12440750491E+02 -0.20053360039E+02  0.18495485560E+02  0.95016796239E+02  0.90162071071E+02 0.  0.
         13    1    3    3    0    0 -0.31434709498E+02  0.51606466486E+01 -0.25543684199E+02  0.40832146668E+02  0.10566000000E+00 0.  1.
         22    1    1    0    0    0  0.12440750491E+02  0.20053360039E+02 -0.18495485560E+02  0.29983203761E+02  0.00000000000E+00 0. -1.
</event>
<event>
 5    1  0.1267616E-004  0.9118800E+02  0.7818608E-02  0.1130116E+00
         25   -1    0    0    0    0  0.00000000000E+00  0.00000000000E+00  0.99999998245E-14  0.12500000000E+03  0.12500000000E+03 0.  0.
        -13    1    3    3    0    0  0.22693618702E+02 -0.25211724736E+02  0.50712075321E+02  0.61011123095E+02  0.10566000000E+00 0. -1.
         23    2    1    0    0    0  0.14495889969E+02 -0.30740743255E+01  0.25172194655E+02  0.95790067739E+02  0.91227829826E+02 0.  0.
         13    1    3    3    0    0 -0.81977287330E+01  0.22137650411E+02 -0.25539880666E+02  0.34778944644E+02  0.10566000000E+00 0.  1.
         22    1    1    0    0    0 -0.14495889969E+02  0.30740743255E+01 -0.25172194655E+02  0.29209932261E+02  0.00000000000E+00 0. -1.
</event>
<event>
 5    1  0.1267616E-004  0.9118800E+02  0.7818608E-02  0.1130116E+00
         25   -1    0    0    0    0  0.00000000000E+00  0.00000000000E+00  0.99999998245E-14  0.12500000000E+03  0.12500000000E+03 0.  0.
        -13    1    3    3    0    0 -0.16596468613E+02 -0.28756587837E+02  0.26165461940E+01  0.33305278748E+02  0.10566000000E+00 0.  1.
         23    2    1    0    0    0  0.97867011202E+01  0.27678738774E+02  0.10810984889E+01  0.95622102307E+02  0.90997393241E+02 0.  0.
         13    1    3    3    0    0  0.26383169733E+02  0.56435326611E+02 -0.15354477051E+01  0.62316823559E+02  0.10566000000E+00 0. -1.
         22    1    1    0    0    0 -0.97867011202E+01 -0.27678738774E+02 -0.10810984889E+01  0.29377897693E+02  0.00000000000E+00 0. -1.
</event>
<event>
 5    1  0.1267616E-004  0.9118800E+02  0.7818608E-02  0.1130116E+00
         25   -1    0    0    0    0  0.00000000000E+00  0.00000000000E+00  0.99999998245E-14  0.12500000000E+03  0.12500000000E+03 0.  0.
        -13    1    3    3    0    0 -0.19383830446E+02 -0.12285475620E+02  0.26679676359E+02  0.35192074230E+02  0.10566000000E+00 0.  1.
         23    2    1    0    0    0  0.29811454515E+02 -0.19724000299E+01 -0.51436243190E+01  0.94683831816E+02  0.89699263955E+02 0.  0.
         13    1    3    3    0    0  0.49195284962E+02  0.10313075590E+02 -0.31823300678E+02  0.59491757586E+02  0.10566000000E+00 0. -1.
         22    1    1    0    0    0 -0.29811454515E+02  0.19724000299E+01  0.51436243190E+01  0.30316168184E+02  0.00000000000E+00 0. -1.
</event>
<event>
 5    1  0.1267616E-004  0.9118800E+02  0.7818608E-02  0.1130116E+00
         25   -1    0    0    0    0  0.00000000000E+00  0.00000000000E+00  0.99999998245E-14  0.12500000000E+03  0.12500000000E+03 0.  0.
        -13    1    3    3    0    0 -0.58896965088E+01 -0.15235829846E+02  0.34445544198E+02  0.38122509298E+02  0.10566000000E+00 0. -1.
         23    2    1    0    0    0  0.23591982439E+02  0.12751636721E+02 -0.81191620391E+01  0.96980245064E+02  0.92844285047E+02 0.  0.
         13    1    3    3    0    0  0.29481678948E+02  0.27987466567E+02 -0.42564706237E+02  0.58857735766E+02  0.10566000000E+00 0.  1.
         22    1    1    0    0    0 -0.23591982439E+02 -0.12751636721E+02  0.81191620391E+01  0.28019754936E+02  0.00000000000E+00 0.  1.
</event>
<event>
 5    1  0.1267616E-004  0.9118800E+02  0.7818608E-02  0.1130116E+00
         25   -1    0    0    0    0  0.00000000000E+00  0.00000000000E+00  0.99999998245E-14  0.12500000000E+03  0.12500000000E+03 0.  0.
        -13    1    3    3    0    0 -0.33938984885E+02  0.43909795343E+00  0.24838032014E+01  0.34032748118E+02  0.10566000000E+00 0.  1.
         23    2    1    0    0    0  0.28226216121E+02 -0.22104430536E+01  0.47298615447E+01  0.96295001738E+02  0.91917084562E+02 0.  0.
         13    1    3    3    0    0  0.62165201006E+02 -0.26495410071E+01  0.22460583433E+01  0.62262253620E+02  0.10566000000E+00 0. -1.
         22    1    1    0    0    0 -0.28226216121E+02  0.22104430536E+01 -0.47298615447E+01  0.28704998262E+02  0.00000000000E+00 0. -1.
</event>
<event>
 5    1  0.1267616E-004  0.9118800E+02  0.7818608E-02  0.1130116E+00
         25   -1    0    0    0    0  0.00000000000E+00  0.00000000000E+00  0.99999998245E-14  0.12500000000E+03  0.12500000000E+03 0.  0.
        -13    1    3    3    0    0  0.15647341147E+02 -0.13253170934E+02 -0.52455173978E+02  0.56320886587E+02  0.10566000000E+00 0.  1.
         23    2    1    0    0    0  0.11284137488E+02  0.13186079075E+02 -0.23677182179E+02  0.95643341536E+02  0.91026564167E+02 0.  0.
         13    1    3    3    0    0 -0.43632036584E+01  0.26439250009E+02  0.28777991800E+02  0.39322454950E+02  0.10566000000E+00 0. -1.
         22    1    1    0    0    0 -0.11284137488E+02 -0.13186079075E+02  0.23677182179E+02  0.29356658464E+02  0.00000000000E+00 0.  1.
</event>
<event>
 5    1  0.1267616E-004  0.9118800E+02  0.7818608E-02  0.1130116E+00
         25   -1    0    0    0    0  0.00000000000E+00  0.00000000000E+00  0.99999998245E-14  0.12500000000E+03  0.12500000000E+03 0.  0.
        -13    1    3    3    0    0 -0.10693863507E+00  0.37108761288E+02  0.48731492779E+02  0.61252274674E+02  0.10566000000E+00 0. -1.
         23    2    1    0    0    0 -0.13204434352E+01  0.10485123566E+02  0.28168382348E+02  0.94914469405E+02  0.90020094153E+02 0.  0.
         13    1    3    3    0    0 -0.12135048001E+01 -0.26623637722E+02 -0.20563110431E+02  0.33662194731E+02  0.10566000000E+00 0.  1.
         22    1    1    0    0    0  0.13204434352E+01 -0.10485123566E+02 -0.28168382348E+02  0.30085530595E+02  0.00000000000E+00 0. -1.
</event>
<event>
 5    1  0.1267616E-004  0.9118800E+02  0.7818608E-02  0.1130116E+00
         25   -1    0    0    0    0  0.00000000000E+00  0.00000000000E+00  0.99999998245E-14  0.12500000000E+03  0.12500000000E+03 0.  0.
        -13    1    3    3    0    0  0.21433020605E+02 -0.55975353157E+02  0.11725859931E+02  0.61074720535E+02  0.10566000000E+00 0.  1.
         23    2    1    0    0    0  0.13123966288E+01 -0.29569564524E+02  0.67188683015E+01  0.94648315989E+02  0.89649757374E+02 0.  0.
         13    1    3    3    0    0 -0.20120623976E+02  0.26405788633E+02 -0.50069916294E+01  0.33573595454E+02  0.10566000000E+00 0. -1.
         22    1    1    0    0    0 -0.13123966288E+01  0.29569564524E+02 -0.67188683015E+01  0.30351684011E+02  0.00000000000E+00 0.  1.
</event>
<event>
 5    1  0.1267616E-004  0.9118800E+02  0.7818608E-02  0.1130116E+00
         25   -1    0    0    0    0  0.00000000000E+00  0.00000000000E+00  0.99999998245E-14  0.12500000000E+03  0.12500000000E+03 0.  0.
        -13    1    3    3    0    0 -0.25968493694E+01 -0.57968478865E+02  0.25045109230E+01  0.58080736114E+02  0.10566000000E+00 0. -1.
         23    2    1    0    0    0 -0.13073921285E+02 -0.22860890165E+02  0.12194767214E+02  0.95978282885E+02  0.91485357961E+02 0.  0.
         13    1    3    3    0    0 -0.10477071915E+02  0.35107588700E+02  0.96902562912E+01  0.37897546771E+02  0.10566000000E+00 0.  1.
         22    1    1    0    0    0  0.13073921285E+02  0.22860890165E+02 -0.12194767214E+02  0.29021717115E+02  0.00000000000E+00 0. -1.
</event>
<event>
 5    1  0.1267616E-004  0.9118800E+02  0.7818608E-02  0.1130116E+00
         25   -1    0    0    0    0  0.00000000000E+00  0.00000000000E+00  0.99999998245E-14  0.12500000000E+03  0.12500000000E+03 0.  0.
        -13    1    3    3    0    0  0.43551149628E+00  0.37929359661E+02 -0.41828205355E+01  0.38161933209E+02  0.10566000000E+00 0.  1.
         23    2    1    0    0    0 -0.99550981145E+01 -0.78737027708E+01  0.27429154403E+02  0.94776537507E+02  0.89828360648E+02 0.  0.
         13    1    3    3    0    0 -0.10390609611E+02 -0.45803062432E+02  0.31611974939E+02  0.56614604298E+02  0.10566000000E+00 0. -1.
         22    1    1    0    0    0  0.99550981145E+01  0.78737027708E+01 -0.27429154403E+02  0.30223462493E+02  0.00000000000E+00 0. -1.
</event>
<event>
 5    1  0.1267616E-004  0.9118800E+02  0.7818608E-02  0.1130116E+00
         25   -1    0    0    0    0  0.00000000000E+00  0.00000000000E+00  0.99999998245E-14  0.12500000000E+03  0.12500000000E+03 0.  0.
        -13    1    3    3    0    0  0.19853001386E+02  0.12302829187E+02  0.39829252752E+02  0.46172305648E+02  0.10566000000E+00 0.  1.
         23    2    1    0    0    0  0.33407566855E+02 -0.34505692128E+01 -0.35529413973E+00  0.91412827077E+02  0.85018861256E+02 0.  0.
         13    1    3    3    0    0  0.13554565468E+02 -0.15753398400E+02 -0.40184546892E+02  0.45240521429E+02  0.10566000000E+00 0. -1.
         22    1    1    0    0    0 -0.33407566855E+02  0.34505692128E+01  0.35529413973E+00  0.33587172923E+02  0.00000000000E+00 0.  1.
</event>
<event>
 5    1  0.1267616E-004  0.9118800E+02  0.7818608E-02  0.1130116E+00
         25   -1    0    0    0    0  0.00000000000E+00  0.00000000000E+00  0.99999998245E-14  0.12500000000E+03  0.12500000000E+03 0.  0.
        -13    1    3    3    0    0  0.23671297203E+02 -0.14754155244E+01  0.26101204072E+02  0.35267423783E+02  0.10566000000E+00 0. -1.
         23    2    1    0    0    0 -0.83065531545E+01  0.20557869675E+02 -0.19716951108E+02  0.95328751427E+02  0.90593530987E+02 0.  0.
         13    1    3    3    0    0 -0.31977850357E+02  0.22033285199E+02 -0.45818155181E+02  0.60061327644E+02  0.10566000000E+00 0.  1.
         22    1    1    0    0    0  0.83065531545E+01 -0.20557869675E+02  0.19716951108E+02  0.29671248573E+02  0.00000000000E+00 0.  1.
</event>
<event>
 5    1  0.1267616E-004  0.9118800E+02  0.7818608E-02  0.1130116E+00
         25   -1    0    0    0    0  0.00000000000E+00  0.00000000000E+00  0.99999998245E-14  0.12500000000E+03  0.12500000000E+03 0.  0.
        -13    1    3    3    0    0  0.27165410693E+01  0.39811981728E+02 -0.15585805681E+02  0.42840424686E+02  0.10566000000E+00 0.  1.
         23    2    1    0    0    0 -0.22161349260E+02 -0.35681445337E+01  0.11571377769E+02  0.99746211375E+02  0.96496387724E+02 0.  0.
         13    1    3    3    0    0 -0.24877890329E+02 -0.43380126262E+02  0.27157183450E+02  0.56905786689E+02  0.10566000000E+00 0. -1.
         22    1    1    0    0    0  0.22161349260E+02  0.35681445337E+01 -0.11571377769E+02  0.25253788625E+02  0.00000000000E+00 0. -1.
</event>
<event>
 4    1  0.1267616E-004  0.9118800E+02  0.7818608E-02  0.1130116E+00
         25   -1    0    0    0    0  0.00000000000E+00  0.00000000000E+00  0.99999998245E-14  0.12500000000E+03  0.12500000000E+03 0.  0.
        -13    1    1    0    0    0 -0.11717063122E+02 -0.17206296217E+02 -0.14764585311E+02  0.25521566197E+02  0.10566000000E+00 0.  1.
         13    1    1    0    0    0 -0.10037901342E+02  0.40303635840E+02 -0.25098408499E+02  0.48529205624E+02  0.10566000000E+00 0. -1.
         22    1    1    0    0    0  0.21754964464E+02 -0.23097339624E+02  0.39862993810E+02  0.50949228179E+02  0.00000000000E+00 0. -1.
</event>
<event>
 5    1  0.1267616E-004  0.9118800E+02  0.7818608E-02  0.1130116E+00
         25   -1    0    0    0    0  0.00000000000E+00  0.00000000000E+00  0.99999998245E-14  0.12500000000E+03  0.12500000000E+03 0.  0.
        -13    1    3    3    0    0  0.29179722511E+02  0.23204970723E+02  0.25311014248E+02  0.45062018134E+02  0.10566000000E+00 0.  1.
         23    2    1    0    0    0 -0.16912474757E+02  0.23056288281E+02  0.30653339917E+01  0.96242035813E+02  0.91845026829E+02 0.  0.
         13    1    3    3    0    0 -0.46092197268E+02 -0.14868244186E+00 -0.22245680256E+02  0.51180017679E+02  0.10566000000E+00 0. -1.
         22    1    1    0    0    0  0.16912474757E+02 -0.23056288281E+02 -0.30653339917E+01  0.28757964187E+02  0.00000000000E+00 0. -1.
</event>
<event>
 5    1  0.1267616E-004  0.9118800E+02  0.7818608E-02  0.1130116E+00
         25   -1    0    0    0    0  0.00000000000E+00  0.00000000000E+00  0.99999998245E-14  0.12500000000E+03  0.12500000000E+03 0.  0.
        -13    1    3    3    0    0  0.31841131622E+02 -0.15599108046E+01 -0.13760898783E+02  0.34722679678E+02  0.10566000000E+00 0.  1.
         23    2    1    0    0    0 -0.24283717375E+02 -0.13516397288E+02  0.79762589719E+01  0.96086116961E+02  0.91632577397E+02 0.  0.
         13    1    3    3    0    0 -0.56124848996E+02 -0.11956486483E+02  0.21737157755E+02  0.61363437283E+02  0.10566000000E+00 0. -1.
         22    1    1    0    0    0  0.24283717375E+02  0.13516397288E+02 -0.79762589719E+01  0.28913883039E+02  0.00000000000E+00 0. -1.
</event>
<event>
 5    1  0.1267616E-004  0.9118800E+02  0.7818608E-02  0.1130116E+00
         25   -1    0    0    0    0  0.00000000000E+00  0.00000000000E+00  0.99999998245E-14  0.12500000000E+03  0.12500000000E+03 0.  0.
        -13    1    3    3    0    0  0.43218270816E+01 -0.20483719069E+02 -0.41146430091E+02  0.46166013576E+02  0.10566000000E+00 0. -1.
         23    2    1    0    0    0  0.40515229066E+01  0.21175287991E+02 -0.27609371234E+02  0.89970226388E+02  0.82870722194E+02 0.  0.
         13    1    3    3    0    0 -0.27030417494E+00  0.41659007060E+02  0.13537058857E+02  0.43804212812E+02  0.10566000000E+00 0.  1.
         22    1    1    0    0    0 -0.40515229066E+01 -0.21175287991E+02  0.27609371234E+02  0.35029773612E+02  0.00000000000E+00 0. -1.
</event>
<event>
 5    1  0.1267616E-004  0.9118800E+02  0.7818608E-02  0.1130116E+00
         25   -1    0    0    0    0  0.00000000000E+00  0.00000000000E+00  0.99999998245E-14  0.12500000000E+03  0.12500000000E+03 0.  0.
        -13    1    3    3    0    0  0.78631954334E+01  0.29606662338E+02 -0.52920635491E+02  0.61147274036E+02  0.10566000000E+00 0.  1.
         23    2    1    0    0    0  0.28640433813E+01  0.55056162183E+01 -0.28542693002E+02  0.95790414617E+02  0.91228305115E+02 0.  0.
         13    1    3    3    0    0 -0.49991520521E+01 -0.24101046120E+02  0.24377942489E+02  0.34643140581E+02  0.10566000000E+00 0. -1.
         22    1    1    0    0    0 -0.28640433813E+01 -0.55056162183E+01  0.28542693002E+02  0.29209585383E+02  0.00000000000E+00 0.  1.
</event>
<event>
 5    1  0.1267616E-004  0.9118800E+02  0.7818608E-02  0.1130116E+00
         25   -1    0    0    0    0  0.00000000000E+00  0.00000000000E+00  0.99999998245E-14  0.12500000000E+03  0.12500000000E+03 0.  0.
        -13    1    3    3    0    0  0.40748781507E+02  0.42854556192E+01 -0.31839238349E+02  0.51890043234E+02  0.10566000000E+00 0.  1.
         23    2    1    0    0    0  0.12431208271E+02  0.25489310475E+02 -0.52162202994E+01  0.96165145366E+02  0.91740320152E+02 0.  0.
         13    1    3    3    0    0 -0.28317573236E+02  0.21203854855E+02  0.26623018050E+02  0.44275102132E+02  0.10566000000E+00 0. -1.
         22    1    1    0    0    0 -0.12431208271E+02 -0.25489310475E+02  0.52162202994E+01  0.28834854634E+02  0.00000000000E+00 0.  1.
</event>
<event>
 5    1  0.1267616E-004  0.9118800E+02  0.7818608E-02  0.1130116E+00
         25   -1    0    0    0    0  0.00000000000E+00  0.00000000000E+00  0.99999998245E-14  0.12500000000E+03  0.12500000000E+03 0.  0.
        -13    1    3    3    0    0 -0.35682628332E+02  0.11144124133E+02  0.26750779625E+02  0.45967998020E+02  0.10566000000E+00 0.  1.
         23    2    1    0    0    0  0.83477171667E+01 -0.13967259530E+02  0.23042526830E+02  0.96791370763E+02  0.92589646780E+02 0.  0.
         13    1    3    3    0    0  0.44030345498E+02 -0.25111383664E+02 -0.37082527950E+01  0.50823372744E+02  0.10566000000E+00 0. -1.
         22    1    1    0    0    0 -0.83477171667E+01  0.13967259530E+02 -0.23042526830E+02  0.28208629237E+02  0.00000000000E+00 0. -1.
</event>
<event>
 5    1  0.1267616E-004  0.9118800E+02  0.7818608E-02  0.1130116E+00
         25   -1    0    0    0    0  0.00000000000E+00  0.00000000000E+00  0.99999998245E-14  0.12500000000E+03  0.12500000000E+03 0.  0.
        -13    1    3    3    0    0 -0.38363429982E+02 -0.20940270171E+02 -0.32177614719E+02  0.54273913880E+02  0.10566000000E+00 0.  1.
         23    2    1    0    0    0 -0.84641203429E+01 -0.26000056247E+02 -0.11895500288E+01  0.97631052499E+02  0.93716397310E+02 0.  0.
         13    1    3    3    0    0  0.29899309639E+02 -0.50597860756E+01  0.30988064690E+02  0.43357138620E+02  0.10566000000E+00 0. -1.
         22    1    1    0    0    0  0.84641203429E+01  0.26000056247E+02  0.11895500288E+01  0.27368947501E+02  0.00000000000E+00 0.  1.
</event>
<event>
 5    1  0.1267616E-004  0.9118800E+02  0.7818608E-02  0.1130116E+00
         25   -1    0    0    0    0  0.00000000000E+00  0.00000000000E+00  0.99999998245E-14  0.12500000000E+03  0.12500000000E+03 0.  0.
        -13    1    3    3    0    0 -0.13593767485E+02 -0.25867926329E+02  0.32512519701E+02  0.43715160167E+02  0.10566000000E+00 0.  1.
         23    2    1    0    0    0  0.37291393031E+01  0.21253974691E+02  0.20275683662E+02  0.95390182911E+02  0.90678253886E+02 0.  0.
         13    1    3    3    0    0  0.17322906789E+02  0.47121901020E+02 -0.12236836040E+02  0.51675022744E+02  0.10566000000E+00 0. -1.
         22    1    1    0    0    0 -0.37291393031E+01 -0.21253974691E+02 -0.20275683662E+02  0.29609817089E+02  0.00000000000E+00 0. -1.
</event>
<event>
 5    1  0.1267616E-004  0.9118800E+02  0.7818608E-02  0.1130116E+00
         25   -1    0    0    0    0  0.00000000000E+00  0.00000000000E+00  0.99999998245E-14  0.12500000000E+03  0.12500000000E+03 0.  0.
        -13    1    3    3    0    0 -0.17594057517E+02 -0.20185694184E+02 -0.60878088054E+01  0.27460620708E+02  0.10566000000E+00 0.  1.
         23    2    1    0    0    0  0.15977299801E+02  0.17151561143E+02 -0.33072439036E+02  0.84463147848E+02  0.74099844548E+02 0.  0.
         13    1    3    3    0    0  0.33571357317E+02  0.37337255328E+02 -0.26984630231E+02  0.57002527140E+02  0.10566000000E+00 0. -1.
         22    1    1    0    0    0 -0.15977299801E+02 -0.17151561143E+02  0.33072439036E+02  0.40536852152E+02  0.00000000000E+00 0. -1.
</event>
<event>
 5    1  0.1267616E-004  0.9118800E+02  0.7818608E-02  0.1130116E+00
         25   -1    0    0    0    0  0.00000000000E+00  0.00000000000E+00  0.99999998245E-14  0.12500000000E+03  0.12500000000E+03 0.  0.
        -13    1    3    3    0    0 -0.36004555753E+00  0.20670161804E+02  0.48865626240E+02  0.53058890053E+02  0.10566000000E+00 0.  1.
         23    2    1    0    0    0  0.22421796711E+02  0.12183543927E+02  0.13070994002E+02  0.96328993834E+02  0.91963299520E+02 0.  0.
         13    1    3    3    0    0  0.22781842268E+02 -0.84866178764E+01 -0.35794632239E+02  0.43270103781E+02  0.10566000000E+00 0. -1.
         22    1    1    0    0    0 -0.22421796711E+02 -0.12183543927E+02 -0.13070994002E+02  0.28671006166E+02  0.00000000000E+00 0.  1.
</event>
<event>
 5    1  0.1267616E-004  0.9118800E+02  0.7818608E-02  0.1130116E+00
         25   -1    0    0    0    0  0.00000000000E+00  0.00000000000E+00  0.99999998245E-14  0.12500000000E+03  0.12500000000E+03 0.  0.
        -13    1    3    3    0    0  0.14689344964E+02  0.27795556475E+02 -0.45671643676E+02  0.55446190269E+02  0.10566000000E+00 0.  1.
         23    2    1    0    0    0  0.11959426721E+02  0.24803947743E+02 -0.41648546539E+01  0.97150229347E+02  0.93072860367E+02 0.  0.
         13    1    3    3    0    0 -0.27299182429E+01 -0.29916087327E+01  0.41506789023E+02  0.41704039078E+02  0.10566000000E+00 0. -1.
         22    1    1    0    0    0 -0.11959426721E+02 -0.24803947743E+02  0.41648546539E+01  0.27849770653E+02  0.00000000000E+00 0.  1.
</event>
<event>
 5    1  0.1267616E-004  0.9118800E+02  0.7818608E-02  0.1130116E+00
         25   -1    0    0    0    0  0.00000000000E+00  0.00000000000E+00  0.99999998245E-14  0.12500000000E+03  0.12500000000E+03 0.  0.
        -13    1    3    3    0    0 -0.33374725308E+02 -0.24613425957E+02 -0.14761898797E+02  0.44018380784E+02  0.10566000000E+00 0.  1.
         23    2    1    0    0    0 -0.26609276592E+01  0.18475814670E+02 -0.20536442865E+02  0.97247851447E+02  0.93203877934E+02 0.  0.
         13    1    3    3    0    0  0.30713797649E+02  0.43089240627E+02 -0.57745440687E+01  0.53229470663E+02  0.10566000000E+00 0. -1.
         22    1    1    0    0    0  0.26609276592E+01 -0.18475814670E+02  0.20536442865E+02  0.27752148553E+02  0.00000000000E+00 0. -1.
</event>
<event>
 5    1  0.1267616E-004  0.9118800E+02  0.7818608E-02  0.1130116E+00
         25   -1    0    0    0    0  0.00000000000E+00  0.00000000000E+00  0.99999998245E-14  0.12500000000E+03  0.12500000000E+03 0.  0.
        -13    1    3    3    0    0 -0.35967939418E+02  0.14287671450E-01  0.38542521774E+02  0.52718403038E+02  0.10566000000E+00 0.  1.
         23    2    1    0    0    0 -0.11892760900E+02 -0.23941284104E+02  0.12650860403E+02  0.95425228398E+02  0.90726551238E+02 0.  0.
         13    1    3    3    0    0  0.24075178518E+02 -0.23955571775E+02 -0.25891661371E+02  0.42706825360E+02  0.10566000000E+00 0. -1.
         22    1    1    0    0    0  0.11892760900E+02  0.23941284104E+02 -0.12650860403E+02  0.29574771602E+02  0.00000000000E+00 0.  1.
</event>
<event>
 5    1  0.1267616E-004  0.9118800E+02  0.7818608E-02  0.1130116E+00
         25   -1    0    0    0    0  0.00000000000E+00  0.00000000000E+00  0.99999998245E-14  0.12500000000E+03  0.12500000000E+03 0.  0.
        -13    1    3    3    0    0  0.55956364473E+02  0.24399970439E+01 -0.11435426780E+02  0.57165098270E+02  0.10566000000E+00 0.  1.
         23    2    1    0    0    0  0.14341594609E+02  0.10122931227E+02 -0.17847455647E+02  0.99966287818E+02  0.96781051629E+02 0.  0.
         13    1    3    3    0    0 -0.41614769863E+02  0.76829341831E+01 -0.64120288668E+01  0.42801189547E+02  0.10566000000E+00 0. -1.
         22    1    1    0    0    0 -0.14341594609E+02 -0.10122931227E+02  0.17847455647E+02  0.25033712182E+02  0.00000000000E+00 0.  1.
</event>
<event>
 5    1  0.1267616E-004  0.9118800E+02  0.7818608E-02  0.1130116E+00
         25   -1    0    0    0    0  0.00000000000E+00  0.00000000000E+00  0.99999998245E-14  0.12500000000E+03  0.12500000000E+03 0.  0.
        -13    1    3    3    0    0  0.29703907058E+02  0.86892626106E-01 -0.42083280156E+02  0.51510613252E+02  0.10566000000E+00 0.  1.
         23    2    1    0    0    0  0.38716345956E+02  0.95923867357E+01 -0.13605833120E+02  0.82856340662E+02  0.71337824228E+02 0.  0.
         13    1    3    3    0    0  0.90124388980E+01  0.95054941096E+01  0.28477447036E+02  0.31345727410E+02  0.10566000000E+00 0. -1.
         22    1    1    0    0    0 -0.38716345956E+02 -0.95923867357E+01  0.13605833120E+02  0.42143659338E+02  0.00000000000E+00 0.  1.
</event>
<event>
 5    1  0.1267616E-004  0.9118800E+02  0.7818608E-02  0.1130116E+00
         25   -1    0    0    0    0  0.00000000000E+00  0.00000000000E+00  0.99999998245E-14  0.12500000000E+03  0.12500000000E+03 0.  0.
        -13    1    3    3    0    0 -0.10654520464E+02  0.34224478977E+02  0.41645981766E+02  0.54947545248E+02  0.10566000000E+00 0.  1.
         23    2    1    0    0    0  0.16117797783E+02  0.10689994760E+02  0.22214706498E+02  0.95545754497E+02  0.90892456366E+02 0.  0.
         13    1    3    3    0    0  0.26772318247E+02 -0.23534484216E+02 -0.19431275268E+02  0.40598209249E+02  0.10566000000E+00 0. -1.
         22    1    1    0    0    0 -0.16117797783E+02 -0.10689994760E+02 -0.22214706498E+02  0.29454245503E+02  0.00000000000E+00 0.  1.
</event>
<event>
 5    1  0.1267616E-004  0.9118800E+02  0.7818608E-02  0.1130116E+00
         25   -1    0    0    0    0  0.00000000000E+00  0.00000000000E+00  0.99999998245E-14  0.12500000000E+03  0.12500000000E+03 0.  0.
        -13    1    3    3    0    0  0.46727407689E+02  0.27400198839E+02 -0.22646105233E+02  0.58711828212E+02  0.10566000000E+00 0.  1.
         23    2    1    0    0    0  0.27725760928E+02  0.85640709396E+01  0.30667510338E+01  0.95820108088E+02  0.91268981708E+02 0.  0.
         13    1    3    3    0    0 -0.19001646761E+02 -0.18836127899E+02  0.25712856267E+02  0.37108279876E+02  0.10566000000E+00 0. -1.
         22    1    1    0    0    0 -0.27725760928E+02 -0.85640709396E+01 -0.30667510338E+01  0.29179891912E+02  0.00000000000E+00 0.  1.
</event>
<event>
 5    1  0.1267616E-004  0.9118800E+02  0.7818608E-02  0.1130116E+00
         25   -1    0    0    0    0  0.00000000000E+00  0.00000000000E+00  0.99999998245E-14  0.12500000000E+03  0.12500000000E+03 0.  0.
        -13    1    3    3    0    0  0.33896448018E+02 -0.56005401737E+01 -0.15646605495E+02  0.37751326679E+02  0.10566000000E+00 0.  1.
         23    2    1    0    0    0 -0.18381943695E+02 -0.13892938736E+02  0.13618543035E+02  0.98234830187E+02  0.94518292128E+02 0.  0.
         13    1    3    3    0    0 -0.52278391713E+02 -0.82923985621E+01  0.29265148530E+02  0.60483503508E+02  0.10566000000E+00 0. -1.
         22    1    1    0    0    0  0.18381943695E+02  0.13892938736E+02 -0.13618543035E+02  0.26765169813E+02  0.00000000000E+00 0. -1.
</event>
<event>
 5    1  0.1267616E-004  0.9118800E+02  0.7818608E-02  0.1130116E+00
         25   -1    0    0    0    0  0.00000000000E+00  0.00000000000E+00  0.99999998245E-14  0.12500000000E+03  0.12500000000E+03 0.  0.
        -13    1    3    3    0    0  0.32578028343E+02 -0.32009278198E+02  0.32711024723E+02  0.56177790308E+02  0.10566000000E+00 0. -1.
         23    2    1    0    0    0  0.26588077478E+02 -0.11132722452E+02 -0.86057358436E+00  0.96162455720E+02  0.91736655324E+02 0.  0.
         13    1    3    3    0    0 -0.59899508652E+01  0.20876555745E+02 -0.33571598307E+02  0.39984665412E+02  0.10566000000E+00 0.  1.
         22    1    1    0    0    0 -0.26588077478E+02  0.11132722452E+02  0.86057358436E+00  0.28837544280E+02  0.00000000000E+00 0. -1.
</event>
<event>
 5    1  0.1267616E-004  0.9118800E+02  0.7818608E-02  0.1130116E+00
         25   -1    0    0    0    0  0.00000000000E+00  0.00000000000E+00  0.99999998245E-14  0.12500000000E+03  0.12500000000E+03 0.  0.
        -13    1    3    3    0    0  0.12439867167E+02 -0.16256339582E+02 -0.26541703787E+01  0.20641575913E+02  0.10566000000E+00 0.  1.
         23    2    1    0    0    0 -0.84440981610E+01  0.41785563527E+02 -0.17824141017E+01  0.82332528631E+02  0.70414005409E+02 0.  0.
         13    1    3    3    0    0 -0.20883965328E+02  0.58041903108E+02  0.87175627693E+00  0.61690952718E+02  0.10566000000E+00 0. -1.
         22    1    1    0    0    0  0.84440981610E+01 -0.41785563527E+02  0.17824141017E+01  0.42667471369E+02  0.00000000000E+00 0. -1.
</event>
<event>
 5    1  0.1267616E-004  0.9118800E+02  0.7818608E-02  0.1130116E+00
         25   -1    0    0    0    0  0.00000000000E+00  0.00000000000E+00  0.99999998245E-14  0.12500000000E+03  0.12500000000E+03 0.  0.
        -13    1    3    3    0    0 -0.20690555671E+02 -0.10596252620E+02 -0.37615403464E+02  0.44218880643E+02  0.10566000000E+00 0.  1.
         23    2    1    0    0    0 -0.25444069405E+02 -0.85301348679E+01  0.13057327107E+02  0.95156111850E+02  0.90355010721E+02 0.  0.
         13    1    3    3    0    0 -0.47535137342E+01  0.20661177519E+01  0.50672730571E+02  0.50937231206E+02  0.10566000000E+00 0. -1.
         22    1    1    0    0    0  0.25444069405E+02  0.85301348679E+01 -0.13057327107E+02  0.29843888150E+02  0.00000000000E+00 0. -1.
</event>
<event>
 5    1  0.1267616E-004  0.9118800E+02  0.7818608E-02  0.1130116E+00
         25   -1    0    0    0    0  0.00000000000E+00  0.00000000000E+00  0.99999998245E-14  0.12500000000E+03  0.12500000000E+03 0.  0.
        -13    1    3    3    0    0 -0.13172631553E+02  0.15795723787E+02 -0.28343532914E+02  0.35019853427E+02  0.10566000000E+00 0.  1.
         23    2    1    0    0    0  0.10326634194E+02 -0.26790521507E+02  0.73634802820E+01  0.95358943031E+02  0.90635179471E+02 0.  0.
         13    1    3    3    0    0  0.23499265747E+02 -0.42586245293E+02  0.35707013196E+02  0.60339089604E+02  0.10566000000E+00 0. -1.
         22    1    1    0    0    0 -0.10326634194E+02  0.26790521507E+02 -0.73634802820E+01  0.29641056969E+02  0.00000000000E+00 0. -1.
</event>
<event>
 5    1  0.1267616E-004  0.9118800E+02  0.7818608E-02  0.1130116E+00
         25   -1    0    0    0    0  0.00000000000E+00  0.00000000000E+00  0.99999998245E-14  0.12500000000E+03  0.12500000000E+03 0.  0.
        -13    1    3    3    0    0  0.17809415990E+02  0.30081972069E+02 -0.63902852930E+01  0.35537969154E+02  0.10566000000E+00 0.  1.
         23    2    1    0    0    0 -0.26294642302E+02 -0.11360297323E+02 -0.40010447854E+00  0.96353453041E+02  0.91996539393E+02 0.  0.
         13    1    3    3    0    0 -0.44104058292E+02 -0.41442269392E+02  0.59901808145E+01  0.60815483887E+02  0.10566000000E+00 0. -1.
         22    1    1    0    0    0  0.26294642302E+02  0.11360297323E+02  0.40010447854E+00  0.28646546959E+02  0.00000000000E+00 0. -1.
</event>
<event>
 5    1  0.1267616E-004  0.9118800E+02  0.7818608E-02  0.1130116E+00
         25   -1    0    0    0    0  0.00000000000E+00  0.00000000000E+00  0.99999998245E-14  0.12500000000E+03  0.12500000000E+03 0.  0.
        -13    1    3    3    0    0 -0.26741389080E+02 -0.71325832094E+01 -0.30944211301E+01  0.27848918100E+02  0.10566000000E+00 0.  1.
         23    2    1    0    0    0  0.11867564284E+02  0.18319940150E+02 -0.34802024483E+02  0.83919101796E+02  0.73176331207E+02 0.  0.
         13    1    3    3    0    0  0.38608953364E+02  0.25452523359E+02 -0.31707603353E+02  0.56070183696E+02  0.10566000000E+00 0. -1.
         22    1    1    0    0    0 -0.11867564284E+02 -0.18319940150E+02  0.34802024483E+02  0.41080898204E+02  0.00000000000E+00 0. -1.
</event>
<event>
 5    1  0.1267616E-004  0.9118800E+02  0.7818608E-02  0.1130116E+00
         25   -1    0    0    0    0  0.00000000000E+00  0.00000000000E+00  0.99999998245E-14  0.12500000000E+03  0.12500000000E+03 0.  0.
        -13    1    3    3    0    0 -0.12716524011E+02 -0.24314934406E+02 -0.50783289188E+02  0.57722436218E+02  0.10566000000E+00 0.  1.
         23    2    1    0    0    0 -0.11719662178E+02  0.45267898448E+01 -0.27368423674E+02  0.94885669155E+02  0.89980093847E+02 0.  0.
         13    1    3    3    0    0  0.99686183304E+00  0.28841724251E+02  0.23414865514E+02  0.37163232937E+02  0.10566000000E+00 0. -1.
         22    1    1    0    0    0  0.11719662178E+02 -0.45267898448E+01  0.27368423674E+02  0.30114330845E+02  0.00000000000E+00 0.  1.
</event>
<event>
 5    1  0.1267616E-004  0.9118800E+02  0.7818608E-02  0.1130116E+00
         25   -1    0    0    0    0  0.00000000000E+00  0.00000000000E+00  0.99999998245E-14  0.12500000000E+03  0.12500000000E+03 0.  0.
        -13    1    3    3    0    0 -0.30729653234E+02 -0.55835789302E+01  0.23248315581E+02  0.38935629993E+02  0.10566000000E+00 0. -1.
         23    2    1    0    0    0  0.19871478420E+02 -0.20927425425E+02  0.15237844252E+01  0.96100956616E+02  0.91652818583E+02 0.  0.
         13    1    3    3    0    0  0.50601131654E+02 -0.15343846494E+02 -0.21724531156E+02  0.57165326623E+02  0.10566000000E+00 0.  1.
         22    1    1    0    0    0 -0.19871478420E+02  0.20927425425E+02 -0.15237844252E+01  0.28899043384E+02  0.00000000000E+00 0.  1.
</event>
<event>
 5    1  0.1267616E-004  0.9118800E+02  0.7818608E-02  0.1130116E+00
         25   -1    0    0    0    0  0.00000000000E+00  0.00000000000E+00  0.99999998245E-14  0.12500000000E+03  0.12500000000E+03 0.  0.
        -13    1    3    3    0    0  0.22748870140E+02  0.49106892435E+02 -0.12301159786E+02  0.55500699756E+02  0.10566000000E+00 0. -1.
         23    2    1    0    0    0 -0.62755849102E+01  0.29597404120E+02  0.46922416916E+01  0.94382906267E+02  0.89278925658E+02 0.  0.
         13    1    3    3    0    0 -0.29024455051E+02 -0.19509488316E+02  0.16993401477E+02  0.38882206511E+02  0.10566000000E+00 0.  1.
         22    1    1    0    0    0  0.62755849102E+01 -0.29597404120E+02 -0.46922416916E+01  0.30617093733E+02  0.00000000000E+00 0. -1.
</event>
<event>
 5    1  0.1267616E-004  0.9118800E+02  0.7818608E-02  0.1130116E+00
         25   -1    0    0    0    0  0.00000000000E+00  0.00000000000E+00  0.99999998245E-14  0.12500000000E+03  0.12500000000E+03 0.  0.
        -13    1    3    3    0    0  0.26065404077E+02  0.40539866399E+02 -0.11267673431E+02  0.49496037073E+02  0.10566000000E+00 0. -1.
         23    2    1    0    0    0  0.15650589353E+02  0.12989282268E+02  0.22744097154E+02  0.94488422586E+02  0.89426537708E+02 0.  0.
         13    1    3    3    0    0 -0.10414814724E+02 -0.27550584131E+02  0.34011770586E+02  0.44992385512E+02  0.10566000000E+00 0.  1.
         22    1    1    0    0    0 -0.15650589353E+02 -0.12989282268E+02 -0.22744097154E+02  0.30511577414E+02  0.00000000000E+00 0.  1.
</event>
<event>
 5    1  0.1267616E-004  0.9118800E+02  0.7818608E-02  0.1130116E+00
         25   -1    0    0    0    0  0.00000000000E+00  0.00000000000E+00  0.99999998245E-14  0.12500000000E+03  0.12500000000E+03 0.  0.
        -13    1    3    3    0    0  0.48984301193E+01 -0.40192290590E+02 -0.14012035070E+02  0.42845806462E+02  0.10566000000E+00 0.  1.
         23    2    1    0    0    0 -0.24213697269E+02 -0.74978699053E+01  0.15171257701E+02  0.95458702656E+02  0.90772659231E+02 0.  0.
         13    1    3    3    0    0 -0.29112127389E+02  0.32694420685E+02  0.29183292770E+02  0.52612896194E+02  0.10566000000E+00 0. -1.
         22    1    1    0    0    0  0.24213697269E+02  0.74978699053E+01 -0.15171257701E+02  0.29541297344E+02  0.00000000000E+00 0.  1.
</event>
<event>
 5    1  0.1267616E-004  0.9118800E+02  0.7818608E-02  0.1130116E+00
         25   -1    0    0    0    0  0.00000000000E+00  0.00000000000E+00  0.99999998245E-14  0.12500000000E+03  0.12500000000E+03 0.  0.
        -13    1    3    3    0    0 -0.47075645712E+01  0.48923548092E+02 -0.73835557661E+01  0.49701134614E+02  0.10566000000E+00 0.  1.
         23    2    1    0    0    0 -0.27043999820E+02  0.13490457091E+02  0.69818158452E+01  0.93982003429E+02  0.88715843328E+02 0.  0.
         13    1    3    3    0    0 -0.22336435248E+02 -0.35433091001E+02  0.14365371611E+02  0.44280868816E+02  0.10566000000E+00 0. -1.
         22    1    1    0    0    0  0.27043999820E+02 -0.13490457091E+02 -0.69818158452E+01  0.31017996571E+02  0.00000000000E+00 0.  1.
</event>
<event>
 5    1  0.1267616E-004  0.9118800E+02  0.7818608E-02  0.1130116E+00
         25   -1    0    0    0    0  0.00000000000E+00  0.00000000000E+00  0.99999998245E-14  0.12500000000E+03  0.12500000000E+03 0.  0.
        -13    1    3    3    0    0  0.57340977107E+02 -0.11964868828E+02 -0.15693709984E+02  0.60641977530E+02  0.10566000000E+00 0.  1.
         23    2    1    0    0    0  0.28288363585E+02 -0.69786763034E+00  0.22734978280E+01  0.96611845323E+02  0.92346961676E+02 0.  0.
         13    1    3    3    0    0 -0.29052613522E+02  0.11267001198E+02  0.17967207812E+02  0.35969867793E+02  0.10566000000E+00 0. -1.
         22    1    1    0    0    0 -0.28288363585E+02  0.69786763034E+00 -0.22734978280E+01  0.28388154677E+02  0.00000000000E+00 0.  1.
</event>
<event>
 5    1  0.1267616E-004  0.9118800E+02  0.7818608E-02  0.1130116E+00
         25   -1    0    0    0    0  0.00000000000E+00  0.00000000000E+00  0.99999998245E-14  0.12500000000E+03  0.12500000000E+03 0.  0.
        -13    1    3    3    0    0 -0.19444965309E+02  0.86228482782E+01 -0.54803966276E+02  0.58787295157E+02  0.10566000000E+00 0.  1.
         23    2    1    0    0    0 -0.18464778758E+02  0.10926573022E+02 -0.14648562597E+02  0.99020807581E+02  0.95552089958E+02 0.  0.
         13    1    3    3    0    0  0.98018655098E+00  0.23037247437E+01  0.40155403679E+02  0.40233512424E+02  0.10566000000E+00 0. -1.
         22    1    1    0    0    0  0.18464778758E+02 -0.10926573022E+02  0.14648562597E+02  0.25979192419E+02  0.00000000000E+00 0.  1.
</event>
<event>
 5    1  0.1267616E-004  0.9118800E+02  0.7818608E-02  0.1130116E+00
         25   -1    0    0    0    0  0.00000000000E+00  0.00000000000E+00  0.99999998245E-14  0.12500000000E+03  0.12500000000E+03 0.  0.
        -13    1    3    3    0    0 -0.37893224181E+02  0.10445504663E+01  0.59288653143E+01  0.38368608685E+02  0.10566000000E+00 0.  1.
         23    2    1    0    0    0  0.10963423253E+02  0.77964496209E+01  0.29159495313E+02  0.92886802666E+02  0.87159053841E+02 0.  0.
         13    1    3    3    0    0  0.48856647434E+02  0.67518991546E+01  0.23230629999E+02  0.54518193980E+02  0.10566000000E+00 0. -1.
         22    1    1    0    0    0 -0.10963423253E+02 -0.77964496209E+01 -0.29159495313E+02  0.32113197334E+02  0.00000000000E+00 0. -1.
</event>
<event>
 4    1  0.1267616E-004  0.9118800E+02  0.7818608E-02  0.1130116E+00
         25   -1    0    0    0    0  0.00000000000E+00  0.00000000000E+00  0.99999998245E-14  0.12500000000E+03  0.12500000000E+03 0.  0.
        -13    1    1    0    0    0 -0.34373803296E+02  0.36090586179E+02  0.19787454331E+02  0.53625024724E+02  0.10566000000E+00 0. -1.
         13    1    1    0    0    0 -0.95199396482E+01 -0.15501723969E+02  0.18450210811E+01  0.18285184268E+02  0.10566000000E+00 0.  1.
         22    1    1    0    0    0  0.43893742944E+02 -0.20588862210E+02 -0.21632475412E+02  0.53089791007E+02  0.00000000000E+00 0. -1.
</event>
<event>
 5    1  0.1267616E-004  0.9118800E+02  0.7818608E-02  0.1130116E+00
         25   -1    0    0    0    0  0.00000000000E+00  0.00000000000E+00  0.99999998245E-14  0.12500000000E+03  0.12500000000E+03 0.  0.
        -13    1    3    3    0    0 -0.51346135625E+02  0.26155791222E+02  0.43113231547E+01  0.57785376433E+02  0.10566000000E+00 0. -1.
         23    2    1    0    0    0 -0.28907543531E+02 -0.41030495066E+01  0.45076030232E+01  0.95456818498E+02  0.90770064583E+02 0.  0.
         13    1    3    3    0    0  0.22438592094E+02 -0.30258840729E+02  0.19627986842E+00  0.37671442065E+02  0.10566000000E+00 0.  1.
         22    1    1    0    0    0  0.28907543531E+02  0.41030495066E+01 -0.45076030232E+01  0.29543181502E+02  0.00000000000E+00 0. -1.
</event>
<event>
 5    1  0.1267616E-004  0.9118800E+02  0.7818608E-02  0.1130116E+00
         25   -1    0    0    0    0  0.00000000000E+00  0.00000000000E+00  0.99999998245E-14  0.12500000000E+03  0.12500000000E+03 0.  0.
        -13    1    3    3    0    0  0.34542887963E+02 -0.23585696723E+01  0.35768846090E+01  0.34807746656E+02  0.10566000000E+00 0.  1.
         23    2    1    0    0    0 -0.25682600584E+02 -0.12778274287E+02 -0.23683232513E+01  0.96216511304E+02  0.91810281700E+02 0.  0.
         13    1    3    3    0    0 -0.60225488547E+02 -0.10419704615E+02 -0.59452078603E+01  0.61408764648E+02  0.10566000000E+00 0. -1.
         22    1    1    0    0    0  0.25682600584E+02  0.12778274287E+02  0.23683232513E+01  0.28783488696E+02  0.00000000000E+00 0. -1.
</event>
<event>
 5    1  0.1267616E-004  0.9118800E+02  0.7818608E-02  0.1130116E+00
         25   -1    0    0    0    0  0.00000000000E+00  0.00000000000E+00  0.99999998245E-14  0.12500000000E+03  0.12500000000E+03 0.  0.
        -13    1    3    3    0    0 -0.29034913004E+02  0.31505871662E+01 -0.14379488850E+02  0.32553544143E+02  0.10566000000E+00 0.  1.
         23    2    1    0    0    0  0.29259948350E+02  0.59756412818E+01  0.63121670142E+01  0.94476299067E+02  0.89409589904E+02 0.  0.
         13    1    3    3    0    0  0.58294861354E+02  0.28250541156E+01  0.20691655864E+02  0.61922754925E+02  0.10566000000E+00 0. -1.
         22    1    1    0    0    0 -0.29259948350E+02 -0.59756412818E+01 -0.63121670142E+01  0.30523700933E+02  0.00000000000E+00 0. -1.
</event>
<event>
 5    1  0.1267616E-004  0.9118800E+02  0.7818608E-02  0.1130116E+00
         25   -1    0    0    0    0  0.00000000000E+00  0.00000000000E+00  0.99999998245E-14  0.12500000000E+03  0.12500000000E+03 0.  0.
        -13    1    3    3    0    0  0.14551233456E+02 -0.17790611080E+02  0.52976429805E+01  0.23586445744E+02  0.10566000000E+00 0.  1.
         23    2    1    0    0    0 -0.33076048228E+02 -0.27497963854E+02 -0.19057791661E+02  0.77953614321E+02  0.62156283514E+02 0.  0.
         13    1    3    3    0    0 -0.47627281683E+02 -0.97073527745E+01 -0.24355434642E+02  0.54367168577E+02  0.10566000000E+00 0. -1.
         22    1    1    0    0    0  0.33076048228E+02  0.27497963854E+02  0.19057791661E+02  0.47046385679E+02  0.00000000000E+00 0. -1.
</event>
<event>
 5    1  0.1267616E-004  0.9118800E+02  0.7818608E-02  0.1130116E+00
         25   -1    0    0    0    0  0.00000000000E+00  0.00000000000E+00  0.99999998245E-14  0.12500000000E+03  0.12500000000E+03 0.  0.
        -13    1    3    3    0    0 -0.13259928197E+01 -0.36025046008E+02 -0.25420278577E+02  0.44110814137E+02  0.10566000000E+00 0. -1.
         23    2    1    0    0    0 -0.11992184002E+02 -0.12734892667E+02  0.21327079276E+02  0.97416775410E+02  0.93430154942E+02 0.  0.
         13    1    3    3    0    0 -0.10666191182E+02  0.23290153342E+02  0.46747357852E+02  0.53305961273E+02  0.10566000000E+00 0.  1.
         22    1    1    0    0    0  0.11992184002E+02  0.12734892667E+02 -0.21327079276E+02  0.27583224590E+02  0.00000000000E+00 0.  1.
</event>
<event>
 5    1  0.1267616E-004  0.9118800E+02  0.7818608E-02  0.1130116E+00
         25   -1    0    0    0    0  0.00000000000E+00  0.00000000000E+00  0.99999998245E-14  0.12500000000E+03  0.12500000000E+03 0.  0.
        -13    1    3    3    0    0  0.13205678504E+02  0.26071787881E+02 -0.32837431492E+02  0.43959482926E+02  0.10566000000E+00 0.  1.
         23    2    1    0    0    0 -0.66881263644E+01 -0.18367606257E+02 -0.24983710946E+02  0.93277991764E+02  0.87718287380E+02 0.  0.
         13    1    3    3    0    0 -0.19893804869E+02 -0.44439394139E+02  0.78537205455E+01  0.49318508838E+02  0.10566000000E+00 0. -1.
         22    1    1    0    0    0  0.66881263644E+01  0.18367606257E+02  0.24983710946E+02  0.31722008236E+02  0.00000000000E+00 0. -1.
</event>
<event>
 5    1  0.1267616E-004  0.9118800E+02  0.7818608E-02  0.1130116E+00
         25   -1    0    0    0    0  0.00000000000E+00  0.00000000000E+00  0.99999998245E-14  0.12500000000E+03  0.12500000000E+03 0.  0.
        -13    1    3    3    0    0  0.46271084079E+02 -0.17179918269E+02 -0.61647381735E+01  0.49741109501E+02  0.10566000000E+00 0.  1.
         23    2    1    0    0    0  0.73989775720E+01 -0.29561073227E+02  0.89380114969E+01  0.93243268919E+02  0.87668792792E+02 0.  0.
         13    1    3    3    0    0 -0.38872106507E+02 -0.12381154958E+02  0.15102749670E+02  0.43502159418E+02  0.10566000000E+00 0. -1.
         22    1    1    0    0    0 -0.73989775720E+01  0.29561073227E+02 -0.89380114969E+01  0.31756731081E+02  0.00000000000E+00 0.  1.
</event>
<event>
 5    1  0.1267616E-004  0.9118800E+02  0.7818608E-02  0.1130116E+00
         25   -1    0    0    0    0  0.00000000000E+00  0.00000000000E+00  0.99999998245E-14  0.12500000000E+03  0.12500000000E+03 0.  0.
        -13    1    3    3    0    0  0.40957165747E+01 -0.26983951585E+02 -0.23390251261E+02  0.35944729175E+02  0.10566000000E+00 0.  1.
         23    2    1    0    0    0 -0.57393623942E+01  0.27215053306E+02  0.30012856958E+01  0.97024883861E+02  0.92904364619E+02 0.  0.
         13    1    3    3    0    0 -0.98350789689E+01  0.54199004891E+02  0.26391536957E+02  0.61080154686E+02  0.10566000000E+00 0. -1.
         22    1    1    0    0    0  0.57393623942E+01 -0.27215053306E+02 -0.30012856958E+01  0.27975116139E+02  0.00000000000E+00 0. -1.
</event>
<event>
 5    1  0.1267616E-004  0.9118800E+02  0.7818608E-02  0.1130116E+00
         25   -1    0    0    0    0  0.00000000000E+00  0.00000000000E+00  0.99999998245E-14  0.12500000000E+03  0.12500000000E+03 0.  0.
        -13    1    3    3    0    0  0.56858763616E+01 -0.20227007113E+02  0.29392419389E+02  0.36130132692E+02  0.10566000000E+00 0.  1.
         23    2    1    0    0    0 -0.20127243960E+02  0.22877607280E+02 -0.37016929277E+00  0.94526603576E+02  0.89479891004E+02 0.  0.
         13    1    3    3    0    0 -0.25813120321E+02  0.43104614393E+02 -0.29762588682E+02  0.58396470885E+02  0.10566000000E+00 0. -1.
         22    1    1    0    0    0  0.20127243960E+02 -0.22877607280E+02  0.37016929277E+00  0.30473396424E+02  0.00000000000E+00 0. -1.
</event>
<event>
 5    1  0.1267616E-004  0.9118800E+02  0.7818608E-02  0.1130116E+00
         25   -1    0    0    0    0  0.00000000000E+00  0.00000000000E+00  0.99999998245E-14  0.12500000000E+03  0.12500000000E+03 0.  0.
        -13    1    3    3    0    0  0.16151022663E+02  0.29768034961E+02 -0.51705388508E+02  0.61809787278E+02  0.10566000000E+00 0.  1.
         23    2    1    0    0    0  0.12644281943E+02  0.11201631553E+02 -0.29859404491E+02  0.90693463424E+02  0.83954546369E+02 0.  0.
         13    1    3    3    0    0 -0.35067407203E+01 -0.18566403408E+02  0.21845984017E+02  0.28883676146E+02  0.10566000000E+00 0. -1.
         22    1    1    0    0    0 -0.12644281943E+02 -0.11201631553E+02  0.29859404491E+02  0.34306536576E+02  0.00000000000E+00 0.  1.
</event>
<event>
 5    1  0.1267616E-004  0.9118800E+02  0.7818608E-02  0.1130116E+00
         25   -1    0    0    0    0  0.00000000000E+00  0.00000000000E+00  0.99999998245E-14  0.12500000000E+03  0.12500000000E+03 0.  0.
        -13    1    3    3    0    0  0.28410317952E+02  0.18623359010E+02  0.28788967658E+00  0.33971601543E+02  0.10566000000E+00 0.  1.
         23    2    1    0    0    0 -0.25753194188E+02 -0.10305695883E+02 -0.84673812442E+01  0.95997742784E+02  0.91511942914E+02 0.  0.
         13    1    3    3    0    0 -0.54163512140E+02 -0.28929054892E+02 -0.87552709207E+01  0.62026141240E+02  0.10566000000E+00 0. -1.
         22    1    1    0    0    0  0.25753194188E+02  0.10305695883E+02  0.84673812442E+01  0.29002257216E+02  0.00000000000E+00 0. -1.
</event>
<event>
 5    1  0.1267616E-004  0.9118800E+02  0.7818608E-02  0.1130116E+00
         25   -1    0    0    0    0  0.00000000000E+00  0.00000000000E+00  0.99999998245E-14  0.12500000000E+03  0.12500000000E+03 0.  0.
        -13    1    3    3    0    0  0.31212593775E+02 -0.20822065766E+02 -0.22537048079E+02  0.43768871737E+02  0.10566000000E+00 0. -1.
         23    2    1    0    0    0 -0.12191269073E+02 -0.25943812190E+02  0.56607806811E+01  0.95780950213E+02  0.91215336173E+02 0.  0.
         13    1    3    3    0    0 -0.43403862848E+02 -0.51217464239E+01  0.28197828761E+02  0.52012078476E+02  0.10566000000E+00 0.  1.
         22    1    1    0    0    0  0.12191269073E+02  0.25943812190E+02 -0.56607806811E+01  0.29219049787E+02  0.00000000000E+00 0.  1.
</event>
<event>
 5    1  0.1267616E-004  0.9118800E+02  0.7818608E-02  0.1130116E+00
         25   -1    0    0    0    0  0.00000000000E+00  0.00000000000E+00  0.99999998245E-14  0.12500000000E+03  0.12500000000E+03 0.  0.
        -13    1    3    3    0    0  0.58494149638E+02 -0.71758744090E+01 -0.28384577025E+01  0.59001073902E+02  0.10566000000E+00 0. -1.
         23    2    1    0    0    0  0.27471719949E+02  0.10761170806E+02  0.31323149698E+01  0.95329988353E+02  0.90595237668E+02 0.  0.
         13    1    3    3    0    0 -0.31022429689E+02  0.17937045215E+02  0.59707726723E+01  0.36328914451E+02  0.10566000000E+00 0.  1.
         22    1    1    0    0    0 -0.27471719949E+02 -0.10761170806E+02 -0.31323149698E+01  0.29670011647E+02  0.00000000000E+00 0. -1.
</event>
<event>
 5    1  0.1267616E-004  0.9118800E+02  0.7818608E-02  0.1130116E+00
         25   -1    0    0    0    0  0.00000000000E+00  0.00000000000E+00  0.99999998245E-14  0.12500000000E+03  0.12500000000E+03 0.  0.
        -13    1    3    3    0    0  0.34074420051E+02 -0.21924432770E+02 -0.46075150968E+02  0.61356968267E+02  0.10566000000E+00 0.  1.
         23    2    1    0    0    0  0.19755527809E+02 -0.15888797213E+02 -0.16543253548E+02  0.94727669501E+02  0.89760332972E+02 0.  0.
         13    1    3    3    0    0 -0.14318892242E+02  0.60356355575E+01  0.29531897420E+02  0.33370701235E+02  0.10566000000E+00 0. -1.
         22    1    1    0    0    0 -0.19755527809E+02  0.15888797213E+02  0.16543253548E+02  0.30272330499E+02  0.00000000000E+00 0.  1.
</event>
<event>
 5    1  0.1267616E-004  0.9118800E+02  0.7818608E-02  0.1130116E+00
         25   -1    0    0    0    0  0.00000000000E+00  0.00000000000E+00  0.99999998245E-14  0.12500000000E+03  0.12500000000E+03 0.  0.
        -13    1    3    3    0    0 -0.31691659368E+02 -0.10733708616E+02 -0.10376027496E+02  0.35032083649E+02  0.10566000000E+00 0. -1.
         23    2    1    0    0    0  0.13902479823E+02  0.22500949419E+02  0.12288218767E+02  0.95835432620E+02  0.91289967439E+02 0.  0.
         13    1    3    3    0    0  0.45594139192E+02  0.33234658035E+02  0.22664246263E+02  0.60803348971E+02  0.10566000000E+00 0.  1.
         22    1    1    0    0    0 -0.13902479823E+02 -0.22500949419E+02 -0.12288218767E+02  0.29164567380E+02  0.00000000000E+00 0.  1.
</event>
<event>
 5    1  0.1267616E-004  0.9118800E+02  0.7818608E-02  0.1130116E+00
         25   -1    0    0    0    0  0.00000000000E+00  0.00000000000E+00  0.99999998245E-14  0.12500000000E+03  0.12500000000E+03 0.  0.
        -13    1    3    3    0    0  0.30309694574E+02 -0.93755054476E+01 -0.27855058197E+02  0.42219582172E+02  0.10566000000E+00 0. -1.
         23    2    1    0    0    0  0.67341104161E+01 -0.28127475070E+02  0.13254799415E+02  0.93185022325E+02  0.87585704207E+02 0.  0.
         13    1    3    3    0    0 -0.23575584158E+02 -0.18751969622E+02  0.41109857612E+02  0.50965440154E+02  0.10566000000E+00 0.  1.
         22    1    1    0    0    0 -0.67341104161E+01  0.28127475070E+02 -0.13254799415E+02  0.31814977675E+02  0.00000000000E+00 0.  1.
</event>
<event>
 5    1  0.1267616E-004  0.9118800E+02  0.7818608E-02  0.1130116E+00
         25   -1    0    0    0    0  0.00000000000E+00  0.00000000000E+00  0.99999998245E-14  0.12500000000E+03  0.12500000000E+03 0.  0.
        -13    1    3    3    0    0  0.22579967573E+02 -0.19029333984E+02  0.32808253873E+02  0.44140267033E+02  0.10566000000E+00 0.  1.
         23    2    1    0    0    0  0.17801957477E+02 -0.13723943440E+02 -0.18466180648E+02  0.95909518029E+02  0.91391353569E+02 0.  0.
         13    1    3    3    0    0 -0.47780100959E+01  0.53053905439E+01 -0.51274434521E+02  0.51769250997E+02  0.10566000000E+00 0. -1.
         22    1    1    0    0    0 -0.17801957477E+02  0.13723943440E+02  0.18466180648E+02  0.29090481971E+02  0.00000000000E+00 0.  1.
</event>
<event>
 5    1  0.1267616E-004  0.9118800E+02  0.7818608E-02  0.1130116E+00
         25   -1    0    0    0    0  0.00000000000E+00  0.00000000000E+00  0.99999998245E-14  0.12500000000E+03  0.12500000000E+03 0.  0.
        -13    1    3    3    0    0  0.45350510946E+02  0.17072316853E+02  0.23815220796E+02  0.53993599171E+02  0.10566000000E+00 0. -1.
         23    2    1    0    0    0  0.32378588858E+02  0.17784599252E+02 -0.69689911289E+01  0.87407024269E+02  0.78909797029E+02 0.  0.
         13    1    3    3    0    0 -0.12971922088E+02  0.71228239861E+00 -0.30784211925E+02  0.33413425098E+02  0.10566000000E+00 0.  1.
         22    1    1    0    0    0 -0.32378588858E+02 -0.17784599252E+02  0.69689911289E+01  0.37592975731E+02  0.00000000000E+00 0. -1.
</event>
<event>
 5    1  0.1267616E-004  0.9118800E+02  0.7818608E-02  0.1130116E+00
         25   -1    0    0    0    0  0.00000000000E+00  0.00000000000E+00  0.99999998245E-14  0.12500000000E+03  0.12500000000E+03 0.  0.
        -13    1    3    3    0    0 -0.17130713606E+02  0.42472875857E+02  0.30921899402E+02  0.55259221483E+02  0.10566000000E+00 0. -1.
         23    2    1    0    0    0  0.41864178450E+01  0.53899634735E+01  0.25769656942E+02  0.98341923934E+02  0.94659817153E+02 0.  0.
         13    1    3    3    0    0  0.21317131451E+02 -0.37082912383E+02 -0.51522424596E+01  0.43082702452E+02  0.10566000000E+00 0.  1.
         22    1    1    0    0    0 -0.41864178450E+01 -0.53899634735E+01 -0.25769656942E+02  0.26658076066E+02  0.00000000000E+00 0. -1.
</event>
<event>
 5    1  0.1267616E-004  0.9118800E+02  0.7818608E-02  0.1130116E+00
         25   -1    0    0    0    0  0.00000000000E+00  0.00000000000E+00  0.99999998245E-14  0.12500000000E+03  0.12500000000E+03 0.  0.
        -13    1    3    3    0    0  0.26869057934E+02  0.29300179053E+02 -0.41989323565E+02  0.57823535211E+02  0.10566000000E+00 0.  1.
         23    2    1    0    0    0  0.13760936092E+02 -0.38590251183E+01 -0.22183667476E+02  0.98611166383E+02  0.95014691473E+02 0.  0.
         13    1    3    3    0    0 -0.13108121842E+02 -0.33159204171E+02  0.19805656088E+02  0.40787631172E+02  0.10566000000E+00 0. -1.
         22    1    1    0    0    0 -0.13760936092E+02  0.38590251183E+01  0.22183667476E+02  0.26388833617E+02  0.00000000000E+00 0.  1.
</event>
<event>
 5    1  0.1267616E-004  0.9118800E+02  0.7818608E-02  0.1130116E+00
         25   -1    0    0    0    0  0.00000000000E+00  0.00000000000E+00  0.99999998245E-14  0.12500000000E+03  0.12500000000E+03 0.  0.
        -13    1    3    3    0    0  0.84508628858E+01 -0.55705434766E+02  0.90667402945E+01  0.57067762262E+02  0.10566000000E+00 0. -1.
         23    2    1    0    0    0  0.17283665408E+02 -0.30014848778E+02  0.18384000247E+02  0.85787913825E+02  0.76301890254E+02 0.  0.
         13    1    3    3    0    0  0.88328025220E+01  0.25690585988E+02  0.93172599525E+01  0.28720151564E+02  0.10566000000E+00 0.  1.
         22    1    1    0    0    0 -0.17283665408E+02  0.30014848778E+02 -0.18384000247E+02  0.39212086175E+02  0.00000000000E+00 0. -1.
</event>
<event>
 5    1  0.1267616E-004  0.9118800E+02  0.7818608E-02  0.1130116E+00
         25   -1    0    0    0    0  0.00000000000E+00  0.00000000000E+00  0.99999998245E-14  0.12500000000E+03  0.12500000000E+03 0.  0.
        -13    1    3    3    0    0 -0.32078641895E+02 -0.10934244719E+02  0.11598276319E+01  0.33910961908E+02  0.10566000000E+00 0.  1.
         23    2    1    0    0    0  0.18973988819E+02  0.22935012733E+02  0.17890236198E+01  0.95180079372E+02  0.90388162073E+02 0.  0.
         13    1    3    3    0    0  0.51052630713E+02  0.33869257452E+02  0.62919598791E+00  0.61269117463E+02  0.10566000000E+00 0. -1.
         22    1    1    0    0    0 -0.18973988819E+02 -0.22935012733E+02 -0.17890236198E+01  0.29819920628E+02  0.00000000000E+00 0. -1.
</event>
<event>
 5    1  0.1267616E-004  0.9118800E+02  0.7818608E-02  0.1130116E+00
         25   -1    0    0    0    0  0.00000000000E+00  0.00000000000E+00  0.99999998245E-14  0.12500000000E+03  0.12500000000E+03 0.  0.
        -13    1    3    3    0    0 -0.16806438862E+02 -0.24985915629E+02 -0.12937117760E+02  0.32773961418E+02  0.10566000000E+00 0.  1.
         23    2    1    0    0    0  0.54712324638E+00  0.18223517022E+02  0.25843871100E+02  0.93372455202E+02  0.87852796202E+02 0.  0.
         13    1    3    3    0    0  0.17353562109E+02  0.43209432651E+02  0.38780988861E+02  0.60598493784E+02  0.10566000000E+00 0. -1.
         22    1    1    0    0    0 -0.54712324638E+00 -0.18223517022E+02 -0.25843871100E+02  0.31627544798E+02  0.00000000000E+00 0. -1.
</event>
<event>
 5    1  0.1267616E-004  0.9118800E+02  0.7818608E-02  0.1130116E+00
         25   -1    0    0    0    0  0.00000000000E+00  0.00000000000E+00  0.99999998245E-14  0.12500000000E+03  0.12500000000E+03 0.  0.
        -13    1    3    3    0    0  0.16951485730E+02 -0.17480719067E+02 -0.34214205799E+02  0.41994659781E+02  0.10566000000E+00 0. -1.
         23    2    1    0    0    0 -0.22753479878E+02 -0.22439801109E+02 -0.26988320090E+01  0.92928997293E+02  0.87219546681E+02 0.  0.
         13    1    3    3    0    0 -0.39704965609E+02 -0.49590820418E+01  0.31515373790E+02  0.50934337513E+02  0.10566000000E+00 0.  1.
         22    1    1    0    0    0  0.22753479878E+02  0.22439801109E+02  0.26988320090E+01  0.32071002707E+02  0.00000000000E+00 0.  1.
</event>
<event>
 5    1  0.1267616E-004  0.9118800E+02  0.7818608E-02  0.1130116E+00
         25   -1    0    0    0    0  0.00000000000E+00  0.00000000000E+00  0.99999998245E-14  0.12500000000E+03  0.12500000000E+03 0.  0.
        -13    1    3    3    0    0 -0.34588873133E+02 -0.10023471825E+02 -0.11209082884E+02  0.37716241000E+02  0.10566000000E+00 0.  1.
         23    2    1    0    0    0  0.12307581439E+02 -0.24679444838E+02  0.15213759527E+02  0.93503809162E+02  0.88039492788E+02 0.  0.
         13    1    3    3    0    0  0.46896454571E+02 -0.14655973013E+02  0.26422842411E+02  0.55787568162E+02  0.10566000000E+00 0. -1.
         22    1    1    0    0    0 -0.12307581439E+02  0.24679444838E+02 -0.15213759527E+02  0.31496190838E+02  0.00000000000E+00 0. -1.
</event>
<event>
 5    1  0.1267616E-004  0.9118800E+02  0.7818608E-02  0.1130116E+00
         25   -1    0    0    0    0  0.00000000000E+00  0.00000000000E+00  0.99999998245E-14  0.12500000000E+03  0.12500000000E+03 0.  0.
        -13    1    3    3    0    0 -0.36528626627E+02  0.25588411854E+02  0.24295859810E+02  0.50787866193E+02  0.10566000000E+00 0. -1.
         23    2    1    0    0    0 -0.26783630685E+02  0.59620637859E+01 -0.13456450698E+02  0.94438829495E+02  0.89357189827E+02 0.  0.
         13    1    3    3    0    0  0.97449959421E+01 -0.19626348068E+02 -0.37752310509E+02  0.43650963302E+02  0.10566000000E+00 0.  1.
         22    1    1    0    0    0  0.26783630685E+02 -0.59620637859E+01  0.13456450698E+02  0.30561170505E+02  0.00000000000E+00 0. -1.
</event>
<event>
 5    1  0.1267616E-004  0.9118800E+02  0.7818608E-02  0.1130116E+00
         25   -1    0    0    0    0  0.00000000000E+00  0.00000000000E+00  0.99999998245E-14  0.12500000000E+03  0.12500000000E+03 0.  0.
        -13    1    3    3    0    0 -0.20402129261E+02 -0.40960164685E+00 -0.30477748482E+02  0.36678590055E+02  0.10566000000E+00 0.  1.
         23    2    1    0    0    0 -0.88860386040E+01  0.95477718865E+01  0.26397380156E+02  0.95556098948E+02  0.90906681476E+02 0.  0.
         13    1    3    3    0    0  0.11516090657E+02  0.99573735333E+01  0.56875128638E+02  0.58877508892E+02  0.10566000000E+00 0. -1.
         22    1    1    0    0    0  0.88860386040E+01 -0.95477718865E+01 -0.26397380156E+02  0.29443901052E+02  0.00000000000E+00 0. -1.
</event>
<event>
 5    1  0.1267616E-004  0.9118800E+02  0.7818608E-02  0.1130116E+00
         25   -1    0    0    0    0  0.00000000000E+00  0.00000000000E+00  0.99999998245E-14  0.12500000000E+03  0.12500000000E+03 0.  0.
        -13    1    3    3    0    0  0.84894725776E+01  0.48168267134E+02 -0.31392756993E+02  0.58118581013E+02  0.10566000000E+00 0.  1.
         23    2    1    0    0    0  0.20225120548E+02  0.24287396070E+02 -0.11401369347E+02  0.91400530777E+02  0.85000780551E+02 0.  0.
         13    1    3    3    0    0  0.11735647971E+02 -0.23880871064E+02  0.19991387645E+02  0.33281949764E+02  0.10566000000E+00 0. -1.
         22    1    1    0    0    0 -0.20225120548E+02 -0.24287396070E+02  0.11401369347E+02  0.33599469223E+02  0.00000000000E+00 0.  1.
</event>
<event>
 5    1  0.1267616E-004  0.9118800E+02  0.7818608E-02  0.1130116E+00
         25   -1    0    0    0    0  0.00000000000E+00  0.00000000000E+00  0.99999998245E-14  0.12500000000E+03  0.12500000000E+03 0.  0.
        -13    1    3    3    0    0  0.26422013079E+02  0.28303466330E+02 -0.15405623384E+02  0.41671973523E+02  0.10566000000E+00 0.  1.
         23    2    1    0    0    0 -0.30844221384E+01 -0.18735884177E+02 -0.20040106385E+02  0.97392883531E+02  0.93398184579E+02 0.  0.
         13    1    3    3    0    0 -0.29506435218E+02 -0.47039350507E+02 -0.46344830018E+01  0.55720910007E+02  0.10566000000E+00 0. -1.
         22    1    1    0    0    0  0.30844221384E+01  0.18735884177E+02  0.20040106385E+02  0.27607116469E+02  0.00000000000E+00 0. -1.
</event>
<event>
 5    1  0.1267616E-004  0.9118800E+02  0.7818608E-02  0.1130116E+00
         25   -1    0    0    0    0  0.00000000000E+00  0.00000000000E+00  0.99999998245E-14  0.12500000000E+03  0.12500000000E+03 0.  0.
        -13    1    3    3    0    0 -0.45260234042E+02 -0.15014060451E+02 -0.21194695780E+01  0.47732736273E+02  0.10566000000E+00 0. -1.
         23    2    1    0    0    0 -0.12308586015E+02  0.18103315535E+02 -0.17559717493E+02  0.96936233299E+02  0.92785011315E+02 0.  0.
         13    1    3    3    0    0  0.32951648027E+02  0.33117375986E+02 -0.15440247915E+02  0.49203497026E+02  0.10566000000E+00 0.  1.
         22    1    1    0    0    0  0.12308586015E+02 -0.18103315535E+02  0.17559717493E+02  0.28063766701E+02  0.00000000000E+00 0. -1.
</event>
<event>
 5    1  0.1267616E-004  0.9118800E+02  0.7818608E-02  0.1130116E+00
         25   -1    0    0    0    0  0.00000000000E+00  0.00000000000E+00  0.99999998245E-14  0.12500000000E+03  0.12500000000E+03 0.  0.
        -13    1    3    3    0    0 -0.53423638771E+02 -0.20322639938E+01 -0.19595635541E+02  0.56940454624E+02  0.10566000000E+00 0.  1.
         23    2    1    0    0    0 -0.16007959351E+02 -0.10939590048E+02 -0.22242728837E+02  0.95492909681E+02  0.90819752368E+02 0.  0.
         13    1    3    3    0    0  0.37415679420E+02 -0.89073260538E+01 -0.26470932959E+01  0.38552455056E+02  0.10566000000E+00 0. -1.
         22    1    1    0    0    0  0.16007959351E+02  0.10939590048E+02  0.22242728837E+02  0.29507090319E+02  0.00000000000E+00 0.  1.
</event>
<event>
 5    1  0.1267616E-004  0.9118800E+02  0.7818608E-02  0.1130116E+00
         25   -1    0    0    0    0  0.00000000000E+00  0.00000000000E+00  0.99999998245E-14  0.12500000000E+03  0.12500000000E+03 0.  0.
        -13    1    3    3    0    0  0.21697513869E+02  0.26805798430E+02 -0.25383180066E+02  0.42821138843E+02  0.10566000000E+00 0.  1.
         23    2    1    0    0    0  0.16174720121E+02 -0.22942159817E+02 -0.79256841483E+01  0.95831854065E+02  0.91285067323E+02 0.  0.
         13    1    3    3    0    0 -0.55227937481E+01 -0.49747958247E+02  0.17457495918E+02  0.53010715222E+02  0.10566000000E+00 0. -1.
         22    1    1    0    0    0 -0.16174720121E+02  0.22942159817E+02  0.79256841483E+01  0.29168145935E+02  0.00000000000E+00 0. -1.
</event>
<event>
 5    1  0.1267616E-004  0.9118800E+02  0.7818608E-02  0.1130116E+00
         25   -1    0    0    0    0  0.00000000000E+00  0.00000000000E+00  0.99999998245E-14  0.12500000000E+03  0.12500000000E+03 0.  0.
        -13    1    3    3    0    0  0.18709295130E+02 -0.21133225488E+02 -0.25586192150E+02  0.38096132830E+02  0.10566000000E+00 0.  1.
         23    2    1    0    0    0  0.41993808297E+01  0.26768482414E+02  0.59560571562E+01  0.97257233971E+02  0.93216460418E+02 0.  0.
         13    1    3    3    0    0 -0.14509914300E+02  0.47901707902E+02  0.31542249306E+02  0.59161101141E+02  0.10566000000E+00 0. -1.
         22    1    1    0    0    0 -0.41993808297E+01 -0.26768482414E+02 -0.59560571562E+01  0.27742766029E+02  0.00000000000E+00 0. -1.
</event>
<event>
 5    1  0.1267616E-004  0.9118800E+02  0.7818608E-02  0.1130116E+00
         25   -1    0    0    0    0  0.00000000000E+00  0.00000000000E+00  0.99999998245E-14  0.12500000000E+03  0.12500000000E+03 0.  0.
        -13    1    3    3    0    0 -0.15433989391E+02  0.22992851964E+02  0.34710431306E+02  0.44403879058E+02  0.10566000000E+00 0. -1.
         23    2    1    0    0    0  0.22278517162E+02 -0.78393717515E+01  0.15407129786E+02  0.96801281507E+02  0.92603025743E+02 0.  0.
         13    1    3    3    0    0  0.37712506553E+02 -0.30832223715E+02 -0.19303301520E+02  0.52397402449E+02  0.10566000000E+00 0.  1.
         22    1    1    0    0    0 -0.22278517162E+02  0.78393717515E+01 -0.15407129786E+02  0.28198718493E+02  0.00000000000E+00 0.  1.
</event>
<event>
 5    1  0.1267616E-004  0.9118800E+02  0.7818608E-02  0.1130116E+00
         25   -1    0    0    0    0  0.00000000000E+00  0.00000000000E+00  0.99999998245E-14  0.12500000000E+03  0.12500000000E+03 0.  0.
        -13    1    3    3    0    0  0.29555570221E+02 -0.11723793679E+02  0.11451267939E+02  0.33795292140E+02  0.10566000000E+00 0. -1.
         23    2    1    0    0    0 -0.43030092690E+01 -0.26694210942E+02 -0.26731184607E+02  0.86978255996E+02  0.78227642167E+02 0.  0.
         13    1    3    3    0    0 -0.33858579490E+02 -0.14970417263E+02 -0.38182452546E+02  0.53182963857E+02  0.10566000000E+00 0.  1.
         22    1    1    0    0    0  0.43030092690E+01  0.26694210942E+02  0.26731184607E+02  0.38021744004E+02  0.00000000000E+00 0.  1.
</event>
<event>
 5    1  0.1267616E-004  0.9118800E+02  0.7818608E-02  0.1130116E+00
         25   -1    0    0    0    0  0.00000000000E+00  0.00000000000E+00  0.99999998245E-14  0.12500000000E+03  0.12500000000E+03 0.  0.
        -13    1    3    3    0    0 -0.36973961323E+01  0.15411439408E+02 -0.43277068714E+02  0.46087949003E+02  0.10566000000E+00 0.  1.
         23    2    1    0    0    0  0.23371217915E+01 -0.25006867629E+02 -0.16045137616E+02  0.95196443031E+02  0.90410788946E+02 0.  0.
         13    1    3    3    0    0  0.60345179238E+01 -0.40418307037E+02  0.27231931098E+02  0.49108494028E+02  0.10566000000E+00 0. -1.
         22    1    1    0    0    0 -0.23371217915E+01  0.25006867629E+02  0.16045137616E+02  0.29803556969E+02  0.00000000000E+00 0.  1.
</event>
<event>
 5    1  0.1267616E-004  0.9118800E+02  0.7818608E-02  0.1130116E+00
         25   -1    0    0    0    0  0.00000000000E+00  0.00000000000E+00  0.99999998245E-14  0.12500000000E+03  0.12500000000E+03 0.  0.
        -13    1    3    3    0    0 -0.19294160919E+02 -0.45020536684E+02 -0.87459611928E+01  0.49755566222E+02  0.10566000000E+00 0.  1.
         23    2    1    0    0    0  0.12812174961E+02  0.34421002148E+01  0.70227975633E+01  0.10998935156E+03  0.10896025830E+03 0.  0.
         13    1    3    3    0    0  0.32106335880E+02  0.48462636899E+02  0.15768758756E+02  0.60233785333E+02  0.10566000000E+00 0. -1.
         22    1    1    0    0    0 -0.12812174961E+02 -0.34421002148E+01 -0.70227975633E+01  0.15010648445E+02  0.00000000000E+00 0. -1.
</event>
<event>
 5    1  0.1267616E-004  0.9118800E+02  0.7818608E-02  0.1130116E+00
         25   -1    0    0    0    0  0.00000000000E+00  0.00000000000E+00  0.99999998245E-14  0.12500000000E+03  0.12500000000E+03 0.  0.
        -13    1    3    3    0    0 -0.18598565288E+01 -0.80908865835E+01 -0.51694052682E+02  0.52356544564E+02  0.10566000000E+00 0. -1.
         23    2    1    0    0    0 -0.17329744490E+02  0.11897968602E+02 -0.86590067820E+01  0.10226544262E+03  0.99706372185E+02 0.  0.
         13    1    3    3    0    0 -0.15469887962E+02  0.19988855186E+02  0.43035045900E+02  0.49908898052E+02  0.10566000000E+00 0.  1.
         22    1    1    0    0    0  0.17329744490E+02 -0.11897968602E+02  0.86590067820E+01  0.22734557383E+02  0.00000000000E+00 0.  1.
</event>
<event>
 5    1  0.1267616E-004  0.9118800E+02  0.7818608E-02  0.1130116E+00
         25   -1    0    0    0    0  0.00000000000E+00  0.00000000000E+00  0.99999998245E-14  0.12500000000E+03  0.12500000000E+03 0.  0.
        -13    1    3    3    0    0 -0.21185266967E+02  0.48676632389E+02 -0.32944293371E+02  0.62478537971E+02  0.10566000000E+00 0. -1.
         23    2    1    0    0    0 -0.10804527406E+02  0.22511910911E+02 -0.14670399756E+02  0.96038912757E+02  0.91568161438E+02 0.  0.
         13    1    3    3    0    0  0.10380739561E+02 -0.26164721479E+02  0.18273893615E+02  0.33560374786E+02  0.10566000000E+00 0.  1.
         22    1    1    0    0    0  0.10804527406E+02 -0.22511910911E+02  0.14670399756E+02  0.28961087243E+02  0.00000000000E+00 0. -1.
</event>
<event>
 5    1  0.1267616E-004  0.9118800E+02  0.7818608E-02  0.1130116E+00
         25   -1    0    0    0    0  0.00000000000E+00  0.00000000000E+00  0.99999998245E-14  0.12500000000E+03  0.12500000000E+03 0.  0.
        -13    1    3    3    0    0 -0.45302431004E+01 -0.33103733214E+02  0.11738839934E+02  0.35414570198E+02  0.10566000000E+00 0. -1.
         23    2    1    0    0    0 -0.10181514154E+02  0.11506142775E+02 -0.26451456086E+02  0.94410229143E+02  0.89317172402E+02 0.  0.
         13    1    3    3    0    0 -0.56512710533E+01  0.44609875989E+02 -0.38190296020E+02  0.58995658945E+02  0.10566000000E+00 0.  1.
         22    1    1    0    0    0  0.10181514154E+02 -0.11506142775E+02  0.26451456086E+02  0.30589770857E+02  0.00000000000E+00 0.  1.
</event>
<event>
 5    1  0.1267616E-004  0.9118800E+02  0.7818608E-02  0.1130116E+00
         25   -1    0    0    0    0  0.00000000000E+00  0.00000000000E+00  0.99999998245E-14  0.12500000000E+03  0.12500000000E+03 0.  0.
        -13    1    3    3    0    0  0.34560058234E+02  0.11969848035E+02 -0.47928389048E+02  0.60289439605E+02  0.10566000000E+00 0.  1.
         23    2    1    0    0    0  0.17964082962E+02 -0.60722916834E+01 -0.21104704904E+02  0.96627661851E+02  0.92368368302E+02 0.  0.
         13    1    3    3    0    0 -0.16595975272E+02 -0.18042139719E+02  0.26823684144E+02  0.36338222245E+02  0.10566000000E+00 0. -1.
         22    1    1    0    0    0 -0.17964082962E+02  0.60722916834E+01  0.21104704904E+02  0.28372338149E+02  0.00000000000E+00 0. -1.
</event>
<event>
 5    1  0.1267616E-004  0.9118800E+02  0.7818608E-02  0.1130116E+00
         25   -1    0    0    0    0  0.00000000000E+00  0.00000000000E+00  0.99999998245E-14  0.12500000000E+03  0.12500000000E+03 0.  0.
        -13    1    3    3    0    0 -0.11878842981E+02  0.29291481668E+02  0.27736540262E+02  0.42052641280E+02  0.10566000000E+00 0. -1.
         23    2    1    0    0    0  0.25947505050E+02 -0.52286432804E+01  0.13919525004E+02  0.95094065719E+02  0.90269133316E+02 0.  0.
         13    1    3    3    0    0  0.37826348031E+02 -0.34520124948E+02 -0.13817015258E+02  0.53041424439E+02  0.10566000000E+00 0.  1.
         22    1    1    0    0    0 -0.25947505050E+02  0.52286432804E+01 -0.13919525004E+02  0.29905934281E+02  0.00000000000E+00 0.  1.
</event>
<event>
 5    1  0.1267616E-004  0.9118800E+02  0.7818608E-02  0.1130116E+00
         25   -1    0    0    0    0  0.00000000000E+00  0.00000000000E+00  0.99999998245E-14  0.12500000000E+03  0.12500000000E+03 0.  0.
        -13    1    3    3    0    0  0.15503662881E+02 -0.32979349118E+02 -0.27583223589E+01  0.36546142577E+02  0.10566000000E+00 0. -1.
         23    2    1    0    0    0 -0.30304531822E+02  0.25843591855E+01 -0.58116311650E+00  0.94579919265E+02  0.89554340019E+02 0.  0.
         13    1    3    3    0    0 -0.45808194704E+02  0.35563708303E+02  0.21771592424E+01  0.58033776688E+02  0.10566000000E+00 0.  1.
         22    1    1    0    0    0  0.30304531822E+02 -0.25843591855E+01  0.58116311650E+00  0.30420080735E+02  0.00000000000E+00 0.  1.
</event>
<event>
 5    1  0.1267616E-004  0.9118800E+02  0.7818608E-02  0.1130116E+00
         25   -1    0    0    0    0  0.00000000000E+00  0.00000000000E+00  0.99999998245E-14  0.12500000000E+03  0.12500000000E+03 0.  0.
        -13    1    3    3    0    0 -0.52574191169E+01  0.12708601544E+02 -0.45963724089E+02  0.47977329074E+02  0.10566000000E+00 0. -1.
         23    2    1    0    0    0 -0.50471673269E+01  0.28361527247E+02 -0.36274007740E+00  0.96190596914E+02  0.91774992391E+02 0.  0.
         13    1    3    3    0    0  0.21025179004E+00  0.15652925704E+02  0.45600984011E+02  0.48213267839E+02  0.10566000000E+00 0.  1.
         22    1    1    0    0    0  0.50471673269E+01 -0.28361527247E+02  0.36274007740E+00  0.28809403086E+02  0.00000000000E+00 0.  1.
</event>
<event>
 5    1  0.1267616E-004  0.9118800E+02  0.7818608E-02  0.1130116E+00
         25   -1    0    0    0    0  0.00000000000E+00  0.00000000000E+00  0.99999998245E-14  0.12500000000E+03  0.12500000000E+03 0.  0.
        -13    1    3    3    0    0 -0.24860071743E+01 -0.54349429976E+01 -0.33899257518E+02  0.34422226270E+02  0.10566000000E+00 0.  1.
         23    2    1    0    0    0 -0.72640176920E+01 -0.13634425708E+02  0.25830992013E+02  0.94901766400E+02  0.90002453301E+02 0.  0.
         13    1    3    3    0    0 -0.47780105177E+01 -0.81994827103E+01  0.59730249532E+02  0.60479540130E+02  0.10566000000E+00 0. -1.
         22    1    1    0    0    0  0.72640176920E+01  0.13634425708E+02 -0.25830992013E+02  0.30098233600E+02  0.00000000000E+00 0. -1.
</event>
<event>
 5    1  0.1267616E-004  0.9118800E+02  0.7818608E-02  0.1130116E+00
         25   -1    0    0    0    0  0.00000000000E+00  0.00000000000E+00  0.99999998245E-14  0.12500000000E+03  0.12500000000E+03 0.  0.
        -13    1    3    3    0    0 -0.32077964377E+02 -0.17213599770E+02 -0.43840320532E+02  0.56984986479E+02  0.10566000000E+00 0.  1.
         23    2    1    0    0    0  0.63193688037E+00 -0.12467832086E+02 -0.29409712588E+02  0.93050393185E+02  0.87393353844E+02 0.  0.
         13    1    3    3    0    0  0.32709901258E+02  0.47457676837E+01  0.14430607944E+02  0.36065406706E+02  0.10566000000E+00 0. -1.
         22    1    1    0    0    0 -0.63193688037E+00  0.12467832086E+02  0.29409712588E+02  0.31949606815E+02  0.00000000000E+00 0.  1.
</event>
<event>
 5    1  0.1267616E-004  0.9118800E+02  0.7818608E-02  0.1130116E+00
         25   -1    0    0    0    0  0.00000000000E+00  0.00000000000E+00  0.99999998245E-14  0.12500000000E+03  0.12500000000E+03 0.  0.
        -13    1    3    3    0    0  0.34197874033E+02  0.39070969224E+02 -0.29038179084E+02  0.59491698858E+02  0.10566000000E+00 0. -1.
         23    2    1    0    0    0  0.25166776921E+02  0.80865299602E+01 -0.13753887785E+02  0.95201878304E+02  0.90418303325E+02 0.  0.
         13    1    3    3    0    0 -0.90310971125E+01 -0.30984439263E+02  0.15284291299E+02  0.35710179446E+02  0.10566000000E+00 0.  1.
         22    1    1    0    0    0 -0.25166776921E+02 -0.80865299602E+01  0.13753887785E+02  0.29798121696E+02  0.00000000000E+00 0. -1.
</event>
<event>
 5    1  0.1267616E-004  0.9118800E+02  0.7818608E-02  0.1130116E+00
         25   -1    0    0    0    0  0.00000000000E+00  0.00000000000E+00  0.99999998245E-14  0.12500000000E+03  0.12500000000E+03 0.  0.
        -13    1    3    3    0    0 -0.22518625492E+02 -0.41542319376E+02 -0.36705696957E+02  0.59834539743E+02  0.10566000000E+00 0. -1.
         23    2    1    0    0    0 -0.16980565872E+02 -0.96460083958E+01 -0.22553406567E+02  0.95166440992E+02  0.90369299256E+02 0.  0.
         13    1    3    3    0    0  0.55380596191E+01  0.31896310981E+02  0.14152290390E+02  0.35331901248E+02  0.10566000000E+00 0.  1.
         22    1    1    0    0    0  0.16980565872E+02  0.96460083958E+01  0.22553406567E+02  0.29833559008E+02  0.00000000000E+00 0. -1.
</event>
<event>
 5    1  0.1267616E-004  0.9118800E+02  0.7818608E-02  0.1130116E+00
         25   -1    0    0    0    0  0.00000000000E+00  0.00000000000E+00  0.99999998245E-14  0.12500000000E+03  0.12500000000E+03 0.  0.
        -13    1    3    3    0    0  0.20109402862E+01  0.38956707928E+02  0.10554221624E+02  0.40411282231E+02  0.10566000000E+00 0.  1.
         23    2    1    0    0    0 -0.80443870379E+01 -0.64365468244E+01  0.31831778567E+02  0.91542513176E+02  0.85209320465E+02 0.  0.
         13    1    3    3    0    0 -0.10055327324E+02 -0.45393254752E+02  0.21277556942E+02  0.51131230946E+02  0.10566000000E+00 0. -1.
         22    1    1    0    0    0  0.80443870379E+01  0.64365468244E+01 -0.31831778567E+02  0.33457486824E+02  0.00000000000E+00 0. -1.
</event>
<event>
 5    1  0.1267616E-004  0.9118800E+02  0.7818608E-02  0.1130116E+00
         25   -1    0    0    0    0  0.00000000000E+00  0.00000000000E+00  0.99999998245E-14  0.12500000000E+03  0.12500000000E+03 0.  0.
        -13    1    3    3    0    0  0.55587090195E+01  0.10282519603E+02 -0.31296922688E+02  0.33408651412E+02  0.10566000000E+00 0. -1.
         23    2    1    0    0    0 -0.20775411718E+01 -0.83708299822E+01  0.27823388846E+02  0.95870497107E+02  0.91337967334E+02 0.  0.
         13    1    3    3    0    0 -0.76362501913E+01 -0.18653349585E+02  0.59120311534E+02  0.62461845695E+02  0.10566000000E+00 0.  1.
         22    1    1    0    0    0  0.20775411718E+01  0.83708299822E+01 -0.27823388846E+02  0.29129502893E+02  0.00000000000E+00 0.  1.
</event>
<event>
 5    1  0.1267616E-004  0.9118800E+02  0.7818608E-02  0.1130116E+00
         25   -1    0    0    0    0  0.00000000000E+00  0.00000000000E+00  0.99999998245E-14  0.12500000000E+03  0.12500000000E+03 0.  0.
        -13    1    3    3    0    0  0.13276624109E+02 -0.15687943333E+02 -0.54563496848E+02  0.58305803022E+02  0.10566000000E+00 0.  1.
         23    2    1    0    0    0 -0.96170095204E+01 -0.10839272783E+02 -0.26030572770E+02  0.95207930161E+02  0.90426669408E+02 0.  0.
         13    1    3    3    0    0 -0.22893633629E+02  0.48486705504E+01  0.28532924079E+02  0.36902127139E+02  0.10566000000E+00 0. -1.
         22    1    1    0    0    0  0.96170095204E+01  0.10839272783E+02  0.26030572770E+02  0.29792069839E+02  0.00000000000E+00 0.  1.
</event>
<event>
 5    1  0.1267616E-004  0.9118800E+02  0.7818608E-02  0.1130116E+00
         25   -1    0    0    0    0  0.00000000000E+00  0.00000000000E+00  0.99999998245E-14  0.12500000000E+03  0.12500000000E+03 0.  0.
        -13    1    3    3    0    0  0.17522690649E+02  0.24956119496E+01  0.34402640176E+02  0.38688830193E+02  0.10566000000E+00 0. -1.
         23    2    1    0    0    0 -0.26361490692E+02  0.88575576810E+01 -0.34320519319E+01  0.96979230916E+02  0.92842919649E+02 0.  0.
         13    1    3    3    0    0 -0.43884181341E+02  0.63619457314E+01 -0.37834692108E+02  0.58290400723E+02  0.10566000000E+00 0.  1.
         22    1    1    0    0    0  0.26361490692E+02 -0.88575576810E+01  0.34320519319E+01  0.28020769084E+02  0.00000000000E+00 0.  1.
</event>
<event>
 5    1  0.1267616E-004  0.9118800E+02  0.7818608E-02  0.1130116E+00
         25   -1    0    0    0    0  0.00000000000E+00  0.00000000000E+00  0.99999998245E-14  0.12500000000E+03  0.12500000000E+03 0.  0.
        -13    1    3    3    0    0 -0.21765558342E+02 -0.47087730209E+02  0.16483528249E+02  0.54430797658E+02  0.10566000000E+00 0. -1.
         23    2    1    0    0    0 -0.10732559185E+02 -0.79800793761E+01  0.25637767510E+02  0.96083488862E+02  0.91628992222E+02 0.  0.
         13    1    3    3    0    0  0.11032999157E+02  0.39107650833E+02  0.91542392607E+01  0.41652691204E+02  0.10566000000E+00 0.  1.
         22    1    1    0    0    0  0.10732559185E+02  0.79800793761E+01 -0.25637767510E+02  0.28916511138E+02  0.00000000000E+00 0. -1.
</event>
<event>
 5    1  0.1267616E-004  0.9118800E+02  0.7818608E-02  0.1130116E+00
         25   -1    0    0    0    0  0.00000000000E+00  0.00000000000E+00  0.99999998245E-14  0.12500000000E+03  0.12500000000E+03 0.  0.
        -13    1    3    3    0    0 -0.48273995391E+02 -0.19784260926E+02  0.33541812320E+02  0.62023059818E+02  0.10566000000E+00 0.  1.
         23    2    1    0    0    0 -0.22919753356E+02 -0.13683832507E+02  0.12535541366E+02  0.95509286830E+02  0.90842290303E+02 0.  0.
         13    1    3    3    0    0  0.25354242035E+02  0.61004284194E+01 -0.21006270954E+02  0.33486227012E+02  0.10566000000E+00 0. -1.
         22    1    1    0    0    0  0.22919753356E+02  0.13683832507E+02 -0.12535541366E+02  0.29490713170E+02  0.00000000000E+00 0.  1.
</event>
<event>
 5    1  0.1267616E-004  0.9118800E+02  0.7818608E-02  0.1130116E+00
         25   -1    0    0    0    0  0.00000000000E+00  0.00000000000E+00  0.99999998245E-14  0.12500000000E+03  0.12500000000E+03 0.  0.
        -13    1    3    3    0    0  0.14410949817E+02 -0.36858574252E+02 -0.66679511439E+01  0.40133560856E+02  0.10566000000E+00 0. -1.
         23    2    1    0    0    0 -0.22747053408E+02 -0.68517826025E+01  0.19204159937E+02  0.94452084810E+02  0.89375730501E+02 0.  0.
         13    1    3    3    0    0 -0.37158003224E+02  0.30006791650E+02  0.25872111081E+02  0.54318523954E+02  0.10566000000E+00 0.  1.
         22    1    1    0    0    0  0.22747053408E+02  0.68517826025E+01 -0.19204159937E+02  0.30547915190E+02  0.00000000000E+00 0.  1.
</event>
<event>
 5    1  0.1267616E-004  0.9118800E+02  0.7818608E-02  0.1130116E+00
         25   -1    0    0    0    0  0.00000000000E+00  0.00000000000E+00  0.99999998245E-14  0.12500000000E+03  0.12500000000E+03 0.  0.
        -13    1    3    3    0    0 -0.40680570585E+02 -0.25578155115E+02  0.37694315227E+02  0.61073917564E+02  0.10566000000E+00 0. -1.
         23    2    1    0    0    0 -0.81974322253E+01 -0.15608454811E+02  0.13752241869E+02  0.10264052968E+03  0.10017550808E+03 0.  0.
         13    1    3    3    0    0  0.32483138360E+02  0.99697003040E+01 -0.23942073358E+02  0.41566612113E+02  0.10566000000E+00 0.  1.
         22    1    1    0    0    0  0.81974322253E+01  0.15608454811E+02 -0.13752241869E+02  0.22359470322E+02  0.00000000000E+00 0. -1.
</event>
<event>
 5    1  0.1267616E-004  0.9118800E+02  0.7818608E-02  0.1130116E+00
         25   -1    0    0    0    0  0.00000000000E+00  0.00000000000E+00  0.99999998245E-14  0.12500000000E+03  0.12500000000E+03 0.  0.
        -13    1    3    3    0    0  0.31456449079E+02 -0.23527050660E+02 -0.34923454832E+02  0.52561289585E+02  0.10566000000E+00 0. -1.
         23    2    1    0    0    0  0.29741139282E+02  0.32937582397E+01 -0.20724470000E+01  0.95005346382E+02  0.90146195679E+02 0.  0.
         13    1    3    3    0    0 -0.17153097969E+01  0.26820808899E+02  0.32851007832E+02  0.42444056796E+02  0.10566000000E+00 0.  1.
         22    1    1    0    0    0 -0.29741139282E+02 -0.32937582397E+01  0.20724470000E+01  0.29994653618E+02  0.00000000000E+00 0.  1.
</event>
<event>
 5    1  0.1267616E-004  0.9118800E+02  0.7818608E-02  0.1130116E+00
         25   -1    0    0    0    0  0.00000000000E+00  0.00000000000E+00  0.99999998245E-14  0.12500000000E+03  0.12500000000E+03 0.  0.
        -13    1    3    3    0    0 -0.42518131195E+02  0.17756958800E+02 -0.22625952705E+02  0.51332698799E+02  0.10566000000E+00 0.  1.
         23    2    1    0    0    0 -0.22398387758E+02 -0.12617226565E+02 -0.26630376323E+02  0.87985690288E+02  0.79821191246E+02 0.  0.
         13    1    3    3    0    0  0.20119743437E+02 -0.30374185365E+02 -0.40044236185E+01  0.36652991489E+02  0.10566000000E+00 0. -1.
         22    1    1    0    0    0  0.22398387758E+02  0.12617226565E+02  0.26630376323E+02  0.37014309712E+02  0.00000000000E+00 0. -1.
</event>
<event>
 5    1  0.1267616E-004  0.9118800E+02  0.7818608E-02  0.1130116E+00
         25   -1    0    0    0    0  0.00000000000E+00  0.00000000000E+00  0.99999998245E-14  0.12500000000E+03  0.12500000000E+03 0.  0.
        -13    1    3    3    0    0 -0.36915623743E+01 -0.12148624405E+02  0.31377898652E+02  0.33849673492E+02  0.10566000000E+00 0.  1.
         23    2    1    0    0    0  0.92990456762E+01  0.15898122726E+02 -0.22474883301E+02  0.95942420333E+02  0.91436344433E+02 0.  0.
         13    1    3    3    0    0  0.12990608051E+02  0.28046747131E+02 -0.53852781953E+02  0.62092746841E+02  0.10566000000E+00 0. -1.
         22    1    1    0    0    0 -0.92990456762E+01 -0.15898122726E+02  0.22474883301E+02  0.29057579667E+02  0.00000000000E+00 0. -1.
</event>
<event>
 5    1  0.1267616E-004  0.9118800E+02  0.7818608E-02  0.1130116E+00
         25   -1    0    0    0    0  0.00000000000E+00  0.00000000000E+00  0.99999998245E-14  0.12500000000E+03  0.12500000000E+03 0.  0.
        -13    1    3    3    0    0 -0.24937196732E+02  0.32610755950E+02  0.33114503519E+02  0.52743783442E+02  0.10566000000E+00 0.  1.
         23    2    1    0    0    0 -0.32360022995E+01 -0.51158962495E+01  0.27751469613E+02  0.96595983189E+02  0.92325488340E+02 0.  0.
         13    1    3    3    0    0  0.21701194432E+02 -0.37726652199E+02 -0.53630339052E+01  0.43852199747E+02  0.10566000000E+00 0. -1.
         22    1    1    0    0    0  0.32360022995E+01  0.51158962495E+01 -0.27751469613E+02  0.28404016811E+02  0.00000000000E+00 0. -1.
</event>
<event>
 5    1  0.1267616E-004  0.9118800E+02  0.7818608E-02  0.1130116E+00
         25   -1    0    0    0    0  0.00000000000E+00  0.00000000000E+00  0.99999998245E-14  0.12500000000E+03  0.12500000000E+03 0.  0.
        -13    1    3    3    0    0 -0.16540861361E+02  0.27321106796E+02  0.43233602904E+02  0.53751265615E+02  0.10566000000E+00 0.  1.
         23    2    1    0    0    0  0.86795951525E+01 -0.22595651473E+01  0.28163163491E+02  0.95443193940E+02  0.90751300183E+02 0.  0.
         13    1    3    3    0    0  0.25220456513E+02 -0.29580671943E+02 -0.15070439413E+02  0.41691928325E+02  0.10566000000E+00 0. -1.
         22    1    1    0    0    0 -0.86795951525E+01  0.22595651473E+01 -0.28163163491E+02  0.29556806060E+02  0.00000000000E+00 0.  1.
</event>
<event>
 5    1  0.1267616E-004  0.9118800E+02  0.7818608E-02  0.1130116E+00
         25   -1    0    0    0    0  0.00000000000E+00  0.00000000000E+00  0.99999998245E-14  0.12500000000E+03  0.12500000000E+03 0.  0.
        -13    1    3    3    0    0  0.16532314700E+02  0.28632375669E+02  0.12151273887E+02  0.35224919970E+02  0.10566000000E+00 0. -1.
         23    2    1    0    0    0  0.58374705565E+01 -0.18449779544E+02 -0.22996432016E+02  0.94944945298E+02  0.90062402391E+02 0.  0.
         13    1    3    3    0    0 -0.10694844143E+02 -0.47082155213E+02 -0.35147705903E+02  0.59720025327E+02  0.10566000000E+00 0.  1.
         22    1    1    0    0    0 -0.58374705565E+01  0.18449779544E+02  0.22996432016E+02  0.30055054702E+02  0.00000000000E+00 0.  1.
</event>
<event>
 5    1  0.1267616E-004  0.9118800E+02  0.7818608E-02  0.1130116E+00
         25   -1    0    0    0    0  0.00000000000E+00  0.00000000000E+00  0.99999998245E-14  0.12500000000E+03  0.12500000000E+03 0.  0.
        -13    1    3    3    0    0 -0.93364622401E+01 -0.53252909731E+02 -0.10727554785E+02  0.55119266302E+02  0.10566000000E+00 0.  1.
         23    2    1    0    0    0 -0.23342161937E+02 -0.15591173150E+02  0.78813354425E+00  0.96918647494E+02  0.92761316687E+02 0.  0.
         13    1    3    3    0    0 -0.14005699697E+02  0.37661736581E+02  0.11515688329E+02  0.41799381192E+02  0.10566000000E+00 0. -1.
         22    1    1    0    0    0  0.23342161937E+02  0.15591173150E+02 -0.78813354425E+00  0.28081352506E+02  0.00000000000E+00 0. -1.
</event>
<event>
 5    1  0.1267616E-004  0.9118800E+02  0.7818608E-02  0.1130116E+00
         25   -1    0    0    0    0  0.00000000000E+00  0.00000000000E+00  0.99999998245E-14  0.12500000000E+03  0.12500000000E+03 0.  0.
        -13    1    3    3    0    0  0.27219291426E+02 -0.40983934087E+02 -0.15743425855E+02  0.51656938553E+02  0.10566000000E+00 0. -1.
         23    2    1    0    0    0  0.26261351284E+02 -0.34876385102E+02  0.11710648028E+02  0.79798671632E+02  0.65762207292E+02 0.  0.
         13    1    3    3    0    0 -0.95794014156E+00  0.61075489851E+01  0.27454073883E+02  0.28141733079E+02  0.10566000000E+00 0.  1.
         22    1    1    0    0    0 -0.26261351284E+02  0.34876385102E+02 -0.11710648028E+02  0.45201328368E+02  0.00000000000E+00 0. -1.
</event>
<event>
 5    1  0.1267616E-004  0.9118800E+02  0.7818608E-02  0.1130116E+00
         25   -1    0    0    0    0  0.00000000000E+00  0.00000000000E+00  0.99999998245E-14  0.12500000000E+03  0.12500000000E+03 0.  0.
        -13    1    3    3    0    0 -0.38501472395E+02 -0.17456414526E+02 -0.34379374006E+01  0.42413681310E+02  0.10566000000E+00 0.  1.
         23    2    1    0    0    0  0.12893532564E+02  0.26825399077E+01  0.18901704738E+02  0.10196277698E+03  0.99326201204E+02 0.  0.
         13    1    3    3    0    0  0.51395004959E+02  0.20138954433E+02  0.22339642139E+02  0.59549095672E+02  0.10566000000E+00 0. -1.
         22    1    1    0    0    0 -0.12893532564E+02 -0.26825399077E+01 -0.18901704738E+02  0.23037223017E+02  0.00000000000E+00 0. -1.
</event>
<event>
 5    1  0.1267616E-004  0.9118800E+02  0.7818608E-02  0.1130116E+00
         25   -1    0    0    0    0  0.00000000000E+00  0.00000000000E+00  0.99999998245E-14  0.12500000000E+03  0.12500000000E+03 0.  0.
        -13    1    3    3    0    0  0.36712726753E+02  0.13958349385E+02 -0.38906469569E+02  0.55284576163E+02  0.10566000000E+00 0. -1.
         23    2    1    0    0    0  0.33715571619E+02 -0.19842557846E+01 -0.78451808401E+01  0.90326899431E+02  0.83406983268E+02 0.  0.
         13    1    3    3    0    0 -0.29971551339E+01 -0.15942605169E+02  0.31061288729E+02  0.35042323268E+02  0.10566000000E+00 0.  1.
         22    1    1    0    0    0 -0.33715571619E+02  0.19842557846E+01  0.78451808401E+01  0.34673100569E+02  0.00000000000E+00 0. -1.
</event>
<event>
 5    1  0.1267616E-004  0.9118800E+02  0.7818608E-02  0.1130116E+00
         25   -1    0    0    0    0  0.00000000000E+00  0.00000000000E+00  0.99999998245E-14  0.12500000000E+03  0.12500000000E+03 0.  0.
        -13    1    3    3    0    0  0.51829521122E+01  0.30802872776E+02  0.92523715660E+01  0.32577561411E+02  0.10566000000E+00 0.  1.
         23    2    1    0    0    0  0.76517955736E+01 -0.29917476116E+02  0.66957317251E+01  0.93401927654E+02  0.87894720624E+02 0.  0.
         13    1    3    3    0    0  0.24688434614E+01 -0.60720348892E+02 -0.25566398409E+01  0.60824366243E+02  0.10566000000E+00 0. -1.
         22    1    1    0    0    0 -0.76517955736E+01  0.29917476116E+02 -0.66957317251E+01  0.31598072346E+02  0.00000000000E+00 0. -1.
</event>
<event>
 5    1  0.1267616E-004  0.9118800E+02  0.7818608E-02  0.1130116E+00
         25   -1    0    0    0    0  0.00000000000E+00  0.00000000000E+00  0.99999998245E-14  0.12500000000E+03  0.12500000000E+03 0.  0.
        -13    1    3    3    0    0  0.25673499887E+02 -0.15750497159E+01 -0.52295686715E+02  0.58279150570E+02  0.10566000000E+00 0.  1.
         23    2    1    0    0    0  0.18776600014E+02  0.12888608295E+02 -0.18584200619E+02  0.95605282030E+02  0.90974284870E+02 0.  0.
         13    1    3    3    0    0 -0.68968998728E+01  0.14463658011E+02  0.33711486097E+02  0.37326131461E+02  0.10566000000E+00 0. -1.
         22    1    1    0    0    0 -0.18776600014E+02 -0.12888608295E+02  0.18584200619E+02  0.29394717970E+02  0.00000000000E+00 0.  1.
</event>
<event>
 5    1  0.1267616E-004  0.9118800E+02  0.7818608E-02  0.1130116E+00
         25   -1    0    0    0    0  0.00000000000E+00  0.00000000000E+00  0.99999998245E-14  0.12500000000E+03  0.12500000000E+03 0.  0.
        -13    1    3    3    0    0  0.23034535921E+02 -0.26928783736E+02  0.27982936557E+02  0.45153129914E+02  0.10566000000E+00 0.  1.
         23    2    1    0    0    0  0.27560718244E+02  0.76248827154E+01 -0.80614065476E+01  0.95289424407E+02  0.90539251719E+02 0.  0.
         13    1    3    3    0    0  0.45261823225E+01  0.34553666451E+02 -0.36044343105E+02  0.50136294493E+02  0.10566000000E+00 0. -1.
         22    1    1    0    0    0 -0.27560718244E+02 -0.76248827154E+01  0.80614065476E+01  0.29710575593E+02  0.00000000000E+00 0. -1.
</event>
<event>
 5    1  0.1267616E-004  0.9118800E+02  0.7818608E-02  0.1130116E+00
         25   -1    0    0    0    0  0.00000000000E+00  0.00000000000E+00  0.99999998245E-14  0.12500000000E+03  0.12500000000E+03 0.  0.
        -13    1    3    3    0    0  0.43209422890E+02 -0.25127404451E+02  0.41287614369E+01  0.50154745698E+02  0.10566000000E+00 0. -1.
         23    2    1    0    0    0  0.18624220742E+02  0.39975035522E+01 -0.21646060806E+02  0.96166103605E+02  0.91741625783E+02 0.  0.
         13    1    3    3    0    0 -0.24585202148E+02  0.29124908003E+02 -0.25774822242E+02  0.46011357908E+02  0.10566000000E+00 0.  1.
         22    1    1    0    0    0 -0.18624220742E+02 -0.39975035522E+01  0.21646060806E+02  0.28833896395E+02  0.00000000000E+00 0.  1.
</event>
<event>
 5    1  0.1267616E-004  0.9118800E+02  0.7818608E-02  0.1130116E+00
         25   -1    0    0    0    0  0.00000000000E+00  0.00000000000E+00  0.99999998245E-14  0.12500000000E+03  0.12500000000E+03 0.  0.
        -13    1    3    3    0    0 -0.47837110644E+02  0.16535911869E+02 -0.79835777369E+00  0.50620885761E+02  0.10566000000E+00 0.  1.
         23    2    1    0    0    0 -0.29477383467E+01  0.21505995132E+02 -0.15734171539E+02  0.98190278965E+02  0.94459354969E+02 0.  0.
         13    1    3    3    0    0  0.44889372297E+02  0.49700832628E+01 -0.14935813766E+02  0.47569393203E+02  0.10566000000E+00 0. -1.
         22    1    1    0    0    0  0.29477383467E+01 -0.21505995132E+02  0.15734171539E+02  0.26809721035E+02  0.00000000000E+00 0. -1.
</event>
<event>
 5    1  0.1267616E-004  0.9118800E+02  0.7818608E-02  0.1130116E+00
         25   -1    0    0    0    0  0.00000000000E+00  0.00000000000E+00  0.99999998245E-14  0.12500000000E+03  0.12500000000E+03 0.  0.
        -13    1    3    3    0    0 -0.20757048342E+02  0.40533998851E+02 -0.20011032655E+02  0.49742463858E+02  0.10566000000E+00 0.  1.
         23    2    1    0    0    0 -0.21892642905E+02  0.11762169484E+02  0.15690707097E+02  0.95608934460E+02  0.90979303223E+02 0.  0.
         13    1    3    3    0    0 -0.11355945632E+01 -0.28771829367E+02  0.35701739752E+02  0.45866470602E+02  0.10566000000E+00 0. -1.
         22    1    1    0    0    0  0.21892642905E+02 -0.11762169484E+02 -0.15690707097E+02  0.29391065540E+02  0.00000000000E+00 0.  1.
</event>
<event>
 5    1  0.1267616E-004  0.9118800E+02  0.7818608E-02  0.1130116E+00
         25   -1    0    0    0    0  0.00000000000E+00  0.00000000000E+00  0.99999998245E-14  0.12500000000E+03  0.12500000000E+03 0.  0.
        -13    1    3    3    0    0 -0.17761289871E+02  0.57841248011E+02  0.13091518632E+02  0.61906965791E+02  0.10566000000E+00 0.  1.
         23    2    1    0    0    0 -0.13072273226E+02  0.23646400774E+02  0.81802544490E+01  0.96769641169E+02  0.92560306246E+02 0.  0.
         13    1    3    3    0    0  0.46890166449E+01 -0.34194847237E+02 -0.49112641828E+01  0.34862675378E+02  0.10566000000E+00 0. -1.
         22    1    1    0    0    0  0.13072273226E+02 -0.23646400774E+02 -0.81802544490E+01  0.28230358831E+02  0.00000000000E+00 0.  1.
</event>
<event>
 5    1  0.1267616E-004  0.9118800E+02  0.7818608E-02  0.1130116E+00
         25   -1    0    0    0    0  0.00000000000E+00  0.00000000000E+00  0.99999998245E-14  0.12500000000E+03  0.12500000000E+03 0.  0.
        -13    1    3    3    0    0  0.79026009847E+01  0.54619423239E+02  0.24753331408E+02  0.60485296371E+02  0.10566000000E+00 0. -1.
         23    2    1    0    0    0 -0.68267839103E+01  0.24025072558E+02  0.15212129445E+02  0.95755889956E+02  0.91180987542E+02 0.  0.
         13    1    3    3    0    0 -0.14729384895E+02 -0.30594350680E+02 -0.95412019632E+01  0.35270593585E+02  0.10566000000E+00 0.  1.
         22    1    1    0    0    0  0.68267839103E+01 -0.24025072558E+02 -0.15212129445E+02  0.29244110044E+02  0.00000000000E+00 0. -1.
</event>
<event>
 5    1  0.1267616E-004  0.9118800E+02  0.7818608E-02  0.1130116E+00
         25   -1    0    0    0    0  0.00000000000E+00  0.00000000000E+00  0.99999998245E-14  0.12500000000E+03  0.12500000000E+03 0.  0.
        -13    1    3    3    0    0  0.32690149534E+02  0.58747487092E+01  0.87376555478E+01  0.34344087373E+02  0.10566000000E+00 0. -1.
         23    2    1    0    0    0 -0.28510505973E+02  0.32498412914E+01 -0.54060957113E+00  0.96299779130E+02  0.91923581210E+02 0.  0.
         13    1    3    3    0    0 -0.61200655507E+02 -0.26249074178E+01 -0.92782651189E+01  0.61955691757E+02  0.10566000000E+00 0.  1.
         22    1    1    0    0    0  0.28510505973E+02 -0.32498412914E+01  0.54060957113E+00  0.28700220870E+02  0.00000000000E+00 0.  1.
</event>
<event>
 5    1  0.1267616E-004  0.9118800E+02  0.7818608E-02  0.1130116E+00
         25   -1    0    0    0    0  0.00000000000E+00  0.00000000000E+00  0.99999998245E-14  0.12500000000E+03  0.12500000000E+03 0.  0.
        -13    1    3    3    0    0 -0.12980068884E+02 -0.23780486667E+02  0.22009002003E+02  0.34905602237E+02  0.10566000000E+00 0.  1.
         23    2    1    0    0    0  0.10955775709E+02  0.15515246643E+02 -0.20148576074E+02  0.97310344574E+02  0.93287652685E+02 0.  0.
         13    1    3    3    0    0  0.23935844593E+02  0.39295733310E+02 -0.42157578077E+02  0.62404742337E+02  0.10566000000E+00 0. -1.
         22    1    1    0    0    0 -0.10955775709E+02 -0.15515246643E+02  0.20148576074E+02  0.27689655426E+02  0.00000000000E+00 0. -1.
</event>
<event>
 5    1  0.1267616E-004  0.9118800E+02  0.7818608E-02  0.1130116E+00
         25   -1    0    0    0    0  0.00000000000E+00  0.00000000000E+00  0.99999998245E-14  0.12500000000E+03  0.12500000000E+03 0.  0.
        -13    1    3    3    0    0  0.32003097055E+02 -0.11465116862E+02 -0.21398006015E+02  0.40168805698E+02  0.10566000000E+00 0.  1.
         23    2    1    0    0    0 -0.23607911208E+02 -0.11938974989E+02 -0.77719700787E+01  0.97426895091E+02  0.93443693061E+02 0.  0.
         13    1    3    3    0    0 -0.55611008263E+02 -0.47385812672E+00  0.13626035936E+02  0.57258089393E+02  0.10566000000E+00 0. -1.
         22    1    1    0    0    0  0.23607911208E+02  0.11938974989E+02  0.77719700787E+01  0.27573104909E+02  0.00000000000E+00 0. -1.
</event>
<event>
 5    1  0.1267616E-004  0.9118800E+02  0.7818608E-02  0.1130116E+00
         25   -1    0    0    0    0  0.00000000000E+00  0.00000000000E+00  0.99999998245E-14  0.12500000000E+03  0.12500000000E+03 0.  0.
        -13    1    3    3    0    0 -0.10919550349E+02 -0.21742370268E+02  0.52183613632E+02  0.57576974047E+02  0.10566000000E+00 0.  1.
         23    2    1    0    0    0  0.11714863858E+02 -0.14421541481E+02  0.18816200258E+02  0.98556318599E+02  0.94942507075E+02 0.  0.
         13    1    3    3    0    0  0.22634414207E+02  0.73208287878E+01 -0.33367413374E+02  0.40979344552E+02  0.10566000000E+00 0. -1.
         22    1    1    0    0    0 -0.11714863858E+02  0.14421541481E+02 -0.18816200258E+02  0.26443681401E+02  0.00000000000E+00 0.  1.
</event>
<event>
 5    1  0.1267616E-004  0.9118800E+02  0.7818608E-02  0.1130116E+00
         25   -1    0    0    0    0  0.00000000000E+00  0.00000000000E+00  0.99999998245E-14  0.12500000000E+03  0.12500000000E+03 0.  0.
        -13    1    3    3    0    0  0.39739522516E+01  0.49630141561E+02  0.26427598174E+02  0.56368185682E+02  0.10566000000E+00 0.  1.
         23    2    1    0    0    0  0.19605263657E+02  0.14628696456E+02  0.14726501096E+02  0.96447680346E+02  0.92124481473E+02 0.  0.
         13    1    3    3    0    0  0.15631311405E+02 -0.35001445105E+02 -0.11701097078E+02  0.40079494664E+02  0.10566000000E+00 0. -1.
         22    1    1    0    0    0 -0.19605263657E+02 -0.14628696456E+02 -0.14726501096E+02  0.28552319654E+02  0.00000000000E+00 0.  1.
</event>
<event>
 5    1  0.1267616E-004  0.9118800E+02  0.7818608E-02  0.1130116E+00
         25   -1    0    0    0    0  0.00000000000E+00  0.00000000000E+00  0.99999998245E-14  0.12500000000E+03  0.12500000000E+03 0.  0.
        -13    1    3    3    0    0 -0.55984638015E+02 -0.12358559228E+02  0.21448928093E+02  0.61213408337E+02  0.10566000000E+00 0.  1.
         23    2    1    0    0    0 -0.29603977303E+02  0.16585211110E+01  0.14984141976E+02  0.91778460674E+02  0.85554749538E+02 0.  0.
         13    1    3    3    0    0  0.26380660712E+02  0.14017080339E+02 -0.64647861163E+01  0.30565052337E+02  0.10566000000E+00 0. -1.
         22    1    1    0    0    0  0.29603977303E+02 -0.16585211110E+01 -0.14984141976E+02  0.33221539326E+02  0.00000000000E+00 0.  1.
</event>
<event>
 5    1  0.1267616E-004  0.9118800E+02  0.7818608E-02  0.1130116E+00
         25   -1    0    0    0    0  0.00000000000E+00  0.00000000000E+00  0.99999998245E-14  0.12500000000E+03  0.12500000000E+03 0.  0.
        -13    1    3    3    0    0 -0.32818171487E+02  0.23608319633E+02 -0.47001253149E+02  0.61996081305E+02  0.10566000000E+00 0.  1.
         23    2    1    0    0    0 -0.10136828044E+02  0.11422816717E+02 -0.24175298695E+02  0.96404876438E+02  0.92066384253E+02 0.  0.
         13    1    3    3    0    0  0.22681343443E+02 -0.12185502916E+02  0.22825954454E+02  0.34408795132E+02  0.10566000000E+00 0. -1.
         22    1    1    0    0    0  0.10136828044E+02 -0.11422816717E+02  0.24175298695E+02  0.28595123562E+02  0.00000000000E+00 0.  1.
</event>
<event>
 5    1  0.1267616E-004  0.9118800E+02  0.7818608E-02  0.1130116E+00
         25   -1    0    0    0    0  0.00000000000E+00  0.00000000000E+00  0.99999998245E-14  0.12500000000E+03  0.12500000000E+03 0.  0.
        -13    1    3    3    0    0 -0.35097606915E+02  0.39361786555E+02  0.61825800509E+01  0.53098283514E+02  0.10566000000E+00 0.  1.
         23    2    1    0    0    0 -0.24881441243E+02  0.20887740318E+01  0.18790276472E+02  0.93750622643E+02  0.88389228195E+02 0.  0.
         13    1    3    3    0    0  0.10216165673E+02 -0.37273012523E+02  0.12607696421E+02  0.40652339129E+02  0.10566000000E+00 0. -1.
         22    1    1    0    0    0  0.24881441243E+02 -0.20887740318E+01 -0.18790276472E+02  0.31249377357E+02  0.00000000000E+00 0.  1.
</event>
<event>
 5    1  0.1267616E-004  0.9118800E+02  0.7818608E-02  0.1130116E+00
         25   -1    0    0    0    0  0.00000000000E+00  0.00000000000E+00  0.99999998245E-14  0.12500000000E+03  0.12500000000E+03 0.  0.
        -13    1    3    3    0    0  0.47843160853E+02  0.37201426615E+02 -0.13217090196E+02  0.62029161044E+02  0.10566000000E+00 0.  1.
         23    2    1    0    0    0  0.26186462151E+02  0.15994693469E+02 -0.23650717429E+01  0.94224123351E+02  0.89056335192E+02 0.  0.
         13    1    3    3    0    0 -0.21656698702E+02 -0.21206733146E+02  0.10852018453E+02  0.32194962307E+02  0.10566000000E+00 0. -1.
         22    1    1    0    0    0 -0.26186462151E+02 -0.15994693469E+02  0.23650717429E+01  0.30775876649E+02  0.00000000000E+00 0.  1.
</event>
<event>
 5    1  0.1267616E-004  0.9118800E+02  0.7818608E-02  0.1130116E+00
         25   -1    0    0    0    0  0.00000000000E+00  0.00000000000E+00  0.99999998245E-14  0.12500000000E+03  0.12500000000E+03 0.  0.
        -13    1    3    3    0    0  0.30484186606E+02  0.21481046088E+02 -0.29391293578E+02  0.47482420708E+02  0.10566000000E+00 0. -1.
         23    2    1    0    0    0  0.22405374988E+01  0.25853207519E+02  0.10877240899E+02  0.96862432285E+02  0.92685533237E+02 0.  0.
         13    1    3    3    0    0 -0.28243649107E+02  0.43721614317E+01  0.40268534477E+02  0.49380011578E+02  0.10566000000E+00 0.  1.
         22    1    1    0    0    0 -0.22405374988E+01 -0.25853207519E+02 -0.10877240899E+02  0.28137567715E+02  0.00000000000E+00 0.  1.
</event>
<event>
 5    1  0.1267616E-004  0.9118800E+02  0.7818608E-02  0.1130116E+00
         25   -1    0    0    0    0  0.00000000000E+00  0.00000000000E+00  0.99999998245E-14  0.12500000000E+03  0.12500000000E+03 0.  0.
        -13    1    3    3    0    0  0.28357011261E+02 -0.28442184041E-01  0.49480006099E+02  0.57029843628E+02  0.10566000000E+00 0.  1.
         23    2    1    0    0    0  0.18773439894E+02 -0.17754155392E+02  0.22274233133E+02  0.90885581629E+02  0.84240105694E+02 0.  0.
         13    1    3    3    0    0 -0.95835713675E+01 -0.17725713208E+02 -0.27205772966E+02  0.33855738001E+02  0.10566000000E+00 0. -1.
         22    1    1    0    0    0 -0.18773439894E+02  0.17754155392E+02 -0.22274233133E+02  0.34114418371E+02  0.00000000000E+00 0.  1.
</event>
<event>
 5    1  0.1267616E-004  0.9118800E+02  0.7818608E-02  0.1130116E+00
         25   -1    0    0    0    0  0.00000000000E+00  0.00000000000E+00  0.99999998245E-14  0.12500000000E+03  0.12500000000E+03 0.  0.
        -13    1    3    3    0    0  0.16803129891E+02 -0.28709656201E+02  0.24104870220E+02  0.41080962327E+02  0.10566000000E+00 0.  1.
         23    2    1    0    0    0  0.24375877288E+02  0.17613744459E+02 -0.21254990975E+01  0.94851283048E+02  0.89932312113E+02 0.  0.
         13    1    3    3    0    0  0.75727473965E+01  0.46323400660E+02 -0.26230369318E+02  0.53770320721E+02  0.10566000000E+00 0. -1.
         22    1    1    0    0    0 -0.24375877288E+02 -0.17613744459E+02  0.21254990975E+01  0.30148716952E+02  0.00000000000E+00 0. -1.
</event>
<event>
 5    1  0.1267616E-004  0.9118800E+02  0.7818608E-02  0.1130116E+00
         25   -1    0    0    0    0  0.00000000000E+00  0.00000000000E+00  0.99999998245E-14  0.12500000000E+03  0.12500000000E+03 0.  0.
        -13    1    3    3    0    0 -0.10671207056E+02  0.73540375587E+01  0.36340581057E+02  0.38582450985E+02  0.10566000000E+00 0.  1.
         23    2    1    0    0    0 -0.15522882642E+02  0.28686352705E+01 -0.22346422089E+02  0.97640330155E+02  0.93728771137E+02 0.  0.
         13    1    3    3    0    0 -0.48516755865E+01 -0.44854022882E+01 -0.58687003146E+02  0.59057879170E+02  0.10566000000E+00 0. -1.
         22    1    1    0    0    0  0.15522882642E+02 -0.28686352705E+01  0.22346422089E+02  0.27359669845E+02  0.00000000000E+00 0. -1.
</event>
<event>
 5    1  0.1267616E-004  0.9118800E+02  0.7818608E-02  0.1130116E+00
         25   -1    0    0    0    0  0.00000000000E+00  0.00000000000E+00  0.99999998245E-14  0.12500000000E+03  0.12500000000E+03 0.  0.
        -13    1    3    3    0    0  0.11490227602E+02  0.33833969683E+02  0.25056823711E+02  0.43641934115E+02  0.10566000000E+00 0. -1.
         23    2    1    0    0    0  0.33082160562E+02  0.10676873261E+02 -0.79082774565E+01  0.89349392398E+02  0.81928921020E+02 0.  0.
         13    1    3    3    0    0  0.21591932960E+02 -0.23157096422E+02 -0.32965101167E+02  0.45707458282E+02  0.10566000000E+00 0.  1.
         22    1    1    0    0    0 -0.33082160562E+02 -0.10676873261E+02  0.79082774565E+01  0.35650607602E+02  0.00000000000E+00 0. -1.
</event>
<event>
 5    1  0.1267616E-004  0.9118800E+02  0.7818608E-02  0.1130116E+00
         25   -1    0    0    0    0  0.00000000000E+00  0.00000000000E+00  0.99999998245E-14  0.12500000000E+03  0.12500000000E+03 0.  0.
        -13    1    3    3    0    0 -0.89352373745E+01 -0.54901725581E+02 -0.12728782564E+02  0.57061992677E+02  0.10566000000E+00 0. -1.
         23    2    1    0    0    0  0.11390669235E+02 -0.26668478750E+02  0.41084069746E+01  0.95711194761E+02  0.91119694304E+02 0.  0.
         13    1    3    3    0    0  0.20325906610E+02  0.28233246831E+02  0.16837189538E+02  0.38649202083E+02  0.10566000000E+00 0.  1.
         22    1    1    0    0    0 -0.11390669235E+02  0.26668478750E+02 -0.41084069746E+01  0.29288805239E+02  0.00000000000E+00 0. -1.
</event>
<event>
 5    1  0.1267616E-004  0.9118800E+02  0.7818608E-02  0.1130116E+00
         25   -1    0    0    0    0  0.00000000000E+00  0.00000000000E+00  0.99999998245E-14  0.12500000000E+03  0.12500000000E+03 0.  0.
        -13    1    3    3    0    0  0.30847029604E+02 -0.23299137447E+02  0.11298382404E+01  0.38673980137E+02  0.10566000000E+00 0.  1.
         23    2    1    0    0    0 -0.16213133915E+02 -0.36193627398E+01 -0.24216230669E+02  0.95633499940E+02  0.91013048432E+02 0.  0.
         13    1    3    3    0    0 -0.47060163519E+02  0.19679774708E+02 -0.25346068909E+02  0.56959519803E+02  0.10566000000E+00 0. -1.
         22    1    1    0    0    0  0.16213133915E+02  0.36193627398E+01  0.24216230669E+02  0.29366500060E+02  0.00000000000E+00 0. -1.
</event>
<event>
 5    1  0.1267616E-004  0.9118800E+02  0.7818608E-02  0.1130116E+00
         25   -1    0    0    0    0  0.00000000000E+00  0.00000000000E+00  0.99999998245E-14  0.12500000000E+03  0.12500000000E+03 0.  0.
        -13    1    3    3    0    0 -0.91443446153E+00  0.46874691833E+02  0.26812628727E+02  0.54009269095E+02  0.10566000000E+00 0.  1.
         23    2    1    0    0    0 -0.14001495734E+02  0.38739446031E+00  0.16434814462E+02  0.10340613319E+03  0.10112632347E+03 0.  0.
         13    1    3    3    0    0 -0.13087061273E+02 -0.46487297373E+02 -0.10377814265E+02  0.49396864098E+02  0.10566000000E+00 0. -1.
         22    1    1    0    0    0  0.14001495734E+02 -0.38739446031E+00 -0.16434814462E+02  0.21593866807E+02  0.00000000000E+00 0. -1.
</event>
<event>
 5    1  0.1267616E-004  0.9118800E+02  0.7818608E-02  0.1130116E+00
         25   -1    0    0    0    0  0.00000000000E+00  0.00000000000E+00  0.99999998245E-14  0.12500000000E+03  0.12500000000E+03 0.  0.
        -13    1    3    3    0    0  0.37188789344E+02  0.46117198980E+02  0.10404293943E+02  0.60150333259E+02  0.10566000000E+00 0. -1.
         23    2    1    0    0    0  0.20770142721E+02  0.90975773035E+01 -0.12473055772E+01  0.10229051932E+03  0.99737805423E+02 0.  0.
         13    1    3    3    0    0 -0.16418646623E+02 -0.37019621677E+02 -0.11651599520E+02  0.42140186063E+02  0.10566000000E+00 0.  1.
         22    1    1    0    0    0 -0.20770142721E+02 -0.90975773035E+01  0.12473055772E+01  0.22709480678E+02  0.00000000000E+00 0. -1.
</event>
<event>
 5    1  0.1267616E-004  0.9118800E+02  0.7818608E-02  0.1130116E+00
         25   -1    0    0    0    0  0.00000000000E+00  0.00000000000E+00  0.99999998245E-14  0.12500000000E+03  0.12500000000E+03 0.  0.
        -13    1    3    3    0    0  0.44223236695E+02 -0.22161803086E+02 -0.33704852810E+02  0.59857066807E+02  0.10566000000E+00 0. -1.
         23    2    1    0    0    0  0.11752711692E+02 -0.69883320395E+01 -0.24629946160E+02  0.96829141570E+02  0.92640624958E+02 0.  0.
         13    1    3    3    0    0 -0.32470525003E+02  0.15173471047E+02  0.90749066493E+01  0.36972074763E+02  0.10566000000E+00 0.  1.
         22    1    1    0    0    0 -0.11752711692E+02  0.69883320395E+01  0.24629946160E+02  0.28170858430E+02  0.00000000000E+00 0. -1.
</event>
<event>
 5    1  0.1267616E-004  0.9118800E+02  0.7818608E-02  0.1130116E+00
         25   -1    0    0    0    0  0.00000000000E+00  0.00000000000E+00  0.99999998245E-14  0.12500000000E+03  0.12500000000E+03 0.  0.
        -13    1    3    3    0    0 -0.23554691406E+02  0.29414443691E+01  0.26272200869E+02  0.35407842137E+02  0.10566000000E+00 0.  1.
         23    2    1    0    0    0  0.19988193780E+02  0.19126034387E+02 -0.11262726489E+02  0.95130582699E+02  0.90319685975E+02 0.  0.
         13    1    3    3    0    0  0.43542885186E+02  0.16184590018E+02 -0.37534927359E+02  0.59722740562E+02  0.10566000000E+00 0. -1.
         22    1    1    0    0    0 -0.19988193780E+02 -0.19126034387E+02  0.11262726489E+02  0.29869417301E+02  0.00000000000E+00 0. -1.
</event>
<event>
 5    1  0.1267616E-004  0.9118800E+02  0.7818608E-02  0.1130116E+00
         25   -1    0    0    0    0  0.00000000000E+00  0.00000000000E+00  0.99999998245E-14  0.12500000000E+03  0.12500000000E+03 0.  0.
        -13    1    3    3    0    0  0.23239184817E+02 -0.57038878360E+02 -0.76232505532E+01  0.62061408851E+02  0.10566000000E+00 0. -1.
         23    2    1    0    0    0  0.12323908452E+02 -0.26437993292E+02 -0.86754273298E+01  0.94567956884E+02  0.89537641365E+02 0.  0.
         13    1    3    3    0    0 -0.10915276365E+02  0.30600885068E+02 -0.10521767766E+01  0.32506548034E+02  0.10566000000E+00 0.  1.
         22    1    1    0    0    0 -0.12323908452E+02  0.26437993292E+02  0.86754273298E+01  0.30432043116E+02  0.00000000000E+00 0. -1.
</event>
<event>
 5    1  0.1267616E-004  0.9118800E+02  0.7818608E-02  0.1130116E+00
         25   -1    0    0    0    0  0.00000000000E+00  0.00000000000E+00  0.99999998245E-14  0.12500000000E+03  0.12500000000E+03 0.  0.
        -13    1    3    3    0    0 -0.23849044555E+02  0.52060374381E+02 -0.23078652526E+02  0.61738925107E+02  0.10566000000E+00 0.  1.
         23    2    1    0    0    0 -0.11118553467E+02  0.33783702768E+02 -0.82736104823E+01  0.88484066021E+02  0.80597869111E+02 0.  0.
         13    1    3    3    0    0  0.12730491089E+02 -0.18276671612E+02  0.14805042044E+02  0.26745140915E+02  0.10566000000E+00 0. -1.
         22    1    1    0    0    0  0.11118553467E+02 -0.33783702768E+02  0.82736104823E+01  0.36515933979E+02  0.00000000000E+00 0.  1.
</event>
<event>
 5    1  0.1267616E-004  0.9118800E+02  0.7818608E-02  0.1130116E+00
         25   -1    0    0    0    0  0.00000000000E+00  0.00000000000E+00  0.99999998245E-14  0.12500000000E+03  0.12500000000E+03 0.  0.
        -13    1    3    3    0    0 -0.90699348858E+01 -0.35067848647E+02  0.61347877126E+01  0.36737780443E+02  0.10566000000E+00 0. -1.
         23    2    1    0    0    0  0.20725943702E+02  0.10723108174E+02 -0.17064038273E+02  0.96090984219E+02  0.91639216795E+02 0.  0.
         13    1    3    3    0    0  0.29795878587E+02  0.45790956821E+02 -0.23198825986E+02  0.59353203776E+02  0.10566000000E+00 0.  1.
         22    1    1    0    0    0 -0.20725943702E+02 -0.10723108174E+02  0.17064038273E+02  0.28909015781E+02  0.00000000000E+00 0.  1.
</event>
<event>
 5    1  0.1267616E-004  0.9118800E+02  0.7818608E-02  0.1130116E+00
         25   -1    0    0    0    0  0.00000000000E+00  0.00000000000E+00  0.99999998245E-14  0.12500000000E+03  0.12500000000E+03 0.  0.
        -13    1    3    3    0    0 -0.47212729991E+02  0.49141352272E+01  0.38376224555E+02  0.61040448666E+02  0.10566000000E+00 0. -1.
         23    2    1    0    0    0 -0.23323237598E+02  0.12026142122E+02  0.19763745010E+02  0.92148712000E+02  0.86094006761E+02 0.  0.
         13    1    3    3    0    0  0.23889492393E+02  0.71120068949E+01 -0.18612479544E+02  0.31108263334E+02  0.10566000000E+00 0.  1.
         22    1    1    0    0    0  0.23323237598E+02 -0.12026142122E+02 -0.19763745010E+02  0.32851288000E+02  0.00000000000E+00 0. -1.
</event>
<event>
 5    1  0.1267616E-004  0.9118800E+02  0.7818608E-02  0.1130116E+00
         25   -1    0    0    0    0  0.00000000000E+00  0.00000000000E+00  0.99999998245E-14  0.12500000000E+03  0.12500000000E+03 0.  0.
        -13    1    3    3    0    0 -0.10246610187E+02  0.52283696454E+02  0.32312039989E+02  0.62310970363E+02  0.10566000000E+00 0. -1.
         23    2    1    0    0    0 -0.26575967327E+01  0.25849448497E+02  0.12792365260E+02  0.96036205067E+02  0.91564465087E+02 0.  0.
         13    1    3    3    0    0  0.75890134543E+01 -0.26434247957E+02 -0.19519674730E+02  0.33725234704E+02  0.10566000000E+00 0.  1.
         22    1    1    0    0    0  0.26575967327E+01 -0.25849448497E+02 -0.12792365260E+02  0.28963794933E+02  0.00000000000E+00 0. -1.
</event>
<event>
 5    1  0.1267616E-004  0.9118800E+02  0.7818608E-02  0.1130116E+00
         25   -1    0    0    0    0  0.00000000000E+00  0.00000000000E+00  0.99999998245E-14  0.12500000000E+03  0.12500000000E+03 0.  0.
        -13    1    3    3    0    0 -0.43670425631E+02  0.14406535228E+01  0.30174327460E+02  0.53100685109E+02  0.10566000000E+00 0.  1.
         23    2    1    0    0    0 -0.21081874795E+02  0.21053822754E+02  0.55239656630E+00  0.95200435584E+02  0.90416308794E+02 0.  0.
         13    1    3    3    0    0  0.22588550836E+02  0.19613169231E+02 -0.29621930894E+02  0.42099750475E+02  0.10566000000E+00 0. -1.
         22    1    1    0    0    0  0.21081874795E+02 -0.21053822754E+02 -0.55239656630E+00  0.29799564416E+02  0.00000000000E+00 0.  1.
</event>
<event>
 5    1  0.1267616E-004  0.9118800E+02  0.7818608E-02  0.1130116E+00
         25   -1    0    0    0    0  0.00000000000E+00  0.00000000000E+00  0.99999998245E-14  0.12500000000E+03  0.12500000000E+03 0.  0.
        -13    1    3    3    0    0  0.22409115400E+02 -0.20537774529E+02  0.90372125381E+01  0.31712001042E+02  0.10566000000E+00 0.  1.
         23    2    1    0    0    0 -0.62642237784E+01  0.27681098539E+02 -0.15178041857E+02  0.92815272714E+02  0.87056408026E+02 0.  0.
         13    1    3    3    0    0 -0.28673339178E+02  0.48218873068E+02 -0.24215254395E+02  0.61103271672E+02  0.10566000000E+00 0. -1.
         22    1    1    0    0    0  0.62642237784E+01 -0.27681098539E+02  0.15178041857E+02  0.32184727286E+02  0.00000000000E+00 0. -1.
</event>
<event>
 5    1  0.1267616E-004  0.9118800E+02  0.7818608E-02  0.1130116E+00
         25   -1    0    0    0    0  0.00000000000E+00  0.00000000000E+00  0.99999998245E-14  0.12500000000E+03  0.12500000000E+03 0.  0.
        -13    1    3    3    0    0  0.48622479612E+01 -0.52876483156E+02 -0.31173398558E+02  0.61573986942E+02  0.10566000000E+00 0. -1.
         23    2    1    0    0    0  0.44801613631E+01 -0.20441956769E+02 -0.20456425859E+02  0.95735502715E+02  0.91153034392E+02 0.  0.
         13    1    3    3    0    0 -0.38208659807E+00  0.32434526387E+02  0.10716972699E+02  0.34161515774E+02  0.10566000000E+00 0.  1.
         22    1    1    0    0    0 -0.44801613631E+01  0.20441956769E+02  0.20456425859E+02  0.29264497285E+02  0.00000000000E+00 0. -1.
</event>
<event>
 5    1  0.1267616E-004  0.9118800E+02  0.7818608E-02  0.1130116E+00
         25   -1    0    0    0    0  0.00000000000E+00  0.00000000000E+00  0.99999998245E-14  0.12500000000E+03  0.12500000000E+03 0.  0.
        -13    1    3    3    0    0 -0.52091449817E+02  0.13504177215E+01  0.15484853858E+02  0.54361150053E+02  0.10566000000E+00 0. -1.
         23    2    1    0    0    0 -0.43102101558E+01  0.11310971173E+02  0.18084054553E+02  0.10323881875E+03  0.10091929789E+03 0.  0.
         13    1    3    3    0    0  0.47781239661E+02  0.99605534518E+01  0.25992006956E+01  0.48877668693E+02  0.10566000000E+00 0.  1.
         22    1    1    0    0    0  0.43102101558E+01 -0.11310971173E+02 -0.18084054553E+02  0.21761181254E+02  0.00000000000E+00 0. -1.
</event>
<event>
 5    1  0.1267616E-004  0.9118800E+02  0.7818608E-02  0.1130116E+00
         25   -1    0    0    0    0  0.00000000000E+00  0.00000000000E+00  0.99999998245E-14  0.12500000000E+03  0.12500000000E+03 0.  0.
        -13    1    3    3    0    0 -0.60395960155E+00 -0.57169294685E+01  0.38653931037E+02  0.39079222081E+02  0.10566000000E+00 0. -1.
         23    2    1    0    0    0  0.30112871334E+02  0.39378340196E+01 -0.59127809640E+01  0.94060502017E+02  0.88826378425E+02 0.  0.
         13    1    3    3    0    0  0.30716830935E+02  0.96547634881E+01 -0.44566712001E+02  0.54981279936E+02  0.10566000000E+00 0.  1.
         22    1    1    0    0    0 -0.30112871334E+02 -0.39378340196E+01  0.59127809640E+01  0.30939497983E+02  0.00000000000E+00 0.  1.
</event>
<event>
 5    1  0.1267616E-004  0.9118800E+02  0.7818608E-02  0.1130116E+00
         25   -1    0    0    0    0  0.00000000000E+00  0.00000000000E+00  0.99999998245E-14  0.12500000000E+03  0.12500000000E+03 0.  0.
        -13    1    3    3    0    0 -0.44797389305E+02  0.60302723258E+01 -0.47420417653E+01  0.45449624828E+02  0.10566000000E+00 0. -1.
         23    2    1    0    0    0 -0.41125688346E+01  0.25854354907E+02  0.15002225973E+02  0.94826705943E+02  0.89898145063E+02 0.  0.
         13    1    3    3    0    0  0.40684820470E+02  0.19824082582E+02  0.19744267739E+02  0.49377081115E+02  0.10566000000E+00 0.  1.
         22    1    1    0    0    0  0.41125688346E+01 -0.25854354907E+02 -0.15002225973E+02  0.30173294057E+02  0.00000000000E+00 0.  1.
</event>
<event>
 5    1  0.1267616E-004  0.9118800E+02  0.7818608E-02  0.1130116E+00
         25   -1    0    0    0    0  0.00000000000E+00  0.00000000000E+00  0.99999998245E-14  0.12500000000E+03  0.12500000000E+03 0.  0.
        -13    1    3    3    0    0 -0.16792012614E+02 -0.51322236780E+02  0.45395491962E+00  0.54001489932E+02  0.10566000000E+00 0. -1.
         23    2    1    0    0    0 -0.19726841262E+02 -0.17072559099E+02  0.18683270494E+02  0.92911292691E+02  0.87194169374E+02 0.  0.
         13    1    3    3    0    0 -0.29348286484E+01  0.34249677681E+02  0.18229315575E+02  0.38909802760E+02  0.10566000000E+00 0.  1.
         22    1    1    0    0    0  0.19726841262E+02  0.17072559099E+02 -0.18683270494E+02  0.32088707309E+02  0.00000000000E+00 0. -1.
</event>
<event>
 5    1  0.1267616E-004  0.9118800E+02  0.7818608E-02  0.1130116E+00
         25   -1    0    0    0    0  0.00000000000E+00  0.00000000000E+00  0.99999998245E-14  0.12500000000E+03  0.12500000000E+03 0.  0.
        -13    1    3    3    0    0 -0.42085193474E+01 -0.65539456249E+01 -0.45470966010E+02  0.46133347508E+02  0.10566000000E+00 0.  1.
         23    2    1    0    0    0  0.74363269529E+01  0.24761279640E+02 -0.49078898126E+01  0.98684466367E+02  0.95111075022E+02 0.  0.
         13    1    3    3    0    0  0.11644846300E+02  0.31315225265E+02  0.40563076197E+02  0.52551118859E+02  0.10566000000E+00 0. -1.
         22    1    1    0    0    0 -0.74363269529E+01 -0.24761279640E+02  0.49078898126E+01  0.26315533633E+02  0.00000000000E+00 0. -1.
</event>
<event>
 5    1  0.1267616E-004  0.9118800E+02  0.7818608E-02  0.1130116E+00
         25   -1    0    0    0    0  0.00000000000E+00  0.00000000000E+00  0.99999998245E-14  0.12500000000E+03  0.12500000000E+03 0.  0.
        -13    1    3    3    0    0  0.49079170302E+02  0.23704522274E+02 -0.19563001168E+02  0.57908475308E+02  0.10566000000E+00 0.  1.
         23    2    1    0    0    0  0.27206354889E+02  0.88891484399E+01  0.71711452107E+01  0.95493593408E+02  0.90820693413E+02 0.  0.
         13    1    3    3    0    0 -0.21872815413E+02 -0.14815373834E+02  0.26734146379E+02  0.37585118100E+02  0.10566000000E+00 0. -1.
         22    1    1    0    0    0 -0.27206354889E+02 -0.88891484399E+01 -0.71711452107E+01  0.29506406592E+02  0.00000000000E+00 0.  1.
</event>
<event>
 5    1  0.1267616E-004  0.9118800E+02  0.7818608E-02  0.1130116E+00
         25   -1    0    0    0    0  0.00000000000E+00  0.00000000000E+00  0.99999998245E-14  0.12500000000E+03  0.12500000000E+03 0.  0.
        -13    1    3    3    0    0  0.65663967890E+01  0.24717367233E+02 -0.32134897361E+02  0.41069801584E+02  0.10566000000E+00 0. -1.
         23    2    1    0    0    0  0.18721179292E+02 -0.20954393643E+02 -0.26465646943E+01  0.96776366787E+02  0.92569388552E+02 0.  0.
         13    1    3    3    0    0  0.12154782503E+02 -0.45671760876E+02  0.29488332667E+02  0.55706565203E+02  0.10566000000E+00 0.  1.
         22    1    1    0    0    0 -0.18721179292E+02  0.20954393643E+02  0.26465646943E+01  0.28223633213E+02  0.00000000000E+00 0.  1.
</event>
<event>
 5    1  0.1267616E-004  0.9118800E+02  0.7818608E-02  0.1130116E+00
         25   -1    0    0    0    0  0.00000000000E+00  0.00000000000E+00  0.99999998245E-14  0.12500000000E+03  0.12500000000E+03 0.  0.
        -13    1    3    3    0    0  0.27404918356E+02 -0.20182071778E+02 -0.36185583900E+02  0.49676485560E+02  0.10566000000E+00 0. -1.
         23    2    1    0    0    0 -0.10136014863E+02  0.28666566271E+01 -0.28788138319E+02  0.94345254439E+02  0.89226193519E+02 0.  0.
         13    1    3    3    0    0 -0.37540933220E+02  0.23048728405E+02  0.73974455810E+01  0.44668768880E+02  0.10566000000E+00 0.  1.
         22    1    1    0    0    0  0.10136014863E+02 -0.28666566271E+01  0.28788138319E+02  0.30654745561E+02  0.00000000000E+00 0. -1.
</event>
<event>
 5    1  0.1267616E-004  0.9118800E+02  0.7818608E-02  0.1130116E+00
         25   -1    0    0    0    0  0.00000000000E+00  0.00000000000E+00  0.99999998245E-14  0.12500000000E+03  0.12500000000E+03 0.  0.
        -13    1    3    3    0    0 -0.30782351845E+02  0.43158005749E+02 -0.10232005981E+02  0.53989552283E+02  0.10566000000E+00 0.  1.
         23    2    1    0    0    0  0.13946101837E+01  0.27328248694E+02  0.10822546910E+02  0.95573725417E+02  0.90930915283E+02 0.  0.
         13    1    3    3    0    0  0.32176962028E+02 -0.15829757055E+02  0.21054552890E+02  0.41584173134E+02  0.10566000000E+00 0. -1.
         22    1    1    0    0    0 -0.13946101837E+01 -0.27328248694E+02 -0.10822546910E+02  0.29426274583E+02  0.00000000000E+00 0. -1.
</event>
<event>
 5    1  0.1267616E-004  0.9118800E+02  0.7818608E-02  0.1130116E+00
         25   -1    0    0    0    0  0.00000000000E+00  0.00000000000E+00  0.99999998245E-14  0.12500000000E+03  0.12500000000E+03 0.  0.
        -13    1    3    3    0    0 -0.47725868542E+01 -0.24382922689E+01  0.21228083456E+02  0.21894418141E+02  0.10566000000E+00 0. -1.
         23    2    1    0    0    0 -0.13907000094E+01 -0.33616804812E+01 -0.40808297646E+02  0.84029863328E+02  0.73365290376E+02 0.  0.
         13    1    3    3    0    0  0.33818868448E+01 -0.92338821232E+00 -0.62036381102E+02  0.62135445187E+02  0.10566000000E+00 0.  1.
         22    1    1    0    0    0  0.13907000094E+01  0.33616804812E+01  0.40808297646E+02  0.40970136672E+02  0.00000000000E+00 0.  1.
</event>
<event>
 5    1  0.1267616E-004  0.9118800E+02  0.7818608E-02  0.1130116E+00
         25   -1    0    0    0    0  0.00000000000E+00  0.00000000000E+00  0.99999998245E-14  0.12500000000E+03  0.12500000000E+03 0.  0.
        -13    1    3    3    0    0 -0.14657788068E+02  0.11258901297E+02 -0.54843858319E+02  0.57874636663E+02  0.10566000000E+00 0.  1.
         23    2    1    0    0    0 -0.99711755018E+01 -0.11560112789E+02 -0.24560717684E+02  0.96081331260E+02  0.91626048779E+02 0.  0.
         13    1    3    3    0    0  0.46866125663E+01 -0.22819014086E+02  0.30283140636E+02  0.38206694597E+02  0.10566000000E+00 0. -1.
         22    1    1    0    0    0  0.99711755018E+01  0.11560112789E+02  0.24560717684E+02  0.28918668740E+02  0.00000000000E+00 0.  1.
</event>
<event>
 5    1  0.1267616E-004  0.9118800E+02  0.7818608E-02  0.1130116E+00
         25   -1    0    0    0    0  0.00000000000E+00  0.00000000000E+00  0.99999998245E-14  0.12500000000E+03  0.12500000000E+03 0.  0.
        -13    1    3    3    0    0 -0.16488182906E+02 -0.82236329393E+01 -0.49380537400E+02  0.52706137710E+02  0.10566000000E+00 0. -1.
         23    2    1    0    0    0  0.72320889115E+01  0.14876000371E+02 -0.29082999598E+02  0.91542274992E+02  0.85208971054E+02 0.  0.
         13    1    3    3    0    0  0.23720271818E+02  0.23099633310E+02  0.20297537802E+02  0.38836137283E+02  0.10566000000E+00 0.  1.
         22    1    1    0    0    0 -0.72320889115E+01 -0.14876000371E+02  0.29082999598E+02  0.33457725008E+02  0.00000000000E+00 0. -1.
</event>
<event>
 5    1  0.1267616E-004  0.9118800E+02  0.7818608E-02  0.1130116E+00
         25   -1    0    0    0    0  0.00000000000E+00  0.00000000000E+00  0.99999998245E-14  0.12500000000E+03  0.12500000000E+03 0.  0.
        -13    1    3    3    0    0 -0.33112083584E+02  0.12786460219E+02  0.99656994128E+01  0.36867736207E+02  0.10566000000E+00 0.  1.
         23    2    1    0    0    0  0.56800550264E+01 -0.27081056818E+02 -0.94125839301E+01  0.95772557420E+02  0.91203834103E+02 0.  0.
         13    1    3    3    0    0  0.38792138611E+02 -0.39867517038E+02 -0.19378283343E+02  0.58904821213E+02  0.10566000000E+00 0. -1.
         22    1    1    0    0    0 -0.56800550264E+01  0.27081056818E+02  0.94125839301E+01  0.29227442580E+02  0.00000000000E+00 0. -1.
</event>
<event>
 5    1  0.1267616E-004  0.9118800E+02  0.7818608E-02  0.1130116E+00
         25   -1    0    0    0    0  0.00000000000E+00  0.00000000000E+00  0.99999998245E-14  0.12500000000E+03  0.12500000000E+03 0.  0.
        -13    1    3    3    0    0  0.50591220722E+02 -0.19832125807E+02  0.10688969059E+02  0.55380953872E+02  0.10566000000E+00 0.  1.
         23    2    1    0    0    0  0.17027343829E+02  0.22181082525E+01  0.21990077866E+02  0.97099928913E+02  0.93005280647E+02 0.  0.
         13    1    3    3    0    0 -0.33563876893E+02  0.22050234060E+02  0.11301108808E+02  0.41718975041E+02  0.10566000000E+00 0. -1.
         22    1    1    0    0    0 -0.17027343829E+02 -0.22181082525E+01 -0.21990077866E+02  0.27900071087E+02  0.00000000000E+00 0.  1.
</event>
<event>
 5    1  0.1267616E-004  0.9118800E+02  0.7818608E-02  0.1130116E+00
         25   -1    0    0    0    0  0.00000000000E+00  0.00000000000E+00  0.99999998245E-14  0.12500000000E+03  0.12500000000E+03 0.  0.
        -13    1    3    3    0    0  0.56473837366E+01  0.13664065219E+02  0.37430477470E+02  0.40244893205E+02  0.10566000000E+00 0. -1.
         23    2    1    0    0    0  0.33048047089E+02  0.27221941006E+02  0.10669368896E+02  0.80874690696E+02  0.67776638114E+02 0.  0.
         13    1    3    3    0    0  0.27400663352E+02  0.13557875787E+02 -0.26761108574E+02  0.40629797491E+02  0.10566000000E+00 0.  1.
         22    1    1    0    0    0 -0.33048047089E+02 -0.27221941006E+02 -0.10669368896E+02  0.44125309304E+02  0.00000000000E+00 0. -1.
</event>
<event>
 5    1  0.1267616E-004  0.9118800E+02  0.7818608E-02  0.1130116E+00
         25   -1    0    0    0    0  0.00000000000E+00  0.00000000000E+00  0.99999998245E-14  0.12500000000E+03  0.12500000000E+03 0.  0.
        -13    1    3    3    0    0  0.51309469733E+02  0.70266478878E+00  0.26842074193E+02  0.57910823972E+02  0.10566000000E+00 0.  1.
         23    2    1    0    0    0  0.28075928969E+02 -0.29650963705E+01  0.32344454720E+02  0.82067339530E+02  0.69941653415E+02 0.  0.
         13    1    3    3    0    0 -0.23233540765E+02 -0.36677611593E+01  0.55023805264E+01  0.24156515558E+02  0.10566000000E+00 0. -1.
         22    1    1    0    0    0 -0.28075928969E+02  0.29650963705E+01 -0.32344454720E+02  0.42932660470E+02  0.00000000000E+00 0.  1.
</event>
<event>
 5    1  0.1267616E-004  0.9118800E+02  0.7818608E-02  0.1130116E+00
         25   -1    0    0    0    0  0.00000000000E+00  0.00000000000E+00  0.99999998245E-14  0.12500000000E+03  0.12500000000E+03 0.  0.
        -13    1    3    3    0    0  0.10050881352E+02  0.24903944212E+02 -0.51037314515E+02  0.57671876077E+02  0.10566000000E+00 0.  1.
         23    2    1    0    0    0  0.96629412560E+01 -0.43074532488E+01 -0.28593769370E+02  0.94511801726E+02  0.89459210993E+02 0.  0.
         13    1    3    3    0    0 -0.38794009554E+00 -0.29211397461E+02  0.22443545145E+02  0.36839925649E+02  0.10566000000E+00 0. -1.
         22    1    1    0    0    0 -0.96629412560E+01  0.43074532488E+01  0.28593769370E+02  0.30488198274E+02  0.00000000000E+00 0.  1.
</event>
<event>
 5    1  0.1267616E-004  0.9118800E+02  0.7818608E-02  0.1130116E+00
         25   -1    0    0    0    0  0.00000000000E+00  0.00000000000E+00  0.99999998245E-14  0.12500000000E+03  0.12500000000E+03 0.  0.
        -13    1    3    3    0    0 -0.25869330120E+02 -0.46228530083E+02 -0.13720992386E+02  0.54722719511E+02  0.10566000000E+00 0.  1.
         23    2    1    0    0    0 -0.26313255349E+02 -0.20614570140E+02  0.10484628620E+02  0.89967510131E+02  0.82866624964E+02 0.  0.
         13    1    3    3    0    0 -0.44392522866E+00  0.25613959944E+02  0.24205621006E+02  0.35244790621E+02  0.10566000000E+00 0. -1.
         22    1    1    0    0    0  0.26313255349E+02  0.20614570140E+02 -0.10484628620E+02  0.35032489869E+02  0.00000000000E+00 0.  1.
</event>
<event>
 5    1  0.1267616E-004  0.9118800E+02  0.7818608E-02  0.1130116E+00
         25   -1    0    0    0    0  0.00000000000E+00  0.00000000000E+00  0.99999998245E-14  0.12500000000E+03  0.12500000000E+03 0.  0.
        -13    1    3    3    0    0 -0.35368352123E+02 -0.14072542471E+00 -0.34343122892E+01  0.35535134732E+02  0.10566000000E+00 0. -1.
         23    2    1    0    0    0  0.21961458732E+02  0.18824238362E+02 -0.29767176671E+01  0.95922199746E+02  0.91408697269E+02 0.  0.
         13    1    3    3    0    0  0.57329810854E+02  0.18964963787E+02  0.45759462202E+00  0.60387065013E+02  0.10566000000E+00 0.  1.
         22    1    1    0    0    0 -0.21961458732E+02 -0.18824238362E+02  0.29767176671E+01  0.29077800254E+02  0.00000000000E+00 0.  1.
</event>
<event>
 5    1  0.1267616E-004  0.9118800E+02  0.7818608E-02  0.1130116E+00
         25   -1    0    0    0    0  0.00000000000E+00  0.00000000000E+00  0.99999998245E-14  0.12500000000E+03  0.12500000000E+03 0.  0.
        -13    1    3    3    0    0  0.28689709732E+02 -0.36119842288E+02  0.25091638569E+02  0.52510417457E+02  0.10566000000E+00 0.  1.
         23    2    1    0    0    0  0.27286444764E+02  0.10980220163E+00 -0.18036492450E+01  0.97653788654E+02  0.93746718148E+02 0.  0.
         13    1    3    3    0    0 -0.14032649685E+01  0.36229644489E+02 -0.26895287814E+02  0.45143371197E+02  0.10566000000E+00 0. -1.
         22    1    1    0    0    0 -0.27286444764E+02 -0.10980220163E+00  0.18036492450E+01  0.27346211346E+02  0.00000000000E+00 0. -1.
</event>
<event>
 5    1  0.1267616E-004  0.9118800E+02  0.7818608E-02  0.1130116E+00
         25   -1    0    0    0    0  0.00000000000E+00  0.00000000000E+00  0.99999998245E-14  0.12500000000E+03  0.12500000000E+03 0.  0.
        -13    1    3    3    0    0  0.44331590515E+02  0.34526653464E+02 -0.73601071995E+01  0.56670645479E+02  0.10566000000E+00 0. -1.
         23    2    1    0    0    0  0.14045928494E+02  0.12216254792E+02 -0.21231871756E+02  0.96763191281E+02  0.92551595450E+02 0.  0.
         13    1    3    3    0    0 -0.30285662021E+02 -0.22310398672E+02 -0.13871764556E+02  0.40092545802E+02  0.10566000000E+00 0.  1.
         22    1    1    0    0    0 -0.14045928494E+02 -0.12216254792E+02  0.21231871756E+02  0.28236808719E+02  0.00000000000E+00 0. -1.
</event>
<event>
 5    1  0.1267616E-004  0.9118800E+02  0.7818608E-02  0.1130116E+00
         25   -1    0    0    0    0  0.00000000000E+00  0.00000000000E+00  0.99999998245E-14  0.12500000000E+03  0.12500000000E+03 0.  0.
        -13    1    3    3    0    0  0.22312587910E+02 -0.42256909208E+02 -0.31591288702E+02  0.57284541030E+02  0.10566000000E+00 0.  1.
         23    2    1    0    0    0  0.24112293684E+02 -0.80537108964E+01 -0.16358232115E+02  0.94769936754E+02  0.89819174949E+02 0.  0.
         13    1    3    3    0    0  0.17997057739E+01  0.34203198311E+02  0.15233056588E+02  0.37485395725E+02  0.10566000000E+00 0. -1.
         22    1    1    0    0    0 -0.24112293684E+02  0.80537108964E+01  0.16358232115E+02  0.30230063246E+02  0.00000000000E+00 0. -1.
</event>
<event>
 5    1  0.1267616E-004  0.9118800E+02  0.7818608E-02  0.1130116E+00
         25   -1    0    0    0    0  0.00000000000E+00  0.00000000000E+00  0.99999998245E-14  0.12500000000E+03  0.12500000000E+03 0.  0.
        -13    1    3    3    0    0 -0.19990675232E+02  0.53534501922E+02 -0.22950807101E+02  0.61581821205E+02  0.10566000000E+00 0. -1.
         23    2    1    0    0    0 -0.13738292794E+02  0.27234089413E+02 -0.48548609909E+01  0.94113012606E+02  0.88900242696E+02 0.  0.
         13    1    3    3    0    0  0.62523824375E+01 -0.26300412509E+02  0.18095946110E+02  0.32531191401E+02  0.10566000000E+00 0.  1.
         22    1    1    0    0    0  0.13738292794E+02 -0.27234089413E+02  0.48548609909E+01  0.30886987394E+02  0.00000000000E+00 0. -1.
</event>
<event>
 5    1  0.1267616E-004  0.9118800E+02  0.7818608E-02  0.1130116E+00
         25   -1    0    0    0    0  0.00000000000E+00  0.00000000000E+00  0.99999998245E-14  0.12500000000E+03  0.12500000000E+03 0.  0.
        -13    1    3    3    0    0  0.54031934309E+02 -0.18936201218E+02 -0.97844858595E+01  0.58084223067E+02  0.10566000000E+00 0. -1.
         23    2    1    0    0    0  0.28417456068E+02  0.40325526859E+01 -0.14555549763E+02  0.92818059110E+02  0.87060408783E+02 0.  0.
         13    1    3    3    0    0 -0.25614478241E+02  0.22968753904E+02 -0.47710639038E+01  0.34733836043E+02  0.10566000000E+00 0.  1.
         22    1    1    0    0    0 -0.28417456068E+02 -0.40325526859E+01  0.14555549763E+02  0.32181940890E+02  0.00000000000E+00 0. -1.
</event>
<event>
 5    1  0.1267616E-004  0.9118800E+02  0.7818608E-02  0.1130116E+00
         25   -1    0    0    0    0  0.00000000000E+00  0.00000000000E+00  0.99999998245E-14  0.12500000000E+03  0.12500000000E+03 0.  0.
        -13    1    3    3    0    0  0.40886898071E+02  0.60780412641E+01 -0.74122763076E+01  0.41995642912E+02  0.10566000000E+00 0. -1.
         23    2    1    0    0    0 -0.20587203637E+01  0.12437335480E+02  0.25552648838E+02  0.96506781403E+02  0.92204638445E+02 0.  0.
         13    1    3    3    0    0 -0.42945618435E+02  0.63592942156E+01  0.32964925146E+02  0.54511138491E+02  0.10566000000E+00 0.  1.
         22    1    1    0    0    0  0.20587203637E+01 -0.12437335480E+02 -0.25552648838E+02  0.28493218597E+02  0.00000000000E+00 0.  1.
</event>
<event>
 5    1  0.1267616E-004  0.9118800E+02  0.7818608E-02  0.1130116E+00
         25   -1    0    0    0    0  0.00000000000E+00  0.00000000000E+00  0.99999998245E-14  0.12500000000E+03  0.12500000000E+03 0.  0.
        -13    1    3    3    0    0  0.28589087057E+02 -0.42967245088E+02  0.60267671183E+01  0.51960111000E+02  0.10566000000E+00 0. -1.
         23    2    1    0    0    0  0.12547710415E+02 -0.85383134810E+01  0.26015194490E+02  0.94881265330E+02  0.89973975862E+02 0.  0.
         13    1    3    3    0    0 -0.16041376642E+02  0.34428931607E+02  0.19988427372E+02  0.42921154330E+02  0.10566000000E+00 0.  1.
         22    1    1    0    0    0 -0.12547710415E+02  0.85383134810E+01 -0.26015194490E+02  0.30118734670E+02  0.00000000000E+00 0.  1.
</event>
<event>
 5    1  0.1267616E-004  0.9118800E+02  0.7818608E-02  0.1130116E+00
         25   -1    0    0    0    0  0.00000000000E+00  0.00000000000E+00  0.99999998245E-14  0.12500000000E+03  0.12500000000E+03 0.  0.
        -13    1    3    3    0    0 -0.50609811885E+02  0.10636798496E+02  0.78917508847E+01  0.52314294771E+02  0.10566000000E+00 0. -1.
         23    2    1    0    0    0 -0.23457151330E+02  0.73908410965E+01  0.29084355073E+02  0.86911127732E+02  0.78120304230E+02 0.  0.
         13    1    3    3    0    0  0.27152660555E+02 -0.32459573992E+01  0.21192604188E+02  0.34596832961E+02  0.10566000000E+00 0.  1.
         22    1    1    0    0    0  0.23457151330E+02 -0.73908410965E+01 -0.29084355073E+02  0.38088872268E+02  0.00000000000E+00 0. -1.
</event>
<event>
 5    1  0.1267616E-004  0.9118800E+02  0.7818608E-02  0.1130116E+00
         25   -1    0    0    0    0  0.00000000000E+00  0.00000000000E+00  0.99999998245E-14  0.12500000000E+03  0.12500000000E+03 0.  0.
        -13    1    3    3    0    0  0.20972891190E+02  0.26791012982E+02 -0.15537941231E+02  0.37404001433E+02  0.10566000000E+00 0. -1.
         23    2    1    0    0    0  0.16874965868E+01 -0.76539009712E+01  0.27852895914E+02  0.96065355444E+02  0.91604251326E+02 0.  0.
         13    1    3    3    0    0 -0.19285394603E+02 -0.34444913953E+02  0.43390837144E+02  0.58661354011E+02  0.10566000000E+00 0.  1.
         22    1    1    0    0    0 -0.16874965868E+01  0.76539009712E+01 -0.27852895914E+02  0.28934644556E+02  0.00000000000E+00 0.  1.
</event>
<event>
 5    1  0.1267616E-004  0.9118800E+02  0.7818608E-02  0.1130116E+00
         25   -1    0    0    0    0  0.00000000000E+00  0.00000000000E+00  0.99999998245E-14  0.12500000000E+03  0.12500000000E+03 0.  0.
        -13    1    3    3    0    0  0.90883603497E+01  0.22194437963E+02  0.23937775775E+02  0.33885389823E+02  0.10566000000E+00 0.  1.
         23    2    1    0    0    0  0.41788373228E+01 -0.23325996724E+02 -0.17423949341E+02  0.95586417845E+02  0.90948361510E+02 0.  0.
         13    1    3    3    0    0 -0.49095230269E+01 -0.45520434687E+02 -0.41361725116E+02  0.61701028023E+02  0.10566000000E+00 0. -1.
         22    1    1    0    0    0 -0.41788373228E+01  0.23325996724E+02  0.17423949341E+02  0.29413582155E+02  0.00000000000E+00 0. -1.
</event>
<event>
 5    1  0.1267616E-004  0.9118800E+02  0.7818608E-02  0.1130116E+00
         25   -1    0    0    0    0  0.00000000000E+00  0.00000000000E+00  0.99999998245E-14  0.12500000000E+03  0.12500000000E+03 0.  0.
        -13    1    3    3    0    0 -0.22708920811E+02 -0.97709956134E+01  0.19483848267E+02  0.31476958986E+02  0.10566000000E+00 0. -1.
         23    2    1    0    0    0  0.21434416321E+02 -0.94104600699E+00 -0.23120192161E+02  0.93458550189E+02  0.87975209845E+02 0.  0.
         13    1    3    3    0    0  0.44143337131E+02  0.88299496064E+01 -0.42604040429E+02  0.61981591203E+02  0.10566000000E+00 0.  1.
         22    1    1    0    0    0 -0.21434416321E+02  0.94104600699E+00  0.23120192161E+02  0.31541449811E+02  0.00000000000E+00 0.  1.
</event>
<event>
 5    1  0.1267616E-004  0.9118800E+02  0.7818608E-02  0.1130116E+00
         25   -1    0    0    0    0  0.00000000000E+00  0.00000000000E+00  0.99999998245E-14  0.12500000000E+03  0.12500000000E+03 0.  0.
        -13    1    3    3    0    0  0.11125047397E+02  0.10663203728E+02  0.38103902331E+02  0.41102179142E+02  0.10566000000E+00 0. -1.
         23    2    1    0    0    0  0.23782635956E+02  0.96692934998E+01 -0.14703454143E+02  0.95414520901E+02  0.90711797608E+02 0.  0.
         13    1    3    3    0    0  0.12657588559E+02 -0.99391022842E+00 -0.52807356473E+02  0.54312341759E+02  0.10566000000E+00 0.  1.
         22    1    1    0    0    0 -0.23782635956E+02 -0.96692934998E+01  0.14703454143E+02  0.29585479099E+02  0.00000000000E+00 0.  1.
</event>
<event>
 5    1  0.1267616E-004  0.9118800E+02  0.7818608E-02  0.1130116E+00
         25   -1    0    0    0    0  0.00000000000E+00  0.00000000000E+00  0.99999998245E-14  0.12500000000E+03  0.12500000000E+03 0.  0.
        -13    1    3    3    0    0  0.15118676075E+02  0.25590416071E+02 -0.35343734169E+02  0.46180455498E+02  0.10566000000E+00 0. -1.
         23    2    1    0    0    0 -0.22067591577E+02 -0.31334650944E+01 -0.48701521097E+01  0.10218518939E+03  0.99605709415E+02 0.  0.
         13    1    3    3    0    0 -0.37186267652E+02 -0.28723881165E+02  0.30473582059E+02  0.56004733895E+02  0.10566000000E+00 0.  1.
         22    1    1    0    0    0  0.22067591577E+02  0.31334650944E+01  0.48701521097E+01  0.22814810608E+02  0.00000000000E+00 0.  1.
</event>
<event>
 5    1  0.1267616E-004  0.9118800E+02  0.7818608E-02  0.1130116E+00
         25   -1    0    0    0    0  0.00000000000E+00  0.00000000000E+00  0.99999998245E-14  0.12500000000E+03  0.12500000000E+03 0.  0.
        -13    1    3    3    0    0 -0.77665918833E+01 -0.39887214509E+02 -0.34042646155E+02  0.53011534141E+02  0.10566000000E+00 0. -1.
         23    2    1    0    0    0 -0.26042636384E+02 -0.90843797742E+01 -0.13675209870E+02  0.94214350247E+02  0.89042616549E+02 0.  0.
         13    1    3    3    0    0 -0.18276044500E+02  0.30802834734E+02  0.20367436285E+02  0.41202816106E+02  0.10566000000E+00 0.  1.
         22    1    1    0    0    0  0.26042636384E+02  0.90843797742E+01  0.13675209870E+02  0.30785649753E+02  0.00000000000E+00 0.  1.
</event>
<event>
 5    1  0.1267616E-004  0.9118800E+02  0.7818608E-02  0.1130116E+00
         25   -1    0    0    0    0  0.00000000000E+00  0.00000000000E+00  0.99999998245E-14  0.12500000000E+03  0.12500000000E+03 0.  0.
        -13    1    3    3    0    0 -0.34594766176E+02  0.15293690421E+02 -0.21123066115E+02  0.43323087374E+02  0.10566000000E+00 0.  1.
         23    2    1    0    0    0  0.11824338819E+02 -0.10675654488E+02 -0.23549607938E+02  0.96568175906E+02  0.92287832223E+02 0.  0.
         13    1    3    3    0    0  0.46419104995E+02 -0.25969344910E+02 -0.24265418234E+01  0.53245088532E+02  0.10566000000E+00 0. -1.
         22    1    1    0    0    0 -0.11824338819E+02  0.10675654488E+02  0.23549607938E+02  0.28431824094E+02  0.00000000000E+00 0. -1.
</event>
<event>
 5    1  0.1267616E-004  0.9118800E+02  0.7818608E-02  0.1130116E+00
         25   -1    0    0    0    0  0.00000000000E+00  0.00000000000E+00  0.99999998245E-14  0.12500000000E+03  0.12500000000E+03 0.  0.
        -13    1    3    3    0    0 -0.34030358825E+01 -0.21658127056E+01 -0.35993357945E+02  0.36218840099E+02  0.10566000000E+00 0.  1.
         23    2    1    0    0    0 -0.91325164441E+01  0.16593844147E+02  0.21134218686E+02  0.96620188167E+02  0.92358253783E+02 0.  0.
         13    1    3    3    0    0 -0.57294805616E+01  0.18759656853E+02  0.57127576631E+02  0.60401348069E+02  0.10566000000E+00 0. -1.
         22    1    1    0    0    0  0.91325164441E+01 -0.16593844147E+02 -0.21134218686E+02  0.28379811833E+02  0.00000000000E+00 0. -1.
</event>
<event>
 5    1  0.1267616E-004  0.9118800E+02  0.7818608E-02  0.1130116E+00
         25   -1    0    0    0    0  0.00000000000E+00  0.00000000000E+00  0.99999998245E-14  0.12500000000E+03  0.12500000000E+03 0.  0.
        -13    1    3    3    0    0  0.40012323036E+02 -0.21607130811E+02  0.28962079082E+02  0.53913516722E+02  0.10566000000E+00 0. -1.
         23    2    1    0    0    0  0.23889853544E+02  0.12227396774E+02  0.73641235975E+01  0.97170795006E+02  0.93100476645E+02 0.  0.
         13    1    3    3    0    0 -0.16122469492E+02  0.33834527585E+02 -0.21597955485E+02  0.43257278284E+02  0.10566000000E+00 0.  1.
         22    1    1    0    0    0 -0.23889853544E+02 -0.12227396774E+02 -0.73641235975E+01  0.27829204994E+02  0.00000000000E+00 0. -1.
</event>
<event>
 5    1  0.1267616E-004  0.9118800E+02  0.7818608E-02  0.1130116E+00
         25   -1    0    0    0    0  0.00000000000E+00  0.00000000000E+00  0.99999998245E-14  0.12500000000E+03  0.12500000000E+03 0.  0.
        -13    1    3    3    0    0  0.30466586506E+02 -0.18842163384E+02  0.43855217190E+02  0.56626241736E+02  0.10566000000E+00 0.  1.
         23    2    1    0    0    0  0.28188763799E+02  0.20392143448E+00  0.10862425900E+02  0.94790063143E+02  0.89847180176E+02 0.  0.
         13    1    3    3    0    0 -0.22778227064E+01  0.19046084819E+02 -0.32992791290E+02  0.38163821406E+02  0.10566000000E+00 0. -1.
         22    1    1    0    0    0 -0.28188763799E+02 -0.20392143448E+00 -0.10862425900E+02  0.30209936857E+02  0.00000000000E+00 0.  1.
</event>
<event>
 5    1  0.1267616E-004  0.9118800E+02  0.7818608E-02  0.1130116E+00
         25   -1    0    0    0    0  0.00000000000E+00  0.00000000000E+00  0.99999998245E-14  0.12500000000E+03  0.12500000000E+03 0.  0.
        -13    1    3    3    0    0  0.39995176369E+02  0.90923750888E+01  0.46858404702E+02  0.62273643484E+02  0.10566000000E+00 0. -1.
         23    2    1    0    0    0  0.21639953974E+02  0.46191736710E+01  0.19594113816E+02  0.95444058640E+02  0.90752491206E+02 0.  0.
         13    1    3    3    0    0 -0.18355222395E+02 -0.44732014178E+01 -0.27264290886E+02  0.33170415156E+02  0.10566000000E+00 0.  1.
         22    1    1    0    0    0 -0.21639953974E+02 -0.46191736710E+01 -0.19594113816E+02  0.29555941360E+02  0.00000000000E+00 0. -1.
</event>
<event>
 5    1  0.1267616E-004  0.9118800E+02  0.7818608E-02  0.1130116E+00
         25   -1    0    0    0    0  0.00000000000E+00  0.00000000000E+00  0.99999998245E-14  0.12500000000E+03  0.12500000000E+03 0.  0.
        -13    1    3    3    0    0  0.15289879120E+02  0.29869396538E+02  0.16483203526E+02  0.37385403777E+02  0.10566000000E+00 0.  1.
         23    2    1    0    0    0 -0.21407312908E+02 -0.15257982499E+02  0.13047377142E+02  0.95651863327E+02  0.91038265755E+02 0.  0.
         13    1    3    3    0    0 -0.36697192028E+02 -0.45127379037E+02 -0.34358263842E+01  0.58266459550E+02  0.10566000000E+00 0. -1.
         22    1    1    0    0    0  0.21407312908E+02  0.15257982499E+02 -0.13047377142E+02  0.29348136673E+02  0.00000000000E+00 0. -1.
</event>
<event>
 5    1  0.1267616E-004  0.9118800E+02  0.7818608E-02  0.1130116E+00
         25   -1    0    0    0    0  0.00000000000E+00  0.00000000000E+00  0.99999998245E-14  0.12500000000E+03  0.12500000000E+03 0.  0.
        -13    1    3    3    0    0  0.31040667850E+02 -0.10322229173E+00  0.15412707412E+02  0.34656838131E+02  0.10566000000E+00 0. -1.
         23    2    1    0    0    0 -0.28097678625E+02  0.68080340084E+01  0.29168533574E+00  0.96087823473E+02  0.91634905294E+02 0.  0.
         13    1    3    3    0    0 -0.59138346475E+02  0.69112563002E+01 -0.15121022076E+02  0.61430985342E+02  0.10566000000E+00 0.  1.
         22    1    1    0    0    0  0.28097678625E+02 -0.68080340084E+01 -0.29168533574E+00  0.28912176527E+02  0.00000000000E+00 0.  1.
</event>
<event>
 5    1  0.1267616E-004  0.9118800E+02  0.7818608E-02  0.1130116E+00
         25   -1    0    0    0    0  0.00000000000E+00  0.00000000000E+00  0.99999998245E-14  0.12500000000E+03  0.12500000000E+03 0.  0.
        -13    1    3    3    0    0  0.55985016839E+02 -0.50502191613E+01  0.27420492705E+01  0.56279275246E+02  0.10566000000E+00 0.  1.
         23    2    1    0    0    0  0.23778530221E+02 -0.12126099189E+02 -0.15672081686E+02  0.94047214578E+02  0.88807677846E+02 0.  0.
         13    1    3    3    0    0 -0.32206486618E+02 -0.70758800277E+01 -0.18414130956E+02  0.37767939331E+02  0.10566000000E+00 0. -1.
         22    1    1    0    0    0 -0.23778530221E+02  0.12126099189E+02  0.15672081686E+02  0.30952785422E+02  0.00000000000E+00 0.  1.
</event>
<event>
 5    1  0.1267616E-004  0.9118800E+02  0.7818608E-02  0.1130116E+00
         25   -1    0    0    0    0  0.00000000000E+00  0.00000000000E+00  0.99999998245E-14  0.12500000000E+03  0.12500000000E+03 0.  0.
        -13    1    3    3    0    0  0.31997808793E+02  0.27239745796E+02  0.43236075418E+02  0.60292892618E+02  0.10566000000E+00 0.  1.
         23    2    1    0    0    0  0.19303494882E+02  0.19263930194E+02  0.11478446795E+02  0.95411511327E+02  0.90707650348E+02 0.  0.
         13    1    3    3    0    0 -0.12694313911E+02 -0.79758156025E+01 -0.31757628624E+02  0.35118618709E+02  0.10566000000E+00 0. -1.
         22    1    1    0    0    0 -0.19303494882E+02 -0.19263930194E+02 -0.11478446795E+02  0.29588488673E+02  0.00000000000E+00 0.  1.
</event>
<event>
 5    1  0.1267616E-004  0.9118800E+02  0.7818608E-02  0.1130116E+00
         25   -1    0    0    0    0  0.00000000000E+00  0.00000000000E+00  0.99999998245E-14  0.12500000000E+03  0.12500000000E+03 0.  0.
        -13    1    3    3    0    0  0.32253217688E+02 -0.37791369953E+02  0.65715671755E+01  0.50116408026E+02  0.10566000000E+00 0. -1.
         23    2    1    0    0    0  0.19041168060E+02 -0.49200349916E+01 -0.21899249410E+02  0.95566176767E+02  0.90920537788E+02 0.  0.
         13    1    3    3    0    0 -0.13212049629E+02  0.32871334962E+02 -0.28470816585E+02  0.45449768741E+02  0.10566000000E+00 0.  1.
         22    1    1    0    0    0 -0.19041168060E+02  0.49200349916E+01  0.21899249410E+02  0.29433823233E+02  0.00000000000E+00 0. -1.
</event>
<event>
 5    1  0.1267616E-004  0.9118800E+02  0.7818608E-02  0.1130116E+00
         25   -1    0    0    0    0  0.00000000000E+00  0.00000000000E+00  0.99999998245E-14  0.12500000000E+03  0.12500000000E+03 0.  0.
        -13    1    3    3    0    0 -0.33146681755E+02 -0.24668987569E+02  0.13927750302E+02  0.43603381194E+02  0.10566000000E+00 0. -1.
         23    2    1    0    0    0  0.12135232211E+02 -0.26247759260E+02 -0.94361604493E+01  0.94582080100E+02  0.89557356063E+02 0.  0.
         13    1    3    3    0    0  0.45281913966E+02 -0.15787716910E+01 -0.23363910751E+02  0.50978698906E+02  0.10566000000E+00 0.  1.
         22    1    1    0    0    0 -0.12135232211E+02  0.26247759260E+02  0.94361604493E+01  0.30417919900E+02  0.00000000000E+00 0.  1.
</event>
<event>
 5    1  0.1267616E-004  0.9118800E+02  0.7818608E-02  0.1130116E+00
         25   -1    0    0    0    0  0.00000000000E+00  0.00000000000E+00  0.99999998245E-14  0.12500000000E+03  0.12500000000E+03 0.  0.
        -13    1    3    3    0    0  0.57892633810E+01 -0.29448369732E+02  0.18634239514E+02  0.35326591920E+02  0.10566000000E+00 0.  1.
         23    2    1    0    0    0 -0.22223336233E+02  0.15439039685E+02 -0.10789015221E+02  0.95868514127E+02  0.91335253499E+02 0.  0.
         13    1    3    3    0    0 -0.28012599614E+02  0.44887409417E+02 -0.29423254735E+02  0.60541922207E+02  0.10566000000E+00 0. -1.
         22    1    1    0    0    0  0.22223336233E+02 -0.15439039685E+02  0.10789015221E+02  0.29131485873E+02  0.00000000000E+00 0. -1.
</event>
<event>
 5    1  0.1267616E-004  0.9118800E+02  0.7818608E-02  0.1130116E+00
         25   -1    0    0    0    0  0.00000000000E+00  0.00000000000E+00  0.99999998245E-14  0.12500000000E+03  0.12500000000E+03 0.  0.
        -13    1    3    3    0    0  0.18514099727E+02 -0.31357826327E+02  0.45548556630E+02  0.58316098427E+02  0.10566000000E+00 0.  1.
         23    2    1    0    0    0 -0.70639094377E+01 -0.19033456195E+02  0.19637287727E+02  0.96754746584E+02  0.92540189356E+02 0.  0.
         13    1    3    3    0    0 -0.25578009164E+02  0.12324370132E+02 -0.25911268903E+02  0.38438648157E+02  0.10566000000E+00 0. -1.
         22    1    1    0    0    0  0.70639094377E+01  0.19033456195E+02 -0.19637287727E+02  0.28245253416E+02  0.00000000000E+00 0.  1.
</event>
<event>
 5    1  0.1267616E-004  0.9118800E+02  0.7818608E-02  0.1130116E+00
         25   -1    0    0    0    0  0.00000000000E+00  0.00000000000E+00  0.99999998245E-14  0.12500000000E+03  0.12500000000E+03 0.  0.
        -13    1    3    3    0    0 -0.36228307301E+02 -0.42682245527E+01  0.31843033214E+02  0.48422080904E+02  0.10566000000E+00 0. -1.
         23    2    1    0    0    0  0.83397499546E+01  0.65857713049E+01  0.28694707795E+02  0.94400815887E+02  0.89303997512E+02 0.  0.
         13    1    3    3    0    0  0.44568057256E+02  0.10853995858E+02 -0.31483254194E+01  0.45978734983E+02  0.10566000000E+00 0.  1.
         22    1    1    0    0    0 -0.83397499546E+01 -0.65857713049E+01 -0.28694707795E+02  0.30599184113E+02  0.00000000000E+00 0. -1.
</event>
<event>
 5    1  0.1267616E-004  0.9118800E+02  0.7818608E-02  0.1130116E+00
         25   -1    0    0    0    0  0.00000000000E+00  0.00000000000E+00  0.99999998245E-14  0.12500000000E+03  0.12500000000E+03 0.  0.
        -13    1    3    3    0    0  0.31090138484E+02 -0.12507678518E+02 -0.28658049960E+02  0.44094599719E+02  0.10566000000E+00 0. -1.
         23    2    1    0    0    0  0.14180452472E+02  0.19784456049E+02  0.11284572231E+02  0.98169951474E+02  0.94432451353E+02 0.  0.
         13    1    3    3    0    0 -0.16909686012E+02  0.32292134567E+02  0.39942622191E+02  0.54075351755E+02  0.10566000000E+00 0.  1.
         22    1    1    0    0    0 -0.14180452472E+02 -0.19784456049E+02 -0.11284572231E+02  0.26830048526E+02  0.00000000000E+00 0.  1.
</event>
<event>
 5    1  0.1267616E-004  0.9118800E+02  0.7818608E-02  0.1130116E+00
         25   -1    0    0    0    0  0.00000000000E+00  0.00000000000E+00  0.99999998245E-14  0.12500000000E+03  0.12500000000E+03 0.  0.
        -13    1    3    3    0    0  0.36334690853E+02  0.55707722481E+01  0.70965169130E+01  0.37438148714E+02  0.10566000000E+00 0.  1.
         23    2    1    0    0    0 -0.10746752231E+02 -0.23091538124E+02 -0.13368964570E+02  0.96234725273E+02  0.91835076731E+02 0.  0.
         13    1    3    3    0    0 -0.47081443083E+02 -0.28662310372E+02 -0.20465481483E+02  0.58796576559E+02  0.10566000000E+00 0. -1.
         22    1    1    0    0    0  0.10746752231E+02  0.23091538124E+02  0.13368964570E+02  0.28765274727E+02  0.00000000000E+00 0. -1.
</event>
<event>
 5    1  0.1267616E-004  0.9118800E+02  0.7818608E-02  0.1130116E+00
         25   -1    0    0    0    0  0.00000000000E+00  0.00000000000E+00  0.99999998245E-14  0.12500000000E+03  0.12500000000E+03 0.  0.
        -13    1    3    3    0    0 -0.18924390672E+02  0.30978261072E+02 -0.50872066553E+02  0.62496108205E+02  0.10566000000E+00 0. -1.
         23    2    1    0    0    0 -0.85733978342E+01  0.14941132650E+02 -0.23910663752E+02  0.95530347196E+02  0.90871264980E+02 0.  0.
         13    1    3    3    0    0  0.10350992838E+02 -0.16037128421E+02  0.26961402801E+02  0.33034238992E+02  0.10566000000E+00 0.  1.
         22    1    1    0    0    0  0.85733978342E+01 -0.14941132650E+02  0.23910663752E+02  0.29469652804E+02  0.00000000000E+00 0. -1.
</event>
<event>
 5    1  0.1267616E-004  0.9118800E+02  0.7818608E-02  0.1130116E+00
         25   -1    0    0    0    0  0.00000000000E+00  0.00000000000E+00  0.99999998245E-14  0.12500000000E+03  0.12500000000E+03 0.  0.
        -13    1    3    3    0    0 -0.48364364410E+02  0.36378322836E+02 -0.11020131214E+02  0.61513807988E+02  0.10566000000E+00 0. -1.
         23    2    1    0    0    0 -0.19122847414E+02  0.22366429112E+02 -0.61899370818E+00  0.95566624427E+02  0.90921153241E+02 0.  0.
         13    1    3    3    0    0  0.29241516996E+02 -0.14011893724E+02  0.10401137506E+02  0.34052816439E+02  0.10566000000E+00 0.  1.
         22    1    1    0    0    0  0.19122847414E+02 -0.22366429112E+02  0.61899370818E+00  0.29433375573E+02  0.00000000000E+00 0. -1.
</event>
<event>
 4    1  0.1267616E-004  0.9118800E+02  0.7818608E-02  0.1130116E+00
         25   -1    0    0    0    0  0.00000000000E+00  0.00000000000E+00  0.99999998245E-14  0.12500000000E+03  0.12500000000E+03 0.  0.
        -13    1    1    0    0    0 -0.40505735995E+02  0.40920800283E+02  0.10053260901E+01  0.57586876881E+02  0.10566000000E+00 0. -1.
         13    1    1    0    0    0  0.32495211869E+01 -0.29399782709E+01  0.11887700541E+02  0.12670100567E+02  0.10566000000E+00 0.  1.
         22    1    1    0    0    0  0.37256214808E+02 -0.37980822012E+02 -0.12893026631E+02  0.54743022553E+02  0.00000000000E+00 0. -1.
</event>
<event>
 5    1  0.1267616E-004  0.9118800E+02  0.7818608E-02  0.1130116E+00
         25   -1    0    0    0    0  0.00000000000E+00  0.00000000000E+00  0.99999998245E-14  0.12500000000E+03  0.12500000000E+03 0.  0.
        -13    1    3    3    0    0 -0.27711257866E+02  0.50396269158E+01  0.25872803430E+02  0.38245585017E+02  0.10566000000E+00 0. -1.
         23    2    1    0    0    0  0.39449515432E+01  0.25852611557E+02 -0.15704669850E+02  0.94494970544E+02  0.89435689946E+02 0.  0.
         13    1    3    3    0    0  0.31656209409E+02  0.20812984641E+02 -0.41577473279E+02  0.56249385527E+02  0.10566000000E+00 0.  1.
         22    1    1    0    0    0 -0.39449515432E+01 -0.25852611557E+02  0.15704669850E+02  0.30505029456E+02  0.00000000000E+00 0.  1.
</event>
<event>
 5    1  0.1267616E-004  0.9118800E+02  0.7818608E-02  0.1130116E+00
         25   -1    0    0    0    0  0.00000000000E+00  0.00000000000E+00  0.99999998245E-14  0.12500000000E+03  0.12500000000E+03 0.  0.
        -13    1    3    3    0    0  0.17207803287E+02 -0.95979175221E+01  0.23649665116E+02  0.30782240640E+02  0.10566000000E+00 0.  1.
         23    2    1    0    0    0 -0.96753120075E+01  0.12684564229E+02 -0.27791716643E+02  0.92954885769E+02  0.87256641250E+02 0.  0.
         13    1    3    3    0    0 -0.26883115294E+02  0.22282481752E+02 -0.51441381759E+02  0.62172645128E+02  0.10566000000E+00 0. -1.
         22    1    1    0    0    0  0.96753120075E+01 -0.12684564229E+02  0.27791716643E+02  0.32045114231E+02  0.00000000000E+00 0. -1.
</event>
<event>
 5    1  0.1267616E-004  0.9118800E+02  0.7818608E-02  0.1130116E+00
         25   -1    0    0    0    0  0.00000000000E+00  0.00000000000E+00  0.99999998245E-14  0.12500000000E+03  0.12500000000E+03 0.  0.
        -13    1    3    3    0    0  0.35516711929E+02 -0.43158301800E+01 -0.12271909577E+02  0.37824253397E+02  0.10566000000E+00 0.  1.
         23    2    1    0    0    0 -0.18293583326E+02 -0.20736676615E+02  0.54619209614E+01  0.96813167463E+02  0.92619068585E+02 0.  0.
         13    1    3    3    0    0 -0.53810295254E+02 -0.16420846435E+02  0.17733830538E+02  0.58988914065E+02  0.10566000000E+00 0. -1.
         22    1    1    0    0    0  0.18293583326E+02  0.20736676615E+02 -0.54619209614E+01  0.28186832537E+02  0.00000000000E+00 0. -1.
</event>
<event>
 5    1  0.1267616E-004  0.9118800E+02  0.7818608E-02  0.1130116E+00
         25   -1    0    0    0    0  0.00000000000E+00  0.00000000000E+00  0.99999998245E-14  0.12500000000E+03  0.12500000000E+03 0.  0.
        -13    1    3    3    0    0  0.53490277614E+01  0.83032003753E+00 -0.61264638213E+02  0.61503403067E+02  0.10566000000E+00 0.  1.
         23    2    1    0    0    0 -0.24335813035E+01 -0.57395875700E+01 -0.28996266816E+02  0.95341128264E+02  0.90610606807E+02 0.  0.
         13    1    3    3    0    0 -0.77826090649E+01 -0.65699076076E+01  0.32268371398E+02  0.33837725197E+02  0.10566000000E+00 0. -1.
         22    1    1    0    0    0  0.24335813035E+01  0.57395875700E+01  0.28996266816E+02  0.29658871736E+02  0.00000000000E+00 0.  1.
</event>
<event>
 5    1  0.1267616E-004  0.9118800E+02  0.7818608E-02  0.1130116E+00
         25   -1    0    0    0    0  0.00000000000E+00  0.00000000000E+00  0.99999998245E-14  0.12500000000E+03  0.12500000000E+03 0.  0.
        -13    1    3    3    0    0 -0.66793227445E+01  0.32828702627E+02 -0.68451165683E+01  0.34193622992E+02  0.10566000000E+00 0.  1.
         23    2    1    0    0    0  0.18563307007E+02 -0.20125797801E+02  0.10973244761E+02  0.95503284848E+02  0.90834031134E+02 0.  0.
         13    1    3    3    0    0  0.25242629752E+02 -0.52954500428E+02  0.17818361329E+02  0.61309661856E+02  0.10566000000E+00 0. -1.
         22    1    1    0    0    0 -0.18563307007E+02  0.20125797801E+02 -0.10973244761E+02  0.29496715152E+02  0.00000000000E+00 0. -1.
</event>
<event>
 5    1  0.1267616E-004  0.9118800E+02  0.7818608E-02  0.1130116E+00
         25   -1    0    0    0    0  0.00000000000E+00  0.00000000000E+00  0.99999998245E-14  0.12500000000E+03  0.12500000000E+03 0.  0.
        -13    1    3    3    0    0  0.15027639499E+02 -0.47082373196E+02 -0.21028514935E+02  0.53710235701E+02  0.10566000000E+00 0.  1.
         23    2    1    0    0    0  0.28070424581E+02 -0.13441483901E+02 -0.39546081148E+01  0.93627063399E+02  0.88214317714E+02 0.  0.
         13    1    3    3    0    0  0.13042785082E+02  0.33640889295E+02  0.17073906820E+02  0.39916827697E+02  0.10566000000E+00 0. -1.
         22    1    1    0    0    0 -0.28070424581E+02  0.13441483901E+02  0.39546081148E+01  0.31372936601E+02  0.00000000000E+00 0.  1.
</event>
<event>
 5    1  0.1267616E-004  0.9118800E+02  0.7818608E-02  0.1130116E+00
         25   -1    0    0    0    0  0.00000000000E+00  0.00000000000E+00  0.99999998245E-14  0.12500000000E+03  0.12500000000E+03 0.  0.
        -13    1    3    3    0    0  0.26861106549E+02  0.66314211672E+01  0.33128591348E+02  0.43162593996E+02  0.10566000000E+00 0. -1.
         23    2    1    0    0    0 -0.13880978223E+02 -0.21229103927E+02  0.13366604332E+02  0.96329064868E+02  0.91963396072E+02 0.  0.
         13    1    3    3    0    0 -0.40742084772E+02 -0.27860525094E+02 -0.19761987016E+02  0.53166470872E+02  0.10566000000E+00 0.  1.
         22    1    1    0    0    0  0.13880978223E+02  0.21229103927E+02 -0.13366604332E+02  0.28670935132E+02  0.00000000000E+00 0.  1.
</event>
<event>
 5    1  0.1267616E-004  0.9118800E+02  0.7818608E-02  0.1130116E+00
         25   -1    0    0    0    0  0.00000000000E+00  0.00000000000E+00  0.99999998245E-14  0.12500000000E+03  0.12500000000E+03 0.  0.
        -13    1    3    3    0    0 -0.22658631131E+02  0.89606762556E+01  0.27208123330E+02  0.36523970524E+02  0.10566000000E+00 0. -1.
         23    2    1    0    0    0  0.22283128087E+02 -0.19127489777E+02  0.10762782470E+01  0.95613659000E+02  0.90985794221E+02 0.  0.
         13    1    3    3    0    0  0.44941759219E+02 -0.28088166032E+02 -0.26131845083E+02  0.59089688476E+02  0.10566000000E+00 0.  1.
         22    1    1    0    0    0 -0.22283128087E+02  0.19127489777E+02 -0.10762782470E+01  0.29386341000E+02  0.00000000000E+00 0.  1.
</event>
<event>
 5    1  0.1267616E-004  0.9118800E+02  0.7818608E-02  0.1130116E+00
         25   -1    0    0    0    0  0.00000000000E+00  0.00000000000E+00  0.99999998245E-14  0.12500000000E+03  0.12500000000E+03 0.  0.
        -13    1    3    3    0    0  0.23716597326E+02 -0.17424342278E+02  0.13758988244E+02  0.32487006850E+02  0.10566000000E+00 0. -1.
         23    2    1    0    0    0 -0.18508597344E+02  0.81150367276E+01 -0.23267346230E+02  0.94181314153E+02  0.88996227663E+02 0.  0.
         13    1    3    3    0    0 -0.42225194671E+02  0.25539379005E+02 -0.37026334474E+02  0.61694307303E+02  0.10566000000E+00 0.  1.
         22    1    1    0    0    0  0.18508597344E+02 -0.81150367276E+01  0.23267346230E+02  0.30818685847E+02  0.00000000000E+00 0.  1.
</event>
<event>
 5    1  0.1267616E-004  0.9118800E+02  0.7818608E-02  0.1130116E+00
         25   -1    0    0    0    0  0.00000000000E+00  0.00000000000E+00  0.99999998245E-14  0.12500000000E+03  0.12500000000E+03 0.  0.
        -13    1    3    3    0    0 -0.24429888477E+02  0.38617725551E+02 -0.20897742500E+02  0.50248134128E+02  0.10566000000E+00 0. -1.
         23    2    1    0    0    0 -0.11786761848E+02 -0.40622797513E+01 -0.27079225280E+02  0.95188688164E+02  0.90400066598E+02 0.  0.
         13    1    3    3    0    0  0.12643126630E+02 -0.42680005302E+02 -0.61814827803E+01  0.44940554035E+02  0.10566000000E+00 0.  1.
         22    1    1    0    0    0  0.11786761848E+02  0.40622797513E+01  0.27079225280E+02  0.29811311836E+02  0.00000000000E+00 0.  1.
</event>
<event>
 5    1  0.1267616E-004  0.9118800E+02  0.7818608E-02  0.1130116E+00
         25   -1    0    0    0    0  0.00000000000E+00  0.00000000000E+00  0.99999998245E-14  0.12500000000E+03  0.12500000000E+03 0.  0.
        -13    1    3    3    0    0 -0.76597008704E+01  0.32019714055E+02  0.39082522161E+02  0.51101739776E+02  0.10566000000E+00 0.  1.
         23    2    1    0    0    0 -0.83895862925E+01 -0.82453362411E+01  0.30544560497E+02  0.92268655637E+02  0.86267977310E+02 0.  0.
         13    1    3    3    0    0 -0.72988542211E+00 -0.40265050296E+02 -0.85379616642E+01  0.41166915861E+02  0.10566000000E+00 0. -1.
         22    1    1    0    0    0  0.83895862925E+01  0.82453362411E+01 -0.30544560497E+02  0.32731344363E+02  0.00000000000E+00 0.  1.
</event>
<event>
 5    1  0.1267616E-004  0.9118800E+02  0.7818608E-02  0.1130116E+00
         25   -1    0    0    0    0  0.00000000000E+00  0.00000000000E+00  0.99999998245E-14  0.12500000000E+03  0.12500000000E+03 0.  0.
        -13    1    3    3    0    0 -0.47789311652E+02 -0.36703205052E+01 -0.36359829340E+02  0.60160933457E+02  0.10566000000E+00 0.  1.
         23    2    1    0    0    0 -0.20364416803E+02 -0.13627358312E+02 -0.16163099599E+02  0.95645951643E+02  0.91030148362E+02 0.  0.
         13    1    3    3    0    0  0.27424894849E+02 -0.99570378072E+01  0.20196729741E+02  0.35485018186E+02  0.10566000000E+00 0. -1.
         22    1    1    0    0    0  0.20364416803E+02  0.13627358312E+02  0.16163099599E+02  0.29354048357E+02  0.00000000000E+00 0.  1.
</event>
<event>
 5    1  0.1267616E-004  0.9118800E+02  0.7818608E-02  0.1130116E+00
         25   -1    0    0    0    0  0.00000000000E+00  0.00000000000E+00  0.99999998245E-14  0.12500000000E+03  0.12500000000E+03 0.  0.
        -13    1    3    3    0    0 -0.32819449815E+02  0.27543508507E+02 -0.43960210009E+02  0.61386255588E+02  0.10566000000E+00 0. -1.
         23    2    1    0    0    0 -0.86754372255E+01  0.17921096637E+02 -0.20925006836E+02  0.96116010892E+02  0.91673347942E+02 0.  0.
         13    1    3    3    0    0  0.24144012590E+02 -0.96224118699E+01  0.23035203174E+02  0.34729755303E+02  0.10566000000E+00 0.  1.
         22    1    1    0    0    0  0.86754372255E+01 -0.17921096637E+02  0.20925006836E+02  0.28883989108E+02  0.00000000000E+00 0. -1.
</event>
<event>
 5    1  0.1267616E-004  0.9118800E+02  0.7818608E-02  0.1130116E+00
         25   -1    0    0    0    0  0.00000000000E+00  0.00000000000E+00  0.99999998245E-14  0.12500000000E+03  0.12500000000E+03 0.  0.
        -13    1    3    3    0    0 -0.97933038441E+01 -0.44586055244E+02  0.31626695474E+01  0.45758482985E+02  0.10566000000E+00 0.  1.
         23    2    1    0    0    0  0.14497310634E+02 -0.24440572780E+02 -0.24313491495E+02  0.87601343846E+02  0.79217018131E+02 0.  0.
         13    1    3    3    0    0  0.24290614478E+02  0.20145482464E+02 -0.27476161042E+02  0.41842860861E+02  0.10566000000E+00 0. -1.
         22    1    1    0    0    0 -0.14497310634E+02  0.24440572780E+02  0.24313491495E+02  0.37398656154E+02  0.00000000000E+00 0.  1.
</event>
<event>
 5    1  0.1267616E-004  0.9118800E+02  0.7818608E-02  0.1130116E+00
         25   -1    0    0    0    0  0.00000000000E+00  0.00000000000E+00  0.99999998245E-14  0.12500000000E+03  0.12500000000E+03 0.  0.
        -13    1    3    3    0    0 -0.35590431968E+01 -0.45410947161E+02  0.42667109113E+02  0.62412452881E+02  0.10566000000E+00 0. -1.
         23    2    1    0    0    0 -0.25647643876E+01 -0.20591689109E+02  0.16528803953E+02  0.98470826684E+02  0.94829882795E+02 0.  0.
         13    1    3    3    0    0  0.99427880913E+00  0.24819258052E+02 -0.26138305160E+02  0.36058373803E+02  0.10566000000E+00 0.  1.
         22    1    1    0    0    0  0.25647643876E+01  0.20591689109E+02 -0.16528803953E+02  0.26529173316E+02  0.00000000000E+00 0. -1.
</event>
<event>
 5    1  0.1267616E-004  0.9118800E+02  0.7818608E-02  0.1130116E+00
         25   -1    0    0    0    0  0.00000000000E+00  0.00000000000E+00  0.99999998245E-14  0.12500000000E+03  0.12500000000E+03 0.  0.
        -13    1    3    3    0    0 -0.50745385670E+02 -0.14081728320E+02  0.23680637140E+02  0.57742298002E+02  0.10566000000E+00 0.  1.
         23    2    1    0    0    0 -0.20329068392E+02  0.10471715289E+02  0.14586562503E+02  0.97876289922E+02  0.94042928923E+02 0.  0.
         13    1    3    3    0    0  0.30416317278E+02  0.24553443610E+02 -0.90940746371E+01  0.40133991919E+02  0.10566000000E+00 0. -1.
         22    1    1    0    0    0  0.20329068392E+02 -0.10471715289E+02 -0.14586562503E+02  0.27123710078E+02  0.00000000000E+00 0.  1.
</event>
<event>
 5    1  0.1267616E-004  0.9118800E+02  0.7818608E-02  0.1130116E+00
         25   -1    0    0    0    0  0.00000000000E+00  0.00000000000E+00  0.99999998245E-14  0.12500000000E+03  0.12500000000E+03 0.  0.
        -13    1    3    3    0    0  0.17819644514E+02  0.43783129291E+02 -0.40430564580E+02  0.62202442536E+02  0.10566000000E+00 0.  1.
         23    2    1    0    0    0  0.41966168907E+01  0.21706695582E+02 -0.18782176101E+02  0.95990305664E+02  0.91501783676E+02 0.  0.
         13    1    3    3    0    0 -0.13623027623E+02 -0.22076433710E+02  0.21648388479E+02  0.33787863128E+02  0.10566000000E+00 0. -1.
         22    1    1    0    0    0 -0.41966168907E+01 -0.21706695582E+02  0.18782176101E+02  0.29009694336E+02  0.00000000000E+00 0.  1.
</event>
<event>
 5    1  0.1267616E-004  0.9118800E+02  0.7818608E-02  0.1130116E+00
         25   -1    0    0    0    0  0.00000000000E+00  0.00000000000E+00  0.99999998245E-14  0.12500000000E+03  0.12500000000E+03 0.  0.
        -13    1    3    3    0    0  0.13680563056E+02  0.41248759125E+02 -0.37309884072E+02  0.57277015883E+02  0.10566000000E+00 0.  1.
         23    2    1    0    0    0 -0.57915906340E+01  0.12755038352E+02 -0.29028004397E+02  0.92768671069E+02  0.86989469289E+02 0.  0.
         13    1    3    3    0    0 -0.19472153690E+02 -0.28493720774E+02  0.82818796757E+01  0.35491655186E+02  0.10566000000E+00 0. -1.
         22    1    1    0    0    0  0.57915906340E+01 -0.12755038352E+02  0.29028004397E+02  0.32231328931E+02  0.00000000000E+00 0.  1.
</event>
<event>
 5    1  0.1267616E-004  0.9118800E+02  0.7818608E-02  0.1130116E+00
         25   -1    0    0    0    0  0.00000000000E+00  0.00000000000E+00  0.99999998245E-14  0.12500000000E+03  0.12500000000E+03 0.  0.
        -13    1    3    3    0    0  0.42761959348E+02  0.40052097166E+02 -0.62735923937E+01  0.58924738271E+02  0.10566000000E+00 0.  1.
         23    2    1    0    0    0  0.18839467343E+02  0.22538981383E+02  0.11455958878E+02  0.93469535281E+02  0.87990816681E+02 0.  0.
         13    1    3    3    0    0 -0.23922492005E+02 -0.17513115783E+02  0.17729551272E+02  0.34544797010E+02  0.10566000000E+00 0. -1.
         22    1    1    0    0    0 -0.18839467343E+02 -0.22538981383E+02 -0.11455958878E+02  0.31530464719E+02  0.00000000000E+00 0.  1.
</event>
<event>
 5    1  0.1267616E-004  0.9118800E+02  0.7818608E-02  0.1130116E+00
         25   -1    0    0    0    0  0.00000000000E+00  0.00000000000E+00  0.99999998245E-14  0.12500000000E+03  0.12500000000E+03 0.  0.
        -13    1    3    3    0    0  0.34594382031E+02 -0.29213050280E+01  0.46418166867E+01  0.35026602995E+02  0.10566000000E+00 0.  1.
         23    2    1    0    0    0 -0.24713541702E+02  0.13175639097E+01  0.15957139659E+02  0.95553006534E+02  0.90902429194E+02 0.  0.
         13    1    3    3    0    0 -0.59307923733E+02  0.42388689377E+01  0.11315322972E+02  0.60526403539E+02  0.10566000000E+00 0. -1.
         22    1    1    0    0    0  0.24713541702E+02 -0.13175639097E+01 -0.15957139659E+02  0.29446993466E+02  0.00000000000E+00 0. -1.
</event>
<event>
 5    1  0.1267616E-004  0.9118800E+02  0.7818608E-02  0.1130116E+00
         25   -1    0    0    0    0  0.00000000000E+00  0.00000000000E+00  0.99999998245E-14  0.12500000000E+03  0.12500000000E+03 0.  0.
        -13    1    3    3    0    0 -0.33835700719E+02 -0.40422487746E+02 -0.22589171887E+01  0.52763112395E+02  0.10566000000E+00 0. -1.
         23    2    1    0    0    0  0.14239568830E+01 -0.16181464204E+02 -0.20129445310E+02  0.99133767080E+02  0.95699748014E+02 0.  0.
         13    1    3    3    0    0  0.35259657602E+02  0.24241023541E+02 -0.17870528121E+02  0.46370654685E+02  0.10566000000E+00 0.  1.
         22    1    1    0    0    0 -0.14239568830E+01  0.16181464204E+02  0.20129445310E+02  0.25866232920E+02  0.00000000000E+00 0. -1.
</event>
<event>
 5    1  0.1267616E-004  0.9118800E+02  0.7818608E-02  0.1130116E+00
         25   -1    0    0    0    0  0.00000000000E+00  0.00000000000E+00  0.99999998245E-14  0.12500000000E+03  0.12500000000E+03 0.  0.
        -13    1    3    3    0    0  0.40545656413E+02 -0.72046491357E+01 -0.96965002964E+01  0.42307097574E+02  0.10566000000E+00 0.  1.
         23    2    1    0    0    0  0.64914877336E+01  0.11063408675E+02  0.26690844771E+02  0.95386833687E+02  0.90673636861E+02 0.  0.
         13    1    3    3    0    0 -0.34054168680E+02  0.18268057811E+02  0.36387345067E+02  0.53079736112E+02  0.10566000000E+00 0. -1.
         22    1    1    0    0    0 -0.64914877336E+01 -0.11063408675E+02 -0.26690844771E+02  0.29613166313E+02  0.00000000000E+00 0. -1.
</event>
<event>
 5    1  0.1267616E-004  0.9118800E+02  0.7818608E-02  0.1130116E+00
         25   -1    0    0    0    0  0.00000000000E+00  0.00000000000E+00  0.99999998245E-14  0.12500000000E+03  0.12500000000E+03 0.  0.
        -13    1    3    3    0    0 -0.74363871143E+01  0.39089942336E+02 -0.39147199169E+02  0.55819690182E+02  0.10566000000E+00 0.  1.
         23    2    1    0    0    0  0.87476150907E+01  0.34174246080E+01 -0.26345452302E+02  0.97030687929E+02  0.92912173488E+02 0.  0.
         13    1    3    3    0    0  0.16184002205E+02 -0.35672517728E+02  0.12801746867E+02  0.41210997747E+02  0.10566000000E+00 0. -1.
         22    1    1    0    0    0 -0.87476150907E+01 -0.34174246080E+01  0.26345452302E+02  0.27969312071E+02  0.00000000000E+00 0.  1.
</event>
<event>
 5    1  0.1267616E-004  0.9118800E+02  0.7818608E-02  0.1130116E+00
         25   -1    0    0    0    0  0.00000000000E+00  0.00000000000E+00  0.99999998245E-14  0.12500000000E+03  0.12500000000E+03 0.  0.
        -13    1    3    3    0    0  0.54435890590E+02 -0.78358396577E+01  0.48746234377E+01  0.55212676852E+02  0.10566000000E+00 0. -1.
         23    2    1    0    0    0  0.23248143458E+02  0.10131882901E+02 -0.14186456518E+02  0.95941666016E+02  0.91435313222E+02 0.  0.
         13    1    3    3    0    0 -0.31187747132E+02  0.17967722559E+02 -0.19061079956E+02  0.40728989163E+02  0.10566000000E+00 0.  1.
         22    1    1    0    0    0 -0.23248143458E+02 -0.10131882901E+02  0.14186456518E+02  0.29058333984E+02  0.00000000000E+00 0. -1.
</event>
<event>
 5    1  0.1267616E-004  0.9118800E+02  0.7818608E-02  0.1130116E+00
         25   -1    0    0    0    0  0.00000000000E+00  0.00000000000E+00  0.99999998245E-14  0.12500000000E+03  0.12500000000E+03 0.  0.
        -13    1    3    3    0    0 -0.44103172003E+02  0.20467724003E+02  0.22229001519E+02  0.53461735654E+02  0.10566000000E+00 0.  1.
         23    2    1    0    0    0 -0.18699343119E+01  0.22845862965E+02  0.17770241034E+02  0.95996352379E+02  0.91510043682E+02 0.  0.
         13    1    3    3    0    0  0.42233237691E+02  0.23781389617E+01 -0.44587604845E+01  0.42534616724E+02  0.10566000000E+00 0. -1.
         22    1    1    0    0    0  0.18699343119E+01 -0.22845862965E+02 -0.17770241034E+02  0.29003647621E+02  0.00000000000E+00 0.  1.
</event>
<event>
 5    1  0.1267616E-004  0.9118800E+02  0.7818608E-02  0.1130116E+00
         25   -1    0    0    0    0  0.00000000000E+00  0.00000000000E+00  0.99999998245E-14  0.12500000000E+03  0.12500000000E+03 0.  0.
        -13    1    3    3    0    0  0.45511165572E+02 -0.39388467955E+00  0.35148174774E+02  0.57505014484E+02  0.10566000000E+00 0. -1.
         23    2    1    0    0    0  0.23254155534E+02  0.13249347930E+02  0.43398932977E+01  0.97886615040E+02  0.94056651864E+02 0.  0.
         13    1    3    3    0    0 -0.22257010038E+02  0.13643232609E+02 -0.30808281476E+02  0.40381600555E+02  0.10566000000E+00 0.  1.
         22    1    1    0    0    0 -0.23254155534E+02 -0.13249347930E+02 -0.43398932977E+01  0.27113384960E+02  0.00000000000E+00 0. -1.
</event>
<event>
 5    1  0.1267616E-004  0.9118800E+02  0.7818608E-02  0.1130116E+00
         25   -1    0    0    0    0  0.00000000000E+00  0.00000000000E+00  0.99999998245E-14  0.12500000000E+03  0.12500000000E+03 0.  0.
        -13    1    3    3    0    0 -0.70334251770E+01  0.34692336102E-01 -0.60486188372E+02  0.60893845511E+02  0.10566000000E+00 0.  1.
         23    2    1    0    0    0 -0.51348165850E+01 -0.96301105045E+01 -0.25000753087E+02  0.97721014964E+02  0.93836313551E+02 0.  0.
         13    1    3    3    0    0  0.18986085920E+01 -0.96648028406E+01  0.35485435285E+02  0.36827169453E+02  0.10566000000E+00 0. -1.
         22    1    1    0    0    0  0.51348165850E+01  0.96301105045E+01  0.25000753087E+02  0.27278985036E+02  0.00000000000E+00 0.  1.
</event>
<event>
 5    1  0.1267616E-004  0.9118800E+02  0.7818608E-02  0.1130116E+00
         25   -1    0    0    0    0  0.00000000000E+00  0.00000000000E+00  0.99999998245E-14  0.12500000000E+03  0.12500000000E+03 0.  0.
        -13    1    3    3    0    0  0.28874668918E+02 -0.78241971667E+01  0.22176280654E+02  0.37239268980E+02  0.10566000000E+00 0. -1.
         23    2    1    0    0    0 -0.24674728564E+02  0.12188271661E+02  0.10218383636E+02  0.95643372811E+02  0.91026607115E+02 0.  0.
         13    1    3    3    0    0 -0.53549397482E+02  0.20012468828E+02 -0.11957897018E+02  0.58404103832E+02  0.10566000000E+00 0.  1.
         22    1    1    0    0    0  0.24674728564E+02 -0.12188271661E+02 -0.10218383636E+02  0.29356627189E+02  0.00000000000E+00 0.  1.
</event>
<event>
 5    1  0.1267616E-004  0.9118800E+02  0.7818608E-02  0.1130116E+00
         25   -1    0    0    0    0  0.00000000000E+00  0.00000000000E+00  0.99999998245E-14  0.12500000000E+03  0.12500000000E+03 0.  0.
        -13    1    3    3    0    0  0.26705618373E+02  0.46120993450E+01  0.23085472334E+02  0.35600726256E+02  0.10566000000E+00 0.  1.
         23    2    1    0    0    0 -0.27948907555E+02 -0.92626622592E+01  0.32438842999E+01  0.95378029590E+02  0.90661498980E+02 0.  0.
         13    1    3    3    0    0 -0.54654525928E+02 -0.13874761604E+02 -0.19841588034E+02  0.59777303333E+02  0.10566000000E+00 0. -1.
         22    1    1    0    0    0  0.27948907555E+02  0.92626622592E+01 -0.32438842999E+01  0.29621970410E+02  0.00000000000E+00 0. -1.
</event>
<event>
 5    1  0.1267616E-004  0.9118800E+02  0.7818608E-02  0.1130116E+00
         25   -1    0    0    0    0  0.00000000000E+00  0.00000000000E+00  0.99999998245E-14  0.12500000000E+03  0.12500000000E+03 0.  0.
        -13    1    3    3    0    0 -0.63822520193E+01  0.40378865243E+02 -0.46383220200E+02  0.61827179940E+02  0.10566000000E+00 0. -1.
         23    2    1    0    0    0 -0.99057076718E+01  0.22785961085E+02 -0.29040169260E+02  0.86781490117E+02  0.77912595447E+02 0.  0.
         13    1    3    3    0    0 -0.35234556525E+01 -0.17592904158E+02  0.17343050940E+02  0.24954310177E+02  0.10566000000E+00 0.  1.
         22    1    1    0    0    0  0.99057076718E+01 -0.22785961085E+02  0.29040169260E+02  0.38218509883E+02  0.00000000000E+00 0. -1.
</event>
<event>
 5    1  0.1267616E-004  0.9118800E+02  0.7818608E-02  0.1130116E+00
         25   -1    0    0    0    0  0.00000000000E+00  0.00000000000E+00  0.99999998245E-14  0.12500000000E+03  0.12500000000E+03 0.  0.
        -13    1    3    3    0    0  0.27392749944E+01 -0.26395963648E+01  0.57880852432E+02  0.58005821594E+02  0.10566000000E+00 0. -1.
         23    2    1    0    0    0  0.10616320488E+02 -0.14814406895E+02  0.23963127956E+02  0.94893448989E+02  0.89990900913E+02 0.  0.
         13    1    3    3    0    0  0.78770454935E+01 -0.12174810530E+02 -0.33917724476E+02  0.36887627395E+02  0.10566000000E+00 0.  1.
         22    1    1    0    0    0 -0.10616320488E+02  0.14814406895E+02 -0.23963127956E+02  0.30106551011E+02  0.00000000000E+00 0. -1.
</event>
<event>
 5    1  0.1267616E-004  0.9118800E+02  0.7818608E-02  0.1130116E+00
         25   -1    0    0    0    0  0.00000000000E+00  0.00000000000E+00  0.99999998245E-14  0.12500000000E+03  0.12500000000E+03 0.  0.
        -13    1    3    3    0    0 -0.77328091446E+01  0.36986221977E+02  0.24184049022E+01  0.37863396569E+02  0.10566000000E+00 0.  1.
         23    2    1    0    0    0  0.12577536166E+02 -0.99789497253E+01 -0.24520873059E+02  0.95690495241E+02  0.91091293822E+02 0.  0.
         13    1    3    3    0    0  0.20310345311E+02 -0.46965171703E+02 -0.26939277961E+02  0.57827098672E+02  0.10566000000E+00 0. -1.
         22    1    1    0    0    0 -0.12577536166E+02  0.99789497253E+01  0.24520873059E+02  0.29309504759E+02  0.00000000000E+00 0. -1.
</event>
<event>
 5    1  0.1267616E-004  0.9118800E+02  0.7818608E-02  0.1130116E+00
         25   -1    0    0    0    0  0.00000000000E+00  0.00000000000E+00  0.99999998245E-14  0.12500000000E+03  0.12500000000E+03 0.  0.
        -13    1    3    3    0    0 -0.40712938295E+02 -0.18544202184E+02  0.76507923193E+01  0.45386964719E+02  0.10566000000E+00 0.  1.
         23    2    1    0    0    0 -0.16527452104E+01 -0.19352878364E+01 -0.25580493990E+02  0.99293219212E+02  0.95907793234E+02 0.  0.
         13    1    3    3    0    0  0.39060193085E+02  0.16608914348E+02 -0.33231286309E+02  0.53906254493E+02  0.10566000000E+00 0. -1.
         22    1    1    0    0    0  0.16527452104E+01  0.19352878364E+01  0.25580493990E+02  0.25706780788E+02  0.00000000000E+00 0. -1.
</event>
<event>
 5    1  0.1267616E-004  0.9118800E+02  0.7818608E-02  0.1130116E+00
         25   -1    0    0    0    0  0.00000000000E+00  0.00000000000E+00  0.99999998245E-14  0.12500000000E+03  0.12500000000E+03 0.  0.
        -13    1    3    3    0    0 -0.82377818264E+01 -0.26997375649E+02  0.85117496190E+01  0.29481865391E+02  0.10566000000E+00 0. -1.
         23    2    1    0    0    0 -0.12517902493E+01  0.33857599688E+02  0.26894212354E+01  0.91012693221E+02  0.84428510027E+02 0.  0.
         13    1    3    3    0    0  0.69859915771E+01  0.60854975337E+02 -0.58223283836E+01  0.61530827830E+02  0.10566000000E+00 0.  1.
         22    1    1    0    0    0  0.12517902493E+01 -0.33857599688E+02 -0.26894212354E+01  0.33987306779E+02  0.00000000000E+00 0.  1.
</event>
<event>
 5    1  0.1267616E-004  0.9118800E+02  0.7818608E-02  0.1130116E+00
         25   -1    0    0    0    0  0.00000000000E+00  0.00000000000E+00  0.99999998245E-14  0.12500000000E+03  0.12500000000E+03 0.  0.
        -13    1    3    3    0    0  0.27608194599E+02  0.34583507138E+02  0.13735265236E+02  0.46334652800E+02  0.10566000000E+00 0. -1.
         23    2    1    0    0    0  0.12429676173E+02  0.73242847548E+01 -0.25038285298E+02  0.96102634591E+02  0.91655107047E+02 0.  0.
         13    1    3    3    0    0 -0.15178518426E+02 -0.27259222383E+02 -0.38773550533E+02  0.49767981791E+02  0.10566000000E+00 0.  1.
         22    1    1    0    0    0 -0.12429676173E+02 -0.73242847548E+01  0.25038285298E+02  0.28897365409E+02  0.00000000000E+00 0. -1.
</event>
<event>
 5    1  0.1267616E-004  0.9118800E+02  0.7818608E-02  0.1130116E+00
         25   -1    0    0    0    0  0.00000000000E+00  0.00000000000E+00  0.99999998245E-14  0.12500000000E+03  0.12500000000E+03 0.  0.
        -13    1    3    3    0    0  0.53596913287E+02 -0.21451838125E+02  0.21663507903E+01  0.57771227377E+02  0.10566000000E+00 0. -1.
         23    2    1    0    0    0  0.27235303243E+02  0.52244442150E+01  0.88995795097E+01  0.95875112437E+02  0.91344283397E+02 0.  0.
         13    1    3    3    0    0 -0.26361610044E+02  0.26676282340E+02  0.67332287194E+01  0.38103885060E+02  0.10566000000E+00 0.  1.
         22    1    1    0    0    0 -0.27235303243E+02 -0.52244442150E+01 -0.88995795097E+01  0.29124887563E+02  0.00000000000E+00 0. -1.
</event>
<event>
 5    1  0.1267616E-004  0.9118800E+02  0.7818608E-02  0.1130116E+00
         25   -1    0    0    0    0  0.00000000000E+00  0.00000000000E+00  0.99999998245E-14  0.12500000000E+03  0.12500000000E+03 0.  0.
        -13    1    3    3    0    0  0.10687383622E+01 -0.42393189422E+02  0.21223067655E+02  0.47421034107E+02  0.10566000000E+00 0.  1.
         23    2    1    0    0    0  0.23518265257E+02  0.72012250065E+00  0.16508026380E+02  0.96257308544E+02  0.91865810485E+02 0.  0.
         13    1    3    3    0    0  0.22449526895E+02  0.43113311922E+02 -0.47150412744E+01  0.48836274438E+02  0.10566000000E+00 0. -1.
         22    1    1    0    0    0 -0.23518265257E+02 -0.72012250065E+00 -0.16508026380E+02  0.28742691456E+02  0.00000000000E+00 0.  1.
</event>
<event>
 5    1  0.1267616E-004  0.9118800E+02  0.7818608E-02  0.1130116E+00
         25   -1    0    0    0    0  0.00000000000E+00  0.00000000000E+00  0.99999998245E-14  0.12500000000E+03  0.12500000000E+03 0.  0.
        -13    1    3    3    0    0 -0.37760400084E+01 -0.12050593490E+02  0.36141034343E+02  0.38283949757E+02  0.10566000000E+00 0. -1.
         23    2    1    0    0    0  0.42646072825E+01  0.32282176249E+02  0.77874925934E+01  0.91519097689E+02  0.85174963589E+02 0.  0.
         13    1    3    3    0    0  0.80406472910E+01  0.44332769739E+02 -0.28353541750E+02  0.53235147932E+02  0.10566000000E+00 0.  1.
         22    1    1    0    0    0 -0.42646072825E+01 -0.32282176249E+02 -0.77874925934E+01  0.33480902311E+02  0.00000000000E+00 0.  1.
</event>
<event>
 5    1  0.1267616E-004  0.9118800E+02  0.7818608E-02  0.1130116E+00
         25   -1    0    0    0    0  0.00000000000E+00  0.00000000000E+00  0.99999998245E-14  0.12500000000E+03  0.12500000000E+03 0.  0.
        -13    1    3    3    0    0  0.34875460956E+02  0.22092786853E+02 -0.81918068100E+01  0.42089260753E+02  0.10566000000E+00 0.  1.
         23    2    1    0    0    0  0.13222593985E+02 -0.20115148041E+02  0.16739691133E+02  0.95679811876E+02  0.91076632399E+02 0.  0.
         13    1    3    3    0    0 -0.21652866971E+02 -0.42207934894E+02  0.24931497943E+02  0.53590551124E+02  0.10566000000E+00 0. -1.
         22    1    1    0    0    0 -0.13222593985E+02  0.20115148041E+02 -0.16739691133E+02  0.29320188124E+02  0.00000000000E+00 0.  1.
</event>
<event>
 5    1  0.1267616E-004  0.9118800E+02  0.7818608E-02  0.1130116E+00
         25   -1    0    0    0    0  0.00000000000E+00  0.00000000000E+00  0.99999998245E-14  0.12500000000E+03  0.12500000000E+03 0.  0.
        -13    1    3    3    0    0 -0.12484085903E+02  0.39989834699E+02  0.43945541376E+01  0.42123183049E+02  0.10566000000E+00 0. -1.
         23    2    1    0    0    0 -0.20300677550E+02 -0.95473830872E+01  0.20310102191E+02  0.94738303355E+02  0.89775140427E+02 0.  0.
         13    1    3    3    0    0 -0.78165916472E+01 -0.49537217786E+02  0.15915548054E+02  0.52615120306E+02  0.10566000000E+00 0.  1.
         22    1    1    0    0    0  0.20300677550E+02  0.95473830872E+01 -0.20310102191E+02  0.30261696645E+02  0.00000000000E+00 0.  1.
</event>
<event>
 5    1  0.1267616E-004  0.9118800E+02  0.7818608E-02  0.1130116E+00
         25   -1    0    0    0    0  0.00000000000E+00  0.00000000000E+00  0.99999998245E-14  0.12500000000E+03  0.12500000000E+03 0.  0.
        -13    1    3    3    0    0 -0.10364509560E+02  0.22301498836E+02 -0.36507575442E+02  0.44018111470E+02  0.10566000000E+00 0.  1.
         23    2    1    0    0    0  0.47271377816E+01 -0.22722603769E+02 -0.43012345068E+01  0.10139569590E+03  0.98609958805E+02 0.  0.
         13    1    3    3    0    0  0.15091647341E+02 -0.45024102605E+02  0.32206340935E+02  0.57377584432E+02  0.10566000000E+00 0. -1.
         22    1    1    0    0    0 -0.47271377816E+01  0.22722603769E+02  0.43012345068E+01  0.23604304098E+02  0.00000000000E+00 0. -1.
</event>
<event>
 5    1  0.1267616E-004  0.9118800E+02  0.7818608E-02  0.1130116E+00
         25   -1    0    0    0    0  0.00000000000E+00  0.00000000000E+00  0.99999998245E-14  0.12500000000E+03  0.12500000000E+03 0.  0.
        -13    1    3    3    0    0 -0.50668603389E+02 -0.15932439365E+02 -0.17610835363E+02  0.55958043923E+02  0.10566000000E+00 0. -1.
         23    2    1    0    0    0 -0.37639616193E+02 -0.74335155308E+01  0.78911655582E+01  0.85830262266E+02  0.76371235203E+02 0.  0.
         13    1    3    3    0    0  0.13028987196E+02  0.84989238340E+01  0.25502000921E+02  0.29872218343E+02  0.10566000000E+00 0.  1.
         22    1    1    0    0    0  0.37639616193E+02  0.74335155308E+01 -0.78911655582E+01  0.39169737734E+02  0.00000000000E+00 0. -1.
</event>
<event>
 5    1  0.1267616E-004  0.9118800E+02  0.7818608E-02  0.1130116E+00
         25   -1    0    0    0    0  0.00000000000E+00  0.00000000000E+00  0.99999998245E-14  0.12500000000E+03  0.12500000000E+03 0.  0.
        -13    1    3    3    0    0  0.41243623664E+02  0.30535124687E+02 -0.32830450850E+02  0.60920275768E+02  0.10566000000E+00 0.  1.
         23    2    1    0    0    0  0.18317504406E+02  0.69831423210E+01 -0.22014595925E+02  0.95522251136E+02  0.90860127581E+02 0.  0.
         13    1    3    3    0    0 -0.22926119258E+02 -0.23551982366E+02  0.10815854925E+02  0.34601975368E+02  0.10566000000E+00 0. -1.
         22    1    1    0    0    0 -0.18317504406E+02 -0.69831423210E+01  0.22014595925E+02  0.29477748864E+02  0.00000000000E+00 0.  1.
</event>
<event>
 5    1  0.1267616E-004  0.9118800E+02  0.7818608E-02  0.1130116E+00
         25   -1    0    0    0    0  0.00000000000E+00  0.00000000000E+00  0.99999998245E-14  0.12500000000E+03  0.12500000000E+03 0.  0.
        -13    1    3    3    0    0  0.18435826740E+02  0.51097135510E+02  0.63236212660E+01  0.54688173446E+02  0.10566000000E+00 0.  1.
         23    2    1    0    0    0 -0.65158636398E+00  0.16225583785E+02  0.22199853238E+02  0.97494952868E+02  0.93534689912E+02 0.  0.
         13    1    3    3    0    0 -0.19087413104E+02 -0.34871551725E+02  0.15876231972E+02  0.42806779421E+02  0.10566000000E+00 0. -1.
         22    1    1    0    0    0  0.65158636398E+00 -0.16225583785E+02 -0.22199853238E+02  0.27505047132E+02  0.00000000000E+00 0.  1.
</event>
<event>
 5    1  0.1267616E-004  0.9118800E+02  0.7818608E-02  0.1130116E+00
         25   -1    0    0    0    0  0.00000000000E+00  0.00000000000E+00  0.99999998245E-14  0.12500000000E+03  0.12500000000E+03 0.  0.
        -13    1    3    3    0    0 -0.33405688974E+02 -0.22971012727E+00 -0.19173293912E+01  0.33461621876E+02  0.10566000000E+00 0. -1.
         23    2    1    0    0    0  0.28116234220E+02 -0.12576628366E+01  0.78940008797E+01  0.95769543411E+02  0.91199703139E+02 0.  0.
         13    1    3    3    0    0  0.61521923194E+02 -0.10279527093E+01  0.98113302710E+01  0.62307921535E+02  0.10566000000E+00 0.  1.
         22    1    1    0    0    0 -0.28116234220E+02  0.12576628366E+01 -0.78940008797E+01  0.29230456589E+02  0.00000000000E+00 0.  1.
</event>
<event>
 5    1  0.1267616E-004  0.9118800E+02  0.7818608E-02  0.1130116E+00
         25   -1    0    0    0    0  0.00000000000E+00  0.00000000000E+00  0.99999998245E-14  0.12500000000E+03  0.12500000000E+03 0.  0.
        -13    1    3    3    0    0 -0.30302783222E+02 -0.15258702548E+02 -0.30587463309E+02  0.45680310312E+02  0.10566000000E+00 0. -1.
         23    2    1    0    0    0  0.15173523576E+02 -0.12961932462E+02 -0.27095834635E+02  0.91348376482E+02  0.84924049129E+02 0.  0.
         13    1    3    3    0    0  0.45476306798E+02  0.22967700857E+01  0.34916286745E+01  0.45668066170E+02  0.10566000000E+00 0.  1.
         22    1    1    0    0    0 -0.15173523576E+02  0.12961932462E+02  0.27095834635E+02  0.33651623518E+02  0.00000000000E+00 0. -1.
</event>
<event>
 5    1  0.1267616E-004  0.9118800E+02  0.7818608E-02  0.1130116E+00
         25   -1    0    0    0    0  0.00000000000E+00  0.00000000000E+00  0.99999998245E-14  0.12500000000E+03  0.12500000000E+03 0.  0.
        -13    1    3    3    0    0 -0.11079193023E+02  0.38012680553E+02 -0.33815076968E+02  0.52069021455E+02  0.10566000000E+00 0.  1.
         23    2    1    0    0    0 -0.22823621462E+02 -0.12221323080E+01 -0.17744588603E+02  0.96064179142E+02  0.91602646171E+02 0.  0.
         13    1    3    3    0    0 -0.11744428439E+02 -0.39234812861E+02  0.16070488365E+02  0.43995157687E+02  0.10566000000E+00 0. -1.
         22    1    1    0    0    0  0.22823621462E+02  0.12221323080E+01  0.17744588603E+02  0.28935820858E+02  0.00000000000E+00 0. -1.
</event>
<event>
 5    1  0.1267616E-004  0.9118800E+02  0.7818608E-02  0.1130116E+00
         25   -1    0    0    0    0  0.00000000000E+00  0.00000000000E+00  0.99999998245E-14  0.12500000000E+03  0.12500000000E+03 0.  0.
        -13    1    3    3    0    0  0.21167661017E+02 -0.27058816137E+02  0.51747415163E+02  0.62113247732E+02  0.10566000000E+00 0. -1.
         23    2    1    0    0    0  0.65871607818E+01 -0.15982608034E+02  0.27882853828E+02  0.92193171681E+02  0.86158533648E+02 0.  0.
         13    1    3    3    0    0 -0.14580500236E+02  0.11076208103E+02 -0.23864561335E+02  0.30079923950E+02  0.10566000000E+00 0.  1.
         22    1    1    0    0    0 -0.65871607818E+01  0.15982608034E+02 -0.27882853828E+02  0.32806828319E+02  0.00000000000E+00 0. -1.
</event>
<event>
 5    1  0.1267616E-004  0.9118800E+02  0.7818608E-02  0.1130116E+00
         25   -1    0    0    0    0  0.00000000000E+00  0.00000000000E+00  0.99999998245E-14  0.12500000000E+03  0.12500000000E+03 0.  0.
        -13    1    3    3    0    0 -0.42643512059E+02 -0.41790084541E+02  0.16319396261E+02  0.61896802381E+02  0.10566000000E+00 0.  1.
         23    2    1    0    0    0 -0.27726041205E+02 -0.24284408157E+02  0.41723351618E+01  0.87907221442E+02  0.79698214287E+02 0.  0.
         13    1    3    3    0    0  0.14917470854E+02  0.17505676383E+02 -0.12147061100E+02  0.26010419061E+02  0.10566000000E+00 0. -1.
         22    1    1    0    0    0  0.27726041205E+02  0.24284408157E+02 -0.41723351618E+01  0.37092778558E+02  0.00000000000E+00 0.  1.
</event>
<event>
 5    1  0.1267616E-004  0.9118800E+02  0.7818608E-02  0.1130116E+00
         25   -1    0    0    0    0  0.00000000000E+00  0.00000000000E+00  0.99999998245E-14  0.12500000000E+03  0.12500000000E+03 0.  0.
        -13    1    3    3    0    0  0.40095856132E+02  0.13588664067E+02  0.11989719696E+02  0.44001068311E+02  0.10566000000E+00 0.  1.
         23    2    1    0    0    0 -0.15138553741E+02  0.17568272313E+02  0.10864746515E+02  0.99390183166E+02  0.96034086613E+02 0.  0.
         13    1    3    3    0    0 -0.55234409873E+02  0.39796082457E+01 -0.11249731809E+01  0.55389114856E+02  0.10566000000E+00 0. -1.
         22    1    1    0    0    0  0.15138553741E+02 -0.17568272313E+02 -0.10864746515E+02  0.25609816834E+02  0.00000000000E+00 0. -1.
</event>
<event>
 5    1  0.1267616E-004  0.9118800E+02  0.7818608E-02  0.1130116E+00
         25   -1    0    0    0    0  0.00000000000E+00  0.00000000000E+00  0.99999998245E-14  0.12500000000E+03  0.12500000000E+03 0.  0.
        -13    1    3    3    0    0 -0.11876608779E+02  0.17629037874E+02  0.43694060067E+02  0.48590316542E+02  0.10566000000E+00 0.  1.
         23    2    1    0    0    0  0.12811943043E+02 -0.13767294564E+02  0.27489171483E+02  0.91693261449E+02  0.85430178287E+02 0.  0.
         13    1    3    3    0    0  0.24688551822E+02 -0.31396332437E+02 -0.16204888584E+02  0.43102944907E+02  0.10566000000E+00 0. -1.
         22    1    1    0    0    0 -0.12811943043E+02  0.13767294564E+02 -0.27489171483E+02  0.33306738551E+02  0.00000000000E+00 0. -1.
</event>
<event>
 5    1  0.1267616E-004  0.9118800E+02  0.7818608E-02  0.1130116E+00
         25   -1    0    0    0    0  0.00000000000E+00  0.00000000000E+00  0.99999998245E-14  0.12500000000E+03  0.12500000000E+03 0.  0.
        -13    1    3    3    0    0 -0.29668089007E+02 -0.33203417547E+01  0.54224883306E+02  0.61899671310E+02  0.10566000000E+00 0.  1.
         23    2    1    0    0    0 -0.10478417847E+02  0.31543781947E+01  0.27278125563E+02  0.95608785725E+02  0.90979098870E+02 0.  0.
         13    1    3    3    0    0  0.19189671161E+02  0.64747199494E+01 -0.26946757743E+02  0.33709114414E+02  0.10566000000E+00 0. -1.
         22    1    1    0    0    0  0.10478417847E+02 -0.31543781947E+01 -0.27278125563E+02  0.29391214275E+02  0.00000000000E+00 0.  1.
</event>
<event>
 5    1  0.1267616E-004  0.9118800E+02  0.7818608E-02  0.1130116E+00
         25   -1    0    0    0    0  0.00000000000E+00  0.00000000000E+00  0.99999998245E-14  0.12500000000E+03  0.12500000000E+03 0.  0.
        -13    1    3    3    0    0 -0.16765567777E+02  0.33483557536E+02 -0.34388042642E+02  0.50840746738E+02  0.10566000000E+00 0.  1.
         23    2    1    0    0    0  0.81930458813E+01 -0.36241819300E+01 -0.27486037810E+02  0.96090780537E+02  0.91638938962E+02 0.  0.
         13    1    3    3    0    0  0.24958613658E+02 -0.37107739466E+02  0.69020048312E+01  0.45250033798E+02  0.10566000000E+00 0. -1.
         22    1    1    0    0    0 -0.81930458813E+01  0.36241819300E+01  0.27486037810E+02  0.28909219463E+02  0.00000000000E+00 0.  1.
</event>
<event>
 5    1  0.1267616E-004  0.9118800E+02  0.7818608E-02  0.1130116E+00
         25   -1    0    0    0    0  0.00000000000E+00  0.00000000000E+00  0.99999998245E-14  0.12500000000E+03  0.12500000000E+03 0.  0.
        -13    1    3    3    0    0 -0.14122719070E+02  0.24052708543E+02 -0.27889918265E+02  0.39444171775E+02  0.10566000000E+00 0. -1.
         23    2    1    0    0    0  0.73869968149E+01  0.15437103548E+02  0.23565441846E+02  0.95876093372E+02  0.91345625746E+02 0.  0.
         13    1    3    3    0    0  0.21509715885E+02 -0.86156049952E+01  0.51455360111E+02  0.56431921597E+02  0.10566000000E+00 0.  1.
         22    1    1    0    0    0 -0.73869968149E+01 -0.15437103548E+02 -0.23565441846E+02  0.29123906628E+02  0.00000000000E+00 0.  1.
</event>
<event>
 5    1  0.1267616E-004  0.9118800E+02  0.7818608E-02  0.1130116E+00
         25   -1    0    0    0    0  0.00000000000E+00  0.00000000000E+00  0.99999998245E-14  0.12500000000E+03  0.12500000000E+03 0.  0.
        -13    1    3    3    0    0 -0.23782465003E+02  0.29847689872E+02  0.19889907569E+02  0.43036145500E+02  0.10566000000E+00 0.  1.
         23    2    1    0    0    0 -0.23709552812E+02 -0.10208398523E+02 -0.14114365939E+02  0.95579435410E+02  0.90938764300E+02 0.  0.
         13    1    3    3    0    0  0.72912191111E-01 -0.40056088395E+02 -0.34004273508E+02  0.52543289910E+02  0.10566000000E+00 0. -1.
         22    1    1    0    0    0  0.23709552812E+02  0.10208398523E+02  0.14114365939E+02  0.29420564590E+02  0.00000000000E+00 0. -1.
</event>
<event>
 5    1  0.1267616E-004  0.9118800E+02  0.7818608E-02  0.1130116E+00
         25   -1    0    0    0    0  0.00000000000E+00  0.00000000000E+00  0.99999998245E-14  0.12500000000E+03  0.12500000000E+03 0.  0.
        -13    1    3    3    0    0  0.58999284065E+02 -0.20250970334E+02 -0.38020427765E+01  0.62493871803E+02  0.10566000000E+00 0. -1.
         23    2    1    0    0    0  0.28589030692E+02 -0.10463624393E+02 -0.18920322705E+01  0.94497542764E+02  0.89439284942E+02 0.  0.
         13    1    3    3    0    0 -0.30410253373E+02  0.97873459407E+01  0.19100105060E+01  0.32003670961E+02  0.10566000000E+00 0.  1.
         22    1    1    0    0    0 -0.28589030692E+02  0.10463624393E+02  0.18920322705E+01  0.30502457236E+02  0.00000000000E+00 0. -1.
</event>
<event>
 5    1  0.1267616E-004  0.9118800E+02  0.7818608E-02  0.1130116E+00
         25   -1    0    0    0    0  0.00000000000E+00  0.00000000000E+00  0.99999998245E-14  0.12500000000E+03  0.12500000000E+03 0.  0.
        -13    1    3    3    0    0 -0.11146630277E+02  0.33369829357E+02  0.23324020288E+01  0.35259667343E+02  0.10566000000E+00 0. -1.
         23    2    1    0    0    0  0.75111839556E+01 -0.23636973800E+02  0.14223139474E+02  0.96409405194E+02  0.92072532813E+02 0.  0.
         13    1    3    3    0    0  0.18657814233E+02 -0.57006803158E+02  0.11890737445E+02  0.61149737851E+02  0.10566000000E+00 0.  1.
         22    1    1    0    0    0 -0.75111839556E+01  0.23636973800E+02 -0.14223139474E+02  0.28590594806E+02  0.00000000000E+00 0.  1.
</event>
<event>
 5    1  0.1267616E-004  0.9118800E+02  0.7818608E-02  0.1130116E+00
         25   -1    0    0    0    0  0.00000000000E+00  0.00000000000E+00  0.99999998245E-14  0.12500000000E+03  0.12500000000E+03 0.  0.
        -13    1    3    3    0    0  0.81629836644E+01 -0.27146851652E+02 -0.48525471889E+02  0.56198918522E+02  0.10566000000E+00 0.  1.
         23    2    1    0    0    0 -0.15599588602E+02 -0.15027752684E+02 -0.17213806577E+02  0.97332407908E+02  0.93317211580E+02 0.  0.
         13    1    3    3    0    0 -0.23762572266E+02  0.12119098968E+02  0.31311665312E+02  0.41133489387E+02  0.10566000000E+00 0. -1.
         22    1    1    0    0    0  0.15599588602E+02  0.15027752684E+02  0.17213806577E+02  0.27667592092E+02  0.00000000000E+00 0.  1.
</event>
<event>
 5    1  0.1267616E-004  0.9118800E+02  0.7818608E-02  0.1130116E+00
         25   -1    0    0    0    0  0.00000000000E+00  0.00000000000E+00  0.99999998245E-14  0.12500000000E+03  0.12500000000E+03 0.  0.
        -13    1    3    3    0    0 -0.22670059182E+02  0.21888691780E+02  0.71205973354E+01  0.32307282176E+02  0.10566000000E+00 0.  1.
         23    2    1    0    0    0  0.10386240361E+02 -0.20307255451E+02  0.27159616666E+02  0.89533066241E+02  0.82208676916E+02 0.  0.
         13    1    3    3    0    0  0.33056299543E+02 -0.42195947231E+02  0.20039019331E+02  0.57225784066E+02  0.10566000000E+00 0. -1.
         22    1    1    0    0    0 -0.10386240361E+02  0.20307255451E+02 -0.27159616666E+02  0.35466933759E+02  0.00000000000E+00 0. -1.
</event>
<event>
 5    1  0.1267616E-004  0.9118800E+02  0.7818608E-02  0.1130116E+00
         25   -1    0    0    0    0  0.00000000000E+00  0.00000000000E+00  0.99999998245E-14  0.12500000000E+03  0.12500000000E+03 0.  0.
        -13    1    3    3    0    0  0.26513005126E+02  0.16081683981E+02 -0.70210062887E+01  0.31794114137E+02  0.10566000000E+00 0.  1.
         23    2    1    0    0    0 -0.69104789996E+00 -0.34153097873E+02  0.58204933731E+01  0.90347586165E+02  0.83437980208E+02 0.  0.
         13    1    3    3    0    0 -0.27204053026E+02 -0.50234781853E+02  0.12841499662E+02  0.58553472027E+02  0.10566000000E+00 0. -1.
         22    1    1    0    0    0  0.69104789996E+00  0.34153097873E+02 -0.58204933731E+01  0.34652413835E+02  0.00000000000E+00 0.  1.
</event>
<event>
 5    1  0.1267616E-004  0.9118800E+02  0.7818608E-02  0.1130116E+00
         25   -1    0    0    0    0  0.00000000000E+00  0.00000000000E+00  0.99999998245E-14  0.12500000000E+03  0.12500000000E+03 0.  0.
        -13    1    3    3    0    0 -0.41904324059E+02  0.25608754382E+02 -0.81980522910E+01  0.49789556146E+02  0.10566000000E+00 0.  1.
         23    2    1    0    0    0 -0.15757410024E+02 -0.11724341125E+02 -0.20100477041E+02  0.96896880551E+02  0.92731980125E+02 0.  0.
         13    1    3    3    0    0  0.26146914035E+02 -0.37333095507E+02 -0.11902424750E+02  0.47107324405E+02  0.10566000000E+00 0. -1.
         22    1    1    0    0    0  0.15757410024E+02  0.11724341125E+02  0.20100477041E+02  0.28103119449E+02  0.00000000000E+00 0. -1.
</event>
<event>
 5    1  0.1267616E-004  0.9118800E+02  0.7818608E-02  0.1130116E+00
         25   -1    0    0    0    0  0.00000000000E+00  0.00000000000E+00  0.99999998245E-14  0.12500000000E+03  0.12500000000E+03 0.  0.
        -13    1    3    3    0    0 -0.26135316761E+02  0.17580473773E+02 -0.22526091830E+02  0.38724201960E+02  0.10566000000E+00 0.  1.
         23    2    1    0    0    0 -0.15420633305E+02 -0.10770207250E+02  0.24157546327E+02  0.94383332313E+02  0.89279522166E+02 0.  0.
         13    1    3    3    0    0  0.10714683456E+02 -0.28350681023E+02  0.46683638157E+02  0.55659130353E+02  0.10566000000E+00 0. -1.
         22    1    1    0    0    0  0.15420633305E+02  0.10770207250E+02 -0.24157546327E+02  0.30616667687E+02  0.00000000000E+00 0.  1.
</event>
<event>
 5    1  0.1267616E-004  0.9118800E+02  0.7818608E-02  0.1130116E+00
         25   -1    0    0    0    0  0.00000000000E+00  0.00000000000E+00  0.99999998245E-14  0.12500000000E+03  0.12500000000E+03 0.  0.
        -13    1    3    3    0    0 -0.18433745744E+02 -0.27845488755E+02 -0.87883810757E+00  0.33405953760E+02  0.10566000000E+00 0.  1.
         23    2    1    0    0    0  0.89868794266E+01  0.26672068800E+02 -0.10045349967E+02  0.95115684518E+02  0.90299064942E+02 0.  0.
         13    1    3    3    0    0  0.27420625171E+02  0.54517557555E+02 -0.91665118594E+01  0.61709730758E+02  0.10566000000E+00 0. -1.
         22    1    1    0    0    0 -0.89868794266E+01 -0.26672068800E+02  0.10045349967E+02  0.29884315482E+02  0.00000000000E+00 0. -1.
</event>
<event>
 5    1  0.1267616E-004  0.9118800E+02  0.7818608E-02  0.1130116E+00
         25   -1    0    0    0    0  0.00000000000E+00  0.00000000000E+00  0.99999998245E-14  0.12500000000E+03  0.12500000000E+03 0.  0.
        -13    1    3    3    0    0 -0.99673197410E+01  0.25934571484E+02 -0.24074821224E+02  0.36763536852E+02  0.10566000000E+00 0.  1.
         23    2    1    0    0    0  0.54226023208E+01 -0.26178002407E+02 -0.20669293720E+02  0.91207809647E+02  0.84716895669E+02 0.  0.
         13    1    3    3    0    0  0.15389922062E+02 -0.52112573891E+02  0.34055275035E+01  0.54444272795E+02  0.10566000000E+00 0. -1.
         22    1    1    0    0    0 -0.54226023208E+01  0.26178002407E+02  0.20669293720E+02  0.33792190353E+02  0.00000000000E+00 0. -1.
</event>
<event>
 5    1  0.1267616E-004  0.9118800E+02  0.7818608E-02  0.1130116E+00
         25   -1    0    0    0    0  0.00000000000E+00  0.00000000000E+00  0.99999998245E-14  0.12500000000E+03  0.12500000000E+03 0.  0.
        -13    1    3    3    0    0  0.43296377163E+02 -0.29790282202E+02  0.33508388100E+02  0.62328648520E+02  0.10566000000E+00 0. -1.
         23    2    1    0    0    0  0.22342026162E+02 -0.11702082056E+02  0.17445117778E+02  0.94333454845E+02  0.89209661535E+02 0.  0.
         13    1    3    3    0    0 -0.20954351001E+02  0.18088200147E+02 -0.16063270322E+02  0.32004806325E+02  0.10566000000E+00 0.  1.
         22    1    1    0    0    0 -0.22342026162E+02  0.11702082056E+02 -0.17445117778E+02  0.30666545155E+02  0.00000000000E+00 0. -1.
</event>
<event>
 5    1  0.1267616E-004  0.9118800E+02  0.7818608E-02  0.1130116E+00
         25   -1    0    0    0    0  0.00000000000E+00  0.00000000000E+00  0.99999998245E-14  0.12500000000E+03  0.12500000000E+03 0.  0.
        -13    1    3    3    0    0 -0.18301670527E+02  0.32358547649E+02  0.36655382746E+02  0.52207805914E+02  0.10566000000E+00 0. -1.
         23    2    1    0    0    0 -0.13024198161E+02  0.26125195065E+02 -0.56261437675E+01  0.95271073874E+02  0.90513913121E+02 0.  0.
         13    1    3    3    0    0  0.52774723656E+01 -0.62333525843E+01 -0.42281526514E+02  0.43063267960E+02  0.10566000000E+00 0.  1.
         22    1    1    0    0    0  0.13024198161E+02 -0.26125195065E+02  0.56261437675E+01  0.29728926126E+02  0.00000000000E+00 0.  1.
</event>
<event>
 5    1  0.1267616E-004  0.9118800E+02  0.7818608E-02  0.1130116E+00
         25   -1    0    0    0    0  0.00000000000E+00  0.00000000000E+00  0.99999998245E-14  0.12500000000E+03  0.12500000000E+03 0.  0.
        -13    1    3    3    0    0  0.14309295544E+02 -0.46109235881E+02  0.28904712905E+02  0.56269984580E+02  0.10566000000E+00 0.  1.
         23    2    1    0    0    0  0.12123859968E+01 -0.30942258078E+02 -0.29394283458E+01  0.93894800213E+02  0.88592889406E+02 0.  0.
         13    1    3    3    0    0 -0.13096909547E+02  0.15166977803E+02 -0.31844141251E+02  0.37624815633E+02  0.10566000000E+00 0. -1.
         22    1    1    0    0    0 -0.12123859968E+01  0.30942258078E+02  0.29394283458E+01  0.31105199787E+02  0.00000000000E+00 0.  1.
</event>
<event>
 5    1  0.1267616E-004  0.9118800E+02  0.7818608E-02  0.1130116E+00
         25   -1    0    0    0    0  0.00000000000E+00  0.00000000000E+00  0.99999998245E-14  0.12500000000E+03  0.12500000000E+03 0.  0.
        -13    1    3    3    0    0 -0.47479120210E+02  0.14775425048E+02  0.35246293507E+02  0.60949917237E+02  0.10566000000E+00 0.  1.
         23    2    1    0    0    0 -0.18165429377E+02  0.32140688380E+01  0.24683613096E+02  0.94184519825E+02  0.89000730088E+02 0.  0.
         13    1    3    3    0    0  0.29313690833E+02 -0.11561356210E+02 -0.10562680411E+02  0.33234602587E+02  0.10566000000E+00 0. -1.
         22    1    1    0    0    0  0.18165429377E+02 -0.32140688380E+01 -0.24683613096E+02  0.30815480175E+02  0.00000000000E+00 0.  1.
</event>
<event>
 5    1  0.1267616E-004  0.9118800E+02  0.7818608E-02  0.1130116E+00
         25   -1    0    0    0    0  0.00000000000E+00  0.00000000000E+00  0.99999998245E-14  0.12500000000E+03  0.12500000000E+03 0.  0.
        -13    1    3    3    0    0  0.22077045649E+02  0.12289887871E+02 -0.34028038097E+01  0.25495637397E+02  0.10566000000E+00 0.  1.
         23    2    1    0    0    0 -0.22620780506E+02  0.36137275999E+02 -0.18742508833E+02  0.78428720603E+02  0.63104517673E+02 0.  0.
         13    1    3    3    0    0 -0.44697826155E+02  0.23847388128E+02 -0.15339705023E+02  0.52933083206E+02  0.10566000000E+00 0. -1.
         22    1    1    0    0    0  0.22620780506E+02 -0.36137275999E+02  0.18742508833E+02  0.46571279397E+02  0.00000000000E+00 0. -1.
</event>
<event>
 5    1  0.1267616E-004  0.9118800E+02  0.7818608E-02  0.1130116E+00
         25   -1    0    0    0    0  0.00000000000E+00  0.00000000000E+00  0.99999998245E-14  0.12500000000E+03  0.12500000000E+03 0.  0.
        -13    1    3    3    0    0  0.28507744994E+02 -0.47691274457E+02 -0.25736544261E+02  0.61233406393E+02  0.10566000000E+00 0. -1.
         23    2    1    0    0    0  0.20560866072E+02 -0.20165572045E+02 -0.73443509864E+01  0.95278980487E+02  0.90524831520E+02 0.  0.
         13    1    3    3    0    0 -0.79468789219E+01  0.27525702412E+02  0.18392193274E+02  0.34045574094E+02  0.10566000000E+00 0.  1.
         22    1    1    0    0    0 -0.20560866072E+02  0.20165572045E+02  0.73443509864E+01  0.29721019513E+02  0.00000000000E+00 0. -1.
</event>
<event>
 5    1  0.1267616E-004  0.9118800E+02  0.7818608E-02  0.1130116E+00
         25   -1    0    0    0    0  0.00000000000E+00  0.00000000000E+00  0.99999998245E-14  0.12500000000E+03  0.12500000000E+03 0.  0.
        -13    1    3    3    0    0  0.74075879380E+01 -0.25545150120E+02  0.13654596068E+02  0.29897929887E+02  0.10566000000E+00 0. -1.
         23    2    1    0    0    0 -0.12348573919E+02  0.29862334352E+02 -0.64205648264E+01  0.92053529119E+02  0.85955699519E+02 0.  0.
         13    1    3    3    0    0 -0.19756161857E+02  0.55407484473E+02 -0.20075160894E+02  0.62155599232E+02  0.10566000000E+00 0.  1.
         22    1    1    0    0    0  0.12348573919E+02 -0.29862334352E+02  0.64205648264E+01  0.32946470881E+02  0.00000000000E+00 0.  1.
</event>
<event>
 5    1  0.1267616E-004  0.9118800E+02  0.7818608E-02  0.1130116E+00
         25   -1    0    0    0    0  0.00000000000E+00  0.00000000000E+00  0.99999998245E-14  0.12500000000E+03  0.12500000000E+03 0.  0.
        -13    1    3    3    0    0 -0.12957438284E+02  0.14899572269E+02  0.25239225923E+02  0.32045626065E+02  0.10566000000E+00 0.  1.
         23    2    1    0    0    0  0.15248275345E+02 -0.10842360817E+02 -0.24133876651E+02  0.94462961976E+02  0.89390941901E+02 0.  0.
         13    1    3    3    0    0  0.28205713630E+02 -0.25741933086E+02 -0.49373102574E+02  0.62417335911E+02  0.10566000000E+00 0. -1.
         22    1    1    0    0    0 -0.15248275345E+02  0.10842360817E+02  0.24133876651E+02  0.30537038024E+02  0.00000000000E+00 0. -1.
</event>
<event>
 5    1  0.1267616E-004  0.9118800E+02  0.7818608E-02  0.1130116E+00
         25   -1    0    0    0    0  0.00000000000E+00  0.00000000000E+00  0.99999998245E-14  0.12500000000E+03  0.12500000000E+03 0.  0.
        -13    1    3    3    0    0  0.51955879511E+01  0.50872212738E+02  0.26201278945E+02  0.57458631600E+02  0.10566000000E+00 0.  1.
         23    2    1    0    0    0 -0.14307962080E+02  0.29398907268E+02  0.94077166793E+01  0.90977674087E+02  0.84376646779E+02 0.  0.
         13    1    3    3    0    0 -0.19503550031E+02 -0.21473305470E+02 -0.16793562266E+02  0.33519042486E+02  0.10566000000E+00 0. -1.
         22    1    1    0    0    0  0.14307962080E+02 -0.29398907268E+02 -0.94077166793E+01  0.34022325913E+02  0.00000000000E+00 0.  1.
</event>
<event>
 5    1  0.1267616E-004  0.9118800E+02  0.7818608E-02  0.1130116E+00
         25   -1    0    0    0    0  0.00000000000E+00  0.00000000000E+00  0.99999998245E-14  0.12500000000E+03  0.12500000000E+03 0.  0.
        -13    1    3    3    0    0  0.36505941360E+02 -0.22082030999E+02  0.21588330542E+02  0.47815970420E+02  0.10566000000E+00 0.  1.
         23    2    1    0    0    0 -0.59594181710E+01 -0.28747285679E+02  0.63902663086E+00  0.95634553402E+02  0.91014495277E+02 0.  0.
         13    1    3    3    0    0 -0.42465359531E+02 -0.66652546803E+01 -0.20949303911E+02  0.47818582982E+02  0.10566000000E+00 0. -1.
         22    1    1    0    0    0  0.59594181710E+01  0.28747285679E+02 -0.63902663086E+00  0.29365446598E+02  0.00000000000E+00 0. -1.
</event>
<event>
 5    1  0.1267616E-004  0.9118800E+02  0.7818608E-02  0.1130116E+00
         25   -1    0    0    0    0  0.00000000000E+00  0.00000000000E+00  0.99999998245E-14  0.12500000000E+03  0.12500000000E+03 0.  0.
        -13    1    3    3    0    0 -0.72035532352E+01  0.10490003384E+02  0.40536428590E+02  0.42486992799E+02  0.10566000000E+00 0. -1.
         23    2    1    0    0    0  0.23343912042E+02 -0.16095741080E+02  0.53283445178E+01  0.96148615880E+02  0.91717795274E+02 0.  0.
         13    1    3    3    0    0  0.30547465278E+02 -0.26585744464E+02 -0.35208084073E+02  0.53661623081E+02  0.10566000000E+00 0.  1.
         22    1    1    0    0    0 -0.23343912042E+02  0.16095741080E+02 -0.53283445178E+01  0.28851384120E+02  0.00000000000E+00 0.  1.
</event>
<event>
 5    1  0.1267616E-004  0.9118800E+02  0.7818608E-02  0.1130116E+00
         25   -1    0    0    0    0  0.00000000000E+00  0.00000000000E+00  0.99999998245E-14  0.12500000000E+03  0.12500000000E+03 0.  0.
        -13    1    3    3    0    0  0.51559816333E+02 -0.10770175087E+02  0.29915913531E+02  0.60575443689E+02  0.10566000000E+00 0.  1.
         23    2    1    0    0    0  0.22164531887E+02 -0.15588878295E+02  0.11757437417E+02  0.95461602365E+02  0.90776652236E+02 0.  0.
         13    1    3    3    0    0 -0.29395284446E+02 -0.48187032079E+01 -0.18158476115E+02  0.34886158675E+02  0.10566000000E+00 0. -1.
         22    1    1    0    0    0 -0.22164531887E+02  0.15588878295E+02 -0.11757437417E+02  0.29538397635E+02  0.00000000000E+00 0.  1.
</event>
<event>
 5    1  0.1267616E-004  0.9118800E+02  0.7818608E-02  0.1130116E+00
         25   -1    0    0    0    0  0.00000000000E+00  0.00000000000E+00  0.99999998245E-14  0.12500000000E+03  0.12500000000E+03 0.  0.
        -13    1    3    3    0    0 -0.20912820119E+01 -0.18612732233E+02 -0.30067101775E+02  0.35423848390E+02  0.10566000000E+00 0. -1.
         23    2    1    0    0    0 -0.28287559493E+02 -0.66604776144E+01  0.17535942079E+02  0.91058031161E+02  0.84495608112E+02 0.  0.
         13    1    3    3    0    0 -0.26196277481E+02  0.11952254619E+02  0.47603043854E+02  0.55634182770E+02  0.10566000000E+00 0.  1.
         22    1    1    0    0    0  0.28287559493E+02  0.66604776144E+01 -0.17535942079E+02  0.33941968839E+02  0.00000000000E+00 0.  1.
</event>
<event>
 5    1  0.1267616E-004  0.9118800E+02  0.7818608E-02  0.1130116E+00
         25   -1    0    0    0    0  0.00000000000E+00  0.00000000000E+00  0.99999998245E-14  0.12500000000E+03  0.12500000000E+03 0.  0.
        -13    1    3    3    0    0 -0.29718363442E+02 -0.38207620281E+02 -0.22952064793E+02  0.53570624558E+02  0.10566000000E+00 0. -1.
         23    2    1    0    0    0 -0.16109564778E+02 -0.20702240091E+02  0.12933001846E+02  0.95753404320E+02  0.91177579919E+02 0.  0.
         13    1    3    3    0    0  0.13608798664E+02  0.17505380190E+02  0.35885066640E+02  0.42182779762E+02  0.10566000000E+00 0.  1.
         22    1    1    0    0    0  0.16109564778E+02  0.20702240091E+02 -0.12933001846E+02  0.29246595680E+02  0.00000000000E+00 0.  1.
</event>
<event>
 5    1  0.1267616E-004  0.9118800E+02  0.7818608E-02  0.1130116E+00
         25   -1    0    0    0    0  0.00000000000E+00  0.00000000000E+00  0.99999998245E-14  0.12500000000E+03  0.12500000000E+03 0.  0.
        -13    1    3    3    0    0 -0.11837949138E+02 -0.37466139789E+02  0.43919016874E+02  0.58929957388E+02  0.10566000000E+00 0. -1.
         23    2    1    0    0    0 -0.18732436491E+02 -0.23055221307E+02  0.15593632801E+02  0.91449906254E+02  0.85073359893E+02 0.  0.
         13    1    3    3    0    0 -0.68944873536E+01  0.14410918482E+02 -0.28325384073E+02  0.32519948866E+02  0.10566000000E+00 0.  1.
         22    1    1    0    0    0  0.18732436491E+02  0.23055221307E+02 -0.15593632801E+02  0.33550093746E+02  0.00000000000E+00 0. -1.
</event>
<event>
 5    1  0.1267616E-004  0.9118800E+02  0.7818608E-02  0.1130116E+00
         25   -1    0    0    0    0  0.00000000000E+00  0.00000000000E+00  0.99999998245E-14  0.12500000000E+03  0.12500000000E+03 0.  0.
        -13    1    3    3    0    0 -0.23336271691E+02  0.45912514193E+01  0.52504700504E+02  0.57640401674E+02  0.10566000000E+00 0.  1.
         23    2    1    0    0    0 -0.16053707383E+02  0.17140714123E+02  0.16962916965E+02  0.96029909332E+02  0.91555870008E+02 0.  0.
         13    1    3    3    0    0  0.72825643081E+01  0.12549462703E+02 -0.35541783539E+02  0.38389507658E+02  0.10566000000E+00 0. -1.
         22    1    1    0    0    0  0.16053707383E+02 -0.17140714123E+02 -0.16962916965E+02  0.28970090668E+02  0.00000000000E+00 0.  1.
</event>
<event>
 5    1  0.1267616E-004  0.9118800E+02  0.7818608E-02  0.1130116E+00
         25   -1    0    0    0    0  0.00000000000E+00  0.00000000000E+00  0.99999998245E-14  0.12500000000E+03  0.12500000000E+03 0.  0.
        -13    1    3    3    0    0  0.24751293279E+02 -0.69580103728E+01 -0.28596917263E+02  0.38455627265E+02  0.10566000000E+00 0.  1.
         23    2    1    0    0    0 -0.27787603066E+02 -0.52663879313E+01 -0.41996095187E+01  0.96407650567E+02  0.92070150656E+02 0.  0.
         13    1    3    3    0    0 -0.52538896345E+02  0.16916224416E+01  0.24397307745E+02  0.57952023302E+02  0.10566000000E+00 0. -1.
         22    1    1    0    0    0  0.27787603066E+02  0.52663879313E+01  0.41996095187E+01  0.28592349433E+02  0.00000000000E+00 0. -1.
</event>
<event>
 5    1  0.1267616E-004  0.9118800E+02  0.7818608E-02  0.1130116E+00
         25   -1    0    0    0    0  0.00000000000E+00  0.00000000000E+00  0.99999998245E-14  0.12500000000E+03  0.12500000000E+03 0.  0.
        -13    1    3    3    0    0 -0.60403062571E+01 -0.79549381547E+01  0.53829187658E+02  0.54748141052E+02  0.10566000000E+00 0.  1.
         23    2    1    0    0    0 -0.65894795960E+01  0.18005942451E+02  0.23049232097E+02  0.95018300495E+02  0.90164156536E+02 0.  0.
         13    1    3    3    0    0 -0.54917333898E+00  0.25960880606E+02 -0.30779955561E+02  0.40270159443E+02  0.10566000000E+00 0. -1.
         22    1    1    0    0    0  0.65894795960E+01 -0.18005942451E+02 -0.23049232097E+02  0.29981699505E+02  0.00000000000E+00 0.  1.
</event>
<event>
 5    1  0.1267616E-004  0.9118800E+02  0.7818608E-02  0.1130116E+00
         25   -1    0    0    0    0  0.00000000000E+00  0.00000000000E+00  0.99999998245E-14  0.12500000000E+03  0.12500000000E+03 0.  0.
        -13    1    3    3    0    0  0.32895439791E+02 -0.78292937742E+01 -0.71218208891E+01  0.34556320650E+02  0.10566000000E+00 0. -1.
         23    2    1    0    0    0 -0.21855619650E+02  0.23965927936E+01  0.18875276373E+02  0.96022632530E+02  0.91545934550E+02 0.  0.
         13    1    3    3    0    0 -0.54751059441E+02  0.10225886568E+02  0.25997097262E+02  0.61466311880E+02  0.10566000000E+00 0.  1.
         22    1    1    0    0    0  0.21855619650E+02 -0.23965927936E+01 -0.18875276373E+02  0.28977367470E+02  0.00000000000E+00 0.  1.
</event>
<event>
 5    1  0.1267616E-004  0.9118800E+02  0.7818608E-02  0.1130116E+00
         25   -1    0    0    0    0  0.00000000000E+00  0.00000000000E+00  0.99999998245E-14  0.12500000000E+03  0.12500000000E+03 0.  0.
        -13    1    3    3    0    0 -0.31558365514E+02  0.40882491157E+02  0.24882003853E+02  0.57327426219E+02  0.10566000000E+00 0. -1.
         23    2    1    0    0    0 -0.28722421938E+01  0.13336346016E+02 -0.82212050808E+01  0.10907215918E+03  0.10790291838E+03 0.  0.
         13    1    3    3    0    0  0.28686123320E+02 -0.27546145141E+02 -0.33103208934E+02  0.51744732959E+02  0.10566000000E+00 0.  1.
         22    1    1    0    0    0  0.28722421938E+01 -0.13336346016E+02  0.82212050808E+01  0.15927840822E+02  0.00000000000E+00 0. -1.
</event>
<event>
 5    1  0.1267616E-004  0.9118800E+02  0.7818608E-02  0.1130116E+00
         25   -1    0    0    0    0  0.00000000000E+00  0.00000000000E+00  0.99999998245E-14  0.12500000000E+03  0.12500000000E+03 0.  0.
        -13    1    3    3    0    0 -0.34913432854E+02  0.34406636574E+02  0.38422660713E+02  0.62282232252E+02  0.10566000000E+00 0.  1.
         23    2    1    0    0    0 -0.15718541025E+02  0.14055991487E+02  0.21006616583E+02  0.95235568729E+02  0.90464867115E+02 0.  0.
         13    1    3    3    0    0  0.19194891829E+02 -0.20350645087E+02 -0.17416044130E+02  0.32953336477E+02  0.10566000000E+00 0. -1.
         22    1    1    0    0    0  0.15718541025E+02 -0.14055991487E+02 -0.21006616583E+02  0.29764431271E+02  0.00000000000E+00 0.  1.
</event>
<event>
 5    1  0.1267616E-004  0.9118800E+02  0.7818608E-02  0.1130116E+00
         25   -1    0    0    0    0  0.00000000000E+00  0.00000000000E+00  0.99999998245E-14  0.12500000000E+03  0.12500000000E+03 0.  0.
        -13    1    3    3    0    0  0.45310984043E+01 -0.54245057705E+02  0.87047422191E+01  0.55125682212E+02  0.10566000000E+00 0.  1.
         23    2    1    0    0    0  0.21274637878E+02 -0.16104322492E+02  0.91794643937E+01  0.96782594266E+02  0.92577797374E+02 0.  0.
         13    1    3    3    0    0  0.16743539474E+02  0.38140735213E+02  0.47472217457E+00  0.41656912054E+02  0.10566000000E+00 0. -1.
         22    1    1    0    0    0 -0.21274637878E+02  0.16104322492E+02 -0.91794643937E+01  0.28217405734E+02  0.00000000000E+00 0.  1.
</event>
<event>
 5    1  0.1267616E-004  0.9118800E+02  0.7818608E-02  0.1130116E+00
         25   -1    0    0    0    0  0.00000000000E+00  0.00000000000E+00  0.99999998245E-14  0.12500000000E+03  0.12500000000E+03 0.  0.
        -13    1    3    3    0    0  0.75006553688E+01 -0.57762976523E+02  0.10954455128E+02  0.59269153351E+02  0.10566000000E+00 0.  1.
         23    2    1    0    0    0 -0.64215774251E+01 -0.27061289805E+02 -0.52878687132E+01  0.96689019479E+02  0.92451364889E+02 0.  0.
         13    1    3    3    0    0 -0.13922232794E+02  0.30701686718E+02 -0.16242323841E+02  0.37419866129E+02  0.10566000000E+00 0. -1.
         22    1    1    0    0    0  0.64215774251E+01  0.27061289805E+02  0.52878687132E+01  0.28310980521E+02  0.00000000000E+00 0.  1.
</event>
<event>
 5    1  0.1267616E-004  0.9118800E+02  0.7818608E-02  0.1130116E+00
         25   -1    0    0    0    0  0.00000000000E+00  0.00000000000E+00  0.99999998245E-14  0.12500000000E+03  0.12500000000E+03 0.  0.
        -13    1    3    3    0    0 -0.15166550420E+02 -0.29023725622E+02  0.26234281149E+02  0.41960094996E+02  0.10566000000E+00 0. -1.
         23    2    1    0    0    0 -0.79202676447E+01  0.23531339896E+02  0.14334373854E+02  0.96330698114E+02  0.91965616012E+02 0.  0.
         13    1    3    3    0    0  0.72462827754E+01  0.52555065518E+02 -0.11899907295E+02  0.54370603118E+02  0.10566000000E+00 0.  1.
         22    1    1    0    0    0  0.79202676447E+01 -0.23531339896E+02 -0.14334373854E+02  0.28669301886E+02  0.00000000000E+00 0.  1.
</event>
<event>
 5    1  0.1267616E-004  0.9118800E+02  0.7818608E-02  0.1130116E+00
         25   -1    0    0    0    0  0.00000000000E+00  0.00000000000E+00  0.99999998245E-14  0.12500000000E+03  0.12500000000E+03 0.  0.
        -13    1    3    3    0    0 -0.35767289361E+02 -0.15106388394E+02  0.13577760656E+02  0.41132331651E+02  0.10566000000E+00 0.  1.
         23    2    1    0    0    0  0.18327140464E+02 -0.21542814022E+02  0.44160674060E+01  0.96373463973E+02  0.92023725165E+02 0.  0.
         13    1    3    3    0    0  0.54094429825E+02 -0.64364256273E+01 -0.91616932502E+01  0.55241132322E+02  0.10566000000E+00 0. -1.
         22    1    1    0    0    0 -0.18327140464E+02  0.21542814022E+02 -0.44160674060E+01  0.28626536027E+02  0.00000000000E+00 0. -1.
</event>
<event>
 5    1  0.1267616E-004  0.9118800E+02  0.7818608E-02  0.1130116E+00
         25   -1    0    0    0    0  0.00000000000E+00  0.00000000000E+00  0.99999998245E-14  0.12500000000E+03  0.12500000000E+03 0.  0.
        -13    1    3    3    0    0 -0.26584845590E+02  0.72334970213E+01  0.27127982720E+02  0.38665438116E+02  0.10566000000E+00 0.  1.
         23    2    1    0    0    0 -0.72444471406E+01 -0.21094418850E+02 -0.18690290985E+02  0.95900455363E+02  0.91378957319E+02 0.  0.
         13    1    3    3    0    0  0.19340398450E+02 -0.28327915871E+02 -0.45818273706E+02  0.57235017246E+02  0.10566000000E+00 0. -1.
         22    1    1    0    0    0  0.72444471406E+01  0.21094418850E+02  0.18690290985E+02  0.29099544637E+02  0.00000000000E+00 0. -1.
</event>
<event>
 5    1  0.1267616E-004  0.9118800E+02  0.7818608E-02  0.1130116E+00
         25   -1    0    0    0    0  0.00000000000E+00  0.00000000000E+00  0.99999998245E-14  0.12500000000E+03  0.12500000000E+03 0.  0.
        -13    1    3    3    0    0  0.22710229465E+02  0.46491205807E+01  0.29886695480E+02  0.37823201547E+02  0.10566000000E+00 0. -1.
         23    2    1    0    0    0 -0.28037965938E+02 -0.13928021973E+01  0.19941776429E+00  0.96926752961E+02  0.92772238521E+02 0.  0.
         13    1    3    3    0    0 -0.50748195403E+02 -0.60419227781E+01 -0.29687277716E+02  0.59103551414E+02  0.10566000000E+00 0.  1.
         22    1    1    0    0    0  0.28037965938E+02  0.13928021973E+01 -0.19941776429E+00  0.28073247039E+02  0.00000000000E+00 0.  1.
</event>
<event>
 5    1  0.1267616E-004  0.9118800E+02  0.7818608E-02  0.1130116E+00
         25   -1    0    0    0    0  0.00000000000E+00  0.00000000000E+00  0.99999998245E-14  0.12500000000E+03  0.12500000000E+03 0.  0.
        -13    1    3    3    0    0 -0.24121305688E+02 -0.33090235938E+02 -0.13427514197E+02  0.43094203834E+02  0.10566000000E+00 0. -1.
         23    2    1    0    0    0 -0.20421487330E+02  0.17801277300E+02 -0.14782832682E+02  0.94138134205E+02  0.88935558419E+02 0.  0.
         13    1    3    3    0    0  0.36998183585E+01  0.50891513237E+02 -0.13553184843E+01  0.51043930371E+02  0.10566000000E+00 0.  1.
         22    1    1    0    0    0  0.20421487330E+02 -0.17801277300E+02  0.14782832682E+02  0.30861865795E+02  0.00000000000E+00 0.  1.
</event>
<event>
 5    1  0.1267616E-004  0.9118800E+02  0.7818608E-02  0.1130116E+00
         25   -1    0    0    0    0  0.00000000000E+00  0.00000000000E+00  0.99999998245E-14  0.12500000000E+03  0.12500000000E+03 0.  0.
        -13    1    3    3    0    0  0.89352375196E+01  0.28978058160E+02 -0.27621575355E+02  0.41018641048E+02  0.10566000000E+00 0.  1.
         23    2    1    0    0    0  0.30452973722E+01 -0.24432810303E+02 -0.14836968705E+02  0.96253318526E+02  0.91860381186E+02 0.  0.
         13    1    3    3    0    0 -0.58899401474E+01 -0.53410868463E+02  0.12784606650E+02  0.55234677479E+02  0.10566000000E+00 0. -1.
         22    1    1    0    0    0 -0.30452973722E+01  0.24432810303E+02  0.14836968705E+02  0.28746681474E+02  0.00000000000E+00 0. -1.
</event>
<event>
 5    1  0.1267616E-004  0.9118800E+02  0.7818608E-02  0.1130116E+00
         25   -1    0    0    0    0  0.00000000000E+00  0.00000000000E+00  0.99999998245E-14  0.12500000000E+03  0.12500000000E+03 0.  0.
        -13    1    3    3    0    0  0.38545052187E+02 -0.28269015266E+02  0.19242415555E+02  0.51528050542E+02  0.10566000000E+00 0. -1.
         23    2    1    0    0    0  0.20350261011E+02 -0.12387732342E+02 -0.17459412963E+02  0.95463240922E+02  0.90778908512E+02 0.  0.
         13    1    3    3    0    0 -0.18194791176E+02  0.15881282923E+02 -0.36701828518E+02  0.43935190381E+02  0.10566000000E+00 0.  1.
         22    1    1    0    0    0 -0.20350261011E+02  0.12387732342E+02  0.17459412963E+02  0.29536759078E+02  0.00000000000E+00 0.  1.
</event>
<event>
 5    1  0.1267616E-004  0.9118800E+02  0.7818608E-02  0.1130116E+00
         25   -1    0    0    0    0  0.00000000000E+00  0.00000000000E+00  0.99999998245E-14  0.12500000000E+03  0.12500000000E+03 0.  0.
        -13    1    3    3    0    0 -0.33936142358E+02 -0.12659913118E+02  0.85419566757E+01  0.37214397028E+02  0.10566000000E+00 0. -1.
         23    2    1    0    0    0  0.76513959173E+01  0.13994581097E+02 -0.23867491368E+02  0.96293741034E+02  0.91915370089E+02 0.  0.
         13    1    3    3    0    0  0.41587538275E+02  0.26654494216E+02 -0.32409448044E+02  0.59079344006E+02  0.10566000000E+00 0.  1.
         22    1    1    0    0    0 -0.76513959173E+01 -0.13994581097E+02  0.23867491368E+02  0.28706258966E+02  0.00000000000E+00 0.  1.
</event>
<event>
 5    1  0.1267616E-004  0.9118800E+02  0.7818608E-02  0.1130116E+00
         25   -1    0    0    0    0  0.00000000000E+00  0.00000000000E+00  0.99999998245E-14  0.12500000000E+03  0.12500000000E+03 0.  0.
        -13    1    3    3    0    0 -0.49647021194E+01  0.34574632959E+02  0.20600490120E+02  0.40551755432E+02  0.10566000000E+00 0.  1.
         23    2    1    0    0    0 -0.25139187663E+02 -0.14364473677E+02  0.78790466530E+01  0.94993396784E+02  0.90129624409E+02 0.  0.
         13    1    3    3    0    0 -0.20174485544E+02 -0.48939106636E+02 -0.12721443467E+02  0.54441641353E+02  0.10566000000E+00 0. -1.
         22    1    1    0    0    0  0.25139187663E+02  0.14364473677E+02 -0.78790466530E+01  0.30006603216E+02  0.00000000000E+00 0. -1.
</event>
<event>
 4    1  0.1267616E-004  0.9118800E+02  0.7818608E-02  0.1130116E+00
         25   -1    0    0    0    0  0.00000000000E+00  0.00000000000E+00  0.99999998245E-14  0.12500000000E+03  0.12500000000E+03 0.  0.
        -13    1    1    0    0    0  0.93314288471E+01 -0.64134900365E+01  0.10673675463E+02  0.15561071001E+02  0.10566000000E+00 0.  1.
         13    1    1    0    0    0  0.25834274572E+02  0.41248445070E+02  0.18400821340E+02  0.52033117852E+02  0.10566000000E+00 0. -1.
         22    1    1    0    0    0 -0.35165703419E+02 -0.34834955034E+02 -0.29074496802E+02  0.57405811147E+02  0.00000000000E+00 0.  1.
</event>
<event>
 5    1  0.1267616E-004  0.9118800E+02  0.7818608E-02  0.1130116E+00
         25   -1    0    0    0    0  0.00000000000E+00  0.00000000000E+00  0.99999998245E-14  0.12500000000E+03  0.12500000000E+03 0.  0.
        -13    1    3    3    0    0 -0.22251353234E+02 -0.42412820502E+02 -0.28117232743E+02  0.55538815299E+02  0.10566000000E+00 0.  1.
         23    2    1    0    0    0 -0.95070377672E+01 -0.70165686469E+01 -0.29537911719E+02  0.93186414358E+02  0.87587690856E+02 0.  0.
         13    1    3    3    0    0  0.12744315467E+02  0.35396251855E+02 -0.14206789765E+01  0.37647599059E+02  0.10566000000E+00 0. -1.
         22    1    1    0    0    0  0.95070377672E+01  0.70165686469E+01  0.29537911719E+02  0.31813585642E+02  0.00000000000E+00 0.  1.
</event>
<event>
 5    1  0.1267616E-004  0.9118800E+02  0.7818608E-02  0.1130116E+00
         25   -1    0    0    0    0  0.00000000000E+00  0.00000000000E+00  0.99999998245E-14  0.12500000000E+03  0.12500000000E+03 0.  0.
        -13    1    3    3    0    0 -0.25329258166E+02 -0.16464674909E+02 -0.15711806926E+02  0.34051855750E+02  0.10566000000E+00 0.  1.
         23    2    1    0    0    0  0.18417429007E+02  0.23212555623E+02  0.73645138553E+00  0.95359372637E+02  0.90635771963E+02 0.  0.
         13    1    3    3    0    0  0.43746687173E+02  0.39677230533E+02  0.16448258311E+02  0.61307516887E+02  0.10566000000E+00 0. -1.
         22    1    1    0    0    0 -0.18417429007E+02 -0.23212555623E+02 -0.73645138553E+00  0.29640627363E+02  0.00000000000E+00 0. -1.
</event>
<event>
 5    1  0.1267616E-004  0.9118800E+02  0.7818608E-02  0.1130116E+00
         25   -1    0    0    0    0  0.00000000000E+00  0.00000000000E+00  0.99999998245E-14  0.12500000000E+03  0.12500000000E+03 0.  0.
        -13    1    3    3    0    0 -0.14066867458E+02  0.13366678090E+02  0.41891807800E+02  0.46167949576E+02  0.10566000000E+00 0. -1.
         23    2    1    0    0    0  0.24554180093E+02 -0.31865231295E+01  0.15720915093E+02  0.95670682568E+02  0.91064101829E+02 0.  0.
         13    1    3    3    0    0  0.38621047551E+02 -0.16553201220E+02 -0.26170892707E+02  0.49502732992E+02  0.10566000000E+00 0.  1.
         22    1    1    0    0    0 -0.24554180093E+02  0.31865231295E+01 -0.15720915093E+02  0.29329317432E+02  0.00000000000E+00 0.  1.
</event>
<event>
 5    1  0.1267616E-004  0.9118800E+02  0.7818608E-02  0.1130116E+00
         25   -1    0    0    0    0  0.00000000000E+00  0.00000000000E+00  0.99999998245E-14  0.12500000000E+03  0.12500000000E+03 0.  0.
        -13    1    3    3    0    0 -0.56640409389E+02  0.60689748129E+01 -0.25073830167E+02  0.62238866910E+02  0.10566000000E+00 0.  1.
         23    2    1    0    0    0 -0.29962655640E+02  0.10395819933E+01 -0.16868065234E+02  0.90599809761E+02  0.83814989353E+02 0.  0.
         13    1    3    3    0    0  0.26677753748E+02 -0.50293928197E+01  0.82057649332E+01  0.28360942851E+02  0.10566000000E+00 0. -1.
         22    1    1    0    0    0  0.29962655640E+02 -0.10395819933E+01  0.16868065234E+02  0.34400190239E+02  0.00000000000E+00 0.  1.
</event>
<event>
 5    1  0.1267616E-004  0.9118800E+02  0.7818608E-02  0.1130116E+00
         25   -1    0    0    0    0  0.00000000000E+00  0.00000000000E+00  0.99999998245E-14  0.12500000000E+03  0.12500000000E+03 0.  0.
        -13    1    3    3    0    0  0.45065854707E+02  0.37079400376E+02  0.14727698589E+02  0.60189114153E+02  0.10566000000E+00 0.  1.
         23    2    1    0    0    0  0.27409133084E+02  0.73245113988E+01  0.88229226114E+01  0.95288840362E+02  0.90538445373E+02 0.  0.
         13    1    3    3    0    0 -0.17656721623E+02 -0.29754888978E+02 -0.59047759777E+01  0.35099726209E+02  0.10566000000E+00 0. -1.
         22    1    1    0    0    0 -0.27409133084E+02 -0.73245113988E+01 -0.88229226114E+01  0.29711159638E+02  0.00000000000E+00 0.  1.
</event>
<event>
 5    1  0.1267616E-004  0.9118800E+02  0.7818608E-02  0.1130116E+00
         25   -1    0    0    0    0  0.00000000000E+00  0.00000000000E+00  0.99999998245E-14  0.12500000000E+03  0.12500000000E+03 0.  0.
        -13    1    3    3    0    0 -0.48274476255E+02 -0.19319007496E+02 -0.46636023960E+01  0.52205454309E+02  0.10566000000E+00 0.  1.
         23    2    1    0    0    0 -0.17866316869E+02 -0.82269264929E+01  0.22965831568E+02  0.94762324534E+02  0.89808580512E+02 0.  0.
         13    1    3    3    0    0  0.30408159386E+02  0.11092081003E+02  0.27629433964E+02  0.42556870225E+02  0.10566000000E+00 0. -1.
         22    1    1    0    0    0  0.17866316869E+02  0.82269264929E+01 -0.22965831568E+02  0.30237675466E+02  0.00000000000E+00 0. -1.
</event>
<event>
 5    1  0.1267616E-004  0.9118800E+02  0.7818608E-02  0.1130116E+00
         25   -1    0    0    0    0  0.00000000000E+00  0.00000000000E+00  0.99999998245E-14  0.12500000000E+03  0.12500000000E+03 0.  0.
        -13    1    3    3    0    0 -0.42598469663E+02  0.12961379133E+02  0.32731751519E+02  0.55263058983E+02  0.10566000000E+00 0.  1.
         23    2    1    0    0    0 -0.50603550610E+01 -0.60767125730E+00  0.29226879460E+02  0.95332055334E+02  0.90598089569E+02 0.  0.
         13    1    3    3    0    0  0.37538114602E+02 -0.13569050390E+02 -0.35048720586E+01  0.40068996351E+02  0.10566000000E+00 0. -1.
         22    1    1    0    0    0  0.50603550610E+01  0.60767125730E+00 -0.29226879460E+02  0.29667944666E+02  0.00000000000E+00 0.  1.
</event>
<event>
 5    1  0.1267616E-004  0.9118800E+02  0.7818608E-02  0.1130116E+00
         25   -1    0    0    0    0  0.00000000000E+00  0.00000000000E+00  0.99999998245E-14  0.12500000000E+03  0.12500000000E+03 0.  0.
        -13    1    3    3    0    0  0.16426162061E+02 -0.20666846883E+02 -0.23706200533E+02  0.35481438357E+02  0.10566000000E+00 0.  1.
         23    2    1    0    0    0 -0.24437865904E+02 -0.10505003033E+02  0.16496388810E+02  0.93699916575E+02  0.88317490587E+02 0.  0.
         13    1    3    3    0    0 -0.40864027965E+02  0.10161843850E+02  0.40202589344E+02  0.58218478217E+02  0.10566000000E+00 0. -1.
         22    1    1    0    0    0  0.24437865904E+02  0.10505003033E+02 -0.16496388810E+02  0.31300083425E+02  0.00000000000E+00 0. -1.
</event>
<event>
 5    1  0.1267616E-004  0.9118800E+02  0.7818608E-02  0.1130116E+00
         25   -1    0    0    0    0  0.00000000000E+00  0.00000000000E+00  0.99999998245E-14  0.12500000000E+03  0.12500000000E+03 0.  0.
        -13    1    3    3    0    0  0.56084589245E+02 -0.19954870990E+02  0.80339000230E+01  0.60068566994E+02  0.10566000000E+00 0.  1.
         23    2    1    0    0    0  0.34795179799E+02 -0.24268663957E+01 -0.34688314663E+01  0.89948223875E+02  0.82837527539E+02 0.  0.
         13    1    3    3    0    0 -0.21289409446E+02  0.17528004594E+02 -0.11502731489E+02  0.29879656882E+02  0.10566000000E+00 0. -1.
         22    1    1    0    0    0 -0.34795179799E+02  0.24268663957E+01  0.34688314663E+01  0.35051776125E+02  0.00000000000E+00 0.  1.
</event>
<event>
 5    1  0.1267616E-004  0.9118800E+02  0.7818608E-02  0.1130116E+00
         25   -1    0    0    0    0  0.00000000000E+00  0.00000000000E+00  0.99999998245E-14  0.12500000000E+03  0.12500000000E+03 0.  0.
        -13    1    3    3    0    0  0.20561435059E+02  0.82452965074E+01  0.40982975806E+02  0.46587262166E+02  0.10566000000E+00 0. -1.
         23    2    1    0    0    0 -0.92411502590E+01 -0.22317044041E+02  0.15378186528E+02  0.96365441618E+02  0.92012827391E+02 0.  0.
         13    1    3    3    0    0 -0.29802585318E+02 -0.30562340549E+02 -0.25604789279E+02  0.49778179451E+02  0.10566000000E+00 0.  1.
         22    1    1    0    0    0  0.92411502590E+01  0.22317044041E+02 -0.15378186528E+02  0.28634558382E+02  0.00000000000E+00 0. -1.
</event>
<event>
 5    1  0.1267616E-004  0.9118800E+02  0.7818608E-02  0.1130116E+00
         25   -1    0    0    0    0  0.00000000000E+00  0.00000000000E+00  0.99999998245E-14  0.12500000000E+03  0.12500000000E+03 0.  0.
        -13    1    3    3    0    0  0.35810365867E+02  0.36312801542E+02  0.14462931971E+01  0.51020630998E+02  0.10566000000E+00 0.  1.
         23    2    1    0    0    0  0.19493201983E+02  0.46845604788E+01 -0.23220297108E+02  0.94322447487E+02  0.89194236763E+02 0.  0.
         13    1    3    3    0    0 -0.16317163884E+02 -0.31628241064E+02 -0.24666590305E+02  0.43301816489E+02  0.10566000000E+00 0. -1.
         22    1    1    0    0    0 -0.19493201983E+02 -0.46845604788E+01  0.23220297108E+02  0.30677552513E+02  0.00000000000E+00 0.  1.
</event>
<event>
 5    1  0.1267616E-004  0.9118800E+02  0.7818608E-02  0.1130116E+00
         25   -1    0    0    0    0  0.00000000000E+00  0.00000000000E+00  0.99999998245E-14  0.12500000000E+03  0.12500000000E+03 0.  0.
        -13    1    3    3    0    0 -0.43319339432E+02 -0.47368657168E+01 -0.43732695392E+02  0.61737856101E+02  0.10566000000E+00 0. -1.
         23    2    1    0    0    0 -0.33281665607E+02  0.24406797504E+01 -0.32019570206E+02  0.78751983184E+02  0.63741633146E+02 0.  0.
         13    1    3    3    0    0  0.10037673825E+02  0.71775454672E+01  0.11713125187E+02  0.17014127084E+02  0.10566000000E+00 0.  1.
         22    1    1    0    0    0  0.33281665607E+02 -0.24406797504E+01  0.32019570206E+02  0.46248016816E+02  0.00000000000E+00 0. -1.
</event>
<event>
 5    1  0.1267616E-004  0.9118800E+02  0.7818608E-02  0.1130116E+00
         25   -1    0    0    0    0  0.00000000000E+00  0.00000000000E+00  0.99999998245E-14  0.12500000000E+03  0.12500000000E+03 0.  0.
        -13    1    3    3    0    0  0.53827207193E+02  0.24013114398E+02 -0.19026424359E+02  0.61935562362E+02  0.10566000000E+00 0.  1.
         23    2    1    0    0    0  0.25774966687E+02  0.52776991071E+01 -0.67014517648E+01  0.97850184691E+02  0.94008223963E+02 0.  0.
         13    1    3    3    0    0 -0.28052240506E+02 -0.18735415291E+02  0.12324972594E+02  0.35914622329E+02  0.10566000000E+00 0. -1.
         22    1    1    0    0    0 -0.25774966687E+02 -0.52776991071E+01  0.67014517648E+01  0.27149815309E+02  0.00000000000E+00 0.  1.
</event>
<event>
 5    1  0.1267616E-004  0.9118800E+02  0.7818608E-02  0.1130116E+00
         25   -1    0    0    0    0  0.00000000000E+00  0.00000000000E+00  0.99999998245E-14  0.12500000000E+03  0.12500000000E+03 0.  0.
        -13    1    3    3    0    0 -0.46570112105E+01  0.21145887195E+02  0.40068642317E+02  0.45544961959E+02  0.10566000000E+00 0. -1.
         23    2    1    0    0    0 -0.15200969070E+02  0.12972208784E+02 -0.13587289673E+02  0.10083469218E+03  0.97896236112E+02 0.  0.
         13    1    3    3    0    0 -0.10543957860E+02 -0.81736784113E+01 -0.53655931990E+02  0.55289730220E+02  0.10566000000E+00 0.  1.
         22    1    1    0    0    0  0.15200969070E+02 -0.12972208784E+02  0.13587289673E+02  0.24165307820E+02  0.00000000000E+00 0.  1.
</event>
<event>
 5    1  0.1267616E-004  0.9118800E+02  0.7818608E-02  0.1130116E+00
         25   -1    0    0    0    0  0.00000000000E+00  0.00000000000E+00  0.99999998245E-14  0.12500000000E+03  0.12500000000E+03 0.  0.
        -13    1    3    3    0    0  0.32350225678E+02  0.15989819095E+02  0.30132277283E+02  0.47012516571E+02  0.10566000000E+00 0. -1.
         23    2    1    0    0    0  0.23889019153E+02 -0.22905277388E+01 -0.15181975438E+02  0.96602392150E+02  0.92334165060E+02 0.  0.
         13    1    3    3    0    0 -0.84612065242E+01 -0.18280346834E+02 -0.45314252721E+02  0.49589875578E+02  0.10566000000E+00 0.  1.
         22    1    1    0    0    0 -0.23889019153E+02  0.22905277388E+01  0.15181975438E+02  0.28397607850E+02  0.00000000000E+00 0.  1.
</event>
<event>
 5    1  0.1267616E-004  0.9118800E+02  0.7818608E-02  0.1130116E+00
         25   -1    0    0    0    0  0.00000000000E+00  0.00000000000E+00  0.99999998245E-14  0.12500000000E+03  0.12500000000E+03 0.  0.
        -13    1    3    3    0    0 -0.30523816156E+02  0.72948540162E+01 -0.25960672848E+02  0.40729423598E+02  0.10566000000E+00 0. -1.
         23    2    1    0    0    0  0.15992033853E+02  0.25126063890E+02 -0.48952136700E+01  0.94816770381E+02  0.89884328975E+02 0.  0.
         13    1    3    3    0    0  0.46515850009E+02  0.17831209874E+02  0.21065459178E+02  0.54087346783E+02  0.10566000000E+00 0.  1.
         22    1    1    0    0    0 -0.15992033853E+02 -0.25126063890E+02  0.48952136700E+01  0.30183229619E+02  0.00000000000E+00 0. -1.
</event>
<event>
 5    1  0.1267616E-004  0.9118800E+02  0.7818608E-02  0.1130116E+00
         25   -1    0    0    0    0  0.00000000000E+00  0.00000000000E+00  0.99999998245E-14  0.12500000000E+03  0.12500000000E+03 0.  0.
        -13    1    3    3    0    0  0.33422372476E+02 -0.43375592696E+00 -0.22818419806E+02  0.40471404381E+02  0.10566000000E+00 0. -1.
         23    2    1    0    0    0 -0.13806190683E+02  0.24361137741E+02 -0.64886006113E+01  0.96256689977E+02  0.91864968808E+02 0.  0.
         13    1    3    3    0    0 -0.47228563159E+02  0.24794893668E+02  0.16329819195E+02  0.55785285596E+02  0.10566000000E+00 0.  1.
         22    1    1    0    0    0  0.13806190683E+02 -0.24361137741E+02  0.64886006113E+01  0.28743310023E+02  0.00000000000E+00 0.  1.
</event>
<event>
 5    1  0.1267616E-004  0.9118800E+02  0.7818608E-02  0.1130116E+00
         25   -1    0    0    0    0  0.00000000000E+00  0.00000000000E+00  0.99999998245E-14  0.12500000000E+03  0.12500000000E+03 0.  0.
        -13    1    3    3    0    0  0.37555854096E+02  0.32586206158E+02  0.18009354870E+01  0.49754975041E+02  0.10566000000E+00 0.  1.
         23    2    1    0    0    0  0.24815217966E+02 -0.99192466297E+01 -0.11243985513E+02  0.96006660996E+02  0.91524123863E+02 0.  0.
         13    1    3    3    0    0 -0.12740636130E+02 -0.42505452788E+02 -0.13044921000E+02  0.46251685954E+02  0.10566000000E+00 0. -1.
         22    1    1    0    0    0 -0.24815217966E+02  0.99192466297E+01  0.11243985513E+02  0.28993339004E+02  0.00000000000E+00 0. -1.
</event>
<event>
 5    1  0.1267616E-004  0.9118800E+02  0.7818608E-02  0.1130116E+00
         25   -1    0    0    0    0  0.00000000000E+00  0.00000000000E+00  0.99999998245E-14  0.12500000000E+03  0.12500000000E+03 0.  0.
        -13    1    3    3    0    0  0.21341863278E+02 -0.19816165186E+00 -0.84171468486E+01  0.22942840306E+02  0.10566000000E+00 0. -1.
         23    2    1    0    0    0 -0.27379401221E+02  0.18353364832E+02 -0.30993843674E+02  0.79755155458E+02  0.65679440197E+02 0.  0.
         13    1    3    3    0    0 -0.48721264500E+02  0.18551526484E+02 -0.22576696825E+02  0.56812315152E+02  0.10566000000E+00 0.  1.
         22    1    1    0    0    0  0.27379401221E+02 -0.18353364832E+02  0.30993843674E+02  0.45244844542E+02  0.00000000000E+00 0.  1.
</event>
<event>
 5    1  0.1267616E-004  0.9118800E+02  0.7818608E-02  0.1130116E+00
         25   -1    0    0    0    0  0.00000000000E+00  0.00000000000E+00  0.99999998245E-14  0.12500000000E+03  0.12500000000E+03 0.  0.
        -13    1    3    3    0    0  0.75604413515E+01 -0.26789855207E+02  0.29973592077E+02  0.40905794229E+02  0.10566000000E+00 0.  1.
         23    2    1    0    0    0  0.21475097261E+02  0.12862477649E+02 -0.91753027317E+01  0.98338992632E+02  0.94655946237E+02 0.  0.
         13    1    3    3    0    0  0.13914655910E+02  0.39652332856E+02 -0.39148894809E+02  0.57433198403E+02  0.10566000000E+00 0. -1.
         22    1    1    0    0    0 -0.21475097261E+02 -0.12862477649E+02  0.91753027317E+01  0.26661007368E+02  0.00000000000E+00 0. -1.
</event>
<event>
 5    1  0.1267616E-004  0.9118800E+02  0.7818608E-02  0.1130116E+00
         25   -1    0    0    0    0  0.00000000000E+00  0.00000000000E+00  0.99999998245E-14  0.12500000000E+03  0.12500000000E+03 0.  0.
        -13    1    3    3    0    0  0.24612858821E+02 -0.38527605089E+02 -0.31793108054E+02  0.55686462062E+02  0.10566000000E+00 0. -1.
         23    2    1    0    0    0  0.25257004243E+02 -0.23628977096E+01 -0.14539557505E+02  0.95761356370E+02  0.91188481139E+02 0.  0.
         13    1    3    3    0    0  0.64414542164E+00  0.36164707379E+02  0.17253550549E+02  0.40074894307E+02  0.10566000000E+00 0.  1.
         22    1    1    0    0    0 -0.25257004243E+02  0.23628977096E+01  0.14539557505E+02  0.29238643630E+02  0.00000000000E+00 0. -1.
</event>
<event>
 5    1  0.1267616E-004  0.9118800E+02  0.7818608E-02  0.1130116E+00
         25   -1    0    0    0    0  0.00000000000E+00  0.00000000000E+00  0.99999998245E-14  0.12500000000E+03  0.12500000000E+03 0.  0.
        -13    1    3    3    0    0  0.53318275321E+02 -0.19224946283E+02  0.26184216596E+02  0.62434456878E+02  0.10566000000E+00 0.  1.
         23    2    1    0    0    0  0.25551113463E+02 -0.75307142276E+01  0.10906971317E+02  0.96215749458E+02  0.91809244439E+02 0.  0.
         13    1    3    3    0    0 -0.27767161858E+02  0.11694232056E+02 -0.15277245279E+02  0.33781292580E+02  0.10566000000E+00 0. -1.
         22    1    1    0    0    0 -0.25551113463E+02  0.75307142276E+01 -0.10906971317E+02  0.28784250542E+02  0.00000000000E+00 0.  1.
</event>
<event>
 5    1  0.1267616E-004  0.9118800E+02  0.7818608E-02  0.1130116E+00
         25   -1    0    0    0    0  0.00000000000E+00  0.00000000000E+00  0.99999998245E-14  0.12500000000E+03  0.12500000000E+03 0.  0.
        -13    1    3    3    0    0  0.23906795925E+02 -0.46163678162E+02  0.23298780363E+02  0.56968977551E+02  0.10566000000E+00 0.  1.
         23    2    1    0    0    0  0.12953479782E+02 -0.63685868564E+01  0.22519620181E+02  0.98251451813E+02  0.94540271595E+02 0.  0.
         13    1    3    3    0    0 -0.10953316142E+02  0.39795091306E+02 -0.77916018134E+00  0.41282474262E+02  0.10566000000E+00 0. -1.
         22    1    1    0    0    0 -0.12953479782E+02  0.63685868564E+01 -0.22519620181E+02  0.26748548187E+02  0.00000000000E+00 0.  1.
</event>
<event>
 5    1  0.1267616E-004  0.9118800E+02  0.7818608E-02  0.1130116E+00
         25   -1    0    0    0    0  0.00000000000E+00  0.00000000000E+00  0.99999998245E-14  0.12500000000E+03  0.12500000000E+03 0.  0.
        -13    1    3    3    0    0  0.27141162631E+01  0.47681396196E+02  0.30822096696E+02  0.56840960399E+02  0.10566000000E+00 0. -1.
         23    2    1    0    0    0 -0.27862047577E+01  0.37720397979E+02  0.28141046399E+01  0.87072298441E+02  0.78377768597E+02 0.  0.
         13    1    3    3    0    0 -0.55003210208E+01 -0.99609982172E+01 -0.28007992056E+02  0.30231338043E+02  0.10566000000E+00 0.  1.
         22    1    1    0    0    0  0.27862047577E+01 -0.37720397979E+02 -0.28141046399E+01  0.37927701559E+02  0.00000000000E+00 0. -1.
</event>
<event>
 5    1  0.1267616E-004  0.9118800E+02  0.7818608E-02  0.1130116E+00
         25   -1    0    0    0    0  0.00000000000E+00  0.00000000000E+00  0.99999998245E-14  0.12500000000E+03  0.12500000000E+03 0.  0.
        -13    1    3    3    0    0  0.17241658807E+02  0.21485904660E+02  0.34716232671E+02  0.44318696646E+02  0.10566000000E+00 0.  1.
         23    2    1    0    0    0 -0.23447594301E+02 -0.44427014545E+01  0.16924700837E+02  0.95742987624E+02  0.91163298021E+02 0.  0.
         13    1    3    3    0    0 -0.40689253108E+02 -0.25928606115E+02 -0.17791531834E+02  0.51424290978E+02  0.10566000000E+00 0. -1.
         22    1    1    0    0    0  0.23447594301E+02  0.44427014545E+01 -0.16924700837E+02  0.29257012376E+02  0.00000000000E+00 0. -1.
</event>
<event>
 5    1  0.1267616E-004  0.9118800E+02  0.7818608E-02  0.1130116E+00
         25   -1    0    0    0    0  0.00000000000E+00  0.00000000000E+00  0.99999998245E-14  0.12500000000E+03  0.12500000000E+03 0.  0.
        -13    1    3    3    0    0 -0.19527011524E+02 -0.11866237406E+02 -0.21685822562E+02  0.31502346475E+02  0.10566000000E+00 0.  1.
         23    2    1    0    0    0  0.16684175866E+02 -0.17879027803E+00  0.26979779208E+02  0.93277733744E+02  0.87717919698E+02 0.  0.
         13    1    3    3    0    0  0.36211187391E+02  0.11687447128E+02  0.48665601769E+02  0.61775387269E+02  0.10566000000E+00 0. -1.
         22    1    1    0    0    0 -0.16684175866E+02  0.17879027803E+00 -0.26979779208E+02  0.31722266256E+02  0.00000000000E+00 0. -1.
</event>
<event>
 5    1  0.1267616E-004  0.9118800E+02  0.7818608E-02  0.1130116E+00
         25   -1    0    0    0    0  0.00000000000E+00  0.00000000000E+00  0.99999998245E-14  0.12500000000E+03  0.12500000000E+03 0.  0.
        -13    1    3    3    0    0 -0.11039702329E+02  0.54465051571E+02  0.22182990042E+02  0.59836553054E+02  0.10566000000E+00 0. -1.
         23    2    1    0    0    0  0.47563453428E+01  0.29819924622E+02  0.34119256527E+01  0.94610989451E+02  0.89597697307E+02 0.  0.
         13    1    3    3    0    0  0.15796047672E+02 -0.24645126949E+02 -0.18771064389E+02  0.34774436397E+02  0.10566000000E+00 0.  1.
         22    1    1    0    0    0 -0.47563453428E+01 -0.29819924622E+02 -0.34119256527E+01  0.30389010549E+02  0.00000000000E+00 0. -1.
</event>
<event>
 5    1  0.1267616E-004  0.9118800E+02  0.7818608E-02  0.1130116E+00
         25   -1    0    0    0    0  0.00000000000E+00  0.00000000000E+00  0.99999998245E-14  0.12500000000E+03  0.12500000000E+03 0.  0.
        -13    1    3    3    0    0  0.57863041867E+02 -0.40074697911E+01 -0.19292737248E+02  0.61126199806E+02  0.10566000000E+00 0. -1.
         23    2    1    0    0    0  0.25879186484E+02 -0.10947300206E+02 -0.74674194919E+01  0.95925302603E+02  0.91412940280E+02 0.  0.
         13    1    3    3    0    0 -0.31983855383E+02 -0.69398304153E+01  0.11825317756E+02  0.34799102796E+02  0.10566000000E+00 0.  1.
         22    1    1    0    0    0 -0.25879186484E+02  0.10947300206E+02  0.74674194919E+01  0.29074697397E+02  0.00000000000E+00 0. -1.
</event>
<event>
 5    1  0.1267616E-004  0.9118800E+02  0.7818608E-02  0.1130116E+00
         25   -1    0    0    0    0  0.00000000000E+00  0.00000000000E+00  0.99999998245E-14  0.12500000000E+03  0.12500000000E+03 0.  0.
        -13    1    3    3    0    0  0.39954039219E+01  0.56692619311E+02 -0.21404393748E+02  0.60730351329E+02  0.10566000000E+00 0.  1.
         23    2    1    0    0    0 -0.82491217122E+01  0.24604251098E+02 -0.12416157692E+02  0.96232341894E+02  0.91831832571E+02 0.  0.
         13    1    3    3    0    0 -0.12244525634E+02 -0.32088368213E+02  0.89882360564E+01  0.35501990564E+02  0.10566000000E+00 0. -1.
         22    1    1    0    0    0  0.82491217122E+01 -0.24604251098E+02  0.12416157692E+02  0.28767658106E+02  0.00000000000E+00 0.  1.
</event>
<event>
 5    1  0.1267616E-004  0.9118800E+02  0.7818608E-02  0.1130116E+00
         25   -1    0    0    0    0  0.00000000000E+00  0.00000000000E+00  0.99999998245E-14  0.12500000000E+03  0.12500000000E+03 0.  0.
        -13    1    3    3    0    0 -0.33232062754E+01  0.10707322751E+02  0.32728176436E+02  0.34595305423E+02  0.10566000000E+00 0. -1.
         23    2    1    0    0    0  0.77377451028E+01  0.36111146988E+01 -0.27481464135E+02  0.96222513667E+02  0.91818453574E+02 0.  0.
         13    1    3    3    0    0  0.11060951378E+02 -0.70962080518E+01 -0.60209640572E+02  0.61627208244E+02  0.10566000000E+00 0.  1.
         22    1    1    0    0    0 -0.77377451028E+01 -0.36111146988E+01  0.27481464135E+02  0.28777486333E+02  0.00000000000E+00 0.  1.
</event>
<event>
 5    1  0.1267616E-004  0.9118800E+02  0.7818608E-02  0.1130116E+00
         25   -1    0    0    0    0  0.00000000000E+00  0.00000000000E+00  0.99999998245E-14  0.12500000000E+03  0.12500000000E+03 0.  0.
        -13    1    3    3    0    0 -0.10890449224E+02  0.25589737821E+02 -0.53663522585E+02  0.60441884371E+02  0.10566000000E+00 0.  1.
         23    2    1    0    0    0 -0.15341397638E+02  0.76056025169E+01 -0.22079444693E+02  0.97058891413E+02  0.92950109485E+02 0.  0.
         13    1    3    3    0    0 -0.44509484133E+01 -0.17984135304E+02  0.31584077892E+02  0.36617007042E+02  0.10566000000E+00 0. -1.
         22    1    1    0    0    0  0.15341397638E+02 -0.76056025169E+01  0.22079444693E+02  0.27941108587E+02  0.00000000000E+00 0.  1.
</event>
<event>
 5    1  0.1267616E-004  0.9118800E+02  0.7818608E-02  0.1130116E+00
         25   -1    0    0    0    0  0.00000000000E+00  0.00000000000E+00  0.99999998245E-14  0.12500000000E+03  0.12500000000E+03 0.  0.
        -13    1    3    3    0    0 -0.28672806872E+02 -0.22901724921E+02 -0.30131343498E+02  0.47481868996E+02  0.10566000000E+00 0.  1.
         23    2    1    0    0    0  0.12951724373E+02  0.10040363214E+01 -0.26338039353E+02  0.95632542328E+02  0.91011733210E+02 0.  0.
         13    1    3    3    0    0  0.41624531245E+02  0.23905761243E+02  0.37933041449E+01  0.48150673332E+02  0.10566000000E+00 0. -1.
         22    1    1    0    0    0 -0.12951724373E+02 -0.10040363214E+01  0.26338039353E+02  0.29367457672E+02  0.00000000000E+00 0. -1.
</event>
<event>
 5    1  0.1267616E-004  0.9118800E+02  0.7818608E-02  0.1130116E+00
         25   -1    0    0    0    0  0.00000000000E+00  0.00000000000E+00  0.99999998245E-14  0.12500000000E+03  0.12500000000E+03 0.  0.
        -13    1    3    3    0    0  0.45638696429E+02  0.28422977450E+02  0.23615689143E+02  0.58723659598E+02  0.10566000000E+00 0.  1.
         23    2    1    0    0    0  0.11685986194E+02  0.25192912369E+02  0.92936304529E+01  0.95714906968E+02  0.91124786649E+02 0.  0.
         13    1    3    3    0    0 -0.33952710236E+02 -0.32300650814E+01 -0.14322058690E+02  0.36991247369E+02  0.10566000000E+00 0. -1.
         22    1    1    0    0    0 -0.11685986194E+02 -0.25192912369E+02 -0.92936304529E+01  0.29285093032E+02  0.00000000000E+00 0.  1.
</event>
<event>
 5    1  0.1267616E-004  0.9118800E+02  0.7818608E-02  0.1130116E+00
         25   -1    0    0    0    0  0.00000000000E+00  0.00000000000E+00  0.99999998245E-14  0.12500000000E+03  0.12500000000E+03 0.  0.
        -13    1    3    3    0    0  0.79548885268E+01  0.40570582583E+02 -0.43735417805E+02  0.60183472459E+02  0.10566000000E+00 0. -1.
         23    2    1    0    0    0  0.13745408070E+02  0.20498479034E+02 -0.13693027066E+02  0.96775491573E+02  0.92568206708E+02 0.  0.
         13    1    3    3    0    0  0.57905195436E+01 -0.20072103549E+02  0.30042390739E+02  0.36592019114E+02  0.10566000000E+00 0.  1.
         22    1    1    0    0    0 -0.13745408070E+02 -0.20498479034E+02  0.13693027066E+02  0.28224508427E+02  0.00000000000E+00 0. -1.
</event>
<event>
 5    1  0.1267616E-004  0.9118800E+02  0.7818608E-02  0.1130116E+00
         25   -1    0    0    0    0  0.00000000000E+00  0.00000000000E+00  0.99999998245E-14  0.12500000000E+03  0.12500000000E+03 0.  0.
        -13    1    3    3    0    0  0.10874943545E+02 -0.33067687252E+02 -0.24578724698E+02  0.42612923029E+02  0.10566000000E+00 0.  1.
         23    2    1    0    0    0  0.15961793755E+02  0.19092617644E+02 -0.15159102225E+02  0.95860588739E+02  0.91324406292E+02 0.  0.
         13    1    3    3    0    0  0.50868502104E+01  0.52160304896E+02  0.94196224731E+01  0.53247665709E+02  0.10566000000E+00 0. -1.
         22    1    1    0    0    0 -0.15961793755E+02 -0.19092617644E+02  0.15159102225E+02  0.29139411261E+02  0.00000000000E+00 0. -1.
</event>
<event>
 5    1  0.1267616E-004  0.9118800E+02  0.7818608E-02  0.1130116E+00
         25   -1    0    0    0    0  0.00000000000E+00  0.00000000000E+00  0.99999998245E-14  0.12500000000E+03  0.12500000000E+03 0.  0.
        -13    1    3    3    0    0 -0.47510541497E+02  0.74746072701E+01 -0.94190418284E+01  0.49008681070E+02  0.10566000000E+00 0. -1.
         23    2    1    0    0    0 -0.45335697624E+01  0.24589444165E+02 -0.15370599869E+02  0.95649542432E+02  0.91035078997E+02 0.  0.
         13    1    3    3    0    0  0.42976971735E+02  0.17114836895E+02 -0.59515580404E+01  0.46640861362E+02  0.10566000000E+00 0.  1.
         22    1    1    0    0    0  0.45335697624E+01 -0.24589444165E+02  0.15370599869E+02  0.29350457568E+02  0.00000000000E+00 0.  1.
</event>
<event>
 5    1  0.1267616E-004  0.9118800E+02  0.7818608E-02  0.1130116E+00
         25   -1    0    0    0    0  0.00000000000E+00  0.00000000000E+00  0.99999998245E-14  0.12500000000E+03  0.12500000000E+03 0.  0.
        -13    1    3    3    0    0 -0.18165106301E+02  0.19667399266E+02  0.29477407524E+02  0.39820929160E+02  0.10566000000E+00 0. -1.
         23    2    1    0    0    0 -0.70744655891E+00 -0.19510602805E+02 -0.14062708004E+02  0.10093916338E+03  0.98029540675E+02 0.  0.
         13    1    3    3    0    0  0.17457659742E+02 -0.39178002071E+02 -0.43540115528E+02  0.61118234220E+02  0.10566000000E+00 0.  1.
         22    1    1    0    0    0  0.70744655891E+00  0.19510602805E+02  0.14062708004E+02  0.24060836620E+02  0.00000000000E+00 0.  1.
</event>
<event>
 5    1  0.1267616E-004  0.9118800E+02  0.7818608E-02  0.1130116E+00
         25   -1    0    0    0    0  0.00000000000E+00  0.00000000000E+00  0.99999998245E-14  0.12500000000E+03  0.12500000000E+03 0.  0.
        -13    1    3    3    0    0 -0.26140532755E+02 -0.34560776901E+02 -0.19740034727E+02  0.47617800114E+02  0.10566000000E+00 0.  1.
         23    2    1    0    0    0 -0.24630784498E+02 -0.23933616961E+01  0.15848420433E+02  0.95613333714E+02  0.90985347328E+02 0.  0.
         13    1    3    3    0    0  0.15097482568E+01  0.32167415205E+02  0.35588455160E+02  0.47995533599E+02  0.10566000000E+00 0. -1.
         22    1    1    0    0    0  0.24630784498E+02  0.23933616961E+01 -0.15848420433E+02  0.29386666286E+02  0.00000000000E+00 0. -1.
</event>
<event>
 5    1  0.1267616E-004  0.9118800E+02  0.7818608E-02  0.1130116E+00
         25   -1    0    0    0    0  0.00000000000E+00  0.00000000000E+00  0.99999998245E-14  0.12500000000E+03  0.12500000000E+03 0.  0.
        -13    1    3    3    0    0 -0.70536299433E+01 -0.14919158223E+02  0.40619147143E+02  0.43843599945E+02  0.10566000000E+00 0. -1.
         23    2    1    0    0    0  0.30370682927E+02 -0.45242509298E+01  0.12255259845E+02  0.91938865389E+02  0.85788789170E+02 0.  0.
         13    1    3    3    0    0  0.37424312870E+02  0.10394907293E+02 -0.28363887298E+02  0.48095265444E+02  0.10566000000E+00 0.  1.
         22    1    1    0    0    0 -0.30370682927E+02  0.45242509298E+01 -0.12255259845E+02  0.33061134611E+02  0.00000000000E+00 0.  1.
</event>
<event>
 5    1  0.1267616E-004  0.9118800E+02  0.7818608E-02  0.1130116E+00
         25   -1    0    0    0    0  0.00000000000E+00  0.00000000000E+00  0.99999998245E-14  0.12500000000E+03  0.12500000000E+03 0.  0.
        -13    1    3    3    0    0 -0.37171043642E+01  0.40968676261E+02 -0.41430339208E+02  0.58384359810E+02  0.10566000000E+00 0.  1.
         23    2    1    0    0    0 -0.62183894531E+01  0.27534639693E+02 -0.63021124596E+01  0.96076975057E+02  0.91620105677E+02 0.  0.
         13    1    3    3    0    0 -0.25012850890E+01 -0.13434036568E+02  0.35128226749E+02  0.37692615247E+02  0.10566000000E+00 0. -1.
         22    1    1    0    0    0  0.62183894531E+01 -0.27534639693E+02  0.63021124596E+01  0.28923024943E+02  0.00000000000E+00 0.  1.
</event>
<event>
 5    1  0.1267616E-004  0.9118800E+02  0.7818608E-02  0.1130116E+00
         25   -1    0    0    0    0  0.00000000000E+00  0.00000000000E+00  0.99999998245E-14  0.12500000000E+03  0.12500000000E+03 0.  0.
        -13    1    3    3    0    0  0.86807622861E+01  0.99006174802E+01  0.31618048796E+02  0.34250401955E+02  0.10566000000E+00 0. -1.
         23    2    1    0    0    0 -0.10331742980E+02  0.77478967544E+01 -0.26545181929E+02  0.95480150733E+02  0.90802189860E+02 0.  0.
         13    1    3    3    0    0 -0.19012505266E+02 -0.21527207258E+01 -0.58163230725E+02  0.61229748778E+02  0.10566000000E+00 0.  1.
         22    1    1    0    0    0  0.10331742980E+02 -0.77478967544E+01  0.26545181929E+02  0.29519849267E+02  0.00000000000E+00 0.  1.
</event>
<event>
 5    1  0.1267616E-004  0.9118800E+02  0.7818608E-02  0.1130116E+00
         25   -1    0    0    0    0  0.00000000000E+00  0.00000000000E+00  0.99999998245E-14  0.12500000000E+03  0.12500000000E+03 0.  0.
        -13    1    3    3    0    0  0.14933589796E+02 -0.17458049032E+02  0.25786449454E+02  0.34536179865E+02  0.10566000000E+00 0. -1.
         23    2    1    0    0    0 -0.21305257675E+02  0.65083945905E+00 -0.20068954533E+02  0.95723720649E+02  0.91136875974E+02 0.  0.
         13    1    3    3    0    0 -0.36238847471E+02  0.18108888491E+02 -0.45855403986E+02  0.61187540784E+02  0.10566000000E+00 0.  1.
         22    1    1    0    0    0  0.21305257675E+02 -0.65083945905E+00  0.20068954533E+02  0.29276279351E+02  0.00000000000E+00 0.  1.
</event>
<event>
 5    1  0.1267616E-004  0.9118800E+02  0.7818608E-02  0.1130116E+00
         25   -1    0    0    0    0  0.00000000000E+00  0.00000000000E+00  0.99999998245E-14  0.12500000000E+03  0.12500000000E+03 0.  0.
        -13    1    3    3    0    0  0.19594247968E+01 -0.26804228948E+02 -0.23491215005E+02  0.35695299150E+02  0.10566000000E+00 0. -1.
         23    2    1    0    0    0  0.17277672727E+02  0.22956301059E+02  0.61653581879E+01  0.95614265795E+02  0.90986627857E+02 0.  0.
         13    1    3    3    0    0  0.15318247930E+02  0.49760530007E+02  0.29656573193E+02  0.59918966645E+02  0.10566000000E+00 0.  1.
         22    1    1    0    0    0 -0.17277672727E+02 -0.22956301059E+02 -0.61653581879E+01  0.29385734205E+02  0.00000000000E+00 0.  1.
</event>
<event>
 5    1  0.1267616E-004  0.9118800E+02  0.7818608E-02  0.1130116E+00
         25   -1    0    0    0    0  0.00000000000E+00  0.00000000000E+00  0.99999998245E-14  0.12500000000E+03  0.12500000000E+03 0.  0.
        -13    1    3    3    0    0 -0.22043526114E+02 -0.30293541828E+02 -0.35822730713E+02  0.51835267143E+02  0.10566000000E+00 0.  1.
         23    2    1    0    0    0  0.12276747047E+02 -0.24564895882E+02 -0.79707273285E+01  0.96404805965E+02  0.92066288571E+02 0.  0.
         13    1    3    3    0    0  0.34320273161E+02  0.57286459460E+01  0.27852003385E+02  0.44569538822E+02  0.10566000000E+00 0. -1.
         22    1    1    0    0    0 -0.12276747047E+02  0.24564895882E+02  0.79707273285E+01  0.28595194035E+02  0.00000000000E+00 0.  1.
</event>
<event>
 5    1  0.1267616E-004  0.9118800E+02  0.7818608E-02  0.1130116E+00
         25   -1    0    0    0    0  0.00000000000E+00  0.00000000000E+00  0.99999998245E-14  0.12500000000E+03  0.12500000000E+03 0.  0.
        -13    1    3    3    0    0 -0.22583067419E+02  0.28754731484E+02  0.52081525803E+01  0.36931904014E+02  0.10566000000E+00 0. -1.
         23    2    1    0    0    0  0.21228675672E+01 -0.11582169712E+02 -0.27931855239E+02  0.94687597274E+02  0.89704511138E+02 0.  0.
         13    1    3    3    0    0  0.24705934986E+02 -0.40336901196E+02 -0.33140007819E+02  0.57755693260E+02  0.10566000000E+00 0.  1.
         22    1    1    0    0    0 -0.21228675672E+01  0.11582169712E+02  0.27931855239E+02  0.30312402726E+02  0.00000000000E+00 0.  1.
</event>
<event>
 5    1  0.1267616E-004  0.9118800E+02  0.7818608E-02  0.1130116E+00
         25   -1    0    0    0    0  0.00000000000E+00  0.00000000000E+00  0.99999998245E-14  0.12500000000E+03  0.12500000000E+03 0.  0.
        -13    1    3    3    0    0 -0.11591953314E+02 -0.95043124809E+01  0.36143196280E+02  0.39128597455E+02  0.10566000000E+00 0.  1.
         23    2    1    0    0    0  0.28861306880E+02 -0.20854432467E+01 -0.30025934496E+01  0.95908082294E+02  0.91389389830E+02 0.  0.
         13    1    3    3    0    0  0.40453260194E+02  0.74188692342E+01 -0.39145789730E+02  0.56779484840E+02  0.10566000000E+00 0. -1.
         22    1    1    0    0    0 -0.28861306880E+02  0.20854432467E+01  0.30025934496E+01  0.29091917706E+02  0.00000000000E+00 0. -1.
</event>
<event>
 5    1  0.1267616E-004  0.9118800E+02  0.7818608E-02  0.1130116E+00
         25   -1    0    0    0    0  0.00000000000E+00  0.00000000000E+00  0.99999998245E-14  0.12500000000E+03  0.12500000000E+03 0.  0.
        -13    1    3    3    0    0 -0.37553404884E+02  0.26777028366E+02  0.36031373633E+02  0.58528100229E+02  0.10566000000E+00 0. -1.
         23    2    1    0    0    0 -0.19432371488E+02 -0.25967012207E+01  0.21290239910E+02  0.96058088621E+02  0.91594334733E+02 0.  0.
         13    1    3    3    0    0  0.18121033396E+02 -0.29373729587E+02 -0.14741133723E+02  0.37529988392E+02  0.10566000000E+00 0.  1.
         22    1    1    0    0    0  0.19432371488E+02  0.25967012207E+01 -0.21290239910E+02  0.28941911379E+02  0.00000000000E+00 0. -1.
</event>
<event>
 5    1  0.1267616E-004  0.9118800E+02  0.7818608E-02  0.1130116E+00
         25   -1    0    0    0    0  0.00000000000E+00  0.00000000000E+00  0.99999998245E-14  0.12500000000E+03  0.12500000000E+03 0.  0.
        -13    1    3    3    0    0  0.38604589486E+02 -0.32066339318E+02 -0.19770141374E+02  0.53939170374E+02  0.10566000000E+00 0. -1.
         23    2    1    0    0    0  0.10717589876E+02 -0.26149271439E+01 -0.27626146849E+02  0.95252587231E+02  0.90488379407E+02 0.  0.
         13    1    3    3    0    0 -0.27886999611E+02  0.29451412174E+02 -0.78560054759E+01  0.41313416857E+02  0.10566000000E+00 0.  1.
         22    1    1    0    0    0 -0.10717589876E+02  0.26149271439E+01  0.27626146849E+02  0.29747412769E+02  0.00000000000E+00 0. -1.
</event>
<event>
 5    1  0.1267616E-004  0.9118800E+02  0.7818608E-02  0.1130116E+00
         25   -1    0    0    0    0  0.00000000000E+00  0.00000000000E+00  0.99999998245E-14  0.12500000000E+03  0.12500000000E+03 0.  0.
        -13    1    3    3    0    0 -0.21136953510E+02 -0.33489070701E+02 -0.18436233911E+02  0.43682886180E+02  0.10566000000E+00 0. -1.
         23    2    1    0    0    0  0.84215523052E+01 -0.10093257934E+01 -0.33756028572E+02  0.90194673587E+02  0.83208583672E+02 0.  0.
         13    1    3    3    0    0  0.29558505815E+02  0.32479744908E+02 -0.15319794661E+02  0.46511787407E+02  0.10566000000E+00 0.  1.
         22    1    1    0    0    0 -0.84215523052E+01  0.10093257934E+01  0.33756028572E+02  0.34805326413E+02  0.00000000000E+00 0.  1.
</event>
<event>
 5    1  0.1267616E-004  0.9118800E+02  0.7818608E-02  0.1130116E+00
         25   -1    0    0    0    0  0.00000000000E+00  0.00000000000E+00  0.99999998245E-14  0.12500000000E+03  0.12500000000E+03 0.  0.
        -13    1    3    3    0    0 -0.91835784054E+01 -0.55561274887E+02 -0.76558839176E+01  0.56833239411E+02  0.10566000000E+00 0. -1.
         23    2    1    0    0    0  0.94520232336E+01 -0.21498974332E+02 -0.16046372102E+02  0.96556499896E+02  0.92272016202E+02 0.  0.
         13    1    3    3    0    0  0.18635601639E+02  0.34062300555E+02 -0.83904881847E+01  0.39723260485E+02  0.10566000000E+00 0.  1.
         22    1    1    0    0    0 -0.94520232336E+01  0.21498974332E+02  0.16046372102E+02  0.28443500104E+02  0.00000000000E+00 0. -1.
</event>
<event>
 5    1  0.1267616E-004  0.9118800E+02  0.7818608E-02  0.1130116E+00
         25   -1    0    0    0    0  0.00000000000E+00  0.00000000000E+00  0.99999998245E-14  0.12500000000E+03  0.12500000000E+03 0.  0.
        -13    1    3    3    0    0 -0.45391372218E+02 -0.21455281512E+00  0.25260364099E+02  0.51947279652E+02  0.10566000000E+00 0. -1.
         23    2    1    0    0    0 -0.24653915201E+02 -0.10055584041E+02 -0.12066772759E+02  0.95767529869E+02  0.91196943300E+02 0.  0.
         13    1    3    3    0    0  0.20737457017E+02 -0.98410312257E+01 -0.37327136858E+02  0.43820250218E+02  0.10566000000E+00 0.  1.
         22    1    1    0    0    0  0.24653915201E+02  0.10055584041E+02  0.12066772759E+02  0.29232470131E+02  0.00000000000E+00 0. -1.
</event>
<event>
 5    1  0.1267616E-004  0.9118800E+02  0.7818608E-02  0.1130116E+00
         25   -1    0    0    0    0  0.00000000000E+00  0.00000000000E+00  0.99999998245E-14  0.12500000000E+03  0.12500000000E+03 0.  0.
        -13    1    3    3    0    0  0.39699480121E+02  0.60877895700E+01  0.63189505077E+01  0.40657720094E+02  0.10566000000E+00 0.  1.
         23    2    1    0    0    0 -0.79507201021E+01 -0.87926458436E+01  0.27628700245E+02  0.94935575038E+02  0.90049396219E+02 0.  0.
         13    1    3    3    0    0 -0.47650200223E+02 -0.14880435414E+02  0.21309749737E+02  0.54277854944E+02  0.10566000000E+00 0. -1.
         22    1    1    0    0    0  0.79507201021E+01  0.87926458436E+01 -0.27628700245E+02  0.30064424962E+02  0.00000000000E+00 0. -1.
</event>
<event>
 5    1  0.1267616E-004  0.9118800E+02  0.7818608E-02  0.1130116E+00
         25   -1    0    0    0    0  0.00000000000E+00  0.00000000000E+00  0.99999998245E-14  0.12500000000E+03  0.12500000000E+03 0.  0.
        -13    1    3    3    0    0 -0.31722826985E+02 -0.29239384338E+02 -0.30559696087E+02  0.52869514253E+02  0.10566000000E+00 0.  1.
         23    2    1    0    0    0 -0.69908856886E+01 -0.28468845138E+02  0.40416674996E+01  0.95408063558E+02  0.90702899014E+02 0.  0.
         13    1    3    3    0    0  0.24731941296E+02  0.77053920057E+00  0.34601363586E+02  0.42538549305E+02  0.10566000000E+00 0. -1.
         22    1    1    0    0    0  0.69908856886E+01  0.28468845138E+02 -0.40416674996E+01  0.29591936442E+02  0.00000000000E+00 0.  1.
</event>
<event>
 5    1  0.1267616E-004  0.9118800E+02  0.7818608E-02  0.1130116E+00
         25   -1    0    0    0    0  0.00000000000E+00  0.00000000000E+00  0.99999998245E-14  0.12500000000E+03  0.12500000000E+03 0.  0.
        -13    1    3    3    0    0 -0.30849516774E+02  0.15398194661E+02 -0.30922055058E+02  0.46313947543E+02  0.10566000000E+00 0. -1.
         23    2    1    0    0    0 -0.17839017568E+02  0.26964693933E+02  0.10305049424E+02  0.91065956470E+02  0.84507331738E+02 0.  0.
         13    1    3    3    0    0  0.13010499206E+02  0.11566499272E+02  0.41227104482E+02  0.44752008927E+02  0.10566000000E+00 0.  1.
         22    1    1    0    0    0  0.17839017568E+02 -0.26964693933E+02 -0.10305049424E+02  0.33934043530E+02  0.00000000000E+00 0. -1.
</event>
<event>
 5    1  0.1267616E-004  0.9118800E+02  0.7818608E-02  0.1130116E+00
         25   -1    0    0    0    0  0.00000000000E+00  0.00000000000E+00  0.99999998245E-14  0.12500000000E+03  0.12500000000E+03 0.  0.
        -13    1    3    3    0    0  0.17696299719E+02 -0.23871579916E+01  0.47448604098E+02  0.50697522049E+02  0.10566000000E+00 0. -1.
         23    2    1    0    0    0 -0.73473465151E+01  0.21408002035E+02  0.18799746636E+02  0.95576938883E+02  0.90935332631E+02 0.  0.
         13    1    3    3    0    0 -0.25043646234E+02  0.23795160026E+02 -0.28648857463E+02  0.44879416834E+02  0.10566000000E+00 0.  1.
         22    1    1    0    0    0  0.73473465151E+01 -0.21408002035E+02 -0.18799746636E+02  0.29423061117E+02  0.00000000000E+00 0.  1.
</event>
<event>
 5    1  0.1267616E-004  0.9118800E+02  0.7818608E-02  0.1130116E+00
         25   -1    0    0    0    0  0.00000000000E+00  0.00000000000E+00  0.99999998245E-14  0.12500000000E+03  0.12500000000E+03 0.  0.
        -13    1    3    3    0    0 -0.33519367924E+02  0.37257639099E+01 -0.94429971741E+01  0.35023002476E+02  0.10566000000E+00 0.  1.
         23    2    1    0    0    0  0.12663634380E+02  0.74251418066E+01  0.27198884896E+02  0.94092400512E+02  0.88871255915E+02 0.  0.
         13    1    3    3    0    0  0.46183002305E+02  0.36993778967E+01  0.36641882070E+02  0.59069398036E+02  0.10566000000E+00 0. -1.
         22    1    1    0    0    0 -0.12663634380E+02 -0.74251418066E+01 -0.27198884896E+02  0.30907599488E+02  0.00000000000E+00 0. -1.
</event>
<event>
 5    1  0.1267616E-004  0.9118800E+02  0.7818608E-02  0.1130116E+00
         25   -1    0    0    0    0  0.00000000000E+00  0.00000000000E+00  0.99999998245E-14  0.12500000000E+03  0.12500000000E+03 0.  0.
        -13    1    3    3    0    0  0.16911413010E+02  0.28233593061E+02  0.49994494424E+02  0.59854760077E+02  0.10566000000E+00 0. -1.
         23    2    1    0    0    0  0.18385760234E+02  0.15380993167E+02  0.16127483615E+02  0.96108706191E+02  0.91663387172E+02 0.  0.
         13    1    3    3    0    0  0.14743472235E+01 -0.12852599894E+02 -0.33867010808E+02  0.36253946115E+02  0.10566000000E+00 0.  1.
         22    1    1    0    0    0 -0.18385760234E+02 -0.15380993167E+02 -0.16127483615E+02  0.28891293809E+02  0.00000000000E+00 0. -1.
</event>
<event>
 5    1  0.1267616E-004  0.9118800E+02  0.7818608E-02  0.1130116E+00
         25   -1    0    0    0    0  0.00000000000E+00  0.00000000000E+00  0.99999998245E-14  0.12500000000E+03  0.12500000000E+03 0.  0.
        -13    1    3    3    0    0  0.31058919407E+02 -0.25199094676E+02 -0.20183822121E+02  0.44800096949E+02  0.10566000000E+00 0. -1.
         23    2    1    0    0    0  0.13436756462E+02  0.22546833513E+02 -0.11117226513E+02  0.96495634527E+02  0.92189525607E+02 0.  0.
         13    1    3    3    0    0 -0.17622162945E+02  0.47745928189E+02  0.90665956085E+01  0.51695537578E+02  0.10566000000E+00 0.  1.
         22    1    1    0    0    0 -0.13436756462E+02 -0.22546833513E+02  0.11117226513E+02  0.28504365473E+02  0.00000000000E+00 0.  1.
</event>
<event>
 5    1  0.1267616E-004  0.9118800E+02  0.7818608E-02  0.1130116E+00
         25   -1    0    0    0    0  0.00000000000E+00  0.00000000000E+00  0.99999998245E-14  0.12500000000E+03  0.12500000000E+03 0.  0.
        -13    1    3    3    0    0  0.21947791767E+02 -0.36906427461E+02 -0.52049340142E+01  0.43253814323E+02  0.10566000000E+00 0.  1.
         23    2    1    0    0    0 -0.41495307153E+01  0.28301093825E+01 -0.28405987490E+02  0.96153366755E+02  0.91724269901E+02 0.  0.
         13    1    3    3    0    0 -0.26097322482E+02  0.39736536844E+02 -0.23201053476E+02  0.52899552432E+02  0.10566000000E+00 0. -1.
         22    1    1    0    0    0  0.41495307153E+01 -0.28301093825E+01  0.28405987490E+02  0.28846633245E+02  0.00000000000E+00 0. -1.
</event>
<event>
 5    1  0.1267616E-004  0.9118800E+02  0.7818608E-02  0.1130116E+00
         25   -1    0    0    0    0  0.00000000000E+00  0.00000000000E+00  0.99999998245E-14  0.12500000000E+03  0.12500000000E+03 0.  0.
        -13    1    3    3    0    0 -0.51536035280E+02 -0.86309132549E+01 -0.17347274990E+02  0.55058103033E+02  0.10566000000E+00 0. -1.
         23    2    1    0    0    0 -0.21550848040E+02 -0.83440846060E+01  0.13628619360E+02  0.98170872828E+02  0.94433670939E+02 0.  0.
         13    1    3    3    0    0  0.29985187240E+02  0.28682864892E+00  0.30975894350E+02  0.43112769794E+02  0.10566000000E+00 0.  1.
         22    1    1    0    0    0  0.21550848040E+02  0.83440846060E+01 -0.13628619360E+02  0.26829127172E+02  0.00000000000E+00 0. -1.
</event>
<event>
 5    1  0.1267616E-004  0.9118800E+02  0.7818608E-02  0.1130116E+00
         25   -1    0    0    0    0  0.00000000000E+00  0.00000000000E+00  0.99999998245E-14  0.12500000000E+03  0.12500000000E+03 0.  0.
        -13    1    3    3    0    0 -0.41461042435E+02 -0.14063481514E+02 -0.18957264854E+02  0.47709418430E+02  0.10566000000E+00 0. -1.
         23    2    1    0    0    0  0.31554093022E+01  0.12260574748E+01 -0.28893922920E+02  0.95908444412E+02  0.91389885125E+02 0.  0.
         13    1    3    3    0    0  0.44616451738E+02  0.15289538989E+02 -0.99366580665E+01  0.48199025983E+02  0.10566000000E+00 0.  1.
         22    1    1    0    0    0 -0.31554093022E+01 -0.12260574748E+01  0.28893922920E+02  0.29091555588E+02  0.00000000000E+00 0. -1.
</event>
<event>
 5    1  0.1267616E-004  0.9118800E+02  0.7818608E-02  0.1130116E+00
         25   -1    0    0    0    0  0.00000000000E+00  0.00000000000E+00  0.99999998245E-14  0.12500000000E+03  0.12500000000E+03 0.  0.
        -13    1    3    3    0    0 -0.24432275039E+02 -0.10107354288E+02  0.50874388452E+02  0.57335061164E+02  0.10566000000E+00 0. -1.
         23    2    1    0    0    0  0.36374578385E+01  0.43973915450E+01  0.28208121210E+02  0.96220384747E+02  0.91815555254E+02 0.  0.
         13    1    3    3    0    0  0.28069732877E+02  0.14504745833E+02 -0.22666267242E+02  0.38885323583E+02  0.10566000000E+00 0.  1.
         22    1    1    0    0    0 -0.36374578385E+01 -0.43973915450E+01 -0.28208121210E+02  0.28779615253E+02  0.00000000000E+00 0. -1.
</event>
<event>
 5    1  0.1267616E-004  0.9118800E+02  0.7818608E-02  0.1130116E+00
         25   -1    0    0    0    0  0.00000000000E+00  0.00000000000E+00  0.99999998245E-14  0.12500000000E+03  0.12500000000E+03 0.  0.
        -13    1    3    3    0    0 -0.13626269364E+02  0.14807173684E+02 -0.28791120256E+02  0.35126448424E+02  0.10566000000E+00 0. -1.
         23    2    1    0    0    0 -0.18211430671E+02 -0.13412917853E+02  0.22022927425E+02  0.93431472876E+02  0.87936728498E+02 0.  0.
         13    1    3    3    0    0 -0.45851613078E+01 -0.28220091537E+02  0.50814047681E+02  0.58305024452E+02  0.10566000000E+00 0.  1.
         22    1    1    0    0    0  0.18211430671E+02  0.13412917853E+02 -0.22022927425E+02  0.31568527124E+02  0.00000000000E+00 0.  1.
</event>
<event>
 5    1  0.1267616E-004  0.9118800E+02  0.7818608E-02  0.1130116E+00
         25   -1    0    0    0    0  0.00000000000E+00  0.00000000000E+00  0.99999998245E-14  0.12500000000E+03  0.12500000000E+03 0.  0.
        -13    1    3    3    0    0 -0.93728003089E-01 -0.32485900209E+02  0.48734588628E+02  0.58569734420E+02  0.10566000000E+00 0.  1.
         23    2    1    0    0    0 -0.44206355443E+01 -0.17217131042E+01  0.29525367361E+02  0.95095926157E+02  0.90271709518E+02 0.  0.
         13    1    3    3    0    0 -0.43269075413E+01  0.30764187105E+02 -0.19209221267E+02  0.36526191737E+02  0.10566000000E+00 0. -1.
         22    1    1    0    0    0  0.44206355443E+01  0.17217131042E+01 -0.29525367361E+02  0.29904073843E+02  0.00000000000E+00 0.  1.
</event>
<event>
 5    1  0.1267616E-004  0.9118800E+02  0.7818608E-02  0.1130116E+00
         25   -1    0    0    0    0  0.00000000000E+00  0.00000000000E+00  0.99999998245E-14  0.12500000000E+03  0.12500000000E+03 0.  0.
        -13    1    3    3    0    0 -0.29449894010E+01 -0.25322614337E+02 -0.54052538782E+02  0.59762830190E+02  0.10566000000E+00 0. -1.
         23    2    1    0    0    0  0.10935918949E+02 -0.15483898443E+02 -0.22779626684E+02  0.95364601806E+02  0.90642983465E+02 0.  0.
         13    1    3    3    0    0  0.13880908350E+02  0.98387158937E+01  0.31272912099E+02  0.35601771616E+02  0.10566000000E+00 0.  1.
         22    1    1    0    0    0 -0.10935918949E+02  0.15483898443E+02  0.22779626684E+02  0.29635398194E+02  0.00000000000E+00 0. -1.
</event>
<event>
 5    1  0.1267616E-004  0.9118800E+02  0.7818608E-02  0.1130116E+00
         25   -1    0    0    0    0  0.00000000000E+00  0.00000000000E+00  0.99999998245E-14  0.12500000000E+03  0.12500000000E+03 0.  0.
        -13    1    3    3    0    0  0.10213660961E+02  0.19435553415E+02 -0.48406294331E+02  0.53152987702E+02  0.10566000000E+00 0.  1.
         23    2    1    0    0    0  0.15306137550E+02 -0.12859609957E+02 -0.22767404645E+02  0.94701450048E+02  0.89723812402E+02 0.  0.
         13    1    3    3    0    0  0.50924765892E+01 -0.32295163371E+02  0.25638889686E+02  0.41548462346E+02  0.10566000000E+00 0. -1.
         22    1    1    0    0    0 -0.15306137550E+02  0.12859609957E+02  0.22767404645E+02  0.30298549952E+02  0.00000000000E+00 0.  1.
</event>
<event>
 5    1  0.1267616E-004  0.9118800E+02  0.7818608E-02  0.1130116E+00
         25   -1    0    0    0    0  0.00000000000E+00  0.00000000000E+00  0.99999998245E-14  0.12500000000E+03  0.12500000000E+03 0.  0.
        -13    1    3    3    0    0  0.49121113252E+02 -0.10639800299E+02 -0.34442670453E+02  0.60929449608E+02  0.10566000000E+00 0.  1.
         23    2    1    0    0    0  0.20431381205E+02 -0.15252360686E+01 -0.25411278406E+02  0.92357990974E+02  0.86397324863E+02 0.  0.
         13    1    3    3    0    0 -0.28689732047E+02  0.91145642299E+01  0.90313920471E+01  0.31428541366E+02  0.10566000000E+00 0. -1.
         22    1    1    0    0    0 -0.20431381205E+02  0.15252360686E+01  0.25411278406E+02  0.32642009026E+02  0.00000000000E+00 0.  1.
</event>
<event>
 5    1  0.1267616E-004  0.9118800E+02  0.7818608E-02  0.1130116E+00
         25   -1    0    0    0    0  0.00000000000E+00  0.00000000000E+00  0.99999998245E-14  0.12500000000E+03  0.12500000000E+03 0.  0.
        -13    1    3    3    0    0  0.22178833580E+02 -0.23801591625E+02 -0.27446671111E+01  0.32649054878E+02  0.10566000000E+00 0.  1.
         23    2    1    0    0    0 -0.16717746730E+02  0.15515217474E+02 -0.23992630184E+02  0.91896354700E+02  0.85726825878E+02 0.  0.
         13    1    3    3    0    0 -0.38896580310E+02  0.39316809099E+02 -0.21247963073E+02  0.59247299823E+02  0.10566000000E+00 0. -1.
         22    1    1    0    0    0  0.16717746730E+02 -0.15515217474E+02  0.23992630184E+02  0.33103645300E+02  0.00000000000E+00 0. -1.
</event>
<event>
 5    1  0.1267616E-004  0.9118800E+02  0.7818608E-02  0.1130116E+00
         25   -1    0    0    0    0  0.00000000000E+00  0.00000000000E+00  0.99999998245E-14  0.12500000000E+03  0.12500000000E+03 0.  0.
        -13    1    3    3    0    0 -0.14733430785E+02  0.28875553879E+02  0.11702898636E+02  0.34465063398E+02  0.10566000000E+00 0.  1.
         23    2    1    0    0    0  0.17600746723E+02 -0.14371209858E+02 -0.17925872527E+02  0.96057732227E+02  0.91593848356E+02 0.  0.
         13    1    3    3    0    0  0.32334177508E+02 -0.43246763737E+02 -0.29628771163E+02  0.61592668829E+02  0.10566000000E+00 0. -1.
         22    1    1    0    0    0 -0.17600746723E+02  0.14371209858E+02  0.17925872527E+02  0.28942267773E+02  0.00000000000E+00 0. -1.
</event>
<event>
 5    1  0.1267616E-004  0.9118800E+02  0.7818608E-02  0.1130116E+00
         25   -1    0    0    0    0  0.00000000000E+00  0.00000000000E+00  0.99999998245E-14  0.12500000000E+03  0.12500000000E+03 0.  0.
        -13    1    3    3    0    0 -0.25901661879E+02 -0.42655531762E+01 -0.30414673197E+02  0.40176542182E+02  0.10566000000E+00 0.  1.
         23    2    1    0    0    0  0.16801954560E+02  0.18510241757E+02  0.41626397263E+01  0.99657105603E+02  0.96380892301E+02 0.  0.
         13    1    3    3    0    0  0.42703616439E+02  0.22775794933E+02  0.34577312924E+02  0.59480563421E+02  0.10566000000E+00 0. -1.
         22    1    1    0    0    0 -0.16801954560E+02 -0.18510241757E+02 -0.41626397263E+01  0.25342894397E+02  0.00000000000E+00 0. -1.
</event>
<event>
 5    1  0.1267616E-004  0.9118800E+02  0.7818608E-02  0.1130116E+00
         25   -1    0    0    0    0  0.00000000000E+00  0.00000000000E+00  0.99999998245E-14  0.12500000000E+03  0.12500000000E+03 0.  0.
        -13    1    3    3    0    0  0.86656962637E+01 -0.26993280565E+02  0.23486759451E+02  0.36815357135E+02  0.10566000000E+00 0.  1.
         23    2    1    0    0    0  0.84528441722E+01  0.13773239633E+02 -0.21874241315E+02  0.97803766112E+02  0.93946482255E+02 0.  0.
         13    1    3    3    0    0 -0.21285209151E+00  0.40766520198E+02 -0.45361000766E+02  0.60988408977E+02  0.10566000000E+00 0. -1.
         22    1    1    0    0    0 -0.84528441722E+01 -0.13773239633E+02  0.21874241315E+02  0.27196233888E+02  0.00000000000E+00 0. -1.
</event>
<event>
 5    1  0.1267616E-004  0.9118800E+02  0.7818608E-02  0.1130116E+00
         25   -1    0    0    0    0  0.00000000000E+00  0.00000000000E+00  0.99999998245E-14  0.12500000000E+03  0.12500000000E+03 0.  0.
        -13    1    3    3    0    0  0.20514661258E+02 -0.34628582586E+02  0.41386112928E+02  0.57730508102E+02  0.10566000000E+00 0.  1.
         23    2    1    0    0    0  0.16959771533E+02 -0.11085218175E+01  0.23811423733E+02  0.95745144484E+02  0.91166255386E+02 0.  0.
         13    1    3    3    0    0 -0.35548897253E+01  0.33520060769E+02 -0.17574689195E+02  0.38014636382E+02  0.10566000000E+00 0. -1.
         22    1    1    0    0    0 -0.16959771533E+02  0.11085218175E+01 -0.23811423733E+02  0.29254855516E+02  0.00000000000E+00 0.  1.
</event>
<event>
 5    1  0.1267616E-004  0.9118800E+02  0.7818608E-02  0.1130116E+00
         25   -1    0    0    0    0  0.00000000000E+00  0.00000000000E+00  0.99999998245E-14  0.12500000000E+03  0.12500000000E+03 0.  0.
        -13    1    3    3    0    0 -0.23515613496E+02 -0.24337373052E+02 -0.41161296297E+02  0.53287477723E+02  0.10566000000E+00 0. -1.
         23    2    1    0    0    0 -0.80878099114E+01 -0.28213747001E+02 -0.19703853541E+01  0.95583837649E+02  0.90944815202E+02 0.  0.
         13    1    3    3    0    0  0.15427803585E+02 -0.38763739493E+01  0.39190910943E+02  0.42296359926E+02  0.10566000000E+00 0.  1.
         22    1    1    0    0    0  0.80878099114E+01  0.28213747001E+02  0.19703853541E+01  0.29416162351E+02  0.00000000000E+00 0. -1.
</event>
<event>
 5    1  0.1267616E-004  0.9118800E+02  0.7818608E-02  0.1130116E+00
         25   -1    0    0    0    0  0.00000000000E+00  0.00000000000E+00  0.99999998245E-14  0.12500000000E+03  0.12500000000E+03 0.  0.
        -13    1    3    3    0    0  0.27044647971E+02 -0.17260188386E+02 -0.45756922713E+02  0.55884114265E+02  0.10566000000E+00 0.  1.
         23    2    1    0    0    0 -0.48290959420E+01 -0.19124584389E+02 -0.20035935143E+02  0.96884015352E+02  0.92714636590E+02 0.  0.
         13    1    3    3    0    0 -0.31873743913E+02 -0.18643960028E+01  0.25720987570E+02  0.40999901087E+02  0.10566000000E+00 0. -1.
         22    1    1    0    0    0  0.48290959420E+01  0.19124584389E+02  0.20035935143E+02  0.28115984648E+02  0.00000000000E+00 0.  1.
</event>
<event>
 5    1  0.1267616E-004  0.9118800E+02  0.7818608E-02  0.1130116E+00
         25   -1    0    0    0    0  0.00000000000E+00  0.00000000000E+00  0.99999998245E-14  0.12500000000E+03  0.12500000000E+03 0.  0.
        -13    1    3    3    0    0 -0.27519289248E+02  0.74348643560E+01 -0.49740414826E+02  0.57329822255E+02  0.10566000000E+00 0.  1.
         23    2    1    0    0    0 -0.14926173599E+02 -0.13580973357E+02 -0.14931361823E+02  0.99896632467E+02  0.96691044656E+02 0.  0.
         13    1    3    3    0    0  0.12593115649E+02 -0.21015837713E+02  0.34809053003E+02  0.42566810211E+02  0.10566000000E+00 0. -1.
         22    1    1    0    0    0  0.14926173599E+02  0.13580973357E+02  0.14931361823E+02  0.25103367533E+02  0.00000000000E+00 0.  1.
</event>
<event>
 5    1  0.1267616E-004  0.9118800E+02  0.7818608E-02  0.1130116E+00
         25   -1    0    0    0    0  0.00000000000E+00  0.00000000000E+00  0.99999998245E-14  0.12500000000E+03  0.12500000000E+03 0.  0.
        -13    1    3    3    0    0  0.51319491167E+02 -0.17822482657E+02  0.26079255699E+02  0.60261677736E+02  0.10566000000E+00 0.  1.
         23    2    1    0    0    0  0.17918957640E+02 -0.16597627103E+02  0.18032435864E+02  0.94639845002E+02  0.89637945372E+02 0.  0.
         13    1    3    3    0    0 -0.33400533527E+02  0.12248555546E+01 -0.80468198357E+01  0.34378167265E+02  0.10566000000E+00 0. -1.
         22    1    1    0    0    0 -0.17918957640E+02  0.16597627103E+02 -0.18032435864E+02  0.30360154998E+02  0.00000000000E+00 0.  1.
</event>
<event>
 5    1  0.1267616E-004  0.9118800E+02  0.7818608E-02  0.1130116E+00
         25   -1    0    0    0    0  0.00000000000E+00  0.00000000000E+00  0.99999998245E-14  0.12500000000E+03  0.12500000000E+03 0.  0.
        -13    1    3    3    0    0 -0.16836077987E+02 -0.27706398018E+02 -0.44954508207E+02  0.55425779068E+02  0.10566000000E+00 0.  1.
         23    2    1    0    0    0  0.81055084021E+01  0.74441618130E+00 -0.26023402236E+02  0.97733337464E+02  0.93852727004E+02 0.  0.
         13    1    3    3    0    0  0.24941586389E+02  0.28450814199E+02  0.18931105971E+02  0.42307558397E+02  0.10566000000E+00 0. -1.
         22    1    1    0    0    0 -0.81055084021E+01 -0.74441618130E+00  0.26023402236E+02  0.27266662536E+02  0.00000000000E+00 0. -1.
</event>
<event>
 5    1  0.1267616E-004  0.9118800E+02  0.7818608E-02  0.1130116E+00
         25   -1    0    0    0    0  0.00000000000E+00  0.00000000000E+00  0.99999998245E-14  0.12500000000E+03  0.12500000000E+03 0.  0.
        -13    1    3    3    0    0 -0.11118778611E+02  0.24403189007E+02 -0.49272440999E+02  0.56097481918E+02  0.10566000000E+00 0. -1.
         23    2    1    0    0    0  0.36084829435E+01  0.26024332030E+02 -0.12177973227E+02  0.96041580867E+02  0.91571803612E+02 0.  0.
         13    1    3    3    0    0  0.14727261554E+02  0.16211430230E+01  0.37094467771E+02  0.39944098949E+02  0.10566000000E+00 0.  1.
         22    1    1    0    0    0 -0.36084829435E+01 -0.26024332030E+02  0.12177973227E+02  0.28958419133E+02  0.00000000000E+00 0. -1.
</event>
<event>
 5    1  0.1267616E-004  0.9118800E+02  0.7818608E-02  0.1130116E+00
         25   -1    0    0    0    0  0.00000000000E+00  0.00000000000E+00  0.99999998245E-14  0.12500000000E+03  0.12500000000E+03 0.  0.
        -13    1    3    3    0    0  0.21695904159E+02  0.24431850807E+02  0.20331581955E+01  0.32737936517E+02  0.10566000000E+00 0. -1.
         23    2    1    0    0    0 -0.11868732236E+01  0.21706642741E+02  0.41334591992E+02  0.78297371570E+02  0.62843797565E+02 0.  0.
         13    1    3    3    0    0 -0.22882777383E+02 -0.27252080660E+01  0.39301433797E+02  0.45559435052E+02  0.10566000000E+00 0.  1.
         22    1    1    0    0    0  0.11868732236E+01 -0.21706642741E+02 -0.41334591992E+02  0.46702628430E+02  0.00000000000E+00 0.  1.
</event>
<event>
 5    1  0.1267616E-004  0.9118800E+02  0.7818608E-02  0.1130116E+00
         25   -1    0    0    0    0  0.00000000000E+00  0.00000000000E+00  0.99999998245E-14  0.12500000000E+03  0.12500000000E+03 0.  0.
        -13    1    3    3    0    0  0.12768526615E+02 -0.58240439037E+01 -0.31126136063E+02  0.34143846730E+02  0.10566000000E+00 0. -1.
         23    2    1    0    0    0 -0.24187972829E+02  0.24552312911E+02 -0.13176810112E+01  0.90509271071E+02  0.83679852818E+02 0.  0.
         13    1    3    3    0    0 -0.36956499444E+02  0.30376356815E+02  0.29808455052E+02  0.56365424340E+02  0.10566000000E+00 0.  1.
         22    1    1    0    0    0  0.24187972829E+02 -0.24552312911E+02  0.13176810112E+01  0.34490728929E+02  0.00000000000E+00 0.  1.
</event>
<event>
 5    1  0.1267616E-004  0.9118800E+02  0.7818608E-02  0.1130116E+00
         25   -1    0    0    0    0  0.00000000000E+00  0.00000000000E+00  0.99999998245E-14  0.12500000000E+03  0.12500000000E+03 0.  0.
        -13    1    3    3    0    0  0.19566007580E+02 -0.38838847829E+01 -0.57953038774E+02  0.61290122213E+02  0.10566000000E+00 0. -1.
         23    2    1    0    0    0  0.21549526488E+01  0.29459021299E+01 -0.29082229526E+02  0.95689622409E+02  0.91090096072E+02 0.  0.
         13    1    3    3    0    0 -0.17411054932E+02  0.68297869128E+01  0.28870809248E+02  0.34399500196E+02  0.10566000000E+00 0.  1.
         22    1    1    0    0    0 -0.21549526488E+01 -0.29459021299E+01  0.29082229526E+02  0.29310377591E+02  0.00000000000E+00 0. -1.
</event>
<event>
 5    1  0.1267616E-004  0.9118800E+02  0.7818608E-02  0.1130116E+00
         25   -1    0    0    0    0  0.00000000000E+00  0.00000000000E+00  0.99999998245E-14  0.12500000000E+03  0.12500000000E+03 0.  0.
        -13    1    3    3    0    0 -0.31904377792E+02  0.14158475366E+02  0.39059685049E+02  0.52383412519E+02  0.10566000000E+00 0. -1.
         23    2    1    0    0    0  0.34031904037E+01  0.24192020661E+02  0.13789563786E+02  0.96946700052E+02  0.92799111057E+02 0.  0.
         13    1    3    3    0    0  0.35307568195E+02  0.10033545295E+02 -0.25270121263E+02  0.44563287533E+02  0.10566000000E+00 0.  1.
         22    1    1    0    0    0 -0.34031904037E+01 -0.24192020661E+02 -0.13789563786E+02  0.28053299948E+02  0.00000000000E+00 0. -1.
</event>
<event>
 5    1  0.1267616E-004  0.9118800E+02  0.7818608E-02  0.1130116E+00
         25   -1    0    0    0    0  0.00000000000E+00  0.00000000000E+00  0.99999998245E-14  0.12500000000E+03  0.12500000000E+03 0.  0.
        -13    1    3    3    0    0  0.72381310472E+01  0.18961969965E+01 -0.61735702395E+02  0.62187572861E+02  0.10566000000E+00 0.  1.
         23    2    1    0    0    0 -0.70246357391E+00 -0.74493147626E+00 -0.29189141617E+02  0.95792905548E+02  0.91231718097E+02 0.  0.
         13    1    3    3    0    0 -0.79405946211E+01 -0.26411284728E+01  0.32546560777E+02  0.33605332687E+02  0.10566000000E+00 0. -1.
         22    1    1    0    0    0  0.70246357391E+00  0.74493147626E+00  0.29189141617E+02  0.29207094452E+02  0.00000000000E+00 0.  1.
</event>
<event>
 5    1  0.1267616E-004  0.9118800E+02  0.7818608E-02  0.1130116E+00
         25   -1    0    0    0    0  0.00000000000E+00  0.00000000000E+00  0.99999998245E-14  0.12500000000E+03  0.12500000000E+03 0.  0.
        -13    1    3    3    0    0  0.41428692985E+02  0.38285811326E+02 -0.13595267979E+01  0.56426938854E+02  0.10566000000E+00 0.  1.
         23    2    1    0    0    0  0.29062308297E+02  0.83269596252E+00 -0.17815064111E+01  0.95871235673E+02  0.91338978088E+02 0.  0.
         13    1    3    3    0    0 -0.12366384688E+02 -0.37453115363E+02 -0.42197961316E+00  0.39444296818E+02  0.10566000000E+00 0. -1.
         22    1    1    0    0    0 -0.29062308297E+02 -0.83269596252E+00  0.17815064111E+01  0.29128764327E+02  0.00000000000E+00 0.  1.
</event>
<event>
 5    1  0.1267616E-004  0.9118800E+02  0.7818608E-02  0.1130116E+00
         25   -1    0    0    0    0  0.00000000000E+00  0.00000000000E+00  0.99999998245E-14  0.12500000000E+03  0.12500000000E+03 0.  0.
        -13    1    3    3    0    0  0.45767023617E+02 -0.36537099519E+02 -0.96505168867E+01  0.59352537707E+02  0.10566000000E+00 0. -1.
         23    2    1    0    0    0  0.15658200917E+02 -0.27085979335E+02 -0.13067327160E+02  0.91094475795E+02  0.84549505904E+02 0.  0.
         13    1    3    3    0    0 -0.30108822700E+02  0.94511201835E+01 -0.34168102737E+01  0.31741938088E+02  0.10566000000E+00 0.  1.
         22    1    1    0    0    0 -0.15658200917E+02  0.27085979335E+02  0.13067327160E+02  0.33905524205E+02  0.00000000000E+00 0. -1.
</event>
<event>
 5    1  0.1267616E-004  0.9118800E+02  0.7818608E-02  0.1130116E+00
         25   -1    0    0    0    0  0.00000000000E+00  0.00000000000E+00  0.99999998245E-14  0.12500000000E+03  0.12500000000E+03 0.  0.
        -13    1    3    3    0    0 -0.43775556360E+02  0.20956642531E+02  0.36181199163E+01  0.48668081497E+02  0.10566000000E+00 0. -1.
         23    2    1    0    0    0 -0.18376807045E+02 -0.56453680554E+01 -0.23699861818E+02  0.94483436173E+02  0.89419567451E+02 0.  0.
         13    1    3    3    0    0  0.25398749315E+02 -0.26602010586E+02 -0.27317981734E+02  0.45815354676E+02  0.10566000000E+00 0.  1.
         22    1    1    0    0    0  0.18376807045E+02  0.56453680554E+01  0.23699861818E+02  0.30516563827E+02  0.00000000000E+00 0.  1.
</event>
<event>
 5    1  0.1267616E-004  0.9118800E+02  0.7818608E-02  0.1130116E+00
         25   -1    0    0    0    0  0.00000000000E+00  0.00000000000E+00  0.99999998245E-14  0.12500000000E+03  0.12500000000E+03 0.  0.
        -13    1    3    3    0    0 -0.28919119066E+02  0.42449835660E+02 -0.20358261503E+02  0.55251913727E+02  0.10566000000E+00 0.  1.
         23    2    1    0    0    0 -0.14011621309E+02  0.26173290061E+02  0.10776650396E+02  0.93416731675E+02  0.87915771729E+02 0.  0.
         13    1    3    3    0    0  0.14907497757E+02 -0.16276545598E+02  0.31134911899E+02  0.38164817948E+02  0.10566000000E+00 0. -1.
         22    1    1    0    0    0  0.14011621309E+02 -0.26173290061E+02 -0.10776650396E+02  0.31583268325E+02  0.00000000000E+00 0.  1.
</event>
<event>
 5    1  0.1267616E-004  0.9118800E+02  0.7818608E-02  0.1130116E+00
         25   -1    0    0    0    0  0.00000000000E+00  0.00000000000E+00  0.99999998245E-14  0.12500000000E+03  0.12500000000E+03 0.  0.
        -13    1    3    3    0    0  0.20832512937E+02 -0.21996865180E+02  0.20303834984E+02  0.36470708138E+02  0.10566000000E+00 0.  1.
         23    2    1    0    0    0 -0.14009453675E+02  0.23256306043E+02 -0.19834233807E+01  0.97777683211E+02  0.93911771375E+02 0.  0.
         13    1    3    3    0    0 -0.34841966613E+02  0.45253171223E+02 -0.22287258364E+02  0.61306975073E+02  0.10566000000E+00 0. -1.
         22    1    1    0    0    0  0.14009453675E+02 -0.23256306043E+02  0.19834233807E+01  0.27222316789E+02  0.00000000000E+00 0. -1.
</event>
<event>
 5    1  0.1267616E-004  0.9118800E+02  0.7818608E-02  0.1130116E+00
         25   -1    0    0    0    0  0.00000000000E+00  0.00000000000E+00  0.99999998245E-14  0.12500000000E+03  0.12500000000E+03 0.  0.
        -13    1    3    3    0    0  0.82000321519E+01  0.21685228427E+02 -0.41164860581E+02  0.47244540107E+02  0.10566000000E+00 0.  1.
         23    2    1    0    0    0  0.57686385609E+01 -0.21485190810E+02 -0.18517010920E+02  0.96055737902E+02  0.91591126620E+02 0.  0.
         13    1    3    3    0    0 -0.24313935910E+01 -0.43170419237E+02  0.22647849661E+02  0.48811197795E+02  0.10566000000E+00 0. -1.
         22    1    1    0    0    0 -0.57686385609E+01  0.21485190810E+02  0.18517010920E+02  0.28944262098E+02  0.00000000000E+00 0. -1.
</event>
<event>
 5    1  0.1267616E-004  0.9118800E+02  0.7818608E-02  0.1130116E+00
         25   -1    0    0    0    0  0.00000000000E+00  0.00000000000E+00  0.99999998245E-14  0.12500000000E+03  0.12500000000E+03 0.  0.
        -13    1    3    3    0    0  0.18459311057E+02  0.39005704476E+02 -0.57265624314E+01  0.43531549796E+02  0.10566000000E+00 0.  1.
         23    2    1    0    0    0 -0.23476029198E+02  0.96836319867E+01  0.10942251805E+02  0.97348064264E+02  0.93338181180E+02 0.  0.
         13    1    3    3    0    0 -0.41935340256E+02 -0.29322072489E+02  0.16668814237E+02  0.53816514468E+02  0.10566000000E+00 0. -1.
         22    1    1    0    0    0  0.23476029198E+02 -0.96836319867E+01 -0.10942251805E+02  0.27651935736E+02  0.00000000000E+00 0. -1.
</event>
<event>
 5    1  0.1267616E-004  0.9118800E+02  0.7818608E-02  0.1130116E+00
         25   -1    0    0    0    0  0.00000000000E+00  0.00000000000E+00  0.99999998245E-14  0.12500000000E+03  0.12500000000E+03 0.  0.
        -13    1    3    3    0    0 -0.15750933064E+02  0.10135007143E+02  0.35779556048E+02  0.40385616960E+02  0.10566000000E+00 0. -1.
         23    2    1    0    0    0  0.13438298226E+02 -0.26337506643E+02  0.97303119755E+01  0.93872342097E+02  0.88561196493E+02 0.  0.
         13    1    3    3    0    0  0.29189231290E+02 -0.36472513786E+02 -0.26049244072E+02  0.53486725138E+02  0.10566000000E+00 0.  1.
         22    1    1    0    0    0 -0.13438298226E+02  0.26337506643E+02 -0.97303119755E+01  0.31127657903E+02  0.00000000000E+00 0.  1.
</event>
<event>
 5    1  0.1267616E-004  0.9118800E+02  0.7818608E-02  0.1130116E+00
         25   -1    0    0    0    0  0.00000000000E+00  0.00000000000E+00  0.99999998245E-14  0.12500000000E+03  0.12500000000E+03 0.  0.
        -13    1    3    3    0    0  0.24948701957E+02  0.63957653590E+01 -0.66384267684E+01  0.26597432543E+02  0.10566000000E+00 0.  1.
         23    2    1    0    0    0 -0.30890375817E+02 -0.13201441326E+02  0.13044554970E+02  0.88963160716E+02  0.81337507824E+02 0.  0.
         13    1    3    3    0    0 -0.55839077774E+02 -0.19597206685E+02  0.19682981739E+02  0.62365728174E+02  0.10566000000E+00 0. -1.
         22    1    1    0    0    0  0.30890375817E+02  0.13201441326E+02 -0.13044554970E+02  0.36036839284E+02  0.00000000000E+00 0. -1.
</event>
<event>
 5    1  0.1267616E-004  0.9118800E+02  0.7818608E-02  0.1130116E+00
         25   -1    0    0    0    0  0.00000000000E+00  0.00000000000E+00  0.99999998245E-14  0.12500000000E+03  0.12500000000E+03 0.  0.
        -13    1    3    3    0    0 -0.84300237007E+00 -0.56305326241E+02  0.41204977438E+01  0.56462289024E+02  0.10566000000E+00 0.  1.
         23    2    1    0    0    0 -0.12304848294E+02 -0.27446340657E+02 -0.13350551254E+02  0.92091822813E+02  0.86011369616E+02 0.  0.
         13    1    3    3    0    0 -0.11461845924E+02  0.28858985584E+02 -0.17471048997E+02  0.35629533789E+02  0.10566000000E+00 0. -1.
         22    1    1    0    0    0  0.12304848294E+02  0.27446340657E+02  0.13350551254E+02  0.32908177187E+02  0.00000000000E+00 0.  1.
</event>
<event>
 5    1  0.1267616E-004  0.9118800E+02  0.7818608E-02  0.1130116E+00
         25   -1    0    0    0    0  0.00000000000E+00  0.00000000000E+00  0.99999998245E-14  0.12500000000E+03  0.12500000000E+03 0.  0.
        -13    1    3    3    0    0 -0.47327942750E+02 -0.15919192710E+02 -0.31238734256E+02  0.58900123458E+02  0.10566000000E+00 0. -1.
         23    2    1    0    0    0 -0.24871296160E+02  0.73286493067E+01 -0.13731927960E+02  0.95659646921E+02  0.91048952384E+02 0.  0.
         13    1    3    3    0    0  0.22456646590E+02  0.23247842017E+02  0.17506806296E+02  0.36759523463E+02  0.10566000000E+00 0.  1.
         22    1    1    0    0    0  0.24871296160E+02 -0.73286493067E+01  0.13731927960E+02  0.29340353079E+02  0.00000000000E+00 0. -1.
</event>
<event>
 5    1  0.1267616E-004  0.9118800E+02  0.7818608E-02  0.1130116E+00
         25   -1    0    0    0    0  0.00000000000E+00  0.00000000000E+00  0.99999998245E-14  0.12500000000E+03  0.12500000000E+03 0.  0.
        -13    1    3    3    0    0 -0.46899915902E+02 -0.22992518510E+02 -0.10992695588E+02  0.53377041313E+02  0.10566000000E+00 0.  1.
         23    2    1    0    0    0 -0.16797532691E+02  0.45150373197E+01 -0.23255974915E+02  0.95958942241E+02  0.91458928269E+02 0.  0.
         13    1    3    3    0    0  0.30102383211E+02  0.27507555830E+02 -0.12263279327E+02  0.42581900927E+02  0.10566000000E+00 0. -1.
         22    1    1    0    0    0  0.16797532691E+02 -0.45150373197E+01  0.23255974915E+02  0.29041057759E+02  0.00000000000E+00 0.  1.
</event>
<event>
 5    1  0.1267616E-004  0.9118800E+02  0.7818608E-02  0.1130116E+00
         25   -1    0    0    0    0  0.00000000000E+00  0.00000000000E+00  0.99999998245E-14  0.12500000000E+03  0.12500000000E+03 0.  0.
        -13    1    3    3    0    0  0.22221867607E+02  0.36220640703E+02 -0.33121669765E+01  0.42623090303E+02  0.10566000000E+00 0.  1.
         23    2    1    0    0    0 -0.24214093250E+02  0.14517169470E+02  0.90538538412E+01  0.95351344201E+02  0.90624698897E+02 0.  0.
         13    1    3    3    0    0 -0.46435960856E+02 -0.21703471233E+02  0.12366020818E+02  0.52728253898E+02  0.10566000000E+00 0. -1.
         22    1    1    0    0    0  0.24214093250E+02 -0.14517169470E+02 -0.90538538412E+01  0.29648655799E+02  0.00000000000E+00 0. -1.
</event>
<event>
 5    1  0.1267616E-004  0.9118800E+02  0.7818608E-02  0.1130116E+00
         25   -1    0    0    0    0  0.00000000000E+00  0.00000000000E+00  0.99999998245E-14  0.12500000000E+03  0.12500000000E+03 0.  0.
        -13    1    3    3    0    0 -0.29508517133E+02 -0.23403190420E+02  0.21835725335E+02  0.43534721432E+02  0.10566000000E+00 0.  1.
         23    2    1    0    0    0 -0.29733781901E+01  0.19388295381E+02  0.24087629528E+02  0.93936180661E+02  0.88651255858E+02 0.  0.
         13    1    3    3    0    0  0.26535138943E+02  0.42791485801E+02  0.22519041926E+01  0.50401459229E+02  0.10566000000E+00 0. -1.
         22    1    1    0    0    0  0.29733781901E+01 -0.19388295381E+02 -0.24087629528E+02  0.31063819339E+02  0.00000000000E+00 0.  1.
</event>
<event>
 5    1  0.1267616E-004  0.9118800E+02  0.7818608E-02  0.1130116E+00
         25   -1    0    0    0    0  0.00000000000E+00  0.00000000000E+00  0.99999998245E-14  0.12500000000E+03  0.12500000000E+03 0.  0.
        -13    1    3    3    0    0 -0.24598723253E+02 -0.27709818783E+02 -0.49562612216E+02  0.61882105139E+02  0.10566000000E+00 0. -1.
         23    2    1    0    0    0 -0.53717448293E+01 -0.13714818796E+02 -0.24357237609E+02  0.96535514740E+02  0.92243583436E+02 0.  0.
         13    1    3    3    0    0  0.19226978423E+02  0.13994999986E+02  0.25205374607E+02  0.34653409602E+02  0.10566000000E+00 0.  1.
         22    1    1    0    0    0  0.53717448293E+01  0.13714818796E+02  0.24357237609E+02  0.28464485260E+02  0.00000000000E+00 0. -1.
</event>
<event>
 5    1  0.1267616E-004  0.9118800E+02  0.7818608E-02  0.1130116E+00
         25   -1    0    0    0    0  0.00000000000E+00  0.00000000000E+00  0.99999998245E-14  0.12500000000E+03  0.12500000000E+03 0.  0.
        -13    1    3    3    0    0  0.38985897310E+02  0.29706973334E+01 -0.25391827926E+02  0.46620610476E+02  0.10566000000E+00 0. -1.
         23    2    1    0    0    0  0.41925465396E+01 -0.27493348714E+02 -0.11472240776E+02  0.94915552549E+02  0.90021598171E+02 0.  0.
         13    1    3    3    0    0 -0.34793350770E+02 -0.30464046048E+02  0.13919587149E+02  0.48294942073E+02  0.10566000000E+00 0.  1.
         22    1    1    0    0    0 -0.41925465396E+01  0.27493348714E+02  0.11472240776E+02  0.30084447451E+02  0.00000000000E+00 0. -1.
</event>
<event>
 5    1  0.1267616E-004  0.9118800E+02  0.7818608E-02  0.1130116E+00
         25   -1    0    0    0    0  0.00000000000E+00  0.00000000000E+00  0.99999998245E-14  0.12500000000E+03  0.12500000000E+03 0.  0.
        -13    1    3    3    0    0 -0.10535709002E+02  0.14721949799E+02 -0.31795036548E+02  0.36587873445E+02  0.10566000000E+00 0. -1.
         23    2    1    0    0    0 -0.11490157011E+02  0.67395743098E+01  0.26449899163E+02  0.95385092677E+02  0.90671236725E+02 0.  0.
         13    1    3    3    0    0 -0.95444800899E+00 -0.79823754896E+01  0.58244935711E+02  0.58797219233E+02  0.10566000000E+00 0.  1.
         22    1    1    0    0    0  0.11490157011E+02 -0.67395743098E+01 -0.26449899163E+02  0.29614907323E+02  0.00000000000E+00 0.  1.
</event>
<event>
 5    1  0.1267616E-004  0.9118800E+02  0.7818608E-02  0.1130116E+00
         25   -1    0    0    0    0  0.00000000000E+00  0.00000000000E+00  0.99999998245E-14  0.12500000000E+03  0.12500000000E+03 0.  0.
        -13    1    3    3    0    0 -0.25878882004E+01 -0.33644226302E+02 -0.42864404451E+02  0.54552721854E+02  0.10566000000E+00 0.  1.
         23    2    1    0    0    0 -0.21081903245E+02 -0.48854479769E+01 -0.14872517134E+02  0.98741553506E+02  0.95186072388E+02 0.  0.
         13    1    3    3    0    0 -0.18494015045E+02  0.28758778325E+02  0.27991887317E+02  0.44188831652E+02  0.10566000000E+00 0. -1.
         22    1    1    0    0    0  0.21081903245E+02  0.48854479769E+01  0.14872517134E+02  0.26258446494E+02  0.00000000000E+00 0.  1.
</event>
<event>
 5    1  0.1267616E-004  0.9118800E+02  0.7818608E-02  0.1130116E+00
         25   -1    0    0    0    0  0.00000000000E+00  0.00000000000E+00  0.99999998245E-14  0.12500000000E+03  0.12500000000E+03 0.  0.
        -13    1    3    3    0    0  0.34239852108E+02 -0.17288206295E+02  0.22580111617E+02  0.44509798404E+02  0.10566000000E+00 0.  1.
         23    2    1    0    0    0  0.11265411101E+02 -0.89191186201E+01 -0.23948294871E+02  0.97071860222E+02  0.92967548400E+02 0.  0.
         13    1    3    3    0    0 -0.22974441007E+02  0.83690876747E+01 -0.46528406489E+02  0.52562061818E+02  0.10566000000E+00 0. -1.
         22    1    1    0    0    0 -0.11265411101E+02  0.89191186201E+01  0.23948294871E+02  0.27928139778E+02  0.00000000000E+00 0. -1.
</event>
<event>
 5    1  0.1267616E-004  0.9118800E+02  0.7818608E-02  0.1130116E+00
         25   -1    0    0    0    0  0.00000000000E+00  0.00000000000E+00  0.99999998245E-14  0.12500000000E+03  0.12500000000E+03 0.  0.
        -13    1    3    3    0    0  0.46053159620E+02 -0.57969503752E+01 -0.47749473690E+01  0.46661648396E+02  0.10566000000E+00 0.  1.
         23    2    1    0    0    0  0.66656672193E+01  0.21411488753E+02 -0.17907946015E+02  0.96301959987E+02  0.91926546747E+02 0.  0.
         13    1    3    3    0    0 -0.39387492401E+02  0.27208439128E+02 -0.13132998646E+02  0.49640311591E+02  0.10566000000E+00 0. -1.
         22    1    1    0    0    0 -0.66656672193E+01 -0.21411488753E+02  0.17907946015E+02  0.28698040013E+02  0.00000000000E+00 0.  1.
</event>
<event>
 5    1  0.1267616E-004  0.9118800E+02  0.7818608E-02  0.1130116E+00
         25   -1    0    0    0    0  0.00000000000E+00  0.00000000000E+00  0.99999998245E-14  0.12500000000E+03  0.12500000000E+03 0.  0.
        -13    1    3    3    0    0 -0.93631469252E+01 -0.37494826790E+02 -0.61904540968E+01  0.39139027099E+02  0.10566000000E+00 0.  1.
         23    2    1    0    0    0  0.21670574991E+02  0.25210952838E+01  0.19335273297E+02  0.95848284178E+02  0.91307562910E+02 0.  0.
         13    1    3    3    0    0  0.31033721917E+02  0.40015922073E+02  0.25525727394E+02  0.56709257079E+02  0.10566000000E+00 0. -1.
         22    1    1    0    0    0 -0.21670574991E+02 -0.25210952838E+01 -0.19335273297E+02  0.29151715822E+02  0.00000000000E+00 0. -1.
</event>
<event>
 5    1  0.1267616E-004  0.9118800E+02  0.7818608E-02  0.1130116E+00
         25   -1    0    0    0    0  0.00000000000E+00  0.00000000000E+00  0.99999998245E-14  0.12500000000E+03  0.12500000000E+03 0.  0.
        -13    1    3    3    0    0 -0.77266751296E+01  0.60141503924E+02 -0.12976500919E+02  0.62008892451E+02  0.10566000000E+00 0.  1.
         23    2    1    0    0    0  0.58934910868E+00  0.27029879579E+02 -0.95759461001E+01  0.96317941738E+02  0.91948275864E+02 0.  0.
         13    1    3    3    0    0  0.83160242383E+01 -0.33111624345E+02  0.34005548185E+01  0.34309049287E+02  0.10566000000E+00 0. -1.
         22    1    1    0    0    0 -0.58934910868E+00 -0.27029879579E+02  0.95759461001E+01  0.28682058262E+02  0.00000000000E+00 0.  1.
</event>
<event>
 5    1  0.1267616E-004  0.9118800E+02  0.7818608E-02  0.1130116E+00
         25   -1    0    0    0    0  0.00000000000E+00  0.00000000000E+00  0.99999998245E-14  0.12500000000E+03  0.12500000000E+03 0.  0.
        -13    1    3    3    0    0  0.26908421345E+02 -0.43691219128E+02  0.25424444180E+02  0.57266039623E+02  0.10566000000E+00 0.  1.
         23    2    1    0    0    0  0.17123135809E+02 -0.58840271494E+01  0.22056078973E+02  0.96464159815E+02  0.92146839087E+02 0.  0.
         13    1    3    3    0    0 -0.97852855362E+01  0.37807191979E+02 -0.33683652078E+01  0.39198120192E+02  0.10566000000E+00 0. -1.
         22    1    1    0    0    0 -0.17123135809E+02  0.58840271494E+01 -0.22056078973E+02  0.28535840185E+02  0.00000000000E+00 0.  1.
</event>
<event>
 5    1  0.1267616E-004  0.9118800E+02  0.7818608E-02  0.1130116E+00
         25   -1    0    0    0    0  0.00000000000E+00  0.00000000000E+00  0.99999998245E-14  0.12500000000E+03  0.12500000000E+03 0.  0.
        -13    1    3    3    0    0  0.86670186999E+01 -0.18612247126E+01  0.38447889360E+02  0.39456719718E+02  0.10566000000E+00 0.  1.
         23    2    1    0    0    0  0.95210039352E+01  0.26303969199E+02 -0.98238805289E+01  0.95351105582E+02  0.90624369766E+02 0.  0.
         13    1    3    3    0    0  0.85398523527E+00  0.28165193912E+02 -0.48271769889E+02  0.55894385864E+02  0.10566000000E+00 0. -1.
         22    1    1    0    0    0 -0.95210039352E+01 -0.26303969199E+02  0.98238805289E+01  0.29648894418E+02  0.00000000000E+00 0. -1.
</event>
<event>
 5    1  0.1267616E-004  0.9118800E+02  0.7818608E-02  0.1130116E+00
         25   -1    0    0    0    0  0.00000000000E+00  0.00000000000E+00  0.99999998245E-14  0.12500000000E+03  0.12500000000E+03 0.  0.
        -13    1    3    3    0    0  0.53873189974E+01 -0.19023413010E+02  0.53561828810E+02  0.57094606734E+02  0.10566000000E+00 0.  1.
         23    2    1    0    0    0  0.11816711983E+02 -0.15419097850E+02  0.68243615687E+01  0.10440982828E+03  0.10235945032E+03 0.  0.
         13    1    3    3    0    0  0.64293929853E+01  0.36043151603E+01 -0.46737467242E+02  0.47315221548E+02  0.10566000000E+00 0. -1.
         22    1    1    0    0    0 -0.11816711983E+02  0.15419097850E+02 -0.68243615687E+01  0.20590171718E+02  0.00000000000E+00 0.  1.
</event>
<event>
 5    1  0.1267616E-004  0.9118800E+02  0.7818608E-02  0.1130116E+00
         25   -1    0    0    0    0  0.00000000000E+00  0.00000000000E+00  0.99999998245E-14  0.12500000000E+03  0.12500000000E+03 0.  0.
        -13    1    3    3    0    0  0.60648343872E+02  0.10842674422E+01 -0.99943014859E+01  0.61475966658E+02  0.10566000000E+00 0.  1.
         23    2    1    0    0    0  0.32130108186E+02  0.78014551111E+01 -0.18550924026E+01  0.91884325136E+02  0.85709283535E+02 0.  0.
         13    1    3    3    0    0 -0.28518235686E+02  0.67171876688E+01  0.81392090833E+01  0.30408358479E+02  0.10566000000E+00 0. -1.
         22    1    1    0    0    0 -0.32130108186E+02 -0.78014551111E+01  0.18550924026E+01  0.33115674864E+02  0.00000000000E+00 0.  1.
</event>
<event>
 5    1  0.1267616E-004  0.9118800E+02  0.7818608E-02  0.1130116E+00
         25   -1    0    0    0    0  0.00000000000E+00  0.00000000000E+00  0.99999998245E-14  0.12500000000E+03  0.12500000000E+03 0.  0.
        -13    1    3    3    0    0 -0.22426887223E+02  0.26706947522E+02  0.50933491965E+02  0.61728908011E+02  0.10566000000E+00 0.  1.
         23    2    1    0    0    0 -0.82737727294E+01  0.18137937661E+02  0.20283473324E+02  0.96559546631E+02  0.92276143492E+02 0.  0.
         13    1    3    3    0    0  0.14153114493E+02 -0.85690098614E+01 -0.30650018642E+02  0.34830638619E+02  0.10566000000E+00 0. -1.
         22    1    1    0    0    0  0.82737727294E+01 -0.18137937661E+02 -0.20283473324E+02  0.28440453369E+02  0.00000000000E+00 0.  1.
</event>
<event>
 5    1  0.1267616E-004  0.9118800E+02  0.7818608E-02  0.1130116E+00
         25   -1    0    0    0    0  0.00000000000E+00  0.00000000000E+00  0.99999998245E-14  0.12500000000E+03  0.12500000000E+03 0.  0.
        -13    1    3    3    0    0  0.72636099978E+01  0.38463475751E+02  0.26221307822E+01  0.39231183145E+02  0.10566000000E+00 0.  1.
         23    2    1    0    0    0 -0.27682676453E+02 -0.64920733291E+01 -0.27956503913E+01  0.96429153796E+02  0.92099340112E+02 0.  0.
         13    1    3    3    0    0 -0.34946286450E+02 -0.44955549080E+02 -0.54177811736E+01  0.57197970652E+02  0.10566000000E+00 0. -1.
         22    1    1    0    0    0  0.27682676453E+02  0.64920733291E+01  0.27956503913E+01  0.28570846204E+02  0.00000000000E+00 0. -1.
</event>
<event>
 5    1  0.1267616E-004  0.9118800E+02  0.7818608E-02  0.1130116E+00
         25   -1    0    0    0    0  0.00000000000E+00  0.00000000000E+00  0.99999998245E-14  0.12500000000E+03  0.12500000000E+03 0.  0.
        -13    1    3    3    0    0 -0.44025370300E+01 -0.59166261968E+02  0.36720853085E+00  0.59331061795E+02  0.10566000000E+00 0.  1.
         23    2    1    0    0    0  0.11776524156E+02 -0.25950596494E+02  0.28446116486E+01  0.96360660011E+02  0.92006331319E+02 0.  0.
         13    1    3    3    0    0  0.16179061186E+02  0.33215665475E+02  0.24774031177E+01  0.37029598216E+02  0.10566000000E+00 0. -1.
         22    1    1    0    0    0 -0.11776524156E+02  0.25950596494E+02 -0.28446116486E+01  0.28639339989E+02  0.00000000000E+00 0.  1.
</event>
<event>
 5    1  0.1267616E-004  0.9118800E+02  0.7818608E-02  0.1130116E+00
         25   -1    0    0    0    0  0.00000000000E+00  0.00000000000E+00  0.99999998245E-14  0.12500000000E+03  0.12500000000E+03 0.  0.
        -13    1    3    3    0    0 -0.26136919975E+02 -0.19851378786E+02  0.13006248737E+02  0.35304241894E+02  0.10566000000E+00 0.  1.
         23    2    1    0    0    0  0.65613486815E+01  0.13373742054E+02 -0.25299787923E+02  0.95640375650E+02  0.91022491245E+02 0.  0.
         13    1    3    3    0    0  0.32698268656E+02  0.33225120839E+02 -0.38306036660E+02  0.60336133756E+02  0.10566000000E+00 0. -1.
         22    1    1    0    0    0 -0.65613486815E+01 -0.13373742054E+02  0.25299787923E+02  0.29359624350E+02  0.00000000000E+00 0. -1.
</event>
<event>
 5    1  0.1267616E-004  0.9118800E+02  0.7818608E-02  0.1130116E+00
         25   -1    0    0    0    0  0.00000000000E+00  0.00000000000E+00  0.99999998245E-14  0.12500000000E+03  0.12500000000E+03 0.  0.
        -13    1    3    3    0    0  0.30860218344E+02  0.90461175421E+01 -0.49088352785E+02  0.58684434580E+02  0.10566000000E+00 0.  1.
         23    2    1    0    0    0 -0.57201983824E+00  0.26212200868E+01 -0.27535366100E+02  0.97334237988E+02  0.93319662972E+02 0.  0.
         13    1    3    3    0    0 -0.31432238182E+02 -0.64248974553E+01  0.21552986685E+02  0.38649803409E+02  0.10566000000E+00 0. -1.
         22    1    1    0    0    0  0.57201983824E+00 -0.26212200868E+01  0.27535366100E+02  0.27665762012E+02  0.00000000000E+00 0.  1.
</event>
<event>
 5    1  0.1267616E-004  0.9118800E+02  0.7818608E-02  0.1130116E+00
         25   -1    0    0    0    0  0.00000000000E+00  0.00000000000E+00  0.99999998245E-14  0.12500000000E+03  0.12500000000E+03 0.  0.
        -13    1    3    3    0    0  0.21789947063E+02 -0.42994379734E+02  0.19478468064E+02  0.51987886703E+02  0.10566000000E+00 0.  1.
         23    2    1    0    0    0  0.17906971202E+01 -0.27542095303E+02 -0.14093492867E+02  0.94009676493E+02  0.88754825916E+02 0.  0.
         13    1    3    3    0    0 -0.19999249943E+02  0.15452284431E+02 -0.33571960931E+02  0.42021789790E+02  0.10566000000E+00 0. -1.
         22    1    1    0    0    0 -0.17906971202E+01  0.27542095303E+02  0.14093492867E+02  0.30990323507E+02  0.00000000000E+00 0.  1.
</event>
<event>
 5    1  0.1267616E-004  0.9118800E+02  0.7818608E-02  0.1130116E+00
         25   -1    0    0    0    0  0.00000000000E+00  0.00000000000E+00  0.99999998245E-14  0.12500000000E+03  0.12500000000E+03 0.  0.
        -13    1    3    3    0    0  0.74931926331E+01 -0.18139464794E+02 -0.43395562971E+02  0.47627451836E+02  0.10566000000E+00 0. -1.
         23    2    1    0    0    0  0.23339686317E+02  0.36404035240E+01  0.29126386339E+01  0.10119922356E+03  0.98360591147E+02 0.  0.
         13    1    3    3    0    0  0.15846493684E+02  0.21779868318E+02  0.46308201605E+02  0.53571771726E+02  0.10566000000E+00 0.  1.
         22    1    1    0    0    0 -0.23339686317E+02 -0.36404035240E+01 -0.29126386339E+01  0.23800776437E+02  0.00000000000E+00 0. -1.
</event>
<event>
 5    1  0.1267616E-004  0.9118800E+02  0.7818608E-02  0.1130116E+00
         25   -1    0    0    0    0  0.00000000000E+00  0.00000000000E+00  0.99999998245E-14  0.12500000000E+03  0.12500000000E+03 0.  0.
        -13    1    3    3    0    0  0.13488204290E+02 -0.30321359876E+02  0.65963428542E+01  0.33835475803E+02  0.10566000000E+00 0. -1.
         23    2    1    0    0    0  0.39266056715E+02  0.66030006624E+01  0.19477563540E+02  0.80673954506E+02  0.67405405024E+02 0.  0.
         13    1    3    3    0    0  0.25777852425E+02  0.36924360539E+02  0.12881220686E+02  0.46838478703E+02  0.10566000000E+00 0.  1.
         22    1    1    0    0    0 -0.39266056715E+02 -0.66030006624E+01 -0.19477563540E+02  0.44326045494E+02  0.00000000000E+00 0.  1.
</event>
<event>
 5    1  0.1267616E-004  0.9118800E+02  0.7818608E-02  0.1130116E+00
         25   -1    0    0    0    0  0.00000000000E+00  0.00000000000E+00  0.99999998245E-14  0.12500000000E+03  0.12500000000E+03 0.  0.
        -13    1    3    3    0    0  0.15216651587E+02 -0.41839544013E+02 -0.42883885102E+02  0.61815311163E+02  0.10566000000E+00 0. -1.
         23    2    1    0    0    0  0.13064121242E+02 -0.21515612457E+02 -0.17801821208E+02  0.94169857582E+02  0.88980134836E+02 0.  0.
         13    1    3    3    0    0 -0.21525303451E+01  0.20323931556E+02  0.25082063894E+02  0.32354546419E+02  0.10566000000E+00 0.  1.
         22    1    1    0    0    0 -0.13064121242E+02  0.21515612457E+02  0.17801821208E+02  0.30830142418E+02  0.00000000000E+00 0. -1.
</event>
<event>
 5    1  0.1267616E-004  0.9118800E+02  0.7818608E-02  0.1130116E+00
         25   -1    0    0    0    0  0.00000000000E+00  0.00000000000E+00  0.99999998245E-14  0.12500000000E+03  0.12500000000E+03 0.  0.
        -13    1    3    3    0    0 -0.24416665412E+02 -0.28091906097E+02 -0.16451196430E+02  0.40693755860E+02  0.10566000000E+00 0. -1.
         23    2    1    0    0    0  0.12647952579E+02 -0.19181512781E+02  0.20810275575E+02  0.94000504738E+02  0.88741907712E+02 0.  0.
         13    1    3    3    0    0  0.37064617991E+02  0.89103933157E+01  0.37261472005E+02  0.53306748878E+02  0.10566000000E+00 0.  1.
         22    1    1    0    0    0 -0.12647952579E+02  0.19181512781E+02 -0.20810275575E+02  0.30999495262E+02  0.00000000000E+00 0.  1.
</event>
<event>
 5    1  0.1267616E-004  0.9118800E+02  0.7818608E-02  0.1130116E+00
         25   -1    0    0    0    0  0.00000000000E+00  0.00000000000E+00  0.99999998245E-14  0.12500000000E+03  0.12500000000E+03 0.  0.
        -13    1    3    3    0    0 -0.23420958106E+02  0.54999220001E+01  0.24829730795E+02  0.34573358472E+02  0.10566000000E+00 0. -1.
         23    2    1    0    0    0  0.17310789691E+01 -0.57122660848E+01 -0.29189277195E+02  0.95206703415E+02  0.90424973617E+02 0.  0.
         13    1    3    3    0    0  0.25152037075E+02 -0.11212188085E+02 -0.54019007991E+02  0.60633344943E+02  0.10566000000E+00 0.  1.
         22    1    1    0    0    0 -0.17310789691E+01  0.57122660848E+01  0.29189277195E+02  0.29793296585E+02  0.00000000000E+00 0.  1.
</event>
<event>
 5    1  0.1267616E-004  0.9118800E+02  0.7818608E-02  0.1130116E+00
         25   -1    0    0    0    0  0.00000000000E+00  0.00000000000E+00  0.99999998245E-14  0.12500000000E+03  0.12500000000E+03 0.  0.
        -13    1    3    3    0    0  0.63692550745E+01 -0.40872159665E+02  0.32472892486E+02  0.52588979419E+02  0.10566000000E+00 0.  1.
         23    2    1    0    0    0  0.23853715461E+02 -0.14427675736E+02  0.12356555011E+01  0.97095082638E+02  0.92998766978E+02 0.  0.
         13    1    3    3    0    0  0.17484460387E+02  0.26444483929E+02 -0.31237236985E+02  0.44506103219E+02  0.10566000000E+00 0. -1.
         22    1    1    0    0    0 -0.23853715461E+02  0.14427675736E+02 -0.12356555011E+01  0.27904917362E+02  0.00000000000E+00 0.  1.
</event>
<event>
 5    1  0.1267616E-004  0.9118800E+02  0.7818608E-02  0.1130116E+00
         25   -1    0    0    0    0  0.00000000000E+00  0.00000000000E+00  0.99999998245E-14  0.12500000000E+03  0.12500000000E+03 0.  0.
        -13    1    3    3    0    0 -0.96223299836E+01 -0.47016882640E+02  0.52641503327E+01  0.48279384112E+02  0.10566000000E+00 0.  1.
         23    2    1    0    0    0 -0.82967238793E+01 -0.71858402738E+01  0.28533303090E+02  0.94428423122E+02  0.89342631372E+02 0.  0.
         13    1    3    3    0    0  0.13256061043E+01  0.39831042366E+02  0.23269152757E+02  0.46149039010E+02  0.10566000000E+00 0. -1.
         22    1    1    0    0    0  0.82967238793E+01  0.71858402738E+01 -0.28533303090E+02  0.30571576878E+02  0.00000000000E+00 0. -1.
</event>
<event>
 5    1  0.1267616E-004  0.9118800E+02  0.7818608E-02  0.1130116E+00
         25   -1    0    0    0    0  0.00000000000E+00  0.00000000000E+00  0.99999998245E-14  0.12500000000E+03  0.12500000000E+03 0.  0.
        -13    1    3    3    0    0 -0.58890474964E+01  0.38994667162E+02 -0.50166008782E+01  0.39754778278E+02  0.10566000000E+00 0.  1.
         23    2    1    0    0    0 -0.25681119085E+02 -0.12604731420E+02  0.51085621913E+01  0.95939777370E+02  0.91432731243E+02 0.  0.
         13    1    3    3    0    0 -0.19792071588E+02 -0.51599398582E+02  0.10125163069E+02  0.56184999093E+02  0.10566000000E+00 0. -1.
         22    1    1    0    0    0  0.25681119085E+02  0.12604731420E+02 -0.51085621913E+01  0.29060222630E+02  0.00000000000E+00 0. -1.
</event>
<event>
 5    1  0.1267616E-004  0.9118800E+02  0.7818608E-02  0.1130116E+00
         25   -1    0    0    0    0  0.00000000000E+00  0.00000000000E+00  0.99999998245E-14  0.12500000000E+03  0.12500000000E+03 0.  0.
        -13    1    3    3    0    0 -0.10043687922E+02 -0.35340969162E+02 -0.37797791181E+02  0.52711895721E+02  0.10566000000E+00 0.  1.
         23    2    1    0    0    0 -0.24252642854E+02 -0.88258713641E+00 -0.13147998975E+02  0.97398559413E+02  0.93405780620E+02 0.  0.
         13    1    3    3    0    0 -0.14208954932E+02  0.34458382025E+02  0.24649792206E+02  0.44686663692E+02  0.10566000000E+00 0. -1.
         22    1    1    0    0    0  0.24252642854E+02  0.88258713641E+00  0.13147998975E+02  0.27601440587E+02  0.00000000000E+00 0.  1.
</event>
<event>
 5    1  0.1267616E-004  0.9118800E+02  0.7818608E-02  0.1130116E+00
         25   -1    0    0    0    0  0.00000000000E+00  0.00000000000E+00  0.99999998245E-14  0.12500000000E+03  0.12500000000E+03 0.  0.
        -13    1    3    3    0    0 -0.19205915695E+02 -0.45087856468E+02  0.37301792378E+02  0.61589097065E+02  0.10566000000E+00 0.  1.
         23    2    1    0    0    0 -0.10560876054E+02 -0.15088707395E+02  0.21848746736E+02  0.96424329793E+02  0.92092792596E+02 0.  0.
         13    1    3    3    0    0  0.86450396412E+01  0.29999149073E+02 -0.15453045643E+02  0.34835232728E+02  0.10566000000E+00 0. -1.
         22    1    1    0    0    0  0.10560876054E+02  0.15088707395E+02 -0.21848746736E+02  0.28575670207E+02  0.00000000000E+00 0.  1.
</event>
<event>
 5    1  0.1267616E-004  0.9118800E+02  0.7818608E-02  0.1130116E+00
         25   -1    0    0    0    0  0.00000000000E+00  0.00000000000E+00  0.99999998245E-14  0.12500000000E+03  0.12500000000E+03 0.  0.
        -13    1    3    3    0    0 -0.35290692694E+02 -0.11495985504E+02  0.39140381151E-01  0.37116079663E+02  0.10566000000E+00 0.  1.
         23    2    1    0    0    0  0.57875098242E+01  0.22464612077E+02 -0.20310102009E+02  0.94167317513E+02  0.88976566455E+02 0.  0.
         13    1    3    3    0    0  0.41078202519E+02  0.33960597581E+02 -0.20349242390E+02  0.57051237849E+02  0.10566000000E+00 0. -1.
         22    1    1    0    0    0 -0.57875098242E+01 -0.22464612077E+02  0.20310102009E+02  0.30832682487E+02  0.00000000000E+00 0. -1.
</event>
<event>
 5    1  0.1267616E-004  0.9118800E+02  0.7818608E-02  0.1130116E+00
         25   -1    0    0    0    0  0.00000000000E+00  0.00000000000E+00  0.99999998245E-14  0.12500000000E+03  0.12500000000E+03 0.  0.
        -13    1    3    3    0    0  0.17077269178E+02  0.49591127625E+01  0.49520075172E+02  0.52616299101E+02  0.10566000000E+00 0. -1.
         23    2    1    0    0    0  0.24912455465E+02  0.77770074565E+01  0.43569553040E+01  0.98540685160E+02  0.94921922072E+02 0.  0.
         13    1    3    3    0    0  0.78351862870E+01  0.28178946941E+01 -0.45163119868E+02  0.45924386059E+02  0.10566000000E+00 0.  1.
         22    1    1    0    0    0 -0.24912455465E+02 -0.77770074565E+01 -0.43569553040E+01  0.26459314840E+02  0.00000000000E+00 0.  1.
</event>
<event>
 5    1  0.1267616E-004  0.9118800E+02  0.7818608E-02  0.1130116E+00
         25   -1    0    0    0    0  0.00000000000E+00  0.00000000000E+00  0.99999998245E-14  0.12500000000E+03  0.12500000000E+03 0.  0.
        -13    1    3    3    0    0  0.35135563361E+01  0.97331932583E+01 -0.51769062717E+02  0.52793249074E+02  0.10566000000E+00 0. -1.
         23    2    1    0    0    0  0.22377589452E+02 -0.77777108906E+01 -0.18033196371E+02  0.95226765917E+02  0.90452702996E+02 0.  0.
         13    1    3    3    0    0  0.18864033116E+02 -0.17510904149E+02  0.33735866346E+02  0.42433516843E+02  0.10566000000E+00 0.  1.
         22    1    1    0    0    0 -0.22377589452E+02  0.77777108906E+01  0.18033196371E+02  0.29773234083E+02  0.00000000000E+00 0. -1.
</event>
<event>
 5    1  0.1267616E-004  0.9118800E+02  0.7818608E-02  0.1130116E+00
         25   -1    0    0    0    0  0.00000000000E+00  0.00000000000E+00  0.99999998245E-14  0.12500000000E+03  0.12500000000E+03 0.  0.
        -13    1    3    3    0    0  0.40972534148E+01 -0.49474788607E+02  0.20050132057E+02  0.53540275987E+02  0.10566000000E+00 0.  1.
         23    2    1    0    0    0 -0.18624349882E+02 -0.22405035281E+02 -0.29633684319E+01  0.95714618546E+02  0.91124391008E+02 0.  0.
         13    1    3    3    0    0 -0.22721603296E+02  0.27069753326E+02 -0.23013500489E+02  0.42174342559E+02  0.10566000000E+00 0. -1.
         22    1    1    0    0    0  0.18624349882E+02  0.22405035281E+02  0.29633684319E+01  0.29285381454E+02  0.00000000000E+00 0.  1.
</event>
<event>
 5    1  0.1267616E-004  0.9118800E+02  0.7818608E-02  0.1130116E+00
         25   -1    0    0    0    0  0.00000000000E+00  0.00000000000E+00  0.99999998245E-14  0.12500000000E+03  0.12500000000E+03 0.  0.
        -13    1    3    3    0    0  0.20574738234E+02  0.13611523391E+02  0.54561888864E+02  0.59879915689E+02  0.10566000000E+00 0. -1.
         23    2    1    0    0    0  0.12946763637E+02  0.16879242262E+02  0.18741484217E+02  0.96649149243E+02  0.92397442122E+02 0.  0.
         13    1    3    3    0    0 -0.76279745969E+01  0.32677188702E+01 -0.35820404647E+02  0.36769233554E+02  0.10566000000E+00 0.  1.
         22    1    1    0    0    0 -0.12946763637E+02 -0.16879242262E+02 -0.18741484217E+02  0.28350850757E+02  0.00000000000E+00 0. -1.
</event>
<event>
 5    1  0.1267616E-004  0.9118800E+02  0.7818608E-02  0.1130116E+00
         25   -1    0    0    0    0  0.00000000000E+00  0.00000000000E+00  0.99999998245E-14  0.12500000000E+03  0.12500000000E+03 0.  0.
        -13    1    3    3    0    0  0.27480492167E+02 -0.20935085535E+02  0.19340350918E+02  0.39591862722E+02  0.10566000000E+00 0.  1.
         23    2    1    0    0    0  0.17617587431E+02  0.22484748438E+02 -0.11974357443E+02  0.94026970840E+02  0.88779179484E+02 0.  0.
         13    1    3    3    0    0 -0.98629047368E+01  0.43419833973E+02 -0.31314708360E+02  0.54435108118E+02  0.10566000000E+00 0. -1.
         22    1    1    0    0    0 -0.17617587431E+02 -0.22484748438E+02  0.11974357443E+02  0.30973029160E+02  0.00000000000E+00 0. -1.
</event>
<event>
 5    1  0.1267616E-004  0.9118800E+02  0.7818608E-02  0.1130116E+00
         25   -1    0    0    0    0  0.00000000000E+00  0.00000000000E+00  0.99999998245E-14  0.12500000000E+03  0.12500000000E+03 0.  0.
        -13    1    3    3    0    0 -0.79575472338E+00 -0.24249065749E+02  0.24413970556E+02  0.34419522623E+02  0.10566000000E+00 0. -1.
         23    2    1    0    0    0  0.26353316204E+01  0.30821128754E+02  0.19156172253E+01  0.94007153409E+02  0.88751272398E+02 0.  0.
         13    1    3    3    0    0  0.34310863437E+01  0.55070194503E+02 -0.22498353330E+02  0.59587630786E+02  0.10566000000E+00 0.  1.
         22    1    1    0    0    0 -0.26353316204E+01 -0.30821128754E+02 -0.19156172253E+01  0.30992846591E+02  0.00000000000E+00 0.  1.
</event>
<event>
 5    1  0.1267616E-004  0.9118800E+02  0.7818608E-02  0.1130116E+00
         25   -1    0    0    0    0  0.00000000000E+00  0.00000000000E+00  0.99999998245E-14  0.12500000000E+03  0.12500000000E+03 0.  0.
        -13    1    3    3    0    0 -0.19203361322E+02 -0.29355420048E+02 -0.14607546178E+02  0.37998701841E+02  0.10566000000E+00 0.  1.
         23    2    1    0    0    0  0.11658065864E+02  0.19926922917E+02 -0.17209491907E+02  0.96204872490E+02  0.91794434050E+02 0.  0.
         13    1    3    3    0    0  0.30861427186E+02  0.49282342964E+02 -0.26019457287E+01  0.58206170649E+02  0.10566000000E+00 0. -1.
         22    1    1    0    0    0 -0.11658065864E+02 -0.19926922917E+02  0.17209491907E+02  0.28795127510E+02  0.00000000000E+00 0. -1.
</event>
<event>
 5    1  0.1267616E-004  0.9118800E+02  0.7818608E-02  0.1130116E+00
         25   -1    0    0    0    0  0.00000000000E+00  0.00000000000E+00  0.99999998245E-14  0.12500000000E+03  0.12500000000E+03 0.  0.
        -13    1    3    3    0    0 -0.72219409986E+01 -0.25989279745E+02 -0.31394212986E+02  0.41390903186E+02  0.10566000000E+00 0. -1.
         23    2    1    0    0    0 -0.13333749462E+02 -0.91760642062E+01  0.21991297442E+02  0.97694209547E+02  0.93800599075E+02 0.  0.
         13    1    3    3    0    0 -0.61118084636E+01  0.16813215539E+02  0.53385510429E+02  0.56303306362E+02  0.10566000000E+00 0.  1.
         22    1    1    0    0    0  0.13333749462E+02  0.91760642062E+01 -0.21991297442E+02  0.27305790453E+02  0.00000000000E+00 0.  1.
</event>
<event>
 5    1  0.1267616E-004  0.9118800E+02  0.7818608E-02  0.1130116E+00
         25   -1    0    0    0    0  0.00000000000E+00  0.00000000000E+00  0.99999998245E-14  0.12500000000E+03  0.12500000000E+03 0.  0.
        -13    1    3    3    0    0 -0.24131782678E+02 -0.48695348220E+02  0.77903361463E+01  0.54902462374E+02  0.10566000000E+00 0. -1.
         23    2    1    0    0    0  0.60450091255E+01 -0.22187906673E+02  0.17352783857E+02  0.96190896483E+02  0.91775400412E+02 0.  0.
         13    1    3    3    0    0  0.30176791804E+02  0.26507441547E+02  0.95624477108E+01  0.41288434109E+02  0.10566000000E+00 0.  1.
         22    1    1    0    0    0 -0.60450091255E+01  0.22187906673E+02 -0.17352783857E+02  0.28809103517E+02  0.00000000000E+00 0. -1.
</event>
<event>
 5    1  0.1267616E-004  0.9118800E+02  0.7818608E-02  0.1130116E+00
         25   -1    0    0    0    0  0.00000000000E+00  0.00000000000E+00  0.99999998245E-14  0.12500000000E+03  0.12500000000E+03 0.  0.
        -13    1    3    3    0    0  0.14376819049E+01  0.35955077671E+02 -0.50155681688E+02  0.61728746214E+02  0.10566000000E+00 0. -1.
         23    2    1    0    0    0  0.93472490294E+00  0.22493687579E+02 -0.19491484980E+02  0.95221523238E+02  0.90445457649E+02 0.  0.
         13    1    3    3    0    0 -0.50295700199E+00 -0.13461390092E+02  0.30664196708E+02  0.33492777023E+02  0.10566000000E+00 0.  1.
         22    1    1    0    0    0 -0.93472490294E+00 -0.22493687579E+02  0.19491484980E+02  0.29778476762E+02  0.00000000000E+00 0. -1.
</event>
<event>
 5    1  0.1267616E-004  0.9118800E+02  0.7818608E-02  0.1130116E+00
         25   -1    0    0    0    0  0.00000000000E+00  0.00000000000E+00  0.99999998245E-14  0.12500000000E+03  0.12500000000E+03 0.  0.
        -13    1    3    3    0    0 -0.15787348290E+02  0.23602321029E+02  0.16107175935E+02  0.32646013610E+02  0.10566000000E+00 0.  1.
         23    2    1    0    0    0  0.50720209148E+01 -0.31239831143E+02  0.55978896356E+00  0.93346156478E+02  0.87815369495E+02 0.  0.
         13    1    3    3    0    0  0.20859369205E+02 -0.54842152172E+02 -0.15547386972E+02  0.60700142868E+02  0.10566000000E+00 0. -1.
         22    1    1    0    0    0 -0.50720209148E+01  0.31239831143E+02 -0.55978896356E+00  0.31653843522E+02  0.00000000000E+00 0. -1.
</event>
<event>
 5    1  0.1267616E-004  0.9118800E+02  0.7818608E-02  0.1130116E+00
         25   -1    0    0    0    0  0.00000000000E+00  0.00000000000E+00  0.99999998245E-14  0.12500000000E+03  0.12500000000E+03 0.  0.
        -13    1    3    3    0    0  0.35003494861E+01  0.32253712756E+02 -0.19319195989E+02  0.37759726307E+02  0.10566000000E+00 0. -1.
         23    2    1    0    0    0  0.14358917087E+02 -0.57334129820E+01  0.24038634512E+02  0.96418424229E+02  0.92084776469E+02 0.  0.
         13    1    3    3    0    0  0.10858567601E+02 -0.37987125738E+02  0.43357830501E+02  0.58658697923E+02  0.10566000000E+00 0.  1.
         22    1    1    0    0    0 -0.14358917087E+02  0.57334129820E+01 -0.24038634512E+02  0.28581575771E+02  0.00000000000E+00 0.  1.
</event>
<event>
 5    1  0.1267616E-004  0.9118800E+02  0.7818608E-02  0.1130116E+00
         25   -1    0    0    0    0  0.00000000000E+00  0.00000000000E+00  0.99999998245E-14  0.12500000000E+03  0.12500000000E+03 0.  0.
        -13    1    3    3    0    0  0.55908577644E+01 -0.31354994655E+02  0.39382301579E+02  0.50649483927E+02  0.10566000000E+00 0.  1.
         23    2    1    0    0    0  0.11842662323E+02 -0.27489985896E+02 -0.41350776519E+01  0.94783335018E+02  0.89837819177E+02 0.  0.
         13    1    3    3    0    0  0.62518045586E+01  0.38650087585E+01 -0.43517379231E+02  0.44133851091E+02  0.10566000000E+00 0. -1.
         22    1    1    0    0    0 -0.11842662323E+02  0.27489985896E+02  0.41350776519E+01  0.30216664982E+02  0.00000000000E+00 0.  1.
</event>
<event>
 5    1  0.1267616E-004  0.9118800E+02  0.7818608E-02  0.1130116E+00
         25   -1    0    0    0    0  0.00000000000E+00  0.00000000000E+00  0.99999998245E-14  0.12500000000E+03  0.12500000000E+03 0.  0.
        -13    1    3    3    0    0 -0.28114027433E+02 -0.17337216078E+02  0.30794511851E+02  0.45158506663E+02  0.10566000000E+00 0. -1.
         23    2    1    0    0    0  0.14773979657E+02 -0.25873513189E+02  0.10074520100E+02  0.93548368645E+02  0.88102736401E+02 0.  0.
         13    1    3    3    0    0  0.42888007089E+02 -0.85362971108E+01 -0.20719991751E+02  0.48389861982E+02  0.10566000000E+00 0.  1.
         22    1    1    0    0    0 -0.14773979657E+02  0.25873513189E+02 -0.10074520100E+02  0.31451631355E+02  0.00000000000E+00 0. -1.
</event>
<event>
 5    1  0.1267616E-004  0.9118800E+02  0.7818608E-02  0.1130116E+00
         25   -1    0    0    0    0  0.00000000000E+00  0.00000000000E+00  0.99999998245E-14  0.12500000000E+03  0.12500000000E+03 0.  0.
        -13    1    3    3    0    0 -0.67808418242E+01 -0.20959983924E+02 -0.11890665305E+02  0.25033973463E+02  0.10566000000E+00 0.  1.
         23    2    1    0    0    0  0.16516607709E+01  0.66909133221E+01  0.39987576474E+02  0.84422881120E+02  0.74031886913E+02 0.  0.
         13    1    3    3    0    0  0.84325025951E+01  0.27650897246E+02  0.51878241778E+02  0.59388907656E+02  0.10566000000E+00 0. -1.
         22    1    1    0    0    0 -0.16516607709E+01 -0.66909133221E+01 -0.39987576474E+02  0.40577118880E+02  0.00000000000E+00 0. -1.
</event>
<event>
 5    1  0.1267616E-004  0.9118800E+02  0.7818608E-02  0.1130116E+00
         25   -1    0    0    0    0  0.00000000000E+00  0.00000000000E+00  0.99999998245E-14  0.12500000000E+03  0.12500000000E+03 0.  0.
        -13    1    3    3    0    0 -0.41731043388E+02 -0.30798686388E+02  0.21932310349E+02  0.56312311857E+02  0.10566000000E+00 0.  1.
         23    2    1    0    0    0 -0.84602271571E+01 -0.97118073462E+01  0.26072259597E+02  0.95919811453E+02  0.91405431256E+02 0.  0.
         13    1    3    3    0    0  0.33270816231E+02  0.21086879042E+02  0.41399492478E+01  0.39607499595E+02  0.10566000000E+00 0. -1.
         22    1    1    0    0    0  0.84602271571E+01  0.97118073462E+01 -0.26072259597E+02  0.29080188547E+02  0.00000000000E+00 0.  1.
</event>
<event>
 5    1  0.1267616E-004  0.9118800E+02  0.7818608E-02  0.1130116E+00
         25   -1    0    0    0    0  0.00000000000E+00  0.00000000000E+00  0.99999998245E-14  0.12500000000E+03  0.12500000000E+03 0.  0.
        -13    1    3    3    0    0 -0.18424891578E+02 -0.33734665778E+02 -0.81687905226E+01  0.39296877833E+02  0.10566000000E+00 0. -1.
         23    2    1    0    0    0  0.18944125810E+02  0.70792969807E+01 -0.20726900699E+02  0.96041395734E+02  0.91571550896E+02 0.  0.
         13    1    3    3    0    0  0.37369017388E+02  0.40813962759E+02 -0.12558110176E+02  0.56744517901E+02  0.10566000000E+00 0.  1.
         22    1    1    0    0    0 -0.18944125810E+02 -0.70792969807E+01  0.20726900699E+02  0.28958604266E+02  0.00000000000E+00 0.  1.
</event>
<event>
 5    1  0.1267616E-004  0.9118800E+02  0.7818608E-02  0.1130116E+00
         25   -1    0    0    0    0  0.00000000000E+00  0.00000000000E+00  0.99999998245E-14  0.12500000000E+03  0.12500000000E+03 0.  0.
        -13    1    3    3    0    0 -0.32154596119E+02 -0.23167252651E+02 -0.15124863281E+02  0.42419480198E+02  0.10566000000E+00 0.  1.
         23    2    1    0    0    0 -0.16737961718E+02  0.12517924877E+02  0.20916964303E+02  0.95430130176E+02  0.90733304492E+02 0.  0.
         13    1    3    3    0    0  0.15416634401E+02  0.35685177529E+02  0.36041827584E+02  0.53010649978E+02  0.10566000000E+00 0. -1.
         22    1    1    0    0    0  0.16737961718E+02 -0.12517924877E+02 -0.20916964303E+02  0.29569869824E+02  0.00000000000E+00 0.  1.
</event>
<event>
 5    1  0.1267616E-004  0.9118800E+02  0.7818608E-02  0.1130116E+00
         25   -1    0    0    0    0  0.00000000000E+00  0.00000000000E+00  0.99999998245E-14  0.12500000000E+03  0.12500000000E+03 0.  0.
        -13    1    3    3    0    0 -0.36200807198E+01  0.60544848576E+02  0.82438552362E+01  0.61210750581E+02  0.10566000000E+00 0. -1.
         23    2    1    0    0    0  0.14787650240E+01  0.29966304091E+02 -0.43719495922E+01  0.94680368239E+02  0.89694437173E+02 0.  0.
         13    1    3    3    0    0  0.50988457437E+01 -0.30578544484E+02 -0.12615804828E+02  0.33469617658E+02  0.10566000000E+00 0.  1.
         22    1    1    0    0    0 -0.14787650240E+01 -0.29966304091E+02  0.43719495922E+01  0.30319631761E+02  0.00000000000E+00 0. -1.
</event>
<event>
 5    1  0.1267616E-004  0.9118800E+02  0.7818608E-02  0.1130116E+00
         25   -1    0    0    0    0  0.00000000000E+00  0.00000000000E+00  0.99999998245E-14  0.12500000000E+03  0.12500000000E+03 0.  0.
        -13    1    3    3    0    0  0.99772146824E+01  0.37622134880E+02 -0.21022036651E+02  0.44236941968E+02  0.10566000000E+00 0.  1.
         23    2    1    0    0    0  0.18469699186E+02  0.92241922645E+01  0.20928425862E+02  0.95602474253E+02  0.90970426861E+02 0.  0.
         13    1    3    3    0    0  0.84924845037E+01 -0.28397942615E+02  0.41950462513E+02  0.51365532285E+02  0.10566000000E+00 0. -1.
         22    1    1    0    0    0 -0.18469699186E+02 -0.92241922645E+01 -0.20928425862E+02  0.29397525747E+02  0.00000000000E+00 0. -1.
</event>
<event>
 5    1  0.1267616E-004  0.9118800E+02  0.7818608E-02  0.1130116E+00
         25   -1    0    0    0    0  0.00000000000E+00  0.00000000000E+00  0.99999998245E-14  0.12500000000E+03  0.12500000000E+03 0.  0.
        -13    1    3    3    0    0  0.43065398040E+02  0.21701851714E+02 -0.16621336511E+02  0.51008615622E+02  0.10566000000E+00 0.  1.
         23    2    1    0    0    0  0.11455592063E+02  0.27474258583E+02  0.10883886150E+02  0.93305766267E+02  0.87757857578E+02 0.  0.
         13    1    3    3    0    0 -0.31609805977E+02  0.57724068692E+01  0.27505222662E+02  0.42297150645E+02  0.10566000000E+00 0. -1.
         22    1    1    0    0    0 -0.11455592063E+02 -0.27474258583E+02 -0.10883886150E+02  0.31694233733E+02  0.00000000000E+00 0.  1.
</event>
<event>
 5    1  0.1267616E-004  0.9118800E+02  0.7818608E-02  0.1130116E+00
         25   -1    0    0    0    0  0.00000000000E+00  0.00000000000E+00  0.99999998245E-14  0.12500000000E+03  0.12500000000E+03 0.  0.
        -13    1    3    3    0    0 -0.31181637035E+02  0.33995103926E+02 -0.54636619449E+01  0.46452387937E+02  0.10566000000E+00 0. -1.
         23    2    1    0    0    0  0.35070667830E+01  0.21145189004E+02 -0.27976342446E+02  0.89756642156E+02  0.82547928739E+02 0.  0.
         13    1    3    3    0    0  0.34688703819E+02 -0.12849914922E+02 -0.22512680501E+02  0.43304254220E+02  0.10566000000E+00 0.  1.
         22    1    1    0    0    0 -0.35070667830E+01 -0.21145189004E+02  0.27976342446E+02  0.35243357844E+02  0.00000000000E+00 0. -1.
</event>
<event>
 5    1  0.1267616E-004  0.9118800E+02  0.7818608E-02  0.1130116E+00
         25   -1    0    0    0    0  0.00000000000E+00  0.00000000000E+00  0.99999998245E-14  0.12500000000E+03  0.12500000000E+03 0.  0.
        -13    1    3    3    0    0 -0.11028325982E+02 -0.33787914786E+01  0.31207833903E+02  0.33271312970E+02  0.10566000000E+00 0.  1.
         23    2    1    0    0    0  0.10602901681E+00 -0.13892263773E+01 -0.29723606666E+02  0.95243757204E+02  0.90476180849E+02 0.  0.
         13    1    3    3    0    0  0.11134354999E+02  0.19895651013E+01 -0.60931440569E+02  0.61972444234E+02  0.10566000000E+00 0. -1.
         22    1    1    0    0    0 -0.10602901681E+00  0.13892263773E+01  0.29723606666E+02  0.29756242796E+02  0.00000000000E+00 0. -1.
</event>
<event>
 5    1  0.1267616E-004  0.9118800E+02  0.7818608E-02  0.1130116E+00
         25   -1    0    0    0    0  0.00000000000E+00  0.00000000000E+00  0.99999998245E-14  0.12500000000E+03  0.12500000000E+03 0.  0.
        -13    1    3    3    0    0  0.32363022408E+02 -0.51350589349E+02  0.58129918236E+01  0.60975817205E+02  0.10566000000E+00 0.  1.
         23    2    1    0    0    0  0.68041092319E+01 -0.28061111407E+02  0.57730519209E+01  0.95554287166E+02  0.90904190176E+02 0.  0.
         13    1    3    3    0    0 -0.25558913176E+02  0.23289477942E+02 -0.39939902659E-01  0.34578469960E+02  0.10566000000E+00 0. -1.
         22    1    1    0    0    0 -0.68041092319E+01  0.28061111407E+02 -0.57730519209E+01  0.29445712834E+02  0.00000000000E+00 0.  1.
</event>
<event>
 5    1  0.1267616E-004  0.9118800E+02  0.7818608E-02  0.1130116E+00
         25   -1    0    0    0    0  0.00000000000E+00  0.00000000000E+00  0.99999998245E-14  0.12500000000E+03  0.12500000000E+03 0.  0.
        -13    1    3    3    0    0 -0.63892418414E+01  0.24806076696E+01  0.34867047918E+02  0.35534462431E+02  0.10566000000E+00 0.  1.
         23    2    1    0    0    0  0.58110987841E+01 -0.18123178011E+02 -0.21205782415E+02  0.96506076821E+02  0.92203683252E+02 0.  0.
         13    1    3    3    0    0  0.12200340625E+02 -0.20603785680E+02 -0.56072830333E+02  0.60971614390E+02  0.10566000000E+00 0. -1.
         22    1    1    0    0    0 -0.58110987841E+01  0.18123178011E+02  0.21205782415E+02  0.28493923179E+02  0.00000000000E+00 0. -1.
</event>
<event>
 5    1  0.1267616E-004  0.9118800E+02  0.7818608E-02  0.1130116E+00
         25   -1    0    0    0    0  0.00000000000E+00  0.00000000000E+00  0.99999998245E-14  0.12500000000E+03  0.12500000000E+03 0.  0.
        -13    1    3    3    0    0  0.21928951466E+01  0.32000213778E+02 -0.19830362938E+02  0.37710435283E+02  0.10566000000E+00 0.  1.
         23    2    1    0    0    0 -0.39131225964E+01  0.12572371123E+02  0.30377639405E+02  0.91891420750E+02  0.85719631285E+02 0.  0.
         13    1    3    3    0    0 -0.61060177431E+01 -0.19427842655E+02  0.50208002343E+02  0.54180985467E+02  0.10566000000E+00 0. -1.
         22    1    1    0    0    0  0.39131225964E+01 -0.12572371123E+02 -0.30377639405E+02  0.33108579250E+02  0.00000000000E+00 0. -1.
</event>
<event>
 5    1  0.1267616E-004  0.9118800E+02  0.7818608E-02  0.1130116E+00
         25   -1    0    0    0    0  0.00000000000E+00  0.00000000000E+00  0.99999998245E-14  0.12500000000E+03  0.12500000000E+03 0.  0.
        -13    1    3    3    0    0 -0.32055857070E+02 -0.13320175777E+02  0.32795161317E+02  0.47754987437E+02  0.10566000000E+00 0.  1.
         23    2    1    0    0    0  0.65528065325E+00  0.20829497996E+02  0.18436162028E+02  0.97175739905E+02  0.93107115605E+02 0.  0.
         13    1    3    3    0    0  0.32711137724E+02  0.34149673773E+02 -0.14358999289E+02  0.49420752469E+02  0.10566000000E+00 0. -1.
         22    1    1    0    0    0 -0.65528065325E+00 -0.20829497996E+02 -0.18436162028E+02  0.27824260095E+02  0.00000000000E+00 0. -1.
</event>
<event>
 5    1  0.1267616E-004  0.9118800E+02  0.7818608E-02  0.1130116E+00
         25   -1    0    0    0    0  0.00000000000E+00  0.00000000000E+00  0.99999998245E-14  0.12500000000E+03  0.12500000000E+03 0.  0.
        -13    1    3    3    0    0 -0.97671387182E+01  0.46547011862E+02 -0.95878189446E+01  0.48517612762E+02  0.10566000000E+00 0. -1.
         23    2    1    0    0    0  0.10628661470E+02  0.54820280475E+01 -0.25324145053E+02  0.96994047082E+02  0.92862865402E+02 0.  0.
         13    1    3    3    0    0  0.20395800188E+02 -0.41064983814E+02 -0.15736326108E+02  0.48476434320E+02  0.10566000000E+00 0.  1.
         22    1    1    0    0    0 -0.10628661470E+02 -0.54820280475E+01  0.25324145053E+02  0.28005952918E+02  0.00000000000E+00 0.  1.
</event>
<event>
 5    1  0.1267616E-004  0.9118800E+02  0.7818608E-02  0.1130116E+00
         25   -1    0    0    0    0  0.00000000000E+00  0.00000000000E+00  0.99999998245E-14  0.12500000000E+03  0.12500000000E+03 0.  0.
        -13    1    3    3    0    0  0.47483301771E+02 -0.34532144842E+02 -0.87216272041E+01  0.59356641748E+02  0.10566000000E+00 0.  1.
         23    2    1    0    0    0  0.14226561634E+02 -0.21704516614E+02 -0.14195761736E+02  0.95419588430E+02  0.90718780347E+02 0.  0.
         13    1    3    3    0    0 -0.33256740137E+02  0.12827628229E+02 -0.54741345320E+01  0.36062946682E+02  0.10566000000E+00 0. -1.
         22    1    1    0    0    0 -0.14226561634E+02  0.21704516614E+02  0.14195761736E+02  0.29580411570E+02  0.00000000000E+00 0.  1.
</event>
<event>
 5    1  0.1267616E-004  0.9118800E+02  0.7818608E-02  0.1130116E+00
         25   -1    0    0    0    0  0.00000000000E+00  0.00000000000E+00  0.99999998245E-14  0.12500000000E+03  0.12500000000E+03 0.  0.
        -13    1    3    3    0    0  0.14112898504E+02 -0.86969125453E+01 -0.49013296660E+02  0.51740937424E+02  0.10566000000E+00 0. -1.
         23    2    1    0    0    0  0.28373776134E+02 -0.11081043690E+01 -0.84947705397E+01  0.95361170841E+02  0.90638251915E+02 0.  0.
         13    1    3    3    0    0  0.14260877630E+02  0.75888081763E+01  0.40518526120E+02  0.43620233417E+02  0.10566000000E+00 0.  1.
         22    1    1    0    0    0 -0.28373776134E+02  0.11081043690E+01  0.84947705397E+01  0.29638829159E+02  0.00000000000E+00 0. -1.
</event>
<event>
 5    1  0.1267616E-004  0.9118800E+02  0.7818608E-02  0.1130116E+00
         25   -1    0    0    0    0  0.00000000000E+00  0.00000000000E+00  0.99999998245E-14  0.12500000000E+03  0.12500000000E+03 0.  0.
        -13    1    3    3    0    0 -0.48720971385E+02 -0.11826191644E+02  0.64602433042E+01  0.50550348852E+02  0.10566000000E+00 0.  1.
         23    2    1    0    0    0 -0.46886409280E+01 -0.25061117893E+02  0.11926188066E+02  0.96852585455E+02  0.92672252393E+02 0.  0.
         13    1    3    3    0    0  0.44032330457E+02 -0.13234926249E+02  0.54659447623E+01  0.46302236603E+02  0.10566000000E+00 0. -1.
         22    1    1    0    0    0  0.46886409280E+01  0.25061117893E+02 -0.11926188066E+02  0.28147414545E+02  0.00000000000E+00 0. -1.
</event>
<event>
 5    1  0.1267616E-004  0.9118800E+02  0.7818608E-02  0.1130116E+00
         25   -1    0    0    0    0  0.00000000000E+00  0.00000000000E+00  0.99999998245E-14  0.12500000000E+03  0.12500000000E+03 0.  0.
        -13    1    3    3    0    0 -0.19740737241E+01  0.12845712814E+02 -0.37511078885E+02  0.39698885474E+02  0.10566000000E+00 0. -1.
         23    2    1    0    0    0  0.25775982578E+02  0.78812458696E+01  0.11065564735E+02  0.95863046878E+02  0.91327770801E+02 0.  0.
         13    1    3    3    0    0  0.27750056302E+02 -0.49644669442E+01  0.48576643620E+02  0.56164161404E+02  0.10566000000E+00 0.  1.
         22    1    1    0    0    0 -0.25775982578E+02 -0.78812458696E+01 -0.11065564735E+02  0.29136953122E+02  0.00000000000E+00 0.  1.
</event>
<event>
 5    1  0.1267616E-004  0.9118800E+02  0.7818608E-02  0.1130116E+00
         25   -1    0    0    0    0  0.00000000000E+00  0.00000000000E+00  0.99999998245E-14  0.12500000000E+03  0.12500000000E+03 0.  0.
        -13    1    3    3    0    0  0.20421520205E+02 -0.21867143987E+02  0.24671708435E+02  0.38780340828E+02  0.10566000000E+00 0. -1.
         23    2    1    0    0    0 -0.29112370344E+02 -0.35902914257E+01  0.43887082616E+01  0.95340582275E+02  0.90609853597E+02 0.  0.
         13    1    3    3    0    0 -0.49533890549E+02  0.18276852561E+02 -0.20283000173E+02  0.56560241447E+02  0.10566000000E+00 0.  1.
         22    1    1    0    0    0  0.29112370344E+02  0.35902914257E+01 -0.43887082616E+01  0.29659417725E+02  0.00000000000E+00 0.  1.
</event>
<event>
 5    1  0.1267616E-004  0.9118800E+02  0.7818608E-02  0.1130116E+00
         25   -1    0    0    0    0  0.00000000000E+00  0.00000000000E+00  0.99999998245E-14  0.12500000000E+03  0.12500000000E+03 0.  0.
        -13    1    3    3    0    0  0.24807593523E+02  0.42820041057E+02  0.10544708534E+02  0.50598168490E+02  0.10566000000E+00 0. -1.
         23    2    1    0    0    0  0.75124125039E+00  0.19138221247E+02 -0.20843225976E+02  0.96693182006E+02  0.92456992712E+02 0.  0.
         13    1    3    3    0    0 -0.24056352273E+02 -0.23681819810E+02 -0.31387934509E+02  0.46095013515E+02  0.10566000000E+00 0.  1.
         22    1    1    0    0    0 -0.75124125039E+00 -0.19138221247E+02  0.20843225976E+02  0.28306817994E+02  0.00000000000E+00 0.  1.
</event>
<event>
 5    1  0.1267616E-004  0.9118800E+02  0.7818608E-02  0.1130116E+00
         25   -1    0    0    0    0  0.00000000000E+00  0.00000000000E+00  0.99999998245E-14  0.12500000000E+03  0.12500000000E+03 0.  0.
        -13    1    3    3    0    0  0.37377566941E+02  0.23925620380E+02  0.37634039793E+02  0.58188056645E+02  0.10566000000E+00 0.  1.
         23    2    1    0    0    0  0.21563829876E+02 -0.47984211263E+01  0.18734343869E+02  0.96034516327E+02  0.91562159660E+02 0.  0.
         13    1    3    3    0    0 -0.15813737065E+02 -0.28724041506E+02 -0.18899695924E+02  0.37846459682E+02  0.10566000000E+00 0. -1.
         22    1    1    0    0    0 -0.21563829876E+02  0.47984211263E+01 -0.18734343869E+02  0.28965483673E+02  0.00000000000E+00 0.  1.
</event>
<event>
 5    1  0.1267616E-004  0.9118800E+02  0.7818608E-02  0.1130116E+00
         25   -1    0    0    0    0  0.00000000000E+00  0.00000000000E+00  0.99999998245E-14  0.12500000000E+03  0.12500000000E+03 0.  0.
        -13    1    3    3    0    0 -0.21575760517E+01  0.23084406648E+02  0.31876130127E+02  0.39416288519E+02  0.10566000000E+00 0.  1.
         23    2    1    0    0    0 -0.34124039052E+02  0.15730914048E+02 -0.30135151748E+01  0.87303939573E+02  0.78746332570E+02 0.  0.
         13    1    3    3    0    0 -0.31966463000E+02 -0.73534925999E+01 -0.34889645302E+02  0.47887651054E+02  0.10566000000E+00 0. -1.
         22    1    1    0    0    0  0.34124039052E+02 -0.15730914048E+02  0.30135151748E+01  0.37696060427E+02  0.00000000000E+00 0.  1.
</event>
<event>
 5    1  0.1267616E-004  0.9118800E+02  0.7818608E-02  0.1130116E+00
         25   -1    0    0    0    0  0.00000000000E+00  0.00000000000E+00  0.99999998245E-14  0.12500000000E+03  0.12500000000E+03 0.  0.
        -13    1    3    3    0    0  0.38154499454E+02 -0.11660177754E+02 -0.46332803111E+02  0.61142991274E+02  0.10566000000E+00 0.  1.
         23    2    1    0    0    0  0.22344100190E+02  0.25559561346E+01 -0.20837748978E+02  0.94340523365E+02  0.89219565350E+02 0.  0.
         13    1    3    3    0    0 -0.15810399264E+02  0.14216133889E+02  0.25495054133E+02  0.33197532091E+02  0.10566000000E+00 0. -1.
         22    1    1    0    0    0 -0.22344100190E+02 -0.25559561346E+01  0.20837748978E+02  0.30659476635E+02  0.00000000000E+00 0.  1.
</event>
<event>
 5    1  0.1267616E-004  0.9118800E+02  0.7818608E-02  0.1130116E+00
         25   -1    0    0    0    0  0.00000000000E+00  0.00000000000E+00  0.99999998245E-14  0.12500000000E+03  0.12500000000E+03 0.  0.
        -13    1    3    3    0    0 -0.36474688281E+02 -0.15800538596E+02 -0.25072462540E+01  0.39829101835E+02  0.10566000000E+00 0. -1.
         23    2    1    0    0    0  0.15644937910E+02 -0.93615281403E+01 -0.22516366591E+02  0.96027788213E+02  0.91552974028E+02 0.  0.
         13    1    3    3    0    0  0.52119626192E+02  0.64390104560E+01 -0.20009120337E+02  0.56198686379E+02  0.10566000000E+00 0.  1.
         22    1    1    0    0    0 -0.15644937910E+02  0.93615281403E+01  0.22516366591E+02  0.28972211787E+02  0.00000000000E+00 0. -1.
</event>
<event>
 5    1  0.1267616E-004  0.9118800E+02  0.7818608E-02  0.1130116E+00
         25   -1    0    0    0    0  0.00000000000E+00  0.00000000000E+00  0.99999998245E-14  0.12500000000E+03  0.12500000000E+03 0.  0.
        -13    1    3    3    0    0 -0.33988977697E+02 -0.52266622806E+01 -0.13988563106E+02  0.37124919735E+02  0.10566000000E+00 0.  1.
         23    2    1    0    0    0  0.39843330489E+01  0.21233308640E+02  0.20789231123E+02  0.95017998126E+02  0.90163737342E+02 0.  0.
         13    1    3    3    0    0  0.37973310746E+02  0.26459970921E+02  0.34777794230E+02  0.57893078392E+02  0.10566000000E+00 0. -1.
         22    1    1    0    0    0 -0.39843330489E+01 -0.21233308640E+02 -0.20789231123E+02  0.29982001874E+02  0.00000000000E+00 0. -1.
</event>
<event>
 5    1  0.1267616E-004  0.9118800E+02  0.7818608E-02  0.1130116E+00
         25   -1    0    0    0    0  0.00000000000E+00  0.00000000000E+00  0.99999998245E-14  0.12500000000E+03  0.12500000000E+03 0.  0.
        -13    1    3    3    0    0  0.13551002480E+01  0.32326722151E+02  0.27191868482E+02  0.42264194507E+02  0.10566000000E+00 0.  1.
         23    2    1    0    0    0  0.27299696107E+02 -0.92310074884E+01  0.64317020420E+01  0.95472865057E+02  0.90792159707E+02 0.  0.
         13    1    3    3    0    0  0.25944595859E+02 -0.41557729640E+02 -0.20760166440E+02  0.53208670550E+02  0.10566000000E+00 0. -1.
         22    1    1    0    0    0 -0.27299696107E+02  0.92310074884E+01 -0.64317020420E+01  0.29527134943E+02  0.00000000000E+00 0. -1.
</event>
<event>
 5    1  0.1267616E-004  0.9118800E+02  0.7818608E-02  0.1130116E+00
         25   -1    0    0    0    0  0.00000000000E+00  0.00000000000E+00  0.99999998245E-14  0.12500000000E+03  0.12500000000E+03 0.  0.
        -13    1    3    3    0    0  0.10893990246E+02  0.19187929918E+01 -0.33113740797E+02  0.34912630717E+02  0.10566000000E+00 0.  1.
         23    2    1    0    0    0  0.22247704291E+01  0.14893912610E+02  0.25399938394E+02  0.95471452682E+02  0.90790215170E+02 0.  0.
         13    1    3    3    0    0 -0.86692198169E+01  0.12975119618E+02  0.58513679190E+02  0.60558821965E+02  0.10566000000E+00 0. -1.
         22    1    1    0    0    0 -0.22247704291E+01 -0.14893912610E+02 -0.25399938394E+02  0.29528547318E+02  0.00000000000E+00 0. -1.
</event>
<event>
 5    1  0.1267616E-004  0.9118800E+02  0.7818608E-02  0.1130116E+00
         25   -1    0    0    0    0  0.00000000000E+00  0.00000000000E+00  0.99999998245E-14  0.12500000000E+03  0.12500000000E+03 0.  0.
        -13    1    3    3    0    0  0.10375603855E+02 -0.37182906811E+02  0.31250051364E+02  0.49666876171E+02  0.10566000000E+00 0. -1.
         23    2    1    0    0    0  0.21379416702E+02 -0.15785640606E+02 -0.93217571044E+01  0.96836884701E+02  0.92651072175E+02 0.  0.
         13    1    3    3    0    0  0.11003812847E+02  0.21397266206E+02 -0.40571808468E+02  0.47170008530E+02  0.10566000000E+00 0.  1.
         22    1    1    0    0    0 -0.21379416702E+02  0.15785640606E+02  0.93217571044E+01  0.28163115299E+02  0.00000000000E+00 0.  1.
</event>
<event>
 5    1  0.1267616E-004  0.9118800E+02  0.7818608E-02  0.1130116E+00
         25   -1    0    0    0    0  0.00000000000E+00  0.00000000000E+00  0.99999998245E-14  0.12500000000E+03  0.12500000000E+03 0.  0.
        -13    1    3    3    0    0  0.47691471608E+01 -0.31394487887E+02  0.44416428679E+02  0.54600264972E+02  0.10566000000E+00 0.  1.
         23    2    1    0    0    0  0.22847462758E+02 -0.23476125898E+02  0.17856273929E+02  0.87690730907E+02  0.79357940540E+02 0.  0.
         13    1    3    3    0    0  0.18078315597E+02  0.79183619890E+01 -0.26560154750E+02  0.33090465935E+02  0.10566000000E+00 0. -1.
         22    1    1    0    0    0 -0.22847462758E+02  0.23476125898E+02 -0.17856273929E+02  0.37309269093E+02  0.00000000000E+00 0.  1.
</event>
<event>
 5    1  0.1267616E-004  0.9118800E+02  0.7818608E-02  0.1130116E+00
         25   -1    0    0    0    0  0.00000000000E+00  0.00000000000E+00  0.99999998245E-14  0.12500000000E+03  0.12500000000E+03 0.  0.
        -13    1    3    3    0    0 -0.22669142942E+02 -0.95573254041E+01 -0.51951323267E+02  0.57482029051E+02  0.10566000000E+00 0.  1.
         23    2    1    0    0    0  0.33063304514E+01  0.59373017772E+01 -0.28350639959E+02  0.95846232498E+02  0.91304754118E+02 0.  0.
         13    1    3    3    0    0  0.25975473393E+02  0.15494627181E+02  0.23600683308E+02  0.38364203447E+02  0.10566000000E+00 0. -1.
         22    1    1    0    0    0 -0.33063304514E+01 -0.59373017772E+01  0.28350639959E+02  0.29153767502E+02  0.00000000000E+00 0.  1.
</event>
<event>
 5    1  0.1267616E-004  0.9118800E+02  0.7818608E-02  0.1130116E+00
         25   -1    0    0    0    0  0.00000000000E+00  0.00000000000E+00  0.99999998245E-14  0.12500000000E+03  0.12500000000E+03 0.  0.
        -13    1    3    3    0    0  0.35633241312E+02  0.23948093932E+00  0.21547751087E+01  0.35699292112E+02  0.10566000000E+00 0.  1.
         23    2    1    0    0    0 -0.25753924318E+02 -0.80942256413E+01 -0.28637595801E+01  0.97852583448E+02  0.94011413467E+02 0.  0.
         13    1    3    3    0    0 -0.61387165630E+02 -0.83337065807E+01 -0.50185346888E+01  0.62153291336E+02  0.10566000000E+00 0. -1.
         22    1    1    0    0    0  0.25753924318E+02  0.80942256413E+01  0.28637595801E+01  0.27147416552E+02  0.00000000000E+00 0. -1.
</event>
<event>
 5    1  0.1267616E-004  0.9118800E+02  0.7818608E-02  0.1130116E+00
         25   -1    0    0    0    0  0.00000000000E+00  0.00000000000E+00  0.99999998245E-14  0.12500000000E+03  0.12500000000E+03 0.  0.
        -13    1    3    3    0    0 -0.23304705612E+02  0.29982098818E+02  0.45050321637E+02  0.58920100109E+02  0.10566000000E+00 0.  1.
         23    2    1    0    0    0 -0.97239410958E+01  0.25358752129E+02  0.11317281105E+02  0.95577182467E+02  0.90935667462E+02 0.  0.
         13    1    3    3    0    0  0.13580764516E+02 -0.46233466890E+01 -0.33733040533E+02  0.36657082359E+02  0.10566000000E+00 0. -1.
         22    1    1    0    0    0  0.97239410958E+01 -0.25358752129E+02 -0.11317281105E+02  0.29422817533E+02  0.00000000000E+00 0.  1.
</event>
<event>
 5    1  0.1267616E-004  0.9118800E+02  0.7818608E-02  0.1130116E+00
         25   -1    0    0    0    0  0.00000000000E+00  0.00000000000E+00  0.99999998245E-14  0.12500000000E+03  0.12500000000E+03 0.  0.
        -13    1    3    3    0    0  0.27791309879E+02 -0.33770672081E+02 -0.15224502811E+02  0.46309954086E+02  0.10566000000E+00 0. -1.
         23    2    1    0    0    0 -0.10337489293E+02 -0.31851827020E+02  0.74237885146E+01  0.90699632578E+02  0.83963731125E+02 0.  0.
         13    1    3    3    0    0 -0.38128799171E+02  0.19188450607E+01  0.22648291325E+02  0.44389678492E+02  0.10566000000E+00 0.  1.
         22    1    1    0    0    0  0.10337489293E+02  0.31851827020E+02 -0.74237885146E+01  0.34300367422E+02  0.00000000000E+00 0. -1.
</event>
<event>
 5    1  0.1267616E-004  0.9118800E+02  0.7818608E-02  0.1130116E+00
         25   -1    0    0    0    0  0.00000000000E+00  0.00000000000E+00  0.99999998245E-14  0.12500000000E+03  0.12500000000E+03 0.  0.
        -13    1    3    3    0    0  0.37267992840E+02  0.16179129668E+01 -0.11545013767E+02  0.39048936472E+02  0.10566000000E+00 0.  1.
         23    2    1    0    0    0 -0.12410762179E+02 -0.25511314385E+02 -0.10971564300E+01  0.96608840606E+02  0.92342894429E+02 0.  0.
         13    1    3    3    0    0 -0.49678755019E+02 -0.27129227352E+02  0.10447857337E+02  0.57559904134E+02  0.10566000000E+00 0. -1.
         22    1    1    0    0    0  0.12410762179E+02  0.25511314385E+02  0.10971564300E+01  0.28391159394E+02  0.00000000000E+00 0. -1.
</event>
<event>
 5    1  0.1267616E-004  0.9118800E+02  0.7818608E-02  0.1130116E+00
         25   -1    0    0    0    0  0.00000000000E+00  0.00000000000E+00  0.99999998245E-14  0.12500000000E+03  0.12500000000E+03 0.  0.
        -13    1    3    3    0    0  0.41334370577E+02 -0.35918326680E+02  0.42130833257E+01  0.54921922923E+02  0.10566000000E+00 0.  1.
         23    2    1    0    0    0  0.30212387069E+02 -0.28756641618E+00 -0.71732469714E+01  0.93946393141E+02  0.88665654485E+02 0.  0.
         13    1    3    3    0    0 -0.11121983509E+02  0.35630760263E+02 -0.11386330297E+02  0.39024470218E+02  0.10566000000E+00 0. -1.
         22    1    1    0    0    0 -0.30212387069E+02  0.28756641618E+00  0.71732469714E+01  0.31053606859E+02  0.00000000000E+00 0.  1.
</event>
<event>
 5    1  0.1267616E-004  0.9118800E+02  0.7818608E-02  0.1130116E+00
         25   -1    0    0    0    0  0.00000000000E+00  0.00000000000E+00  0.99999998245E-14  0.12500000000E+03  0.12500000000E+03 0.  0.
        -13    1    3    3    0    0  0.22122163751E+01  0.12197234959E+02 -0.41148132319E+02  0.42974950836E+02  0.10566000000E+00 0. -1.
         23    2    1    0    0    0 -0.26893048935E+02  0.10084323743E+02  0.32397336680E+01  0.96096271164E+02  0.91646428141E+02 0.  0.
         13    1    3    3    0    0 -0.29105265310E+02 -0.21129112158E+01  0.44387865987E+02  0.53121320329E+02  0.10566000000E+00 0.  1.
         22    1    1    0    0    0  0.26893048935E+02 -0.10084323743E+02 -0.32397336680E+01  0.28903728836E+02  0.00000000000E+00 0.  1.
</event>
<event>
 5    1  0.1267616E-004  0.9118800E+02  0.7818608E-02  0.1130116E+00
         25   -1    0    0    0    0  0.00000000000E+00  0.00000000000E+00  0.99999998245E-14  0.12500000000E+03  0.12500000000E+03 0.  0.
        -13    1    3    3    0    0 -0.30341697036E+01 -0.44205508911E+02  0.13213782902E+02  0.46237954393E+02  0.10566000000E+00 0.  1.
         23    2    1    0    0    0 -0.22735773182E+02  0.22222254773E+01  0.16561604093E+02  0.96784040006E+02  0.92579749414E+02 0.  0.
         13    1    3    3    0    0 -0.19701603478E+02  0.46427734388E+02  0.33478211913E+01  0.50546085613E+02  0.10566000000E+00 0. -1.
         22    1    1    0    0    0  0.22735773182E+02 -0.22222254773E+01 -0.16561604093E+02  0.28215959994E+02  0.00000000000E+00 0. -1.
</event>
<event>
 5    1  0.1267616E-004  0.9118800E+02  0.7818608E-02  0.1130116E+00
         25   -1    0    0    0    0  0.00000000000E+00  0.00000000000E+00  0.99999998245E-14  0.12500000000E+03  0.12500000000E+03 0.  0.
        -13    1    3    3    0    0  0.48779130521E+02  0.10273229704E+02 -0.29909959673E+02  0.58133980378E+02  0.10566000000E+00 0. -1.
         23    2    1    0    0    0  0.12005862736E+02  0.32741644533E+01 -0.26501243581E+02  0.95722418060E+02  0.91135089373E+02 0.  0.
         13    1    3    3    0    0 -0.36773267785E+02 -0.69990652503E+01  0.34087160920E+01  0.37588437682E+02  0.10566000000E+00 0.  1.
         22    1    1    0    0    0 -0.12005862736E+02 -0.32741644533E+01  0.26501243581E+02  0.29277581940E+02  0.00000000000E+00 0. -1.
</event>
<event>
 5    1  0.1267616E-004  0.9118800E+02  0.7818608E-02  0.1130116E+00
         25   -1    0    0    0    0  0.00000000000E+00  0.00000000000E+00  0.99999998245E-14  0.12500000000E+03  0.12500000000E+03 0.  0.
        -13    1    3    3    0    0  0.22692568704E+02  0.15863052961E+02 -0.20595752014E+02  0.34507756935E+02  0.10566000000E+00 0.  1.
         23    2    1    0    0    0 -0.20182647847E+02 -0.20962162201E+02  0.29843438968E+01  0.95748370528E+02  0.91170678576E+02 0.  0.
         13    1    3    3    0    0 -0.42875216552E+02 -0.36825215162E+02  0.23580095911E+02  0.61240613593E+02  0.10566000000E+00 0. -1.
         22    1    1    0    0    0  0.20182647847E+02  0.20962162201E+02 -0.29843438968E+01  0.29251629472E+02  0.00000000000E+00 0. -1.
</event>
<event>
 5    1  0.1267616E-004  0.9118800E+02  0.7818608E-02  0.1130116E+00
         25   -1    0    0    0    0  0.00000000000E+00  0.00000000000E+00  0.99999998245E-14  0.12500000000E+03  0.12500000000E+03 0.  0.
        -13    1    3    3    0    0  0.44211402696E+01  0.48758050533E+02 -0.26520027213E+02  0.55679592136E+02  0.10566000000E+00 0. -1.
         23    2    1    0    0    0 -0.14719540527E+02  0.26629018014E+02 -0.91538752705E+00  0.94559773194E+02  0.89526215705E+02 0.  0.
         13    1    3    3    0    0 -0.19140680796E+02 -0.22129032519E+02  0.25604639686E+02  0.38880181058E+02  0.10566000000E+00 0.  1.
         22    1    1    0    0    0  0.14719540527E+02 -0.26629018014E+02  0.91538752705E+00  0.30440226806E+02  0.00000000000E+00 0. -1.
</event>
<event>
 5    1  0.1267616E-004  0.9118800E+02  0.7818608E-02  0.1130116E+00
         25   -1    0    0    0    0  0.00000000000E+00  0.00000000000E+00  0.99999998245E-14  0.12500000000E+03  0.12500000000E+03 0.  0.
        -13    1    3    3    0    0  0.20262500501E+02  0.50520696564E+02  0.19546324921E+01  0.54467802049E+02  0.10566000000E+00 0. -1.
         23    2    1    0    0    0 -0.43339100512E+01  0.22864113949E+02  0.18752713061E+02  0.95113301786E+02  0.90295766493E+02 0.  0.
         13    1    3    3    0    0 -0.24596410552E+02 -0.27656582615E+02  0.16798080569E+02  0.40645499737E+02  0.10566000000E+00 0.  1.
         22    1    1    0    0    0  0.43339100512E+01 -0.22864113949E+02 -0.18752713061E+02  0.29886698214E+02  0.00000000000E+00 0. -1.
</event>
<event>
 5    1  0.1267616E-004  0.9118800E+02  0.7818608E-02  0.1130116E+00
         25   -1    0    0    0    0  0.00000000000E+00  0.00000000000E+00  0.99999998245E-14  0.12500000000E+03  0.12500000000E+03 0.  0.
        -13    1    3    3    0    0 -0.21164262018E+02 -0.16814429278E+02  0.36818789753E+02  0.45675873955E+02  0.10566000000E+00 0.  1.
         23    2    1    0    0    0 -0.12608030475E+01  0.24260157918E+02  0.92069936049E+01  0.99020900367E+02  0.95552211338E+02 0.  0.
         13    1    3    3    0    0  0.19903458971E+02  0.41074587195E+02 -0.27611796148E+02  0.53345026411E+02  0.10566000000E+00 0. -1.
         22    1    1    0    0    0  0.12608030475E+01 -0.24260157918E+02 -0.92069936049E+01  0.25979099633E+02  0.00000000000E+00 0. -1.
</event>
<event>
 5    1  0.1267616E-004  0.9118800E+02  0.7818608E-02  0.1130116E+00
         25   -1    0    0    0    0  0.00000000000E+00  0.00000000000E+00  0.99999998245E-14  0.12500000000E+03  0.12500000000E+03 0.  0.
        -13    1    3    3    0    0  0.23847908901E+01  0.52052746338E+02  0.54898587865E+01  0.52395852340E+02  0.10566000000E+00 0.  1.
         23    2    1    0    0    0 -0.23245480715E+02  0.16268720697E+02  0.16505601509E+01  0.96579092281E+02  0.92302616811E+02 0.  0.
         13    1    3    3    0    0 -0.25630271605E+02 -0.35784025641E+02 -0.38392986356E+01  0.44183239941E+02  0.10566000000E+00 0. -1.
         22    1    1    0    0    0  0.23245480715E+02 -0.16268720697E+02 -0.16505601509E+01  0.28420907719E+02  0.00000000000E+00 0.  1.
</event>
<event>
 5    1  0.1267616E-004  0.9118800E+02  0.7818608E-02  0.1130116E+00
         25   -1    0    0    0    0  0.00000000000E+00  0.00000000000E+00  0.99999998245E-14  0.12500000000E+03  0.12500000000E+03 0.  0.
        -13    1    3    3    0    0  0.23440336857E+01  0.21438943749E+02  0.25670384437E+02  0.33527639407E+02  0.10566000000E+00 0. -1.
         23    2    1    0    0    0 -0.16295364959E+02 -0.11772183456E+02 -0.22430106088E+02  0.94879693202E+02  0.89971791693E+02 0.  0.
         13    1    3    3    0    0 -0.18639398645E+02 -0.33211127205E+02 -0.48100490525E+02  0.61352053795E+02  0.10566000000E+00 0.  1.
         22    1    1    0    0    0  0.16295364959E+02  0.11772183456E+02  0.22430106088E+02  0.30120306798E+02  0.00000000000E+00 0.  1.
</event>
<event>
 5    1  0.1267616E-004  0.9118800E+02  0.7818608E-02  0.1130116E+00
         25   -1    0    0    0    0  0.00000000000E+00  0.00000000000E+00  0.99999998245E-14  0.12500000000E+03  0.12500000000E+03 0.  0.
        -13    1    3    3    0    0 -0.19599859245E+02 -0.42164361954E+02  0.60390953777E+01  0.46887842118E+02  0.10566000000E+00 0. -1.
         23    2    1    0    0    0  0.83790941949E+01 -0.80115845986E+01  0.26892486838E+02  0.95715182165E+02  0.91125164150E+02 0.  0.
         13    1    3    3    0    0  0.27978953440E+02  0.34152777356E+02  0.20853391460E+02  0.48827340048E+02  0.10566000000E+00 0.  1.
         22    1    1    0    0    0 -0.83790941949E+01  0.80115845986E+01 -0.26892486838E+02  0.29284817835E+02  0.00000000000E+00 0.  1.
</event>
<event>
 5    1  0.1267616E-004  0.9118800E+02  0.7818608E-02  0.1130116E+00
         25   -1    0    0    0    0  0.00000000000E+00  0.00000000000E+00  0.99999998245E-14  0.12500000000E+03  0.12500000000E+03 0.  0.
        -13    1    3    3    0    0 -0.33835267212E+02  0.31502439791E+02 -0.33016883248E+02  0.56809812211E+02  0.10566000000E+00 0. -1.
         23    2    1    0    0    0 -0.14353189642E+02  0.25101991163E+02  0.47406129578E+00  0.96080305200E+02  0.91624648976E+02 0.  0.
         13    1    3    3    0    0  0.19482077569E+02 -0.64004486280E+01  0.33490944544E+02  0.39270492988E+02  0.10566000000E+00 0.  1.
         22    1    1    0    0    0  0.14353189642E+02 -0.25101991163E+02 -0.47406129578E+00  0.28919694800E+02  0.00000000000E+00 0. -1.
</event>
<event>
 5    1  0.1267616E-004  0.9118800E+02  0.7818608E-02  0.1130116E+00
         25   -1    0    0    0    0  0.00000000000E+00  0.00000000000E+00  0.99999998245E-14  0.12500000000E+03  0.12500000000E+03 0.  0.
        -13    1    3    3    0    0 -0.49182565415E+01  0.15330738167E+02  0.51441431100E+02  0.53902252066E+02  0.10566000000E+00 0.  1.
         23    2    1    0    0    0  0.53862497690E+01 -0.14984380157E+02  0.24665593169E+02  0.95641273501E+02  0.91023724244E+02 0.  0.
         13    1    3    3    0    0  0.10304506311E+02 -0.30315118325E+02 -0.26775837932E+02  0.41739021435E+02  0.10566000000E+00 0. -1.
         22    1    1    0    0    0 -0.53862497690E+01  0.14984380157E+02 -0.24665593169E+02  0.29358726499E+02  0.00000000000E+00 0.  1.
</event>
<event>
 5    1  0.1267616E-004  0.9118800E+02  0.7818608E-02  0.1130116E+00
         25   -1    0    0    0    0  0.00000000000E+00  0.00000000000E+00  0.99999998245E-14  0.12500000000E+03  0.12500000000E+03 0.  0.
        -13    1    3    3    0    0  0.35075027073E+02 -0.38147653362E+01  0.11776361714E+02  0.37195481150E+02  0.10566000000E+00 0.  1.
         23    2    1    0    0    0 -0.21020187012E+02 -0.18069930894E+02  0.11272921559E+02  0.95075939029E+02  0.90244028929E+02 0.  0.
         13    1    3    3    0    0 -0.56095214085E+02 -0.14255165557E+02 -0.50344015519E+00  0.57880457879E+02  0.10566000000E+00 0. -1.
         22    1    1    0    0    0  0.21020187012E+02  0.18069930894E+02 -0.11272921559E+02  0.29924060971E+02  0.00000000000E+00 0. -1.
</event>
<event>
 5    1  0.1267616E-004  0.9118800E+02  0.7818608E-02  0.1130116E+00
         25   -1    0    0    0    0  0.00000000000E+00  0.00000000000E+00  0.99999998245E-14  0.12500000000E+03  0.12500000000E+03 0.  0.
        -13    1    3    3    0    0  0.35422688065E+02 -0.45729664874E+02 -0.55733713775E+01  0.58112328398E+02  0.10566000000E+00 0.  1.
         23    2    1    0    0    0  0.26584811669E+02 -0.11486899757E+02  0.61958289020E+01  0.95384305288E+02  0.90670151218E+02 0.  0.
         13    1    3    3    0    0 -0.88378763963E+01  0.34242765117E+02  0.11769200280E+02  0.37271976890E+02  0.10566000000E+00 0. -1.
         22    1    1    0    0    0 -0.26584811669E+02  0.11486899757E+02 -0.61958289020E+01  0.29615694712E+02  0.00000000000E+00 0.  1.
</event>
<event>
 5    1  0.1267616E-004  0.9118800E+02  0.7818608E-02  0.1130116E+00
         25   -1    0    0    0    0  0.00000000000E+00  0.00000000000E+00  0.99999998245E-14  0.12500000000E+03  0.12500000000E+03 0.  0.
        -13    1    3    3    0    0 -0.20522845051E+02 -0.20730193176E+02  0.15640951566E+02  0.33099525797E+02  0.10566000000E+00 0. -1.
         23    2    1    0    0    0  0.28809891750E+02  0.55688422277E+01  0.20484591590E+02  0.89213964190E+02  0.81722035263E+02 0.  0.
         13    1    3    3    0    0  0.49332736801E+02  0.26299035404E+02  0.48436400238E+01  0.56114438393E+02  0.10566000000E+00 0.  1.
         22    1    1    0    0    0 -0.28809891750E+02 -0.55688422277E+01 -0.20484591590E+02  0.35786035810E+02  0.00000000000E+00 0.  1.
</event>
<event>
 5    1  0.1267616E-004  0.9118800E+02  0.7818608E-02  0.1130116E+00
         25   -1    0    0    0    0  0.00000000000E+00  0.00000000000E+00  0.99999998245E-14  0.12500000000E+03  0.12500000000E+03 0.  0.
        -13    1    3    3    0    0 -0.28894509606E+02 -0.17951935897E+02 -0.35516699524E+01  0.34202196001E+02  0.10566000000E+00 0.  1.
         23    2    1    0    0    0  0.24033617937E+02  0.14403637545E+02 -0.62375707729E+01  0.96294828779E+02  0.91916849352E+02 0.  0.
         13    1    3    3    0    0  0.52928127544E+02  0.32355573441E+02 -0.26859008205E+01  0.62092632778E+02  0.10566000000E+00 0. -1.
         22    1    1    0    0    0 -0.24033617937E+02 -0.14403637545E+02  0.62375707729E+01  0.28705171221E+02  0.00000000000E+00 0. -1.
</event>
<event>
 5    1  0.1267616E-004  0.9118800E+02  0.7818608E-02  0.1130116E+00
         25   -1    0    0    0    0  0.00000000000E+00  0.00000000000E+00  0.99999998245E-14  0.12500000000E+03  0.12500000000E+03 0.  0.
        -13    1    3    3    0    0  0.17224580298E+02 -0.37285389889E+02 -0.16977860083E+02  0.44442607514E+02  0.10566000000E+00 0. -1.
         23    2    1    0    0    0 -0.23512948096E+02 -0.47602439909E+01 -0.15196035388E+02  0.96602145459E+02  0.92333831095E+02 0.  0.
         13    1    3    3    0    0 -0.40737528394E+02  0.32525145898E+02  0.17818246949E+01  0.52159537945E+02  0.10566000000E+00 0.  1.
         22    1    1    0    0    0  0.23512948096E+02  0.47602439909E+01  0.15196035388E+02  0.28397854541E+02  0.00000000000E+00 0.  1.
</event>
<event>
 5    1  0.1267616E-004  0.9118800E+02  0.7818608E-02  0.1130116E+00
         25   -1    0    0    0    0  0.00000000000E+00  0.00000000000E+00  0.99999998245E-14  0.12500000000E+03  0.12500000000E+03 0.  0.
        -13    1    3    3    0    0 -0.18107257235E+02 -0.52875905819E+02  0.17863157375E+02  0.58675699708E+02  0.10566000000E+00 0.  1.
         23    2    1    0    0    0  0.59232820395E+01 -0.23222672761E+02  0.14493621396E+02  0.96992092877E+02  0.92860234865E+02 0.  0.
         13    1    3    3    0    0  0.24030539275E+02  0.29653233059E+02 -0.33695359788E+01  0.38316393168E+02  0.10566000000E+00 0. -1.
         22    1    1    0    0    0 -0.59232820395E+01  0.23222672761E+02 -0.14493621396E+02  0.28007907123E+02  0.00000000000E+00 0.  1.
</event>
<event>
 5    1  0.1267616E-004  0.9118800E+02  0.7818608E-02  0.1130116E+00
         25   -1    0    0    0    0  0.00000000000E+00  0.00000000000E+00  0.99999998245E-14  0.12500000000E+03  0.12500000000E+03 0.  0.
        -13    1    3    3    0    0 -0.83358765625E+01  0.21117980144E+02 -0.27970838898E+02  0.36025475932E+02  0.10566000000E+00 0.  1.
         23    2    1    0    0    0  0.19803901085E+02 -0.18330965941E+02  0.85374519369E+01  0.96696168173E+02  0.92461029863E+02 0.  0.
         13    1    3    3    0    0  0.28139777647E+02 -0.39448946085E+02  0.36508290835E+02  0.60670692241E+02  0.10566000000E+00 0. -1.
         22    1    1    0    0    0 -0.19803901085E+02  0.18330965941E+02 -0.85374519369E+01  0.28303831827E+02  0.00000000000E+00 0. -1.
</event>
<event>
 5    1  0.1267616E-004  0.9118800E+02  0.7818608E-02  0.1130116E+00
         25   -1    0    0    0    0  0.00000000000E+00  0.00000000000E+00  0.99999998245E-14  0.12500000000E+03  0.12500000000E+03 0.  0.
        -13    1    3    3    0    0 -0.28537387930E+02 -0.46979344063E+02  0.24282994372E+02  0.60092564084E+02  0.10566000000E+00 0. -1.
         23    2    1    0    0    0 -0.49856506223E+01 -0.18063402426E+02  0.19937349223E+02  0.97638693135E+02  0.93726587923E+02 0.  0.
         13    1    3    3    0    0  0.23551737308E+02  0.28915941637E+02 -0.43456451492E+01  0.37546129052E+02  0.10566000000E+00 0.  1.
         22    1    1    0    0    0  0.49856506223E+01  0.18063402426E+02 -0.19937349223E+02  0.27361306865E+02  0.00000000000E+00 0. -1.
</event>
<event>
 5    1  0.1267616E-004  0.9118800E+02  0.7818608E-02  0.1130116E+00
         25   -1    0    0    0    0  0.00000000000E+00  0.00000000000E+00  0.99999998245E-14  0.12500000000E+03  0.12500000000E+03 0.  0.
        -13    1    3    3    0    0  0.43305879455E+02  0.16330647889E+02  0.11427159019E+02  0.47672637678E+02  0.10566000000E+00 0.  1.
         23    2    1    0    0    0  0.97006705012E+01  0.21288589632E+02 -0.20204144374E+02  0.94088602319E+02  0.88865913486E+02 0.  0.
         13    1    3    3    0    0 -0.33605208954E+02  0.49579417430E+01 -0.31631303393E+02  0.46415964641E+02  0.10566000000E+00 0. -1.
         22    1    1    0    0    0 -0.97006705012E+01 -0.21288589632E+02  0.20204144374E+02  0.30911397681E+02  0.00000000000E+00 0. -1.
</event>
<event>
 5    1  0.1267616E-004  0.9118800E+02  0.7818608E-02  0.1130116E+00
         25   -1    0    0    0    0  0.00000000000E+00  0.00000000000E+00  0.99999998245E-14  0.12500000000E+03  0.12500000000E+03 0.  0.
        -13    1    3    3    0    0  0.33584934325E+01  0.26235461689E+02 -0.20607985140E+02  0.33530272050E+02  0.10566000000E+00 0.  1.
         23    2    1    0    0    0 -0.14197141742E+02 -0.16413081335E+02  0.20377895881E+02  0.95230775739E+02  0.90458244151E+02 0.  0.
         13    1    3    3    0    0 -0.17555635174E+02 -0.42648543024E+02  0.40985881021E+02  0.61700503689E+02  0.10566000000E+00 0. -1.
         22    1    1    0    0    0  0.14197141742E+02  0.16413081335E+02 -0.20377895881E+02  0.29769224261E+02  0.00000000000E+00 0. -1.
</event>
<event>
 5    1  0.1267616E-004  0.9118800E+02  0.7818608E-02  0.1130116E+00
         25   -1    0    0    0    0  0.00000000000E+00  0.00000000000E+00  0.99999998245E-14  0.12500000000E+03  0.12500000000E+03 0.  0.
        -13    1    3    3    0    0  0.12777621596E+01 -0.18680443764E+02  0.39712958542E+02  0.43905829858E+02  0.10566000000E+00 0.  1.
         23    2    1    0    0    0 -0.21626595797E+01 -0.17784679466E+02 -0.16745896881E+02  0.10047660337E+03  0.97437933277E+02 0.  0.
         13    1    3    3    0    0 -0.34404217393E+01  0.89576429749E+00 -0.56458855423E+02  0.56570773507E+02  0.10566000000E+00 0. -1.
         22    1    1    0    0    0  0.21626595797E+01  0.17784679466E+02  0.16745896881E+02  0.24523396635E+02  0.00000000000E+00 0.  1.
</event>
<event>
 5    1  0.1267616E-004  0.9118800E+02  0.7818608E-02  0.1130116E+00
         25   -1    0    0    0    0  0.00000000000E+00  0.00000000000E+00  0.99999998245E-14  0.12500000000E+03  0.12500000000E+03 0.  0.
        -13    1    3    3    0    0 -0.43553490973E+02  0.69244847499E+01 -0.34082728262E+01  0.44232143885E+02  0.10566000000E+00 0. -1.
         23    2    1    0    0    0  0.38796110834E+01  0.21202048213E+02 -0.19107595378E+02  0.96195860858E+02  0.91782161745E+02 0.  0.
         13    1    3    3    0    0  0.47433102056E+02  0.14277563463E+02 -0.15699322552E+02  0.51963716974E+02  0.10566000000E+00 0.  1.
         22    1    1    0    0    0 -0.38796110834E+01 -0.21202048213E+02  0.19107595378E+02  0.28804139142E+02  0.00000000000E+00 0.  1.
</event>
<event>
 5    1  0.1267616E-004  0.9118800E+02  0.7818608E-02  0.1130116E+00
         25   -1    0    0    0    0  0.00000000000E+00  0.00000000000E+00  0.99999998245E-14  0.12500000000E+03  0.12500000000E+03 0.  0.
        -13    1    3    3    0    0 -0.21208487670E+02 -0.19320538023E+02  0.20283494570E+02  0.35135657881E+02  0.10566000000E+00 0.  1.
         23    2    1    0    0    0  0.11417341108E+02  0.24079006253E+02 -0.90604872369E+01  0.96853123636E+02  0.92672978310E+02 0.  0.
         13    1    3    3    0    0  0.32625828778E+02  0.43399544276E+02 -0.29343981807E+02  0.61717465754E+02  0.10566000000E+00 0. -1.
         22    1    1    0    0    0 -0.11417341108E+02 -0.24079006253E+02  0.90604872369E+01  0.28146876364E+02  0.00000000000E+00 0. -1.
</event>
<event>
 5    1  0.1267616E-004  0.9118800E+02  0.7818608E-02  0.1130116E+00
         25   -1    0    0    0    0  0.00000000000E+00  0.00000000000E+00  0.99999998245E-14  0.12500000000E+03  0.12500000000E+03 0.  0.
        -13    1    3    3    0    0  0.32638488292E+01 -0.16996118284E+02  0.51679124259E+02  0.54500126552E+02  0.10566000000E+00 0. -1.
         23    2    1    0    0    0 -0.96278993861E+00 -0.26942299439E+02  0.12242200337E+02  0.95391117336E+02  0.90679541981E+02 0.  0.
         13    1    3    3    0    0 -0.42266387678E+01 -0.99461811548E+01 -0.39436923922E+02  0.40890990784E+02  0.10566000000E+00 0.  1.
         22    1    1    0    0    0  0.96278993861E+00  0.26942299439E+02 -0.12242200337E+02  0.29608882664E+02  0.00000000000E+00 0.  1.
</event>
<event>
 5    1  0.1267616E-004  0.9118800E+02  0.7818608E-02  0.1130116E+00
         25   -1    0    0    0    0  0.00000000000E+00  0.00000000000E+00  0.99999998245E-14  0.12500000000E+03  0.12500000000E+03 0.  0.
        -13    1    3    3    0    0  0.30102912320E+02 -0.15504980394E+02  0.77087514927E+01  0.34727881605E+02  0.10566000000E+00 0.  1.
         23    2    1    0    0    0 -0.26353612211E+02  0.44575715024E+01  0.13801500358E+02  0.94919038705E+02  0.90026438763E+02 0.  0.
         13    1    3    3    0    0 -0.56456524531E+02  0.19962551897E+02  0.60927488656E+01  0.60191157100E+02  0.10566000000E+00 0. -1.
         22    1    1    0    0    0  0.26353612211E+02 -0.44575715024E+01 -0.13801500358E+02  0.30080961295E+02  0.00000000000E+00 0. -1.
</event>
<event>
 5    1  0.1267616E-004  0.9118800E+02  0.7818608E-02  0.1130116E+00
         25   -1    0    0    0    0  0.00000000000E+00  0.00000000000E+00  0.99999998245E-14  0.12500000000E+03  0.12500000000E+03 0.  0.
        -13    1    3    3    0    0 -0.11098739283E+02  0.10487557571E+02  0.30617850132E+02  0.34214540596E+02  0.10566000000E+00 0.  1.
         23    2    1    0    0    0  0.21614456978E+02 -0.97445383661E+01 -0.17292129903E+02  0.95654497193E+02  0.91041882110E+02 0.  0.
         13    1    3    3    0    0  0.32713196261E+02 -0.20232095937E+02 -0.47909980035E+02  0.61439956597E+02  0.10566000000E+00 0. -1.
         22    1    1    0    0    0 -0.21614456978E+02  0.97445383661E+01  0.17292129903E+02  0.29345502807E+02  0.00000000000E+00 0. -1.
</event>
<event>
 5    1  0.1267616E-004  0.9118800E+02  0.7818608E-02  0.1130116E+00
         25   -1    0    0    0    0  0.00000000000E+00  0.00000000000E+00  0.99999998245E-14  0.12500000000E+03  0.12500000000E+03 0.  0.
        -13    1    3    3    0    0  0.19250948571E+01 -0.10567883041E+02 -0.31461639887E+02  0.33245031066E+02  0.10566000000E+00 0. -1.
         23    2    1    0    0    0  0.10865347353E+02  0.11723805841E+02  0.25410108742E+02  0.94980389363E+02  0.90111582723E+02 0.  0.
         13    1    3    3    0    0  0.89402524956E+01  0.22291688882E+02  0.56871748629E+02  0.61735358297E+02  0.10566000000E+00 0.  1.
         22    1    1    0    0    0 -0.10865347353E+02 -0.11723805841E+02 -0.25410108742E+02  0.30019610637E+02  0.00000000000E+00 0.  1.
</event>
<event>
 5    1  0.1267616E-004  0.9118800E+02  0.7818608E-02  0.1130116E+00
         25   -1    0    0    0    0  0.00000000000E+00  0.00000000000E+00  0.99999998245E-14  0.12500000000E+03  0.12500000000E+03 0.  0.
        -13    1    3    3    0    0  0.31833834913E+02 -0.44691240865E+02 -0.14158760139E+02  0.56667289577E+02  0.10566000000E+00 0. -1.
         23    2    1    0    0    0 -0.22787188297E+01 -0.24498137797E+02 -0.14750847720E+02  0.96313089684E+02  0.91941679455E+02 0.  0.
         13    1    3    3    0    0 -0.34112553742E+02  0.20193103069E+02 -0.59208758055E+00  0.39645800107E+02  0.10566000000E+00 0.  1.
         22    1    1    0    0    0  0.22787188297E+01  0.24498137797E+02  0.14750847720E+02  0.28686910316E+02  0.00000000000E+00 0. -1.
</event>
<event>
 5    1  0.1267616E-004  0.9118800E+02  0.7818608E-02  0.1130116E+00
         25   -1    0    0    0    0  0.00000000000E+00  0.00000000000E+00  0.99999998245E-14  0.12500000000E+03  0.12500000000E+03 0.  0.
        -13    1    3    3    0    0  0.13169776508E+02  0.25739558619E+02  0.16174592896E+02  0.33129994123E+02  0.10566000000E+00 0. -1.
         23    2    1    0    0    0 -0.18755112357E+02 -0.78021806651E+01 -0.23378638794E+02  0.94029223218E+02  0.88782350749E+02 0.  0.
         13    1    3    3    0    0 -0.31924888865E+02 -0.33541739284E+02 -0.39553231690E+02  0.60899229095E+02  0.10566000000E+00 0.  1.
         22    1    1    0    0    0  0.18755112357E+02  0.78021806651E+01  0.23378638794E+02  0.30970776782E+02  0.00000000000E+00 0.  1.
</event>
<event>
 5    1  0.1267616E-004  0.9118800E+02  0.7818608E-02  0.1130116E+00
         25   -1    0    0    0    0  0.00000000000E+00  0.00000000000E+00  0.99999998245E-14  0.12500000000E+03  0.12500000000E+03 0.  0.
        -13    1    3    3    0    0  0.54534011694E+02  0.15720600123E+02  0.25896620947E+02  0.62383826751E+02  0.10566000000E+00 0.  1.
         23    2    1    0    0    0  0.25185221715E+02  0.67624840501E+01  0.90039348174E+01  0.97412005771E+02  0.93423773435E+02 0.  0.
         13    1    3    3    0    0 -0.29348789979E+02 -0.89581160724E+01 -0.16892686129E+02  0.35028179020E+02  0.10566000000E+00 0. -1.
         22    1    1    0    0    0 -0.25185221715E+02 -0.67624840501E+01 -0.90039348174E+01  0.27587994229E+02  0.00000000000E+00 0.  1.
</event>
<event>
 5    1  0.1267616E-004  0.9118800E+02  0.7818608E-02  0.1130116E+00
         25   -1    0    0    0    0  0.00000000000E+00  0.00000000000E+00  0.99999998245E-14  0.12500000000E+03  0.12500000000E+03 0.  0.
        -13    1    3    3    0    0  0.42693262218E+02  0.30437047862E+02 -0.12138867953E+02  0.53819065401E+02  0.10566000000E+00 0.  1.
         23    2    1    0    0    0  0.37304558562E+01  0.28545805438E+02  0.38063151047E+01  0.95960934181E+02  0.91461650680E+02 0.  0.
         13    1    3    3    0    0 -0.38962806362E+02 -0.18912424244E+01  0.15945183058E+02  0.42141868780E+02  0.10566000000E+00 0. -1.
         22    1    1    0    0    0 -0.37304558562E+01 -0.28545805438E+02 -0.38063151047E+01  0.29039065819E+02  0.00000000000E+00 0.  1.
</event>
<event>
 5    1  0.1267616E-004  0.9118800E+02  0.7818608E-02  0.1130116E+00
         25   -1    0    0    0    0  0.00000000000E+00  0.00000000000E+00  0.99999998245E-14  0.12500000000E+03  0.12500000000E+03 0.  0.
        -13    1    3    3    0    0  0.17452661883E+02  0.30880689375E+02  0.41041337994E+02  0.54245875156E+02  0.10566000000E+00 0. -1.
         23    2    1    0    0    0  0.25467126636E+02  0.99267946287E-01  0.14355967714E+02  0.95765120109E+02  0.91193640279E+02 0.  0.
         13    1    3    3    0    0  0.80144647528E+01 -0.30781421429E+02 -0.26685370280E+02  0.41519244953E+02  0.10566000000E+00 0.  1.
         22    1    1    0    0    0 -0.25467126636E+02 -0.99267946287E-01 -0.14355967714E+02  0.29234879891E+02  0.00000000000E+00 0. -1.
</event>
<event>
 5    1  0.1267616E-004  0.9118800E+02  0.7818608E-02  0.1130116E+00
         25   -1    0    0    0    0  0.00000000000E+00  0.00000000000E+00  0.99999998245E-14  0.12500000000E+03  0.12500000000E+03 0.  0.
        -13    1    3    3    0    0  0.67701105646E+01 -0.66953839254E+01  0.53752303033E+02  0.54589227952E+02  0.10566000000E+00 0.  1.
         23    2    1    0    0    0  0.89058127698E+01 -0.22332213848E+02  0.14432316947E+02  0.96958369361E+02  0.92814828235E+02 0.  0.
         13    1    3    3    0    0  0.21357022052E+01 -0.15636829922E+02 -0.39319986086E+02  0.42369141409E+02  0.10566000000E+00 0. -1.
         22    1    1    0    0    0 -0.89058127698E+01  0.22332213848E+02 -0.14432316947E+02  0.28041630639E+02  0.00000000000E+00 0.  1.
</event>
<event>
 5    1  0.1267616E-004  0.9118800E+02  0.7818608E-02  0.1130116E+00
         25   -1    0    0    0    0  0.00000000000E+00  0.00000000000E+00  0.99999998245E-14  0.12500000000E+03  0.12500000000E+03 0.  0.
        -13    1    3    3    0    0 -0.46451841763E+02  0.19728275787E+02  0.19910807432E+02  0.54253385935E+02  0.10566000000E+00 0.  1.
         23    2    1    0    0    0 -0.51432342725E+01  0.21571804375E+02  0.19289882420E+02  0.95607906394E+02  0.90977890712E+02 0.  0.
         13    1    3    3    0    0  0.41308607491E+02  0.18435285880E+01 -0.62092501245E+00  0.41354520459E+02  0.10566000000E+00 0. -1.
         22    1    1    0    0    0  0.51432342725E+01 -0.21571804375E+02 -0.19289882420E+02  0.29392093606E+02  0.00000000000E+00 0.  1.
</event>
<event>
 5    1  0.1267616E-004  0.9118800E+02  0.7818608E-02  0.1130116E+00
         25   -1    0    0    0    0  0.00000000000E+00  0.00000000000E+00  0.99999998245E-14  0.12500000000E+03  0.12500000000E+03 0.  0.
        -13    1    3    3    0    0  0.28460300283E+02 -0.35544312322E+02 -0.21188938388E+02  0.50223192896E+02  0.10566000000E+00 0.  1.
         23    2    1    0    0    0  0.28635604100E+02 -0.20264424124E+01  0.85646055919E+01  0.95042417321E+02  0.90197584947E+02 0.  0.
         13    1    3    3    0    0  0.17530381655E+00  0.33517869909E+02  0.29753543980E+02  0.44819224425E+02  0.10566000000E+00 0. -1.
         22    1    1    0    0    0 -0.28635604100E+02  0.20264424124E+01 -0.85646055919E+01  0.29957582679E+02  0.00000000000E+00 0. -1.
</event>
<event>
 5    1  0.1267616E-004  0.9118800E+02  0.7818608E-02  0.1130116E+00
         25   -1    0    0    0    0  0.00000000000E+00  0.00000000000E+00  0.99999998245E-14  0.12500000000E+03  0.12500000000E+03 0.  0.
        -13    1    3    3    0    0  0.44434396322E+02  0.39571699323E+02 -0.95819788908E+01  0.60267407836E+02  0.10566000000E+00 0.  1.
         23    2    1    0    0    0  0.15603927699E+02  0.11746797881E+02 -0.14553884982E+02  0.10064254964E+03  0.97650588373E+02 0.  0.
         13    1    3    3    0    0 -0.28830468624E+02 -0.27824901442E+02 -0.49719060908E+01  0.40375141802E+02  0.10566000000E+00 0. -1.
         22    1    1    0    0    0 -0.15603927699E+02 -0.11746797881E+02  0.14553884982E+02  0.24357450362E+02  0.00000000000E+00 0.  1.
</event>
<event>
 4    1  0.1267616E-004  0.9118800E+02  0.7818608E-02  0.1130116E+00
         25   -1    0    0    0    0  0.00000000000E+00  0.00000000000E+00  0.99999998245E-14  0.12500000000E+03  0.12500000000E+03 0.  0.
        -13    1    1    0    0    0  0.75289105744E+01  0.72316235769E+01 -0.48147892950E+02  0.49266739628E+02  0.10566000000E+00 0.  1.
         13    1    1    0    0    0  0.15396731075E+02 -0.16678738405E+02  0.13100878304E+01  0.22736911328E+02  0.10566000000E+00 0. -1.
         22    1    1    0    0    0 -0.22925641649E+02  0.94471148283E+01  0.46837805120E+02  0.52996349044E+02  0.00000000000E+00 0.  1.
</event>
<event>
 5    1  0.1267616E-004  0.9118800E+02  0.7818608E-02  0.1130116E+00
         25   -1    0    0    0    0  0.00000000000E+00  0.00000000000E+00  0.99999998245E-14  0.12500000000E+03  0.12500000000E+03 0.  0.
        -13    1    3    3    0    0 -0.19961797303E+01  0.33782127375E+02 -0.29181625118E+02  0.44685515238E+02  0.10566000000E+00 0.  1.
         23    2    1    0    0    0 -0.26923534160E+02 -0.60557166731E+01 -0.77469702741E+01  0.96337063226E+02  0.91974267089E+02 0.  0.
         13    1    3    3    0    0 -0.24927354430E+02 -0.39837844048E+02  0.21434654844E+02  0.51651547988E+02  0.10566000000E+00 0. -1.
         22    1    1    0    0    0  0.26923534160E+02  0.60557166731E+01  0.77469702741E+01  0.28662936774E+02  0.00000000000E+00 0. -1.
</event>
<event>
 5    1  0.1267616E-004  0.9118800E+02  0.7818608E-02  0.1130116E+00
         25   -1    0    0    0    0  0.00000000000E+00  0.00000000000E+00  0.99999998245E-14  0.12500000000E+03  0.12500000000E+03 0.  0.
        -13    1    3    3    0    0 -0.25699009334E+02 -0.31264086249E+02 -0.10106484704E+02  0.41713719169E+02  0.10566000000E+00 0.  1.
         23    2    1    0    0    0  0.32468228341E+01 -0.87418622168E+01  0.28529373840E+02  0.94985217221E+02  0.90118279529E+02 0.  0.
         13    1    3    3    0    0  0.28945832169E+02  0.22522224032E+02  0.38635858544E+02  0.53271498053E+02  0.10566000000E+00 0. -1.
         22    1    1    0    0    0 -0.32468228341E+01  0.87418622168E+01 -0.28529373840E+02  0.30014782779E+02  0.00000000000E+00 0. -1.
</event>
<event>
 5    1  0.1267616E-004  0.9118800E+02  0.7818608E-02  0.1130116E+00
         25   -1    0    0    0    0  0.00000000000E+00  0.00000000000E+00  0.99999998245E-14  0.12500000000E+03  0.12500000000E+03 0.  0.
        -13    1    3    3    0    0  0.24740979881E+02 -0.34206011486E+02  0.23176192939E+02  0.48159260692E+02  0.10566000000E+00 0.  1.
         23    2    1    0    0    0  0.25367321210E+02  0.97220459354E+01 -0.68065374240E-02  0.97833491044E+02  0.93986024285E+02 0.  0.
         13    1    3    3    0    0  0.62634132898E+00  0.43928057421E+02 -0.23182999476E+02  0.49674230352E+02  0.10566000000E+00 0. -1.
         22    1    1    0    0    0 -0.25367321210E+02 -0.97220459354E+01  0.68065374240E-02  0.27166508956E+02  0.00000000000E+00 0.  1.
</event>
<event>
 5    1  0.1267616E-004  0.9118800E+02  0.7818608E-02  0.1130116E+00
         25   -1    0    0    0    0  0.00000000000E+00  0.00000000000E+00  0.99999998245E-14  0.12500000000E+03  0.12500000000E+03 0.  0.
        -13    1    3    3    0    0  0.26888735839E+02 -0.14674871858E+02 -0.88780921936E+01  0.31893379628E+02  0.10566000000E+00 0.  1.
         23    2    1    0    0    0 -0.22352402373E+02  0.17595957558E+02  0.11673078026E+02  0.94250880260E+02  0.89093883432E+02 0.  0.
         13    1    3    3    0    0 -0.49241138212E+02  0.32270829416E+02  0.20551170219E+02  0.62357500631E+02  0.10566000000E+00 0. -1.
         22    1    1    0    0    0  0.22352402373E+02 -0.17595957558E+02 -0.11673078026E+02  0.30749119740E+02  0.00000000000E+00 0. -1.
</event>
<event>
 5    1  0.1267616E-004  0.9118800E+02  0.7818608E-02  0.1130116E+00
         25   -1    0    0    0    0  0.00000000000E+00  0.00000000000E+00  0.99999998245E-14  0.12500000000E+03  0.12500000000E+03 0.  0.
        -13    1    3    3    0    0 -0.19175549375E+01  0.11341080976E+02  0.48050485144E+02  0.49408070406E+02  0.10566000000E+00 0.  1.
         23    2    1    0    0    0 -0.19926269011E+02  0.22104044043E+02  0.87124613483E+01  0.93991098979E+02  0.88728657968E+02 0.  0.
         13    1    3    3    0    0 -0.18008714074E+02  0.10762963067E+02 -0.39338023796E+02  0.44583028573E+02  0.10566000000E+00 0. -1.
         22    1    1    0    0    0  0.19926269011E+02 -0.22104044043E+02 -0.87124613483E+01  0.31008901021E+02  0.00000000000E+00 0.  1.
</event>
<event>
 5    1  0.1267616E-004  0.9118800E+02  0.7818608E-02  0.1130116E+00
         25   -1    0    0    0    0  0.00000000000E+00  0.00000000000E+00  0.99999998245E-14  0.12500000000E+03  0.12500000000E+03 0.  0.
        -13    1    3    3    0    0  0.98523163867E+01 -0.48971985701E+02 -0.32755948903E+02  0.59735139359E+02  0.10566000000E+00 0.  1.
         23    2    1    0    0    0 -0.22928160971E+01 -0.18165171715E+02 -0.25453614112E+02  0.93645304331E+02  0.88240161394E+02 0.  0.
         13    1    3    3    0    0 -0.12145132484E+02  0.30806813986E+02  0.73023347905E+01  0.33910164972E+02  0.10566000000E+00 0. -1.
         22    1    1    0    0    0  0.22928160971E+01  0.18165171715E+02  0.25453614112E+02  0.31354695669E+02  0.00000000000E+00 0.  1.
</event>
<event>
 5    1  0.1267616E-004  0.9118800E+02  0.7818608E-02  0.1130116E+00
         25   -1    0    0    0    0  0.00000000000E+00  0.00000000000E+00  0.99999998245E-14  0.12500000000E+03  0.12500000000E+03 0.  0.
        -13    1    3    3    0    0 -0.54442219505E+01  0.35116442419E+02 -0.14705010443E+02  0.38458452608E+02  0.10566000000E+00 0. -1.
         23    2    1    0    0    0 -0.20691452187E+02 -0.85637144391E+01  0.18945881122E+02  0.95667086574E+02  0.91059165620E+02 0.  0.
         13    1    3    3    0    0 -0.15247230236E+02 -0.43680156858E+02  0.33650891565E+02  0.57208633966E+02  0.10566000000E+00 0.  1.
         22    1    1    0    0    0  0.20691452187E+02  0.85637144391E+01 -0.18945881122E+02  0.29332913426E+02  0.00000000000E+00 0. -1.
</event>
<event>
 5    1  0.1267616E-004  0.9118800E+02  0.7818608E-02  0.1130116E+00
         25   -1    0    0    0    0  0.00000000000E+00  0.00000000000E+00  0.99999998245E-14  0.12500000000E+03  0.12500000000E+03 0.  0.
        -13    1    3    3    0    0 -0.34652102111E+01 -0.34060898679E+02 -0.51394427672E+02  0.61753954209E+02  0.10566000000E+00 0.  1.
         23    2    1    0    0    0 -0.70842268732E+01 -0.13043899334E+02 -0.27257851876E+02  0.93962602089E+02  0.88688502762E+02 0.  0.
         13    1    3    3    0    0 -0.36190166620E+01  0.21016999345E+02  0.24136575796E+02  0.32208647880E+02  0.10566000000E+00 0. -1.
         22    1    1    0    0    0  0.70842268732E+01  0.13043899334E+02  0.27257851876E+02  0.31037397911E+02  0.00000000000E+00 0.  1.
</event>
<event>
 5    1  0.1267616E-004  0.9118800E+02  0.7818608E-02  0.1130116E+00
         25   -1    0    0    0    0  0.00000000000E+00  0.00000000000E+00  0.99999998245E-14  0.12500000000E+03  0.12500000000E+03 0.  0.
        -13    1    3    3    0    0 -0.57712559662E+02 -0.80860452667E+01 -0.91611013024E+01  0.58992038546E+02  0.10566000000E+00 0. -1.
         23    2    1    0    0    0 -0.29013647318E+02  0.79523567544E+01  0.44766953759E+01  0.94584995313E+02  0.89561424889E+02 0.  0.
         13    1    3    3    0    0  0.28698912344E+02  0.16038402021E+02  0.13637796678E+02  0.35592956767E+02  0.10566000000E+00 0.  1.
         22    1    1    0    0    0  0.29013647318E+02 -0.79523567544E+01 -0.44766953759E+01  0.30415004687E+02  0.00000000000E+00 0. -1.
</event>
<event>
 5    1  0.1267616E-004  0.9118800E+02  0.7818608E-02  0.1130116E+00
         25   -1    0    0    0    0  0.00000000000E+00  0.00000000000E+00  0.99999998245E-14  0.12500000000E+03  0.12500000000E+03 0.  0.
        -13    1    3    3    0    0 -0.17116707186E+02  0.43436271960E+01 -0.55904551539E+02  0.58627457807E+02  0.10566000000E+00 0.  1.
         23    2    1    0    0    0 -0.49546595305E+01 -0.13384999180E+02 -0.22843538904E+02  0.98064259361E+02  0.94292443177E+02 0.  0.
         13    1    3    3    0    0  0.12162047655E+02 -0.17728626376E+02  0.33061012635E+02  0.39436801554E+02  0.10566000000E+00 0. -1.
         22    1    1    0    0    0  0.49546595305E+01  0.13384999180E+02  0.22843538904E+02  0.26935740639E+02  0.00000000000E+00 0.  1.
</event>
<event>
 5    1  0.1267616E-004  0.9118800E+02  0.7818608E-02  0.1130116E+00
         25   -1    0    0    0    0  0.00000000000E+00  0.00000000000E+00  0.99999998245E-14  0.12500000000E+03  0.12500000000E+03 0.  0.
        -13    1    3    3    0    0  0.45637089086E+02  0.99991090120E+01 -0.84835841347E+00  0.46727475400E+02  0.10566000000E+00 0. -1.
         23    2    1    0    0    0  0.86519138921E+01 -0.18376237058E+02 -0.19412300139E+02  0.96904108858E+02  0.92741723159E+02 0.  0.
         13    1    3    3    0    0 -0.36985175194E+02 -0.28375346070E+02 -0.18563941725E+02  0.50176633457E+02  0.10566000000E+00 0.  1.
         22    1    1    0    0    0 -0.86519138921E+01  0.18376237058E+02  0.19412300139E+02  0.28095891142E+02  0.00000000000E+00 0.  1.
</event>
<event>
 5    1  0.1267616E-004  0.9118800E+02  0.7818608E-02  0.1130116E+00
         25   -1    0    0    0    0  0.00000000000E+00  0.00000000000E+00  0.99999998245E-14  0.12500000000E+03  0.12500000000E+03 0.  0.
        -13    1    3    3    0    0 -0.14656263216E+02 -0.29248373213E+02 -0.15544249738E+02  0.36220274033E+02  0.10566000000E+00 0. -1.
         23    2    1    0    0    0  0.26836184974E+01  0.27393219874E+02 -0.99991025430E+01  0.95715663659E+02  0.91125824631E+02 0.  0.
         13    1    3    3    0    0  0.17339881713E+02  0.56641593087E+02  0.55451471947E+01  0.59495389626E+02  0.10566000000E+00 0.  1.
         22    1    1    0    0    0 -0.26836184974E+01 -0.27393219874E+02  0.99991025430E+01  0.29284336341E+02  0.00000000000E+00 0.  1.
</event>
<event>
 5    1  0.1267616E-004  0.9118800E+02  0.7818608E-02  0.1130116E+00
         25   -1    0    0    0    0  0.00000000000E+00  0.00000000000E+00  0.99999998245E-14  0.12500000000E+03  0.12500000000E+03 0.  0.
        -13    1    3    3    0    0 -0.19052577680E+02  0.10219931140E+02 -0.37167903936E+02  0.42998976218E+02  0.10566000000E+00 0. -1.
         23    2    1    0    0    0 -0.68440877815E+01 -0.24510454564E+02  0.50946208713E+01  0.99046983175E+02  0.95586326396E+02 0.  0.
         13    1    3    3    0    0  0.12208489898E+02 -0.34730385704E+02  0.42262524808E+02  0.56048006957E+02  0.10566000000E+00 0.  1.
         22    1    1    0    0    0  0.68440877815E+01  0.24510454564E+02 -0.50946208713E+01  0.25953016825E+02  0.00000000000E+00 0.  1.
</event>
<event>
 5    1  0.1267616E-004  0.9118800E+02  0.7818608E-02  0.1130116E+00
         25   -1    0    0    0    0  0.00000000000E+00  0.00000000000E+00  0.99999998245E-14  0.12500000000E+03  0.12500000000E+03 0.  0.
        -13    1    3    3    0    0 -0.72908466455E+01  0.21878106587E+01  0.54479916111E+02  0.55009229987E+02  0.10566000000E+00 0.  1.
         23    2    1    0    0    0  0.61731131399E+01 -0.17910900976E+02  0.17436834066E+02  0.99252167433E+02  0.95854274075E+02 0.  0.
         13    1    3    3    0    0  0.13463959785E+02 -0.20098711635E+02 -0.37043082045E+02  0.44242937446E+02  0.10566000000E+00 0. -1.
         22    1    1    0    0    0 -0.61731131399E+01  0.17910900976E+02 -0.17436834066E+02  0.25747832567E+02  0.00000000000E+00 0.  1.
</event>
<event>
 5    1  0.1267616E-004  0.9118800E+02  0.7818608E-02  0.1130116E+00
         25   -1    0    0    0    0  0.00000000000E+00  0.00000000000E+00  0.99999998245E-14  0.12500000000E+03  0.12500000000E+03 0.  0.
        -13    1    3    3    0    0  0.30836653432E+02  0.18499760904E+02  0.31180414776E+02  0.47595900854E+02  0.10566000000E+00 0.  1.
         23    2    1    0    0    0 -0.39851426916E+01 -0.13501957698E+02  0.26336759264E+02  0.95136826818E+02  0.90328327255E+02 0.  0.
         13    1    3    3    0    0 -0.34821796124E+02 -0.32001718602E+02 -0.48436555126E+01  0.47540925965E+02  0.10566000000E+00 0. -1.
         22    1    1    0    0    0  0.39851426916E+01  0.13501957698E+02 -0.26336759264E+02  0.29863173182E+02  0.00000000000E+00 0.  1.
</event>
<event>
 5    1  0.1267616E-004  0.9118800E+02  0.7818608E-02  0.1130116E+00
         25   -1    0    0    0    0  0.00000000000E+00  0.00000000000E+00  0.99999998245E-14  0.12500000000E+03  0.12500000000E+03 0.  0.
        -13    1    3    3    0    0 -0.14824763746E+02  0.10447054767E+02 -0.39157782171E+02  0.43153883279E+02  0.10566000000E+00 0. -1.
         23    2    1    0    0    0  0.20229113144E+02  0.21869433580E+02 -0.25648483744E+01  0.95099036958E+02  0.90276016967E+02 0.  0.
         13    1    3    3    0    0  0.35053876890E+02  0.11422378812E+02  0.36592933797E+02  0.51945153679E+02  0.10566000000E+00 0.  1.
         22    1    1    0    0    0 -0.20229113144E+02 -0.21869433580E+02  0.25648483744E+01  0.29900963042E+02  0.00000000000E+00 0.  1.
</event>
<event>
 5    1  0.1267616E-004  0.9118800E+02  0.7818608E-02  0.1130116E+00
         25   -1    0    0    0    0  0.00000000000E+00  0.00000000000E+00  0.99999998245E-14  0.12500000000E+03  0.12500000000E+03 0.  0.
        -13    1    3    3    0    0  0.51109683184E+02 -0.98646820062E+01 -0.15686065513E+02  0.54365204695E+02  0.10566000000E+00 0. -1.
         23    2    1    0    0    0  0.53771347725E+01 -0.15181405009E+02 -0.18475299810E+02  0.10049030111E+03  0.97455504096E+02 0.  0.
         13    1    3    3    0    0 -0.45732548411E+02 -0.53167230027E+01 -0.27892342973E+01  0.46125096419E+02  0.10566000000E+00 0.  1.
         22    1    1    0    0    0 -0.53771347725E+01  0.15181405009E+02  0.18475299810E+02  0.24509698886E+02  0.00000000000E+00 0. -1.
</event>
<event>
 5    1  0.1267616E-004  0.9118800E+02  0.7818608E-02  0.1130116E+00
         25   -1    0    0    0    0  0.00000000000E+00  0.00000000000E+00  0.99999998245E-14  0.12500000000E+03  0.12500000000E+03 0.  0.
        -13    1    3    3    0    0  0.26976370904E+02 -0.36779848108E+02 -0.36268373699E+01  0.45756386738E+02  0.10566000000E+00 0. -1.
         23    2    1    0    0    0  0.26650838321E+02  0.11165701545E+02  0.78494640848E+01  0.95057485733E+02  0.90218465035E+02 0.  0.
         13    1    3    3    0    0 -0.32553258284E+00  0.47945549653E+02  0.11476301455E+02  0.49301098995E+02  0.10566000000E+00 0.  1.
         22    1    1    0    0    0 -0.26650838321E+02 -0.11165701545E+02 -0.78494640848E+01  0.29942514267E+02  0.00000000000E+00 0. -1.
</event>
<event>
 5    1  0.1267616E-004  0.9118800E+02  0.7818608E-02  0.1130116E+00
         25   -1    0    0    0    0  0.00000000000E+00  0.00000000000E+00  0.99999998245E-14  0.12500000000E+03  0.12500000000E+03 0.  0.
        -13    1    3    3    0    0  0.12103428191E+02  0.97458750765E+01 -0.55855521020E+02  0.57976938927E+02  0.10566000000E+00 0. -1.
         23    2    1    0    0    0 -0.64722986567E+01 -0.69272365450E+01 -0.28286106959E+02  0.95167448936E+02  0.90370693447E+02 0.  0.
         13    1    3    3    0    0 -0.18575726848E+02 -0.16673111621E+02  0.27569414060E+02  0.37190510009E+02  0.10566000000E+00 0.  1.
         22    1    1    0    0    0  0.64722986567E+01  0.69272365450E+01  0.28286106959E+02  0.29832551064E+02  0.00000000000E+00 0. -1.
</event>
<event>
 5    1  0.1267616E-004  0.9118800E+02  0.7818608E-02  0.1130116E+00
         25   -1    0    0    0    0  0.00000000000E+00  0.00000000000E+00  0.99999998245E-14  0.12500000000E+03  0.12500000000E+03 0.  0.
        -13    1    3    3    0    0 -0.17060722863E+02  0.11015040095E+02  0.44553542513E+02  0.48963544473E+02  0.10566000000E+00 0. -1.
         23    2    1    0    0    0 -0.27086124997E+02  0.11452537864E+02 -0.96613194770E+00  0.95576332625E+02  0.90934499263E+02 0.  0.
         13    1    3    3    0    0 -0.10025402134E+02  0.43749776850E+00 -0.45519674460E+02  0.46612788152E+02  0.10566000000E+00 0.  1.
         22    1    1    0    0    0  0.27086124997E+02 -0.11452537864E+02  0.96613194770E+00  0.29423667375E+02  0.00000000000E+00 0.  1.
</event>
<event>
 5    1  0.1267616E-004  0.9118800E+02  0.7818608E-02  0.1130116E+00
         25   -1    0    0    0    0  0.00000000000E+00  0.00000000000E+00  0.99999998245E-14  0.12500000000E+03  0.12500000000E+03 0.  0.
        -13    1    3    3    0    0  0.30804287187E+01  0.40707265674E+02  0.21217209402E+02  0.46008169477E+02  0.10566000000E+00 0.  1.
         23    2    1    0    0    0 -0.44668699467E+01  0.15083344653E+02 -0.22682573107E+02  0.97396389081E+02  0.93402876134E+02 0.  0.
         13    1    3    3    0    0 -0.75472986655E+01 -0.25623921021E+02 -0.43899782509E+02  0.51388219604E+02  0.10566000000E+00 0. -1.
         22    1    1    0    0    0  0.44668699467E+01 -0.15083344653E+02  0.22682573107E+02  0.27603610919E+02  0.00000000000E+00 0. -1.
</event>
<event>
 5    1  0.1267616E-004  0.9118800E+02  0.7818608E-02  0.1130116E+00
         25   -1    0    0    0    0  0.00000000000E+00  0.00000000000E+00  0.99999998245E-14  0.12500000000E+03  0.12500000000E+03 0.  0.
        -13    1    3    3    0    0  0.11909003070E+02 -0.29053468562E+02 -0.35841482005E+02  0.47650303104E+02  0.10566000000E+00 0.  1.
         23    2    1    0    0    0  0.19903909437E+02 -0.11391213272E+02  0.11889183556E+02  0.99168274616E+02  0.95744810062E+02 0.  0.
         13    1    3    3    0    0  0.79949063671E+01  0.17662255290E+02  0.47730665561E+02  0.51517971511E+02  0.10566000000E+00 0. -1.
         22    1    1    0    0    0 -0.19903909437E+02  0.11391213272E+02 -0.11889183556E+02  0.25831725384E+02  0.00000000000E+00 0. -1.
</event>
<event>
 5    1  0.1267616E-004  0.9118800E+02  0.7818608E-02  0.1130116E+00
         25   -1    0    0    0    0  0.00000000000E+00  0.00000000000E+00  0.99999998245E-14  0.12500000000E+03  0.12500000000E+03 0.  0.
        -13    1    3    3    0    0 -0.32802336122E+02 -0.21151933802E+01  0.15331784451E+02  0.36270402211E+02  0.10566000000E+00 0. -1.
         23    2    1    0    0    0  0.14808596867E+02  0.23831423588E+02 -0.87640383737E+01  0.95605448464E+02  0.90974513552E+02 0.  0.
         13    1    3    3    0    0  0.47610932989E+02  0.25946616968E+02 -0.24095822825E+02  0.59335046253E+02  0.10566000000E+00 0.  1.
         22    1    1    0    0    0 -0.14808596867E+02 -0.23831423588E+02  0.87640383737E+01  0.29394551536E+02  0.00000000000E+00 0.  1.
</event>
<event>
 5    1  0.1267616E-004  0.9118800E+02  0.7818608E-02  0.1130116E+00
         25   -1    0    0    0    0  0.00000000000E+00  0.00000000000E+00  0.99999998245E-14  0.12500000000E+03  0.12500000000E+03 0.  0.
        -13    1    3    3    0    0 -0.23910873853E+02 -0.39183219591E+02  0.31389863643E+02  0.55609255430E+02  0.10566000000E+00 0.  1.
         23    2    1    0    0    0 -0.10413930201E+02 -0.28507351678E+01  0.28555610293E+02  0.94471332940E+02  0.89402646690E+02 0.  0.
         13    1    3    3    0    0  0.13496943652E+02  0.36332484423E+02 -0.28342533498E+01  0.38862077510E+02  0.10566000000E+00 0. -1.
         22    1    1    0    0    0  0.10413930201E+02  0.28507351678E+01 -0.28555610293E+02  0.30528667060E+02  0.00000000000E+00 0.  1.
</event>
<event>
 5    1  0.1267616E-004  0.9118800E+02  0.7818608E-02  0.1130116E+00
         25   -1    0    0    0    0  0.00000000000E+00  0.00000000000E+00  0.99999998245E-14  0.12500000000E+03  0.12500000000E+03 0.  0.
        -13    1    3    3    0    0  0.76806777154E+01 -0.13672725711E+02  0.43336513857E+02  0.46086883555E+02  0.10566000000E+00 0. -1.
         23    2    1    0    0    0 -0.24627498388E+02 -0.14621555266E+02  0.55243094310E+01  0.95831154464E+02  0.91284109329E+02 0.  0.
         13    1    3    3    0    0 -0.32308176103E+02 -0.94882955409E+00 -0.37812204426E+02  0.49744270908E+02  0.10566000000E+00 0.  1.
         22    1    1    0    0    0  0.24627498388E+02  0.14621555266E+02 -0.55243094310E+01  0.29168845536E+02  0.00000000000E+00 0.  1.
</event>
<event>
 5    1  0.1267616E-004  0.9118800E+02  0.7818608E-02  0.1130116E+00
         25   -1    0    0    0    0  0.00000000000E+00  0.00000000000E+00  0.99999998245E-14  0.12500000000E+03  0.12500000000E+03 0.  0.
        -13    1    3    3    0    0  0.45958742669E+02  0.21945560696E+02 -0.16774011861E+02  0.53620819650E+02  0.10566000000E+00 0.  1.
         23    2    1    0    0    0  0.24541302562E+02  0.36465377704E+01  0.14939042456E+02  0.96038857781E+02  0.91568086390E+02 0.  0.
         13    1    3    3    0    0 -0.21417440107E+02 -0.18299022925E+02  0.31713054317E+02  0.42418038131E+02  0.10566000000E+00 0. -1.
         22    1    1    0    0    0 -0.24541302562E+02 -0.36465377704E+01 -0.14939042456E+02  0.28961142219E+02  0.00000000000E+00 0.  1.
</event>
<event>
 5    1  0.1267616E-004  0.9118800E+02  0.7818608E-02  0.1130116E+00
         25   -1    0    0    0    0  0.00000000000E+00  0.00000000000E+00  0.99999998245E-14  0.12500000000E+03  0.12500000000E+03 0.  0.
        -13    1    3    3    0    0  0.20551847776E+02  0.29403134098E+02  0.45493594299E+02  0.57936180648E+02  0.10566000000E+00 0. -1.
         23    2    1    0    0    0 -0.44043166955E+01  0.22802042839E+02  0.24826038576E+02  0.91004951028E+02  0.84417046603E+02 0.  0.
         13    1    3    3    0    0 -0.24956164471E+02 -0.66010912592E+01 -0.20667555723E+02  0.33068770381E+02  0.10566000000E+00 0.  1.
         22    1    1    0    0    0  0.44043166955E+01 -0.22802042839E+02 -0.24826038576E+02  0.33995048972E+02  0.00000000000E+00 0. -1.
</event>
<event>
 5    1  0.1267616E-004  0.9118800E+02  0.7818608E-02  0.1130116E+00
         25   -1    0    0    0    0  0.00000000000E+00  0.00000000000E+00  0.99999998245E-14  0.12500000000E+03  0.12500000000E+03 0.  0.
        -13    1    3    3    0    0 -0.12230601965E+02 -0.53606426255E+02 -0.11739306967E+02  0.56223296349E+02  0.10566000000E+00 0.  1.
         23    2    1    0    0    0 -0.13630854251E+02 -0.23868003567E+02  0.12681591926E+02  0.94729477116E+02  0.89762850216E+02 0.  0.
         13    1    3    3    0    0 -0.14002522859E+01  0.29738422688E+02  0.24420898893E+02  0.38506180767E+02  0.10566000000E+00 0. -1.
         22    1    1    0    0    0  0.13630854251E+02  0.23868003567E+02 -0.12681591926E+02  0.30270522884E+02  0.00000000000E+00 0.  1.
</event>
<event>
 5    1  0.1267616E-004  0.9118800E+02  0.7818608E-02  0.1130116E+00
         25   -1    0    0    0    0  0.00000000000E+00  0.00000000000E+00  0.99999998245E-14  0.12500000000E+03  0.12500000000E+03 0.  0.
        -13    1    3    3    0    0 -0.30808428416E+02 -0.29376065506E+02 -0.41982057926E+02  0.59788099467E+02  0.10566000000E+00 0.  1.
         23    2    1    0    0    0 -0.24832024780E+02 -0.86526002021E+01 -0.13720868820E+02  0.95339265247E+02  0.90608036684E+02 0.  0.
         13    1    3    3    0    0  0.59764036364E+01  0.20723465304E+02  0.28261189106E+02  0.35551165780E+02  0.10566000000E+00 0. -1.
         22    1    1    0    0    0  0.24832024780E+02  0.86526002021E+01  0.13720868820E+02  0.29660734753E+02  0.00000000000E+00 0.  1.
</event>
<event>
 5    1  0.1267616E-004  0.9118800E+02  0.7818608E-02  0.1130116E+00
         25   -1    0    0    0    0  0.00000000000E+00  0.00000000000E+00  0.99999998245E-14  0.12500000000E+03  0.12500000000E+03 0.  0.
        -13    1    3    3    0    0 -0.23980063220E+02  0.10934044618E+02  0.31123451270E+02  0.40783294947E+02  0.10566000000E+00 0. -1.
         23    2    1    0    0    0  0.38872428724E+01  0.25951958707E+02 -0.13495618446E+02  0.95491585350E+02  0.90817929604E+02 0.  0.
         13    1    3    3    0    0  0.27867306092E+02  0.15017914090E+02 -0.44619069717E+02  0.54708290403E+02  0.10566000000E+00 0.  1.
         22    1    1    0    0    0 -0.38872428724E+01 -0.25951958707E+02  0.13495618446E+02  0.29508414650E+02  0.00000000000E+00 0.  1.
</event>
<event>
 5    1  0.1267616E-004  0.9118800E+02  0.7818608E-02  0.1130116E+00
         25   -1    0    0    0    0  0.00000000000E+00  0.00000000000E+00  0.99999998245E-14  0.12500000000E+03  0.12500000000E+03 0.  0.
        -13    1    3    3    0    0  0.78146051537E+01 -0.24278286767E+02 -0.37450675507E+02  0.45310788141E+02  0.10566000000E+00 0.  1.
         23    2    1    0    0    0 -0.26524439258E+02  0.25346544964E+01 -0.11895799704E+02  0.95819862887E+02  0.91268645885E+02 0.  0.
         13    1    3    3    0    0 -0.34339044411E+02  0.26812941264E+02  0.25554875802E+02  0.50509074745E+02  0.10566000000E+00 0. -1.
         22    1    1    0    0    0  0.26524439258E+02 -0.25346544964E+01  0.11895799704E+02  0.29180137113E+02  0.00000000000E+00 0.  1.
</event>
<event>
 5    1  0.1267616E-004  0.9118800E+02  0.7818608E-02  0.1130116E+00
         25   -1    0    0    0    0  0.00000000000E+00  0.00000000000E+00  0.99999998245E-14  0.12500000000E+03  0.12500000000E+03 0.  0.
        -13    1    3    3    0    0  0.26045567396E+02 -0.10941781565E+02  0.32801313292E+02  0.43290085268E+02  0.10566000000E+00 0. -1.
         23    2    1    0    0    0  0.16881538348E+02 -0.14455136144E+02 -0.18845252109E+02  0.95861008511E+02  0.91324980853E+02 0.  0.
         13    1    3    3    0    0 -0.91640290484E+01 -0.35133545796E+01 -0.51646565401E+02  0.52570923243E+02  0.10566000000E+00 0.  1.
         22    1    1    0    0    0 -0.16881538348E+02  0.14455136144E+02  0.18845252109E+02  0.29138991489E+02  0.00000000000E+00 0.  1.
</event>
<event>
 5    1  0.1267616E-004  0.9118800E+02  0.7818608E-02  0.1130116E+00
         25   -1    0    0    0    0  0.00000000000E+00  0.00000000000E+00  0.99999998245E-14  0.12500000000E+03  0.12500000000E+03 0.  0.
        -13    1    3    3    0    0 -0.54309642835E+02  0.17102264697E+02 -0.25384455852E+02  0.62341050084E+02  0.10566000000E+00 0.  1.
         23    2    1    0    0    0 -0.25103147019E+02  0.68978325619E+01 -0.83419260735E+01  0.97662556540E+02  0.93758408342E+02 0.  0.
         13    1    3    3    0    0  0.29206495816E+02 -0.10204432135E+02  0.17042529778E+02  0.35321506456E+02  0.10566000000E+00 0. -1.
         22    1    1    0    0    0  0.25103147019E+02 -0.68978325619E+01  0.83419260735E+01  0.27337443460E+02  0.00000000000E+00 0.  1.
</event>
<event>
 5    1  0.1267616E-004  0.9118800E+02  0.7818608E-02  0.1130116E+00
         25   -1    0    0    0    0  0.00000000000E+00  0.00000000000E+00  0.99999998245E-14  0.12500000000E+03  0.12500000000E+03 0.  0.
        -13    1    3    3    0    0  0.25936570206E+02 -0.34594702073E+02 -0.22412315704E+02  0.48701356704E+02  0.10566000000E+00 0. -1.
         23    2    1    0    0    0  0.27942780865E+02  0.49333177408E+00  0.87941515190E+01  0.95701886073E+02  0.91106923548E+02 0.  0.
         13    1    3    3    0    0  0.20062106594E+01  0.35088033847E+02  0.31206467223E+02  0.47000529369E+02  0.10566000000E+00 0.  1.
         22    1    1    0    0    0 -0.27942780865E+02 -0.49333177408E+00 -0.87941515190E+01  0.29298113927E+02  0.00000000000E+00 0. -1.
</event>
<event>
 5    1  0.1267616E-004  0.9118800E+02  0.7818608E-02  0.1130116E+00
         25   -1    0    0    0    0  0.00000000000E+00  0.00000000000E+00  0.99999998245E-14  0.12500000000E+03  0.12500000000E+03 0.  0.
        -13    1    3    3    0    0  0.13317631373E+02  0.57718782897E+02  0.33425367010E+01  0.59329595651E+02  0.10566000000E+00 0.  1.
         23    2    1    0    0    0  0.19174504368E+02  0.23535837754E+02  0.57817760234E+01  0.94096501646E+02  0.88877024092E+02 0.  0.
         13    1    3    3    0    0  0.58568729948E+01 -0.34182945143E+02  0.24392393224E+01  0.34766905994E+02  0.10566000000E+00 0. -1.
         22    1    1    0    0    0 -0.19174504368E+02 -0.23535837754E+02 -0.57817760234E+01  0.30903498354E+02  0.00000000000E+00 0.  1.
</event>
<event>
 5    1  0.1267616E-004  0.9118800E+02  0.7818608E-02  0.1130116E+00
         25   -1    0    0    0    0  0.00000000000E+00  0.00000000000E+00  0.99999998245E-14  0.12500000000E+03  0.12500000000E+03 0.  0.
        -13    1    3    3    0    0  0.48728297613E+02  0.47752228119E+00 -0.24222675387E+02  0.54418968961E+02  0.10566000000E+00 0. -1.
         23    2    1    0    0    0  0.12945105763E+02  0.19420190265E+02 -0.18308440034E+02  0.95336579266E+02  0.90604331114E+02 0.  0.
         13    1    3    3    0    0 -0.35783191850E+02  0.18942667983E+02  0.59142353533E+01  0.40917610306E+02  0.10566000000E+00 0.  1.
         22    1    1    0    0    0 -0.12945105763E+02 -0.19420190265E+02  0.18308440034E+02  0.29663420734E+02  0.00000000000E+00 0. -1.
</event>
<event>
 5    1  0.1267616E-004  0.9118800E+02  0.7818608E-02  0.1130116E+00
         25   -1    0    0    0    0  0.00000000000E+00  0.00000000000E+00  0.99999998245E-14  0.12500000000E+03  0.12500000000E+03 0.  0.
        -13    1    3    3    0    0  0.24638394239E+02  0.40707631206E+02  0.35516978202E+02  0.59377004081E+02  0.10566000000E+00 0. -1.
         23    2    1    0    0    0  0.21389163596E+02  0.20279307863E+02  0.68292349385E+01  0.94744668295E+02  0.89784002326E+02 0.  0.
         13    1    3    3    0    0 -0.32492306431E+01 -0.20428323343E+02 -0.28687743263E+02  0.35367664214E+02  0.10566000000E+00 0.  1.
         22    1    1    0    0    0 -0.21389163596E+02 -0.20279307863E+02 -0.68292349385E+01  0.30255331705E+02  0.00000000000E+00 0. -1.
</event>
<event>
 5    1  0.1267616E-004  0.9118800E+02  0.7818608E-02  0.1130116E+00
         25   -1    0    0    0    0  0.00000000000E+00  0.00000000000E+00  0.99999998245E-14  0.12500000000E+03  0.12500000000E+03 0.  0.
        -13    1    3    3    0    0 -0.12464439759E+02  0.36331059968E+02 -0.16148976682E+02  0.41666638799E+02  0.10566000000E+00 0.  1.
         23    2    1    0    0    0 -0.26185061849E+01 -0.11736422030E+02 -0.30024897088E+02  0.92656613939E+02  0.86828298871E+02 0.  0.
         13    1    3    3    0    0  0.98459335737E+01 -0.48067481999E+02 -0.13875920406E+02  0.50989975140E+02  0.10566000000E+00 0. -1.
         22    1    1    0    0    0  0.26185061849E+01  0.11736422030E+02  0.30024897088E+02  0.32343386061E+02  0.00000000000E+00 0. -1.
</event>
<event>
 5    1  0.1267616E-004  0.9118800E+02  0.7818608E-02  0.1130116E+00
         25   -1    0    0    0    0  0.00000000000E+00  0.00000000000E+00  0.99999998245E-14  0.12500000000E+03  0.12500000000E+03 0.  0.
        -13    1    3    3    0    0  0.49019386894E+02  0.82586225973E+01  0.10955233577E+02  0.50903177165E+02  0.10566000000E+00 0. -1.
         23    2    1    0    0    0  0.12344793877E+02  0.13733941914E+02  0.27795547920E+02  0.91629240635E+02  0.85336452697E+02 0.  0.
         13    1    3    3    0    0 -0.36674593017E+02  0.54753193171E+01  0.16840314343E+02  0.40726063470E+02  0.10566000000E+00 0.  1.
         22    1    1    0    0    0 -0.12344793877E+02 -0.13733941914E+02 -0.27795547920E+02  0.33370759365E+02  0.00000000000E+00 0. -1.
</event>
<event>
 5    1  0.1267616E-004  0.9118800E+02  0.7818608E-02  0.1130116E+00
         25   -1    0    0    0    0  0.00000000000E+00  0.00000000000E+00  0.99999998245E-14  0.12500000000E+03  0.12500000000E+03 0.  0.
        -13    1    3    3    0    0 -0.47427486022E+02 -0.20703755932E+02  0.76010652682E+01  0.52304868773E+02  0.10566000000E+00 0. -1.
         23    2    1    0    0    0 -0.35769812900E+02 -0.26942682614E+02 -0.14388437137E+02  0.77963686533E+02  0.62176536034E+02 0.  0.
         13    1    3    3    0    0  0.11657673122E+02 -0.62389266821E+01 -0.21989502405E+02  0.25658817760E+02  0.10566000000E+00 0.  1.
         22    1    1    0    0    0  0.35769812900E+02  0.26942682614E+02  0.14388437137E+02  0.47036313467E+02  0.00000000000E+00 0. -1.
</event>
<event>
 5    1  0.1267616E-004  0.9118800E+02  0.7818608E-02  0.1130116E+00
         25   -1    0    0    0    0  0.00000000000E+00  0.00000000000E+00  0.99999998245E-14  0.12500000000E+03  0.12500000000E+03 0.  0.
        -13    1    3    3    0    0  0.44969330747E+02  0.36154389963E+02  0.11939034497E+02  0.58923105232E+02  0.10566000000E+00 0.  1.
         23    2    1    0    0    0  0.13701701664E+02  0.16112838474E+02  0.18812532218E+02  0.96693259449E+02  0.92457097414E+02 0.  0.
         13    1    3    3    0    0 -0.31267629083E+02 -0.20041551490E+02  0.68734977213E+01  0.37770154217E+02  0.10566000000E+00 0. -1.
         22    1    1    0    0    0 -0.13701701664E+02 -0.16112838474E+02 -0.18812532218E+02  0.28306740551E+02  0.00000000000E+00 0.  1.
</event>
<event>
 5    1  0.1267616E-004  0.9118800E+02  0.7818608E-02  0.1130116E+00
         25   -1    0    0    0    0  0.00000000000E+00  0.00000000000E+00  0.99999998245E-14  0.12500000000E+03  0.12500000000E+03 0.  0.
        -13    1    3    3    0    0 -0.45166482028E+02 -0.24975949227E+02 -0.29149083553E+02  0.59274694218E+02  0.10566000000E+00 0. -1.
         23    2    1    0    0    0 -0.13601642881E+02 -0.56876409167E+01 -0.24292409458E+02  0.96583893555E+02  0.92309118665E+02 0.  0.
         13    1    3    3    0    0  0.31564839147E+02  0.19288308311E+02  0.48566740958E+01  0.37309199337E+02  0.10566000000E+00 0.  1.
         22    1    1    0    0    0  0.13601642881E+02  0.56876409167E+01  0.24292409458E+02  0.28416106445E+02  0.00000000000E+00 0. -1.
</event>
<event>
 5    1  0.1267616E-004  0.9118800E+02  0.7818608E-02  0.1130116E+00
         25   -1    0    0    0    0  0.00000000000E+00  0.00000000000E+00  0.99999998245E-14  0.12500000000E+03  0.12500000000E+03 0.  0.
        -13    1    3    3    0    0  0.77142370756E+01 -0.56390595150E+01 -0.44814629635E+02  0.45822163188E+02  0.10566000000E+00 0.  1.
         23    2    1    0    0    0 -0.66969092275E+00  0.28078097871E+02 -0.95306656602E+01  0.95340909422E+02  0.90610304908E+02 0.  0.
         13    1    3    3    0    0 -0.83839279983E+01  0.33717157386E+02  0.35283963975E+02  0.49518746235E+02  0.10566000000E+00 0. -1.
         22    1    1    0    0    0  0.66969092275E+00 -0.28078097871E+02  0.95306656602E+01  0.29659090578E+02  0.00000000000E+00 0. -1.
</event>
<event>
 5    1  0.1267616E-004  0.9118800E+02  0.7818608E-02  0.1130116E+00
         25   -1    0    0    0    0  0.00000000000E+00  0.00000000000E+00  0.99999998245E-14  0.12500000000E+03  0.12500000000E+03 0.  0.
        -13    1    3    3    0    0 -0.36797970128E+02  0.40522085360E+02  0.59746347859E-01  0.54737050899E+02  0.10566000000E+00 0. -1.
         23    2    1    0    0    0 -0.25880756419E+01  0.27249334292E+02 -0.14271475068E+02  0.94130932060E+02  0.88925435141E+02 0.  0.
         13    1    3    3    0    0  0.34209894486E+02 -0.13272751068E+02 -0.14331221416E+02  0.39393881161E+02  0.10566000000E+00 0.  1.
         22    1    1    0    0    0  0.25880756419E+01 -0.27249334292E+02  0.14271475068E+02  0.30869067940E+02  0.00000000000E+00 0. -1.
</event>
<event>
 5    1  0.1267616E-004  0.9118800E+02  0.7818608E-02  0.1130116E+00
         25   -1    0    0    0    0  0.00000000000E+00  0.00000000000E+00  0.99999998245E-14  0.12500000000E+03  0.12500000000E+03 0.  0.
        -13    1    3    3    0    0  0.42467721745E+01 -0.24574225332E+02 -0.52330928471E+02  0.57969516673E+02  0.10566000000E+00 0. -1.
         23    2    1    0    0    0 -0.22449824720E+01  0.44414456317E+01 -0.28484537547E+02  0.96083996388E+02  0.91629684584E+02 0.  0.
         13    1    3    3    0    0 -0.64917546465E+01  0.29015670963E+02  0.23846390924E+02  0.38114479715E+02  0.10566000000E+00 0.  1.
         22    1    1    0    0    0  0.22449824720E+01 -0.44414456317E+01  0.28484537547E+02  0.28916003612E+02  0.00000000000E+00 0. -1.
</event>
<event>
 5    1  0.1267616E-004  0.9118800E+02  0.7818608E-02  0.1130116E+00
         25   -1    0    0    0    0  0.00000000000E+00  0.00000000000E+00  0.99999998245E-14  0.12500000000E+03  0.12500000000E+03 0.  0.
        -13    1    3    3    0    0 -0.26241926812E+02 -0.56232623610E+01 -0.31443842259E+02  0.41339886096E+02  0.10566000000E+00 0. -1.
         23    2    1    0    0    0 -0.24130395536E+02 -0.46651657058E+00  0.20348808692E+02  0.93431540399E+02  0.87936824480E+02 0.  0.
         13    1    3    3    0    0  0.21115312763E+01  0.51567457904E+01  0.51792650951E+02  0.52091654303E+02  0.10566000000E+00 0.  1.
         22    1    1    0    0    0  0.24130395536E+02  0.46651657058E+00 -0.20348808692E+02  0.31568459601E+02  0.00000000000E+00 0.  1.
</event>
