<event>
 5    1  0.1046082E-009  0.9118800E+02  0.7561462E-02  0.1125453E+00
         25   -1    0    0    0    0  0.00000000000E+00  0.00000000000E+00  0.99999998245E-14  0.12509000000E+03  0.12509000000E+03 0.  0.
        -11    1    3    3    0    0 -0.41911712523E+02 -0.80099536244E+01 -0.27189254117E+02  0.50596507226E+02  0.51100000000E-03 0.  1.
         23    2    1    0    0    0 -0.18476044231E+02 -0.20171071503E+02  0.97923342955E+01  0.96036150910E+02  0.91535873485E+02 0.  0.
         11    1    3    3    0    0  0.23435668292E+02 -0.12161117879E+02  0.36981588413E+02  0.45439643684E+02  0.51100000000E-03 0. -1.
         22    1    1    0    0    0  0.18476044231E+02  0.20171071503E+02 -0.97923342955E+01  0.29053849090E+02  0.00000000000E+00 0. -1.
</event>
<event>
 5    1  0.1046082E-009  0.9118800E+02  0.7561462E-02  0.1125453E+00
         25   -1    0    0    0    0  0.00000000000E+00  0.00000000000E+00  0.99999998245E-14  0.12509000000E+03  0.12509000000E+03 0.  0.
        -11    1    3    3    0    0 -0.38287527166E+02 -0.26185735106E+02  0.27829426246E+02  0.54093478581E+02  0.51100000000E-03 0.  1.
         23    2    1    0    0    0 -0.29295973135E+02 -0.24001254940E+01 -0.46366688732E+01  0.95332423779E+02  0.90569076847E+02 0.  0.
         11    1    3    3    0    0  0.89915540306E+01  0.23785609612E+02 -0.32466095120E+02  0.41238945198E+02  0.51100000000E-03 0. -1.
         22    1    1    0    0    0  0.29295973135E+02  0.24001254940E+01  0.46366688732E+01  0.29757576221E+02  0.00000000000E+00 0.  1.
</event>
<event>
 5    1  0.1046082E-009  0.9118800E+02  0.7561462E-02  0.1125453E+00
         25   -1    0    0    0    0  0.00000000000E+00  0.00000000000E+00  0.99999998245E-14  0.12509000000E+03  0.12509000000E+03 0.  0.
        -11    1    3    3    0    0 -0.15027519498E+02  0.64122968582E+01  0.31691995678E+02  0.35655665519E+02  0.51100000000E-03 0. -1.
         23    2    1    0    0    0  0.26185976437E+02 -0.43655335982E+01 -0.11353612411E+02  0.96216694676E+02  0.91782267209E+02 0.  0.
         11    1    3    3    0    0  0.41213495935E+02 -0.10777830456E+02 -0.43045608090E+02  0.60561029157E+02  0.51100000000E-03 0.  1.
         22    1    1    0    0    0 -0.26185976437E+02  0.43655335982E+01  0.11353612411E+02  0.28873305324E+02  0.00000000000E+00 0.  1.
</event>
<event>
 5    1  0.1046082E-009  0.9118800E+02  0.7561462E-02  0.1125453E+00
         25   -1    0    0    0    0  0.00000000000E+00  0.00000000000E+00  0.99999998245E-14  0.12509000000E+03  0.12509000000E+03 0.  0.
        -11    1    3    3    0    0 -0.59604123264E+01  0.34775509512E+02  0.27818572353E+01  0.35392107975E+02  0.51100000000E-03 0. -1.
         23    2    1    0    0    0 -0.92469503802E+01 -0.26243873374E+02  0.61517745914E+01  0.96592784143E+02  0.92293415999E+02 0.  0.
         11    1    3    3    0    0 -0.32865380538E+01 -0.61019382886E+02  0.33699173561E+01  0.61200676168E+02  0.51100000000E-03 0.  1.
         22    1    1    0    0    0  0.92469503802E+01  0.26243873374E+02 -0.61517745914E+01  0.28497215857E+02  0.00000000000E+00 0.  1.
</event>
<event>
 5    1  0.1046082E-009  0.9118800E+02  0.7561462E-02  0.1125453E+00
         25   -1    0    0    0    0  0.00000000000E+00  0.00000000000E+00  0.99999998245E-14  0.12509000000E+03  0.12509000000E+03 0.  0.
        -11    1    3    3    0    0 -0.16992141813E+02 -0.36257281605E+02  0.14936457492E+02  0.42736648388E+02  0.51100000000E-03 0.  1.
         23    2    1    0    0    0 -0.16157409984E+00  0.11460415858E+02  0.27863936224E+02  0.94960841702E+02  0.90054401764E+02 0.  0.
         11    1    3    3    0    0  0.16830567714E+02  0.47717697463E+02  0.12927478732E+02  0.52224193314E+02  0.51100000000E-03 0. -1.
         22    1    1    0    0    0  0.16157409984E+00 -0.11460415858E+02 -0.27863936224E+02  0.30129158298E+02  0.00000000000E+00 0. -1.
</event>
<event>
 5    1  0.1046082E-009  0.9118800E+02  0.7561462E-02  0.1125453E+00
         25   -1    0    0    0    0  0.00000000000E+00  0.00000000000E+00  0.99999998245E-14  0.12509000000E+03  0.12509000000E+03 0.  0.
        -11    1    3    3    0    0  0.53912708847E+02  0.13415230238E+02  0.28506294808E+02  0.62443233592E+02  0.51100000000E-03 0.  1.
         23    2    1    0    0    0  0.25326897076E+02  0.75864249250E+01  0.16015893910E+02  0.94178603779E+02  0.88961199370E+02 0.  0.
         11    1    3    3    0    0 -0.28585811771E+02 -0.58288053135E+01 -0.12490400898E+02  0.31735370186E+02  0.51100000000E-03 0. -1.
         22    1    1    0    0    0 -0.25326897076E+02 -0.75864249250E+01 -0.16015893910E+02  0.30911396221E+02  0.00000000000E+00 0.  1.
</event>
<event>
 4    1  0.1046082E-009  0.9118800E+02  0.7561462E-02  0.1125453E+00
         25   -1    0    0    0    0  0.00000000000E+00  0.00000000000E+00  0.99999998245E-14  0.12509000000E+03  0.12509000000E+03 0.  0.
        -11    1    1    0    0    0  0.12291388031E+02 -0.85585077591E+01  0.14374810285E+02  0.20759610926E+02  0.51100000000E-03 0. -1.
         11    1    1    0    0    0  0.18019639428E+02 -0.20898660392E+02 -0.44545558501E+02  0.52400078185E+02  0.51100000000E-03 0.  1.
         22    1    1    0    0    0 -0.30311027459E+02  0.29457168152E+02  0.30170748216E+02  0.51930310889E+02  0.00000000000E+00 0.  1.
</event>
<event>
 5    1  0.1046082E-009  0.9118800E+02  0.7561462E-02  0.1125453E+00
         25   -1    0    0    0    0  0.00000000000E+00  0.00000000000E+00  0.99999998245E-14  0.12509000000E+03  0.12509000000E+03 0.  0.
        -11    1    3    3    0    0  0.45875523375E+02 -0.31028087956E+02 -0.50457118519E+01  0.55612634316E+02  0.51100000000E-03 0.  1.
         23    2    1    0    0    0  0.82641099533E+01 -0.30457647006E+02 -0.27318355408E+00  0.93529923896E+02  0.88044353937E+02 0.  0.
         11    1    3    3    0    0 -0.37611413422E+02  0.57044095017E+00  0.47725282979E+01  0.37917289580E+02  0.51100000000E-03 0. -1.
         22    1    1    0    0    0 -0.82641099533E+01  0.30457647006E+02  0.27318355408E+00  0.31560076104E+02  0.00000000000E+00 0.  1.
</event>
<event>
 5    1  0.1046082E-009  0.9118800E+02  0.7561462E-02  0.1125453E+00
         25   -1    0    0    0    0  0.00000000000E+00  0.00000000000E+00  0.99999998245E-14  0.12509000000E+03  0.12509000000E+03 0.  0.
        -11    1    3    3    0    0  0.15877552890E+02 -0.42305851525E+02  0.14712044890E+02  0.47521847861E+02  0.51100000000E-03 0. -1.
         23    2    1    0    0    0  0.14592528038E+02  0.59736099734E+01  0.23676690339E+02  0.96643355979E+02  0.92361933170E+02 0.  0.
         11    1    3    3    0    0 -0.12850248527E+01  0.48279461499E+02  0.89646454492E+01  0.49121508118E+02  0.51100000000E-03 0.  1.
         22    1    1    0    0    0 -0.14592528038E+02 -0.59736099734E+01 -0.23676690339E+02  0.28446644021E+02  0.00000000000E+00 0. -1.
</event>
<event>
 5    1  0.1046082E-009  0.9118800E+02  0.7561462E-02  0.1125453E+00
         25   -1    0    0    0    0  0.00000000000E+00  0.00000000000E+00  0.99999998245E-14  0.12509000000E+03  0.12509000000E+03 0.  0.
        -11    1    3    3    0    0 -0.14126839260E+02 -0.21163052591E+02  0.22676623125E+02  0.34083304110E+02  0.51100000000E-03 0. -1.
         23    2    1    0    0    0  0.18006110742E+02  0.25332444502E+02  0.32803154551E+01  0.93837588285E+02  0.88480391823E+02 0.  0.
         11    1    3    3    0    0  0.32132950002E+02  0.46495497093E+02 -0.19396307670E+02  0.59754284175E+02  0.51100000000E-03 0.  1.
         22    1    1    0    0    0 -0.18006110742E+02 -0.25332444502E+02 -0.32803154551E+01  0.31252411715E+02  0.00000000000E+00 0.  1.
</event>
<event>
 5    1  0.1046082E-009  0.9118800E+02  0.7561462E-02  0.1125453E+00
         25   -1    0    0    0    0  0.00000000000E+00  0.00000000000E+00  0.99999998245E-14  0.12509000000E+03  0.12509000000E+03 0.  0.
        -11    1    3    3    0    0  0.12001410593E+02  0.89176751982E+01 -0.54780474722E+02  0.56784321764E+02  0.51100000000E-03 0.  1.
         23    2    1    0    0    0  0.16753003743E+02  0.17978406662E+02 -0.18918481094E+02  0.94077177371E+02  0.88818467306E+02 0.  0.
         11    1    3    3    0    0  0.47515931499E+01  0.90607314639E+01  0.35861993628E+02  0.37292855607E+02  0.51100000000E-03 0. -1.
         22    1    1    0    0    0 -0.16753003743E+02 -0.17978406662E+02  0.18918481094E+02  0.31012822629E+02  0.00000000000E+00 0.  1.
</event>
<event>
 5    1  0.1046082E-009  0.9118800E+02  0.7561462E-02  0.1125453E+00
         25   -1    0    0    0    0  0.00000000000E+00  0.00000000000E+00  0.99999998245E-14  0.12509000000E+03  0.12509000000E+03 0.  0.
        -11    1    3    3    0    0  0.14394750479E+02 -0.22608360876E+02 -0.21942582474E+02  0.34638472090E+02  0.51100000000E-03 0. -1.
         23    2    1    0    0    0 -0.20788643281E+02  0.98544774734E+01  0.17110086598E+02  0.96418873773E+02  0.92057404593E+02 0.  0.
         11    1    3    3    0    0 -0.35183393760E+02  0.32462838349E+02  0.39052669073E+02  0.61780401683E+02  0.51100000000E-03 0.  1.
         22    1    1    0    0    0  0.20788643281E+02 -0.98544774734E+01 -0.17110086598E+02  0.28671126227E+02  0.00000000000E+00 0.  1.
</event>
<event>
 5    1  0.1046082E-009  0.9118800E+02  0.7561462E-02  0.1125453E+00
         25   -1    0    0    0    0  0.00000000000E+00  0.00000000000E+00  0.99999998245E-14  0.12509000000E+03  0.12509000000E+03 0.  0.
        -11    1    3    3    0    0  0.23969130202E+02  0.84030675859E+01 -0.27176133642E+02  0.37197755140E+02  0.51100000000E-03 0. -1.
         23    2    1    0    0    0 -0.23061107483E+02 -0.18355810152E+02 -0.93945308112E+01  0.94154459697E+02  0.88927243447E+02 0.  0.
         11    1    3    3    0    0 -0.47030237685E+02 -0.26758877738E+02  0.17781602831E+02  0.56956704557E+02  0.51100000000E-03 0.  1.
         22    1    1    0    0    0  0.23061107483E+02  0.18355810152E+02  0.93945308112E+01  0.30935540303E+02  0.00000000000E+00 0.  1.
</event>
<event>
 5    1  0.1046082E-009  0.9118800E+02  0.7561462E-02  0.1125453E+00
         25   -1    0    0    0    0  0.00000000000E+00  0.00000000000E+00  0.99999998245E-14  0.12509000000E+03  0.12509000000E+03 0.  0.
        -11    1    3    3    0    0 -0.22883437646E+02  0.11762654655E+02  0.38802529583E+02  0.46558007532E+02  0.51100000000E-03 0. -1.
         23    2    1    0    0    0 -0.25286179135E+02 -0.11641404487E+02 -0.54948793725E+01  0.96715595108E+02  0.92459718170E+02 0.  0.
         11    1    3    3    0    0 -0.24027414886E+01 -0.23404059142E+02 -0.44297408955E+02  0.50157587576E+02  0.51100000000E-03 0.  1.
         22    1    1    0    0    0  0.25286179135E+02  0.11641404487E+02  0.54948793725E+01  0.28374404892E+02  0.00000000000E+00 0.  1.
</event>
<event>
 5    1  0.1046082E-009  0.9118800E+02  0.7561462E-02  0.1125453E+00
         25   -1    0    0    0    0  0.00000000000E+00  0.00000000000E+00  0.99999998245E-14  0.12509000000E+03  0.12509000000E+03 0.  0.
        -11    1    3    3    0    0 -0.38490821832E+02  0.23641749780E+02 -0.56690434097E+01  0.45525967881E+02  0.51100000000E-03 0.  1.
         23    2    1    0    0    0  0.65035289062E+01  0.16387721278E+02  0.20476930300E+02  0.98068564594E+02  0.94272399938E+02 0.  0.
         11    1    3    3    0    0  0.44994350739E+02 -0.72540285028E+01  0.26145973709E+02  0.52542596713E+02  0.51100000000E-03 0. -1.
         22    1    1    0    0    0 -0.65035289062E+01 -0.16387721278E+02 -0.20476930300E+02  0.27021435406E+02  0.00000000000E+00 0. -1.
</event>
<event>
 5    1  0.1046082E-009  0.9118800E+02  0.7561462E-02  0.1125453E+00
         25   -1    0    0    0    0  0.00000000000E+00  0.00000000000E+00  0.99999998245E-14  0.12509000000E+03  0.12509000000E+03 0.  0.
        -11    1    3    3    0    0  0.29573051160E+02  0.52242516759E+02  0.13193609381E+02  0.61464764223E+02  0.51100000000E-03 0. -1.
         23    2    1    0    0    0  0.72943273019E+01  0.24693535339E+02  0.11373606727E+02  0.96941521740E+02  0.92764873789E+02 0.  0.
         11    1    3    3    0    0 -0.22278723858E+02 -0.27548981420E+02 -0.18200026542E+01  0.35476757517E+02  0.51100000000E-03 0.  1.
         22    1    1    0    0    0 -0.72943273019E+01 -0.24693535339E+02 -0.11373606727E+02  0.28148478260E+02  0.00000000000E+00 0. -1.
</event>
<event>
 5    1  0.1046082E-009  0.9118800E+02  0.7561462E-02  0.1125453E+00
         25   -1    0    0    0    0  0.00000000000E+00  0.00000000000E+00  0.99999998245E-14  0.12509000000E+03  0.12509000000E+03 0.  0.
        -11    1    3    3    0    0  0.11134677294E+02  0.45781140821E+02 -0.38917536112E+02  0.61110297909E+02  0.51100000000E-03 0. -1.
         23    2    1    0    0    0  0.76494321395E+01  0.25841263210E+02 -0.10136054310E+02  0.96297218034E+02  0.91891946915E+02 0.  0.
         11    1    3    3    0    0 -0.34852451541E+01 -0.19939877610E+02  0.28781481802E+02  0.35186920125E+02  0.51100000000E-03 0.  1.
         22    1    1    0    0    0 -0.76494321395E+01 -0.25841263210E+02  0.10136054310E+02  0.28792781966E+02  0.00000000000E+00 0. -1.
</event>
<event>
 5    1  0.1046082E-009  0.9118800E+02  0.7561462E-02  0.1125453E+00
         25   -1    0    0    0    0  0.00000000000E+00  0.00000000000E+00  0.99999998245E-14  0.12509000000E+03  0.12509000000E+03 0.  0.
        -11    1    3    3    0    0 -0.17267878463E+01  0.39736529270E+02 -0.19826261195E+00  0.39774525302E+02  0.51100000000E-03 0.  1.
         23    2    1    0    0    0  0.67067523906E+01 -0.83531954963E+01  0.27267713790E+02  0.95793505023E+02  0.91203678580E+02 0.  0.
         11    1    3    3    0    0  0.84335402369E+01 -0.48089724766E+02  0.27465976402E+02  0.56018979721E+02  0.51100000000E-03 0. -1.
         22    1    1    0    0    0 -0.67067523906E+01  0.83531954963E+01 -0.27267713790E+02  0.29296494977E+02  0.00000000000E+00 0. -1.
</event>
<event>
 5    1  0.1046082E-009  0.9118800E+02  0.7561462E-02  0.1125453E+00
         25   -1    0    0    0    0  0.00000000000E+00  0.00000000000E+00  0.99999998245E-14  0.12509000000E+03  0.12509000000E+03 0.  0.
        -11    1    3    3    0    0  0.17444249720E+02  0.47377762714E+02  0.10744446148E+02  0.51617800916E+02  0.51100000000E-03 0.  1.
         23    2    1    0    0    0 -0.18515005274E+02  0.20834639012E+02  0.21207955088E+01  0.97136728695E+02  0.93027730731E+02 0.  0.
         11    1    3    3    0    0 -0.35959254994E+02 -0.26543123702E+02 -0.86236506388E+01  0.45518927780E+02  0.51100000000E-03 0. -1.
         22    1    1    0    0    0  0.18515005274E+02 -0.20834639012E+02 -0.21207955088E+01  0.27953271305E+02  0.00000000000E+00 0. -1.
</event>
<event>
 5    1  0.1046082E-009  0.9118800E+02  0.7561462E-02  0.1125453E+00
         25   -1    0    0    0    0  0.00000000000E+00  0.00000000000E+00  0.99999998245E-14  0.12509000000E+03  0.12509000000E+03 0.  0.
        -11    1    3    3    0    0  0.48213729551E+02  0.20095367221E+02 -0.55691258500E+01  0.52530016790E+02  0.51100000000E-03 0. -1.
         23    2    1    0    0    0  0.16433768646E+02  0.41291608350E+01 -0.26380188136E+02  0.93736642170E+02  0.88337563008E+02 0.  0.
         11    1    3    3    0    0 -0.31779960905E+02 -0.15966206386E+02 -0.20811062286E+02  0.41206625380E+02  0.51100000000E-03 0.  1.
         22    1    1    0    0    0 -0.16433768646E+02 -0.41291608350E+01  0.26380188136E+02  0.31353357830E+02  0.00000000000E+00 0. -1.
</event>
<event>
 5    1  0.1046082E-009  0.9118800E+02  0.7561462E-02  0.1125453E+00
         25   -1    0    0    0    0  0.00000000000E+00  0.00000000000E+00  0.99999998245E-14  0.12509000000E+03  0.12509000000E+03 0.  0.
        -11    1    3    3    0    0 -0.12812350071E+01 -0.24863732199E+02 -0.26647832612E+02  0.36468530614E+02  0.51100000000E-03 0. -1.
         23    2    1    0    0    0 -0.97238035398E+01  0.27917821408E+02 -0.16399421599E+01  0.95481782936E+02  0.90775130707E+02 0.  0.
         11    1    3    3    0    0 -0.84425685326E+01  0.52781553606E+02  0.25007890452E+02  0.59013252322E+02  0.51100000000E-03 0.  1.
         22    1    1    0    0    0  0.97238035398E+01 -0.27917821408E+02  0.16399421599E+01  0.29608217064E+02  0.00000000000E+00 0.  1.
</event>
<event>
 5    1  0.1046082E-009  0.9118800E+02  0.7561462E-02  0.1125453E+00
         25   -1    0    0    0    0  0.00000000000E+00  0.00000000000E+00  0.99999998245E-14  0.12509000000E+03  0.12509000000E+03 0.  0.
        -11    1    3    3    0    0 -0.69102459069E+01 -0.55475525166E+01  0.51927714104E+02  0.52678404776E+02  0.51100000000E-03 0.  1.
         23    2    1    0    0    0 -0.15973976046E+02 -0.21630448634E+02  0.14198379866E+02  0.94682135727E+02  0.89666429706E+02 0.  0.
         11    1    3    3    0    0 -0.90637301391E+01 -0.16082896117E+02 -0.37729334238E+02  0.42003730952E+02  0.51100000000E-03 0. -1.
         22    1    1    0    0    0  0.15973976046E+02  0.21630448634E+02 -0.14198379866E+02  0.30407864273E+02  0.00000000000E+00 0.  1.
</event>
<event>
 5    1  0.1046082E-009  0.9118800E+02  0.7561462E-02  0.1125453E+00
         25   -1    0    0    0    0  0.00000000000E+00  0.00000000000E+00  0.99999998245E-14  0.12509000000E+03  0.12509000000E+03 0.  0.
        -11    1    3    3    0    0  0.25162356074E+02 -0.44056219204E+02  0.36365462931E+02  0.62422283747E+02  0.51100000000E-03 0.  1.
         23    2    1    0    0    0  0.12893007683E+02 -0.22864960064E+02  0.15411875347E+02  0.94650519920E+02  0.89622312922E+02 0.  0.
         11    1    3    3    0    0 -0.12269348391E+02  0.21191259140E+02 -0.20953587584E+02  0.32228236172E+02  0.51100000000E-03 0. -1.
         22    1    1    0    0    0 -0.12893007683E+02  0.22864960064E+02 -0.15411875347E+02  0.30439480080E+02  0.00000000000E+00 0.  1.
</event>
<event>
 5    1  0.1046082E-009  0.9118800E+02  0.7561462E-02  0.1125453E+00
         25   -1    0    0    0    0  0.00000000000E+00  0.00000000000E+00  0.99999998245E-14  0.12509000000E+03  0.12509000000E+03 0.  0.
        -11    1    3    3    0    0  0.20434145660E+01  0.37495885567E+02 -0.10689021952E+02  0.39043208989E+02  0.51100000000E-03 0.  1.
         23    2    1    0    0    0  0.19460285145E+02  0.78936114902E+01 -0.37160188009E+02  0.82406380505E+02  0.70490567985E+02 0.  0.
         11    1    3    3    0    0  0.17416870579E+02 -0.29602274077E+02 -0.26471166057E+02  0.43363171517E+02  0.51100000000E-03 0. -1.
         22    1    1    0    0    0 -0.19460285145E+02 -0.78936114902E+01  0.37160188009E+02  0.42683619495E+02  0.00000000000E+00 0.  1.
</event>
<event>
 5    1  0.1046082E-009  0.9118800E+02  0.7561462E-02  0.1125453E+00
         25   -1    0    0    0    0  0.00000000000E+00  0.00000000000E+00  0.99999998245E-14  0.12509000000E+03  0.12509000000E+03 0.  0.
        -11    1    3    3    0    0 -0.83840117523E+00 -0.38775763384E+02  0.47036073710E+02  0.60964374621E+02  0.51100000000E-03 0.  1.
         23    2    1    0    0    0  0.47871219935E+01 -0.24886619531E+02  0.16875096963E+02  0.94642844695E+02  0.89611599616E+02 0.  0.
         11    1    3    3    0    0  0.56255231687E+01  0.13889143853E+02 -0.30160976748E+02  0.33678470074E+02  0.51100000000E-03 0. -1.
         22    1    1    0    0    0 -0.47871219935E+01  0.24886619531E+02 -0.16875096963E+02  0.30447155305E+02  0.00000000000E+00 0.  1.
</event>
<event>
 5    1  0.1046082E-009  0.9118800E+02  0.7561462E-02  0.1125453E+00
         25   -1    0    0    0    0  0.00000000000E+00  0.00000000000E+00  0.99999998245E-14  0.12509000000E+03  0.12509000000E+03 0.  0.
        -11    1    3    3    0    0  0.16884447307E+01 -0.32142220051E+02  0.43799368274E+02  0.54354004608E+02  0.51100000000E-03 0. -1.
         23    2    1    0    0    0 -0.19324512937E+02 -0.19741789854E+02  0.10722032056E+02  0.95456622901E+02  0.90740453037E+02 0.  0.
         11    1    3    3    0    0 -0.21012957667E+02  0.12400430197E+02 -0.33077336218E+02  0.41102618293E+02  0.51100000000E-03 0.  1.
         22    1    1    0    0    0  0.19324512937E+02  0.19741789854E+02 -0.10722032056E+02  0.29633377099E+02  0.00000000000E+00 0. -1.
</event>
<event>
 5    1  0.1046082E-009  0.9118800E+02  0.7561462E-02  0.1125453E+00
         25   -1    0    0    0    0  0.00000000000E+00  0.00000000000E+00  0.99999998245E-14  0.12509000000E+03  0.12509000000E+03 0.  0.
        -11    1    3    3    0    0  0.48193963780E+02 -0.24868432951E+02  0.20760357884E+02  0.58069695729E+02  0.51100000000E-03 0.  1.
         23    2    1    0    0    0  0.19781697958E+02 -0.21777007713E+02 -0.33742753519E+01  0.95476837839E+02  0.90768316006E+02 0.  0.
         11    1    3    3    0    0 -0.28412265822E+02  0.30914252380E+01 -0.24134633236E+02  0.37407142110E+02  0.51100000000E-03 0. -1.
         22    1    1    0    0    0 -0.19781697958E+02  0.21777007713E+02  0.33742753519E+01  0.29613162161E+02  0.00000000000E+00 0.  1.
</event>
<event>
 5    1  0.1046082E-009  0.9118800E+02  0.7561462E-02  0.1125453E+00
         25   -1    0    0    0    0  0.00000000000E+00  0.00000000000E+00  0.99999998245E-14  0.12509000000E+03  0.12509000000E+03 0.  0.
        -11    1    3    3    0    0 -0.98196494784E+01  0.29614495489E+02  0.43430882387E+02  0.53476026443E+02  0.51100000000E-03 0.  1.
         23    2    1    0    0    0 -0.25209837457E+02  0.96854734216E+01  0.80363766566E+01  0.96913278229E+02  0.92726780637E+02 0.  0.
         11    1    3    3    0    0 -0.15390187978E+02 -0.19929022068E+02 -0.35394505730E+02  0.43437251786E+02  0.51100000000E-03 0. -1.
         22    1    1    0    0    0  0.25209837457E+02 -0.96854734216E+01 -0.80363766566E+01  0.28176721771E+02  0.00000000000E+00 0.  1.
</event>
<event>
 5    1  0.1046082E-009  0.9118800E+02  0.7561462E-02  0.1125453E+00
         25   -1    0    0    0    0  0.00000000000E+00  0.00000000000E+00  0.99999998245E-14  0.12509000000E+03  0.12509000000E+03 0.  0.
        -11    1    3    3    0    0 -0.28210816660E+02  0.18780923460E+02  0.14860770700E+02  0.37005618069E+02  0.51100000000E-03 0.  1.
         23    2    1    0    0    0  0.27426723693E+02 -0.69876885924E+00  0.88594871562E+01  0.96259391905E+02  0.91840440802E+02 0.  0.
         11    1    3    3    0    0  0.55637540353E+02 -0.19479692319E+02 -0.60012835439E+01  0.59253773836E+02  0.51100000000E-03 0. -1.
         22    1    1    0    0    0 -0.27426723693E+02  0.69876885924E+00 -0.88594871562E+01  0.28830608095E+02  0.00000000000E+00 0. -1.
</event>
<event>
 5    1  0.1046082E-009  0.9118800E+02  0.7561462E-02  0.1125453E+00
         25   -1    0    0    0    0  0.00000000000E+00  0.00000000000E+00  0.99999998245E-14  0.12509000000E+03  0.12509000000E+03 0.  0.
        -11    1    3    3    0    0 -0.12977956229E+02 -0.42327359044E+02 -0.33822482956E+02  0.55713490513E+02  0.51100000000E-03 0.  1.
         23    2    1    0    0    0  0.11409089680E+02 -0.27504928282E+02 -0.78637382116E+01  0.94291837948E+02  0.89120277815E+02 0.  0.
         11    1    3    3    0    0  0.24387045909E+02  0.14822430762E+02  0.25958744745E+02  0.38578347435E+02  0.51100000000E-03 0. -1.
         22    1    1    0    0    0 -0.11409089680E+02  0.27504928282E+02  0.78637382116E+01  0.30798162052E+02  0.00000000000E+00 0.  1.
</event>
<event>
 5    1  0.1046082E-009  0.9118800E+02  0.7561462E-02  0.1125453E+00
         25   -1    0    0    0    0  0.00000000000E+00  0.00000000000E+00  0.99999998245E-14  0.12509000000E+03  0.12509000000E+03 0.  0.
        -11    1    3    3    0    0  0.34844752121E+02  0.20014762483E+02  0.21187135900E+02  0.45427328730E+02  0.51100000000E-03 0.  1.
         23    2    1    0    0    0 -0.11445671326E+02  0.27431234666E+02  0.55072668095E+01  0.94860775479E+02  0.89915297416E+02 0.  0.
         11    1    3    3    0    0 -0.46290423447E+02  0.74164721832E+01 -0.15679869091E+02  0.49433446749E+02  0.51100000000E-03 0. -1.
         22    1    1    0    0    0  0.11445671326E+02 -0.27431234666E+02 -0.55072668095E+01  0.30229224521E+02  0.00000000000E+00 0.  1.
</event>
<event>
 5    1  0.1046082E-009  0.9118800E+02  0.7561462E-02  0.1125453E+00
         25   -1    0    0    0    0  0.00000000000E+00  0.00000000000E+00  0.99999998245E-14  0.12509000000E+03  0.12509000000E+03 0.  0.
        -11    1    3    3    0    0  0.18422988659E+02  0.41180214063E+02  0.20777786979E+02  0.49668229014E+02  0.51100000000E-03 0. -1.
         23    2    1    0    0    0  0.25310095670E+02  0.55202006101E+01 -0.10047096734E+02  0.97304793317E+02  0.93253445470E+02 0.  0.
         11    1    3    3    0    0  0.68871070111E+01 -0.35660013453E+02 -0.30824883713E+02  0.47636564303E+02  0.51100000000E-03 0.  1.
         22    1    1    0    0    0 -0.25310095670E+02 -0.55202006101E+01  0.10047096734E+02  0.27785206683E+02  0.00000000000E+00 0. -1.
</event>
<event>
 5    1  0.1046082E-009  0.9118800E+02  0.7561462E-02  0.1125453E+00
         25   -1    0    0    0    0  0.00000000000E+00  0.00000000000E+00  0.99999998245E-14  0.12509000000E+03  0.12509000000E+03 0.  0.
        -11    1    3    3    0    0  0.45978845608E+02 -0.16202358334E+01 -0.28671459617E+02  0.54210072906E+02  0.51100000000E-03 0. -1.
         23    2    1    0    0    0  0.68922594813E+01 -0.16032300444E+02 -0.22947984908E+02  0.96260364040E+02  0.91841764875E+02 0.  0.
         11    1    3    3    0    0 -0.39086586127E+02 -0.14412064610E+02  0.57234747092E+01  0.42050291134E+02  0.51100000000E-03 0.  1.
         22    1    1    0    0    0 -0.68922594813E+01  0.16032300444E+02  0.22947984908E+02  0.28829635960E+02  0.00000000000E+00 0. -1.
</event>
<event>
 5    1  0.1046082E-009  0.9118800E+02  0.7561462E-02  0.1125453E+00
         25   -1    0    0    0    0  0.00000000000E+00  0.00000000000E+00  0.99999998245E-14  0.12509000000E+03  0.12509000000E+03 0.  0.
        -11    1    3    3    0    0  0.16419779547E+02  0.14029845978E+02 -0.27210660305E+02  0.34739973705E+02  0.51100000000E-03 0. -1.
         23    2    1    0    0    0 -0.23161120304E+02  0.80120374839E+01  0.17665373886E+02  0.94879146438E+02  0.89940851430E+02 0.  0.
         11    1    3    3    0    0 -0.39580899851E+02 -0.60178084937E+01  0.44876034191E+02  0.60139172733E+02  0.51100000000E-03 0.  1.
         22    1    1    0    0    0  0.23161120304E+02 -0.80120374839E+01 -0.17665373886E+02  0.30210853562E+02  0.00000000000E+00 0.  1.
</event>
<event>
 5    1  0.1046082E-009  0.9118800E+02  0.7561462E-02  0.1125453E+00
         25   -1    0    0    0    0  0.00000000000E+00  0.00000000000E+00  0.99999998245E-14  0.12509000000E+03  0.12509000000E+03 0.  0.
        -11    1    3    3    0    0 -0.20861296135E+02 -0.18285213399E+02  0.13318562924E+02  0.30772176135E+02  0.51100000000E-03 0.  1.
         23    2    1    0    0    0  0.25087643500E+02  0.16167871323E+02 -0.11191457109E+02  0.93214639112E+02  0.87595264216E+02 0.  0.
         11    1    3    3    0    0  0.45948939635E+02  0.34453084722E+02 -0.24510020033E+02  0.62442462977E+02  0.51100000000E-03 0. -1.
         22    1    1    0    0    0 -0.25087643500E+02 -0.16167871323E+02  0.11191457109E+02  0.31875360888E+02  0.00000000000E+00 0. -1.
</event>
<event>
 5    1  0.1046082E-009  0.9118800E+02  0.7561462E-02  0.1125453E+00
         25   -1    0    0    0    0  0.00000000000E+00  0.00000000000E+00  0.99999998245E-14  0.12509000000E+03  0.12509000000E+03 0.  0.
        -11    1    3    3    0    0  0.15527614304E+02 -0.43357153948E+02 -0.28052883975E+02  0.53925076764E+02  0.51100000000E-03 0. -1.
         23    2    1    0    0    0 -0.14279236799E+02 -0.15599313973E+02 -0.21047394562E+02  0.95253310877E+02  0.90459743617E+02 0.  0.
         11    1    3    3    0    0 -0.29806851103E+02  0.27757839974E+02  0.70054894138E+01  0.41328234113E+02  0.51100000000E-03 0.  1.
         22    1    1    0    0    0  0.14279236799E+02  0.15599313973E+02  0.21047394562E+02  0.29836689123E+02  0.00000000000E+00 0.  1.
</event>
<event>
 5    1  0.1046082E-009  0.9118800E+02  0.7561462E-02  0.1125453E+00
         25   -1    0    0    0    0  0.00000000000E+00  0.00000000000E+00  0.99999998245E-14  0.12509000000E+03  0.12509000000E+03 0.  0.
        -11    1    3    3    0    0  0.13623973099E+01  0.36790804031E+02  0.15815883623E+02  0.40069459226E+02  0.51100000000E-03 0. -1.
         23    2    1    0    0    0 -0.15902122025E+01  0.38695851349E+01 -0.29018841332E+02  0.95771138900E+02  0.91172997264E+02 0.  0.
         11    1    3    3    0    0 -0.29526095124E+01 -0.32921218896E+02 -0.44834724954E+02  0.55701679674E+02  0.51100000000E-03 0.  1.
         22    1    1    0    0    0  0.15902122025E+01 -0.38695851349E+01  0.29018841332E+02  0.29318861100E+02  0.00000000000E+00 0.  1.
</event>
<event>
 5    1  0.1046082E-009  0.9118800E+02  0.7561462E-02  0.1125453E+00
         25   -1    0    0    0    0  0.00000000000E+00  0.00000000000E+00  0.99999998245E-14  0.12509000000E+03  0.12509000000E+03 0.  0.
        -11    1    3    3    0    0  0.20687203891E+02 -0.14201914374E+02  0.34938691891E+02  0.43015892040E+02  0.51100000000E-03 0. -1.
         23    2    1    0    0    0  0.17622630505E+01 -0.24537028480E+02 -0.14205632739E+02  0.96682759035E+02  0.92415283127E+02 0.  0.
         11    1    3    3    0    0 -0.18924940841E+02 -0.10335114106E+02 -0.49144324630E+02  0.53666866995E+02  0.51100000000E-03 0.  1.
         22    1    1    0    0    0 -0.17622630505E+01  0.24537028480E+02  0.14205632739E+02  0.28407240965E+02  0.00000000000E+00 0.  1.
</event>
<event>
 5    1  0.1046082E-009  0.9118800E+02  0.7561462E-02  0.1125453E+00
         25   -1    0    0    0    0  0.00000000000E+00  0.00000000000E+00  0.99999998245E-14  0.12509000000E+03  0.12509000000E+03 0.  0.
        -11    1    3    3    0    0  0.32040161865E+02 -0.91278286355E+01  0.35804979174E+02  0.48906909142E+02  0.51100000000E-03 0.  1.
         23    2    1    0    0    0 -0.13894565185E+02 -0.94714701009E+01  0.23007774290E+02  0.96592186657E+02  0.92292606193E+02 0.  0.
         11    1    3    3    0    0 -0.45934727049E+02 -0.34364146532E+00 -0.12797204884E+02  0.47685277515E+02  0.51100000000E-03 0. -1.
         22    1    1    0    0    0  0.13894565185E+02  0.94714701009E+01 -0.23007774290E+02  0.28497813343E+02  0.00000000000E+00 0.  1.
</event>
<event>
 5    1  0.1046082E-009  0.9118800E+02  0.7561462E-02  0.1125453E+00
         25   -1    0    0    0    0  0.00000000000E+00  0.00000000000E+00  0.99999998245E-14  0.12509000000E+03  0.12509000000E+03 0.  0.
        -11    1    3    3    0    0  0.32623298206E+02  0.81640496411E+01 -0.16502665468E+02  0.37460235720E+02  0.51100000000E-03 0.  1.
         23    2    1    0    0    0 -0.21965595627E+02 -0.15080573306E+02 -0.69308395329E+01  0.97559151500E+02  0.93594019159E+02 0.  0.
         11    1    3    3    0    0 -0.54588893833E+02 -0.23244622947E+02  0.95718259354E+01  0.60098915780E+02  0.51100000000E-03 0. -1.
         22    1    1    0    0    0  0.21965595627E+02  0.15080573306E+02  0.69308395329E+01  0.27530848500E+02  0.00000000000E+00 0. -1.
</event>
<event>
 5    1  0.1046082E-009  0.9118800E+02  0.7561462E-02  0.1125453E+00
         25   -1    0    0    0    0  0.00000000000E+00  0.00000000000E+00  0.99999998245E-14  0.12509000000E+03  0.12509000000E+03 0.  0.
        -11    1    3    3    0    0 -0.26837891468E+02 -0.10299257868E+02  0.54845098662E+02  0.61921982999E+02  0.51100000000E-03 0.  1.
         23    2    1    0    0    0 -0.96909814422E+01 -0.14555853657E+00  0.28712923807E+02  0.94785407903E+02  0.89810384975E+02 0.  0.
         11    1    3    3    0    0  0.17146910026E+02  0.10153699332E+02 -0.26132174855E+02  0.32863424904E+02  0.51100000000E-03 0. -1.
         22    1    1    0    0    0  0.96909814422E+01  0.14555853657E+00 -0.28712923807E+02  0.30304592097E+02  0.00000000000E+00 0.  1.
</event>
<event>
 5    1  0.1046082E-009  0.9118800E+02  0.7561462E-02  0.1125453E+00
         25   -1    0    0    0    0  0.00000000000E+00  0.00000000000E+00  0.99999998245E-14  0.12509000000E+03  0.12509000000E+03 0.  0.
        -11    1    3    3    0    0  0.15798875987E+02 -0.21092399557E+02 -0.53756355144E+02  0.59868518606E+02  0.51100000000E-03 0.  1.
         23    2    1    0    0    0  0.18944771026E+02 -0.67695659883E+01 -0.19768405418E+02  0.96885014170E+02  0.92688644100E+02 0.  0.
         11    1    3    3    0    0  0.31458950391E+01  0.14322833568E+02  0.33987949726E+02  0.37016495564E+02  0.51100000000E-03 0. -1.
         22    1    1    0    0    0 -0.18944771026E+02  0.67695659883E+01  0.19768405418E+02  0.28204985830E+02  0.00000000000E+00 0.  1.
</event>
<event>
 5    1  0.1046082E-009  0.9118800E+02  0.7561462E-02  0.1125453E+00
         25   -1    0    0    0    0  0.00000000000E+00  0.00000000000E+00  0.99999998245E-14  0.12509000000E+03  0.12509000000E+03 0.  0.
        -11    1    3    3    0    0 -0.46231170605E+01 -0.27698346233E+01 -0.38332694079E+02  0.38709696858E+02  0.51100000000E-03 0.  1.
         23    2    1    0    0    0 -0.30831792897E+01  0.67622923314E+01  0.23062519234E+02  0.10085955664E+03  0.97905749471E+02 0.  0.
         11    1    3    3    0    0  0.15399377708E+01  0.95321269547E+01  0.61395213313E+02  0.62149859780E+02  0.51100000000E-03 0. -1.
         22    1    1    0    0    0  0.30831792897E+01 -0.67622923314E+01 -0.23062519234E+02  0.24230443362E+02  0.00000000000E+00 0. -1.
</event>
<event>
 5    1  0.1046082E-009  0.9118800E+02  0.7561462E-02  0.1125453E+00
         25   -1    0    0    0    0  0.00000000000E+00  0.00000000000E+00  0.99999998245E-14  0.12509000000E+03  0.12509000000E+03 0.  0.
        -11    1    3    3    0    0  0.11942383623E+02  0.51674712700E+02 -0.15075694081E+02  0.55137763932E+02  0.51100000000E-03 0. -1.
         23    2    1    0    0    0  0.24260626325E+02  0.16858242974E+02  0.12591776989E+01  0.95520355525E+02  0.90828268977E+02 0.  0.
         11    1    3    3    0    0  0.12318242703E+02 -0.34816469725E+02  0.16334871780E+02  0.40382591593E+02  0.51100000000E-03 0.  1.
         22    1    1    0    0    0 -0.24260626325E+02 -0.16858242974E+02 -0.12591776989E+01  0.29569644475E+02  0.00000000000E+00 0. -1.
</event>
<event>
 5    1  0.1046082E-009  0.9118800E+02  0.7561462E-02  0.1125453E+00
         25   -1    0    0    0    0  0.00000000000E+00  0.00000000000E+00  0.99999998245E-14  0.12509000000E+03  0.12509000000E+03 0.  0.
        -11    1    3    3    0    0  0.22845014105E+02 -0.75402710385E+01  0.36130691002E+02  0.43407109894E+02  0.51100000000E-03 0. -1.
         23    2    1    0    0    0  0.24941342463E+02  0.16987759977E+02 -0.79387685960E+01  0.93886176521E+02  0.88549057262E+02 0.  0.
         11    1    3    3    0    0  0.20963283578E+01  0.24528031015E+02 -0.44069459597E+02  0.50479066627E+02  0.51100000000E-03 0.  1.
         22    1    1    0    0    0 -0.24941342463E+02 -0.16987759977E+02  0.79387685960E+01  0.31203823479E+02  0.00000000000E+00 0.  1.
</event>
<event>
 5    1  0.1046082E-009  0.9118800E+02  0.7561462E-02  0.1125453E+00
         25   -1    0    0    0    0  0.00000000000E+00  0.00000000000E+00  0.99999998245E-14  0.12509000000E+03  0.12509000000E+03 0.  0.
        -11    1    3    3    0    0 -0.30594735719E+02  0.10447102488E+02 -0.26919679751E+02  0.42069572879E+02  0.51100000000E-03 0. -1.
         23    2    1    0    0    0 -0.11894195710E+02 -0.24648329702E+02  0.96257156087E+01  0.96078511764E+02  0.91593744181E+02 0.  0.
         11    1    3    3    0    0  0.18700540008E+02 -0.35095432189E+02  0.36545395360E+02  0.54008938885E+02  0.51100000000E-03 0.  1.
         22    1    1    0    0    0  0.11894195710E+02  0.24648329702E+02 -0.96257156087E+01  0.29011488236E+02  0.00000000000E+00 0.  1.
</event>
<event>
 5    1  0.1046082E-009  0.9118800E+02  0.7561462E-02  0.1125453E+00
         25   -1    0    0    0    0  0.00000000000E+00  0.00000000000E+00  0.99999998245E-14  0.12509000000E+03  0.12509000000E+03 0.  0.
        -11    1    3    3    0    0  0.45084222110E+02 -0.32127075313E+01 -0.30184985757E+02  0.54351098778E+02  0.51100000000E-03 0. -1.
         23    2    1    0    0    0  0.27473809765E+01 -0.26511025582E+01 -0.28088157460E+02  0.96743553371E+02  0.92497535547E+02 0.  0.
         11    1    3    3    0    0 -0.42336841133E+02  0.56160497310E+00  0.20968282971E+01  0.42392454593E+02  0.51100000000E-03 0.  1.
         22    1    1    0    0    0 -0.27473809765E+01  0.26511025582E+01  0.28088157460E+02  0.28346446629E+02  0.00000000000E+00 0. -1.
</event>
<event>
 5    1  0.1046082E-009  0.9118800E+02  0.7561462E-02  0.1125453E+00
         25   -1    0    0    0    0  0.00000000000E+00  0.00000000000E+00  0.99999998245E-14  0.12509000000E+03  0.12509000000E+03 0.  0.
        -11    1    3    3    0    0 -0.14758345678E+02 -0.38844401662E+02 -0.32004347228E+01  0.41676601233E+02  0.51100000000E-03 0.  1.
         23    2    1    0    0    0  0.23053427928E+02 -0.47457663330E+01  0.16579748427E+02  0.96299881986E+02  0.91895573209E+02 0.  0.
         11    1    3    3    0    0  0.37811773606E+02  0.34098635329E+02  0.19780183150E+02  0.54623280753E+02  0.51100000000E-03 0. -1.
         22    1    1    0    0    0 -0.23053427928E+02  0.47457663330E+01 -0.16579748427E+02  0.28790118014E+02  0.00000000000E+00 0. -1.
</event>
<event>
 5    1  0.1046082E-009  0.9118800E+02  0.7561462E-02  0.1125453E+00
         25   -1    0    0    0    0  0.00000000000E+00  0.00000000000E+00  0.99999998245E-14  0.12509000000E+03  0.12509000000E+03 0.  0.
        -11    1    3    3    0    0 -0.53220960965E+02  0.93378258755E+01  0.20183126190E+02  0.57680362873E+02  0.51100000000E-03 0.  1.
         23    2    1    0    0    0 -0.91864036194E+01  0.14480555694E+02  0.14982625916E+02  0.10231818444E+03  0.99751968816E+02 0.  0.
         11    1    3    3    0    0  0.44034557346E+02  0.51427298184E+01 -0.52005002741E+01  0.44637821564E+02  0.51100000000E-03 0. -1.
         22    1    1    0    0    0  0.91864036194E+01 -0.14480555694E+02 -0.14982625916E+02  0.22771815562E+02  0.00000000000E+00 0.  1.
</event>
<event>
 5    1  0.1046082E-009  0.9118800E+02  0.7561462E-02  0.1125453E+00
         25   -1    0    0    0    0  0.00000000000E+00  0.00000000000E+00  0.99999998245E-14  0.12509000000E+03  0.12509000000E+03 0.  0.
        -11    1    3    3    0    0  0.24962876581E+02 -0.38142879012E+02  0.30606405699E+02  0.54906980400E+02  0.51100000000E-03 0.  1.
         23    2    1    0    0    0  0.28402961614E+02 -0.64905794110E+01  0.55309198705E+01  0.95434529609E+02  0.90709991277E+02 0.  0.
         11    1    3    3    0    0  0.34400850325E+01  0.31652299601E+02 -0.25075485828E+02  0.40527549209E+02  0.51100000000E-03 0. -1.
         22    1    1    0    0    0 -0.28402961614E+02  0.64905794110E+01 -0.55309198705E+01  0.29655470391E+02  0.00000000000E+00 0.  1.
</event>
<event>
 5    1  0.1046082E-009  0.9118800E+02  0.7561462E-02  0.1125453E+00
         25   -1    0    0    0    0  0.00000000000E+00  0.00000000000E+00  0.99999998245E-14  0.12509000000E+03  0.12509000000E+03 0.  0.
        -11    1    3    3    0    0 -0.11388535544E+02  0.44819316932E+02  0.12777029208E+02  0.47976269006E+02  0.51100000000E-03 0.  1.
         23    2    1    0    0    0 -0.27295652816E+01  0.16478748223E+02 -0.24400980387E+02  0.95519617630E+02  0.90827252731E+02 0.  0.
         11    1    3    3    0    0  0.86589702620E+01 -0.28340568709E+02 -0.37178009595E+02  0.47543348624E+02  0.51100000000E-03 0. -1.
         22    1    1    0    0    0  0.27295652816E+01 -0.16478748223E+02  0.24400980387E+02  0.29570382370E+02  0.00000000000E+00 0. -1.
</event>
<event>
 5    1  0.1046082E-009  0.9118800E+02  0.7561462E-02  0.1125453E+00
         25   -1    0    0    0    0  0.00000000000E+00  0.00000000000E+00  0.99999998245E-14  0.12509000000E+03  0.12509000000E+03 0.  0.
        -11    1    3    3    0    0  0.31323764751E+01  0.55206861816E+02 -0.36970723512E+01  0.55419109684E+02  0.51100000000E-03 0.  1.
         23    2    1    0    0    0 -0.15465186532E+01  0.25427907759E+02  0.19130738715E+02  0.93231635686E+02  0.87619532731E+02 0.  0.
         11    1    3    3    0    0 -0.46788951283E+01 -0.29778954057E+02  0.22827811066E+02  0.37812526002E+02  0.51100000000E-03 0. -1.
         22    1    1    0    0    0  0.15465186532E+01 -0.25427907759E+02 -0.19130738715E+02  0.31858364314E+02  0.00000000000E+00 0.  1.
</event>
<event>
 5    1  0.1046082E-009  0.9118800E+02  0.7561462E-02  0.1125453E+00
         25   -1    0    0    0    0  0.00000000000E+00  0.00000000000E+00  0.99999998245E-14  0.12509000000E+03  0.12509000000E+03 0.  0.
        -11    1    3    3    0    0 -0.16232726584E+02 -0.18933305618E+02 -0.22022062518E+02  0.33270748591E+02  0.51100000000E-03 0.  1.
         23    2    1    0    0    0  0.16093689472E+02  0.73595647711E+01  0.23946265802E+02  0.95314276998E+02  0.90544009848E+02 0.  0.
         11    1    3    3    0    0  0.32326416056E+02  0.26292870390E+02  0.45968328320E+02  0.62043528407E+02  0.51100000000E-03 0. -1.
         22    1    1    0    0    0 -0.16093689472E+02 -0.73595647711E+01 -0.23946265802E+02  0.29775723002E+02  0.00000000000E+00 0. -1.
</event>
<event>
 5    1  0.1046082E-009  0.9118800E+02  0.7561462E-02  0.1125453E+00
         25   -1    0    0    0    0  0.00000000000E+00  0.00000000000E+00  0.99999998245E-14  0.12509000000E+03  0.12509000000E+03 0.  0.
        -11    1    3    3    0    0 -0.37366190930E+02 -0.21991482971E+02  0.66218006474E+01  0.43860070587E+02  0.51100000000E-03 0.  1.
         23    2    1    0    0    0 -0.57973709495E+01  0.13834049383E+02  0.25742670125E+02  0.95296116443E+02  0.90518916872E+02 0.  0.
         11    1    3    3    0    0  0.31568819980E+02  0.35825532354E+02  0.19120869478E+02  0.51436045855E+02  0.51100000000E-03 0. -1.
         22    1    1    0    0    0  0.57973709495E+01 -0.13834049383E+02 -0.25742670125E+02  0.29793883557E+02  0.00000000000E+00 0.  1.
</event>
<event>
 5    1  0.1046082E-009  0.9118800E+02  0.7561462E-02  0.1125453E+00
         25   -1    0    0    0    0  0.00000000000E+00  0.00000000000E+00  0.99999998245E-14  0.12509000000E+03  0.12509000000E+03 0.  0.
        -11    1    3    3    0    0  0.38061428127E+02  0.48912236390E+02  0.19333848391E+01  0.62006589625E+02  0.51100000000E-03 0.  1.
         23    2    1    0    0    0  0.21530195711E+02  0.18326450386E+02  0.24066762162E+00  0.96815169638E+02  0.92594335896E+02 0.  0.
         11    1    3    3    0    0 -0.16531232417E+02 -0.30585786004E+02 -0.16927172175E+01  0.34808580013E+02  0.51100000000E-03 0. -1.
         22    1    1    0    0    0 -0.21530195711E+02 -0.18326450386E+02 -0.24066762162E+00  0.28274830362E+02  0.00000000000E+00 0.  1.
</event>
<event>
 5    1  0.1046082E-009  0.9118800E+02  0.7561462E-02  0.1125453E+00
         25   -1    0    0    0    0  0.00000000000E+00  0.00000000000E+00  0.99999998245E-14  0.12509000000E+03  0.12509000000E+03 0.  0.
        -11    1    3    3    0    0 -0.13945944002E+02 -0.24288771808E+02  0.30538665411E+02  0.41437228133E+02  0.51100000000E-03 0.  1.
         23    2    1    0    0    0 -0.91898006766E+01 -0.18529681732E+02 -0.22226566384E+02  0.94728481678E+02  0.89731061770E+02 0.  0.
         11    1    3    3    0    0  0.47561433249E+01  0.57590900758E+01 -0.52765231795E+02  0.53291253545E+02  0.51100000000E-03 0. -1.
         22    1    1    0    0    0  0.91898006766E+01  0.18529681732E+02  0.22226566384E+02  0.30361518322E+02  0.00000000000E+00 0. -1.
</event>
<event>
 5    1  0.1046082E-009  0.9118800E+02  0.7561462E-02  0.1125453E+00
         25   -1    0    0    0    0  0.00000000000E+00  0.00000000000E+00  0.99999998245E-14  0.12509000000E+03  0.12509000000E+03 0.  0.
        -11    1    3    3    0    0 -0.11484346204E+02 -0.43280826052E+02  0.27350177322E+01  0.44862015489E+02  0.51100000000E-03 0. -1.
         23    2    1    0    0    0 -0.97386478724E+01  0.51472304711E+01 -0.22895780176E+02  0.99682284759E+02  0.96389864099E+02 0.  0.
         11    1    3    3    0    0  0.17456983318E+01  0.48428056523E+02 -0.25630797908E+02  0.54820269270E+02  0.51100000000E-03 0.  1.
         22    1    1    0    0    0  0.97386478724E+01 -0.51472304711E+01  0.22895780176E+02  0.25407715241E+02  0.00000000000E+00 0.  1.
</event>
<event>
 5    1  0.1046082E-009  0.9118800E+02  0.7561462E-02  0.1125453E+00
         25   -1    0    0    0    0  0.00000000000E+00  0.00000000000E+00  0.99999998245E-14  0.12509000000E+03  0.12509000000E+03 0.  0.
        -11    1    3    3    0    0 -0.10441462077E+02 -0.34597396900E+02 -0.43206915258E+02  0.56327981758E+02  0.51100000000E-03 0.  1.
         23    2    1    0    0    0 -0.18165598035E+02 -0.22737045884E+02 -0.70655948008E+01  0.95141964382E+02  0.90305639630E+02 0.  0.
         11    1    3    3    0    0 -0.77241359579E+01  0.11860351016E+02  0.36141320457E+02  0.38813982624E+02  0.51100000000E-03 0. -1.
         22    1    1    0    0    0  0.18165598035E+02  0.22737045884E+02  0.70655948008E+01  0.29948035618E+02  0.00000000000E+00 0. -1.
</event>
<event>
 5    1  0.1046082E-009  0.9118800E+02  0.7561462E-02  0.1125453E+00
         25   -1    0    0    0    0  0.00000000000E+00  0.00000000000E+00  0.99999998245E-14  0.12509000000E+03  0.12509000000E+03 0.  0.
        -11    1    3    3    0    0 -0.19297285921E+02  0.45391015180E+02 -0.78542305570E+01  0.49944153220E+02  0.51100000000E-03 0.  1.
         23    2    1    0    0    0  0.11841209209E+02  0.16032276042E+02 -0.22363949203E+02  0.95133459236E+02  0.90293857663E+02 0.  0.
         11    1    3    3    0    0  0.31138495130E+02 -0.29358739138E+02 -0.14509718646E+02  0.45189306016E+02  0.51100000000E-03 0. -1.
         22    1    1    0    0    0 -0.11841209209E+02 -0.16032276042E+02  0.22363949203E+02  0.29956540764E+02  0.00000000000E+00 0.  1.
</event>
<event>
 5    1  0.1046082E-009  0.9118800E+02  0.7561462E-02  0.1125453E+00
         25   -1    0    0    0    0  0.00000000000E+00  0.00000000000E+00  0.99999998245E-14  0.12509000000E+03  0.12509000000E+03 0.  0.
        -11    1    3    3    0    0  0.51980580067E+02 -0.17170110853E+02  0.19274672533E+02  0.58037112371E+02  0.51100000000E-03 0.  1.
         23    2    1    0    0    0  0.27604236554E+02  0.82526086717E+01  0.61115823000E+01  0.95637481197E+02  0.90989433155E+02 0.  0.
         11    1    3    3    0    0 -0.24376343513E+02  0.25422719525E+02 -0.13163090233E+02  0.37600368826E+02  0.51100000000E-03 0. -1.
         22    1    1    0    0    0 -0.27604236554E+02 -0.82526086717E+01 -0.61115823000E+01  0.29452518803E+02  0.00000000000E+00 0.  1.
</event>
<event>
 5    1  0.1046082E-009  0.9118800E+02  0.7561462E-02  0.1125453E+00
         25   -1    0    0    0    0  0.00000000000E+00  0.00000000000E+00  0.99999998245E-14  0.12509000000E+03  0.12509000000E+03 0.  0.
        -11    1    3    3    0    0  0.45230163544E+02 -0.40173796991E+02  0.10019144293E+02  0.61319531240E+02  0.51100000000E-03 0.  1.
         23    2    1    0    0    0  0.24283643187E+02 -0.13542180274E+02  0.10931255560E+02  0.95213950711E+02  0.90405299009E+02 0.  0.
         11    1    3    3    0    0 -0.20946520357E+02  0.26631616717E+02  0.91211126655E+00  0.33894419471E+02  0.51100000000E-03 0. -1.
         22    1    1    0    0    0 -0.24283643187E+02  0.13542180274E+02 -0.10931255560E+02  0.29876049289E+02  0.00000000000E+00 0.  1.
</event>
<event>
 5    1  0.1046082E-009  0.9118800E+02  0.7561462E-02  0.1125453E+00
         25   -1    0    0    0    0  0.00000000000E+00  0.00000000000E+00  0.99999998245E-14  0.12509000000E+03  0.12509000000E+03 0.  0.
        -11    1    3    3    0    0  0.40445223316E+02  0.20248557901E+02 -0.16784693341E+02  0.48244648584E+02  0.51100000000E-03 0. -1.
         23    2    1    0    0    0  0.23123578233E+02 -0.19950531841E+02 -0.11995906954E+02  0.92278030009E+02  0.86247373570E+02 0.  0.
         11    1    3    3    0    0 -0.17321645083E+02 -0.40199089742E+02  0.47887863873E+01  0.44033381425E+02  0.51100000000E-03 0.  1.
         22    1    1    0    0    0 -0.23123578233E+02  0.19950531841E+02  0.11995906954E+02  0.32811969991E+02  0.00000000000E+00 0.  1.
</event>
<event>
 5    1  0.1046082E-009  0.9118800E+02  0.7561462E-02  0.1125453E+00
         25   -1    0    0    0    0  0.00000000000E+00  0.00000000000E+00  0.99999998245E-14  0.12509000000E+03  0.12509000000E+03 0.  0.
        -11    1    3    3    0    0  0.15857309134E+02 -0.48675523699E+02 -0.60379436944E+01  0.51548206803E+02  0.51100000000E-03 0.  1.
         23    2    1    0    0    0  0.41397565537E+00 -0.17882922143E+02  0.22545129748E+02  0.96310612315E+02  0.91910178375E+02 0.  0.
         11    1    3    3    0    0 -0.15443333478E+02  0.30792601556E+02  0.28583073442E+02  0.44762405511E+02  0.51100000000E-03 0. -1.
         22    1    1    0    0    0 -0.41397565537E+00  0.17882922143E+02 -0.22545129748E+02  0.28779387685E+02  0.00000000000E+00 0.  1.
</event>
<event>
 5    1  0.1046082E-009  0.9118800E+02  0.7561462E-02  0.1125453E+00
         25   -1    0    0    0    0  0.00000000000E+00  0.00000000000E+00  0.99999998245E-14  0.12509000000E+03  0.12509000000E+03 0.  0.
        -11    1    3    3    0    0  0.47357803458E+02 -0.21116603654E+02  0.13076964179E+02  0.53475971152E+02  0.51100000000E-03 0.  1.
         23    2    1    0    0    0  0.39374281647E+01 -0.23348522553E+02  0.15110393946E+02  0.97001197050E+02  0.92845308864E+02 0.  0.
         11    1    3    3    0    0 -0.43420375293E+02 -0.22319188988E+01  0.20334297666E+01  0.43525225898E+02  0.51100000000E-03 0. -1.
         22    1    1    0    0    0 -0.39374281647E+01  0.23348522553E+02 -0.15110393946E+02  0.28088802950E+02  0.00000000000E+00 0.  1.
</event>
<event>
 5    1  0.1046082E-009  0.9118800E+02  0.7561462E-02  0.1125453E+00
         25   -1    0    0    0    0  0.00000000000E+00  0.00000000000E+00  0.99999998245E-14  0.12509000000E+03  0.12509000000E+03 0.  0.
        -11    1    3    3    0    0  0.14130144861E+02 -0.55493543439E+02  0.12258163473E+02  0.58561565290E+02  0.51100000000E-03 0.  1.
         23    2    1    0    0    0  0.47383281572E+01 -0.19882047114E+02  0.20326820129E+02  0.96264192678E+02  0.91846979396E+02 0.  0.
         11    1    3    3    0    0 -0.93918167034E+01  0.35611496325E+02  0.80686566559E+01  0.37702627388E+02  0.51100000000E-03 0. -1.
         22    1    1    0    0    0 -0.47383281572E+01  0.19882047114E+02 -0.20326820129E+02  0.28825807322E+02  0.00000000000E+00 0.  1.
</event>
<event>
 5    1  0.1046082E-009  0.9118800E+02  0.7561462E-02  0.1125453E+00
         25   -1    0    0    0    0  0.00000000000E+00  0.00000000000E+00  0.99999998245E-14  0.12509000000E+03  0.12509000000E+03 0.  0.
        -11    1    3    3    0    0  0.15452504580E+02  0.37545369835E+02  0.39152196983E+02  0.56403273156E+02  0.51100000000E-03 0.  1.
         23    2    1    0    0    0  0.83893546208E+01 -0.71345353707E+00  0.26453983690E+02  0.97328452133E+02  0.93285175964E+02 0.  0.
         11    1    3    3    0    0 -0.70631499594E+01 -0.38258823372E+02 -0.12698213293E+02  0.40925178977E+02  0.51100000000E-03 0. -1.
         22    1    1    0    0    0 -0.83893546208E+01  0.71345353707E+00 -0.26453983690E+02  0.27761547867E+02  0.00000000000E+00 0.  1.
</event>
<event>
 5    1  0.1046082E-009  0.9118800E+02  0.7561462E-02  0.1125453E+00
         25   -1    0    0    0    0  0.00000000000E+00  0.00000000000E+00  0.99999998245E-14  0.12509000000E+03  0.12509000000E+03 0.  0.
        -11    1    3    3    0    0 -0.25691279936E+02  0.29559518697E+02 -0.88050676705E+01  0.40141452731E+02  0.51100000000E-03 0.  1.
         23    2    1    0    0    0  0.25932705368E+01 -0.14832020191E+02 -0.25597964024E+02  0.95392026379E+02  0.90651359943E+02 0.  0.
         11    1    3    3    0    0  0.28284550473E+02 -0.44391538888E+02 -0.16792896354E+02  0.55250573649E+02  0.51100000000E-03 0. -1.
         22    1    1    0    0    0 -0.25932705368E+01  0.14832020191E+02  0.25597964024E+02  0.29697973621E+02  0.00000000000E+00 0. -1.
</event>
<event>
 5    1  0.1046082E-009  0.9118800E+02  0.7561462E-02  0.1125453E+00
         25   -1    0    0    0    0  0.00000000000E+00  0.00000000000E+00  0.99999998245E-14  0.12509000000E+03  0.12509000000E+03 0.  0.
        -11    1    3    3    0    0 -0.26353813153E+02  0.79278310804E+01  0.20958988564E+02  0.34592675167E+02  0.51100000000E-03 0.  1.
         23    2    1    0    0    0  0.75975270924E+01 -0.11622964813E+02 -0.25918454397E+02  0.95686224609E+02  0.91056419722E+02 0.  0.
         11    1    3    3    0    0  0.33951340245E+02 -0.19550795893E+02 -0.46877442961E+02  0.61093549441E+02  0.51100000000E-03 0. -1.
         22    1    1    0    0    0 -0.75975270924E+01  0.11622964813E+02  0.25918454397E+02  0.29403775391E+02  0.00000000000E+00 0. -1.
</event>
<event>
 5    1  0.1046082E-009  0.9118800E+02  0.7561462E-02  0.1125453E+00
         25   -1    0    0    0    0  0.00000000000E+00  0.00000000000E+00  0.99999998245E-14  0.12509000000E+03  0.12509000000E+03 0.  0.
        -11    1    3    3    0    0  0.27887694436E+02  0.74408662119E+01 -0.15905474450E+02  0.32955638496E+02  0.51100000000E-03 0.  1.
         23    2    1    0    0    0 -0.25993981246E+02 -0.54220061499E+01  0.13094792836E+02  0.95483264092E+02  0.90777171748E+02 0.  0.
         11    1    3    3    0    0 -0.53881675682E+02 -0.12862872362E+02  0.29000267286E+02  0.62527625596E+02  0.51100000000E-03 0. -1.
         22    1    1    0    0    0  0.25993981246E+02  0.54220061499E+01 -0.13094792836E+02  0.29606735908E+02  0.00000000000E+00 0. -1.
</event>
<event>
 5    1  0.1046082E-009  0.9118800E+02  0.7561462E-02  0.1125453E+00
         25   -1    0    0    0    0  0.00000000000E+00  0.00000000000E+00  0.99999998245E-14  0.12509000000E+03  0.12509000000E+03 0.  0.
        -11    1    3    3    0    0  0.26398992608E+02  0.94770540863E+01  0.19412175157E+02  0.34110906019E+02  0.51100000000E-03 0.  1.
         23    2    1    0    0    0 -0.11866759681E+02 -0.10618020256E+02 -0.24593058404E+02  0.95791862497E+02  0.91201425753E+02 0.  0.
         11    1    3    3    0    0 -0.38265752289E+02 -0.20095074342E+02 -0.44005233561E+02  0.61680956478E+02  0.51100000000E-03 0. -1.
         22    1    1    0    0    0  0.11866759681E+02  0.10618020256E+02  0.24593058404E+02  0.29298137503E+02  0.00000000000E+00 0. -1.
</event>
<event>
 5    1  0.1046082E-009  0.9118800E+02  0.7561462E-02  0.1125453E+00
         25   -1    0    0    0    0  0.00000000000E+00  0.00000000000E+00  0.99999998245E-14  0.12509000000E+03  0.12509000000E+03 0.  0.
        -11    1    3    3    0    0  0.58605056387E+01 -0.12265134675E+01  0.37098301406E+02  0.37578369165E+02  0.51100000000E-03 0. -1.
         23    2    1    0    0    0  0.10627012166E+02  0.20482626077E+02 -0.17239389783E+02  0.96286043350E+02  0.91876733863E+02 0.  0.
         11    1    3    3    0    0  0.47665065269E+01  0.21709139545E+02 -0.54337691189E+02  0.58707674185E+02  0.51100000000E-03 0.  1.
         22    1    1    0    0    0 -0.10627012166E+02 -0.20482626077E+02  0.17239389783E+02  0.28803956650E+02  0.00000000000E+00 0.  1.
</event>
<event>
 5    1  0.1046082E-009  0.9118800E+02  0.7561462E-02  0.1125453E+00
         25   -1    0    0    0    0  0.00000000000E+00  0.00000000000E+00  0.99999998245E-14  0.12509000000E+03  0.12509000000E+03 0.  0.
        -11    1    3    3    0    0  0.16931470759E+02  0.42422898853E+02  0.32925705197E+02  0.56307007664E+02  0.51100000000E-03 0. -1.
         23    2    1    0    0    0 -0.11387693304E+02  0.19171854860E+02  0.19924102095E+02  0.95186665372E+02  0.90367537550E+02 0.  0.
         11    1    3    3    0    0 -0.28319164063E+02 -0.23251043992E+02 -0.13001603102E+02  0.38879657708E+02  0.51100000000E-03 0.  1.
         22    1    1    0    0    0  0.11387693304E+02 -0.19171854860E+02 -0.19924102095E+02  0.29903334628E+02  0.00000000000E+00 0. -1.
</event>
<event>
 5    1  0.1046082E-009  0.9118800E+02  0.7561462E-02  0.1125453E+00
         25   -1    0    0    0    0  0.00000000000E+00  0.00000000000E+00  0.99999998245E-14  0.12509000000E+03  0.12509000000E+03 0.  0.
        -11    1    3    3    0    0  0.13363811349E+02  0.47520339134E+01  0.44197824183E+02  0.46417894640E+02  0.51100000000E-03 0.  1.
         23    2    1    0    0    0  0.12629747177E+01 -0.28394833149E+02  0.11822592469E+02  0.94306313616E+02  0.89140593674E+02 0.  0.
         11    1    3    3    0    0 -0.12100836631E+02 -0.33146867062E+02 -0.32375231714E+02  0.47888418976E+02  0.51100000000E-03 0. -1.
         22    1    1    0    0    0 -0.12629747177E+01  0.28394833149E+02 -0.11822592469E+02  0.30783686384E+02  0.00000000000E+00 0. -1.
</event>
<event>
 5    1  0.1046082E-009  0.9118800E+02  0.7561462E-02  0.1125453E+00
         25   -1    0    0    0    0  0.00000000000E+00  0.00000000000E+00  0.99999998245E-14  0.12509000000E+03  0.12509000000E+03 0.  0.
        -11    1    3    3    0    0  0.15482872015E+02  0.65893759980E+01  0.22971070277E+02  0.28474712849E+02  0.51100000000E-03 0.  1.
         23    2    1    0    0    0 -0.25766244340E+02 -0.82730033604E+00 -0.22899539878E+02  0.90608516565E+02  0.83790993396E+02 0.  0.
         11    1    3    3    0    0 -0.41249116355E+02 -0.74166763340E+01 -0.45870610156E+02  0.62133803716E+02  0.51100000000E-03 0. -1.
         22    1    1    0    0    0  0.25766244340E+02  0.82730033604E+00  0.22899539878E+02  0.34481483435E+02  0.00000000000E+00 0. -1.
</event>
<event>
 5    1  0.1046082E-009  0.9118800E+02  0.7561462E-02  0.1125453E+00
         25   -1    0    0    0    0  0.00000000000E+00  0.00000000000E+00  0.99999998245E-14  0.12509000000E+03  0.12509000000E+03 0.  0.
        -11    1    3    3    0    0 -0.12070062760E+02 -0.16189977268E+02 -0.37863103469E+02  0.42911727809E+02  0.51100000000E-03 0.  1.
         23    2    1    0    0    0 -0.24492957079E+02  0.18257577860E+02 -0.15215864386E+01  0.94503085787E+02  0.89416295506E+02 0.  0.
         11    1    3    3    0    0 -0.12422894320E+02  0.34447555128E+02  0.36341517031E+02  0.51591357977E+02  0.51100000000E-03 0. -1.
         22    1    1    0    0    0  0.24492957079E+02 -0.18257577860E+02  0.15215864386E+01  0.30586914213E+02  0.00000000000E+00 0.  1.
</event>
<event>
 5    1  0.1046082E-009  0.9118800E+02  0.7561462E-02  0.1125453E+00
         25   -1    0    0    0    0  0.00000000000E+00  0.00000000000E+00  0.99999998245E-14  0.12509000000E+03  0.12509000000E+03 0.  0.
        -11    1    3    3    0    0 -0.42984691421E+01 -0.13588287991E+02  0.36026443923E+02  0.38743038981E+02  0.51100000000E-03 0.  1.
         23    2    1    0    0    0 -0.38571935024E+00 -0.18914983149E+02 -0.21387214053E+02  0.96535870843E+02  0.92216246223E+02 0.  0.
         11    1    3    3    0    0  0.39127497918E+01 -0.53266951586E+01 -0.57413657976E+02  0.57792831862E+02  0.51100000000E-03 0. -1.
         22    1    1    0    0    0  0.38571935024E+00  0.18914983149E+02  0.21387214053E+02  0.28554129157E+02  0.00000000000E+00 0. -1.
</event>
<event>
 5    1  0.1046082E-009  0.9118800E+02  0.7561462E-02  0.1125453E+00
         25   -1    0    0    0    0  0.00000000000E+00  0.00000000000E+00  0.99999998245E-14  0.12509000000E+03  0.12509000000E+03 0.  0.
        -11    1    3    3    0    0 -0.24011512160E+02 -0.15798631834E+02 -0.20070006224E+02  0.35056449252E+02  0.51100000000E-03 0.  1.
         23    2    1    0    0    0  0.29699017256E+02  0.94140704970E+00 -0.15696514072E+02  0.91484964258E+02  0.85089366304E+02 0.  0.
         11    1    3    3    0    0  0.53710529416E+02  0.16740038884E+02  0.43734921520E+01  0.56428515006E+02  0.51100000000E-03 0. -1.
         22    1    1    0    0    0 -0.29699017256E+02 -0.94140704970E+00  0.15696514072E+02  0.33605035742E+02  0.00000000000E+00 0. -1.
</event>
<event>
 5    1  0.1046082E-009  0.9118800E+02  0.7561462E-02  0.1125453E+00
         25   -1    0    0    0    0  0.00000000000E+00  0.00000000000E+00  0.99999998245E-14  0.12509000000E+03  0.12509000000E+03 0.  0.
        -11    1    3    3    0    0 -0.71692322901E+01 -0.22550109012E+02 -0.48154863305E+02  0.53654414248E+02  0.51100000000E-03 0.  1.
         23    2    1    0    0    0  0.68145837682E+01  0.11092516572E+02 -0.25227850644E+02  0.96701147893E+02  0.92440170272E+02 0.  0.
         11    1    3    3    0    0  0.13983816058E+02  0.33642625584E+02  0.22927012661E+02  0.43046733645E+02  0.51100000000E-03 0. -1.
         22    1    1    0    0    0 -0.68145837682E+01 -0.11092516572E+02  0.25227850644E+02  0.28388852107E+02  0.00000000000E+00 0.  1.
</event>
<event>
 5    1  0.1046082E-009  0.9118800E+02  0.7561462E-02  0.1125453E+00
         25   -1    0    0    0    0  0.00000000000E+00  0.00000000000E+00  0.99999998245E-14  0.12509000000E+03  0.12509000000E+03 0.  0.
        -11    1    3    3    0    0  0.32044417097E+01 -0.11242283065E+02  0.35885009519E+02  0.37741108670E+02  0.51100000000E-03 0.  1.
         23    2    1    0    0    0 -0.23175497515E+02  0.12850362826E+02 -0.10754249611E+02  0.96491234389E+02  0.92155677629E+02 0.  0.
         11    1    3    3    0    0 -0.26379939224E+02  0.24092645891E+02 -0.46639259130E+02  0.58750125719E+02  0.51100000000E-03 0. -1.
         22    1    1    0    0    0  0.23175497515E+02 -0.12850362826E+02  0.10754249611E+02  0.28598765611E+02  0.00000000000E+00 0. -1.
</event>
<event>
 5    1  0.1046082E-009  0.9118800E+02  0.7561462E-02  0.1125453E+00
         25   -1    0    0    0    0  0.00000000000E+00  0.00000000000E+00  0.99999998245E-14  0.12509000000E+03  0.12509000000E+03 0.  0.
        -11    1    3    3    0    0  0.26250052079E+02 -0.31797719370E+02  0.12623617707E+02  0.43122104721E+02  0.51100000000E-03 0.  1.
         23    2    1    0    0    0 -0.21949115925E+02 -0.65157319043E+01  0.15196026389E+02  0.97610231622E+02  0.93662263730E+02 0.  0.
         11    1    3    3    0    0 -0.48199168004E+02  0.25281987465E+02  0.25724086820E+01  0.54488126901E+02  0.51100000000E-03 0. -1.
         22    1    1    0    0    0  0.21949115925E+02  0.65157319043E+01 -0.15196026389E+02  0.27479768378E+02  0.00000000000E+00 0. -1.
</event>
<event>
 5    1  0.1046082E-009  0.9118800E+02  0.7561462E-02  0.1125453E+00
         25   -1    0    0    0    0  0.00000000000E+00  0.00000000000E+00  0.99999998245E-14  0.12509000000E+03  0.12509000000E+03 0.  0.
        -11    1    3    3    0    0  0.24313325703E+02 -0.25205088493E+02 -0.34985084878E+01  0.35194798686E+02  0.51100000000E-03 0.  1.
         23    2    1    0    0    0  0.64031439138E+01  0.23504336181E+02 -0.23903945888E+02  0.90960061525E+02  0.84314174920E+02 0.  0.
         11    1    3    3    0    0 -0.17910181790E+02  0.48709424673E+02 -0.20405437400E+02  0.55765262839E+02  0.51100000000E-03 0. -1.
         22    1    1    0    0    0 -0.64031439138E+01 -0.23504336181E+02  0.23903945888E+02  0.34129938475E+02  0.00000000000E+00 0. -1.
</event>
<event>
 5    1  0.1046082E-009  0.9118800E+02  0.7561462E-02  0.1125453E+00
         25   -1    0    0    0    0  0.00000000000E+00  0.00000000000E+00  0.99999998245E-14  0.12509000000E+03  0.12509000000E+03 0.  0.
        -11    1    3    3    0    0 -0.85402318111E+00 -0.33745028449E+02 -0.83522425176E+01  0.34773786909E+02  0.51100000000E-03 0. -1.
         23    2    1    0    0    0 -0.79744141551E+01  0.25331664569E+02 -0.14902145865E+02  0.94637439150E+02  0.89604053628E+02 0.  0.
         11    1    3    3    0    0 -0.71203909740E+01  0.59076693018E+02 -0.65499033472E+01  0.59863652241E+02  0.51100000000E-03 0.  1.
         22    1    1    0    0    0  0.79744141551E+01 -0.25331664569E+02  0.14902145865E+02  0.30452560850E+02  0.00000000000E+00 0.  1.
</event>
<event>
 5    1  0.1046082E-009  0.9118800E+02  0.7561462E-02  0.1125453E+00
         25   -1    0    0    0    0  0.00000000000E+00  0.00000000000E+00  0.99999998245E-14  0.12509000000E+03  0.12509000000E+03 0.  0.
        -11    1    3    3    0    0  0.54852390751E+02 -0.93221133755E+01 -0.18511239107E+02  0.58637467053E+02  0.51100000000E-03 0.  1.
         23    2    1    0    0    0  0.19692455505E+02 -0.11646400205E+02 -0.21097183472E+02  0.93968904389E+02  0.88665846864E+02 0.  0.
         11    1    3    3    0    0 -0.35159935246E+02 -0.23242868300E+01 -0.25859443651E+01  0.35331437336E+02  0.51100000000E-03 0. -1.
         22    1    1    0    0    0 -0.19692455505E+02  0.11646400205E+02  0.21097183472E+02  0.31121095611E+02  0.00000000000E+00 0.  1.
</event>
<event>
 5    1  0.1046082E-009  0.9118800E+02  0.7561462E-02  0.1125453E+00
         25   -1    0    0    0    0  0.00000000000E+00  0.00000000000E+00  0.99999998245E-14  0.12509000000E+03  0.12509000000E+03 0.  0.
        -11    1    3    3    0    0  0.25019207996E+02  0.19322793374E+02  0.91478428702E+01  0.32909180208E+02  0.51100000000E-03 0.  1.
         23    2    1    0    0    0  0.27171906101E+02 -0.63208927539E+01 -0.32743699399E+02  0.82073537840E+02  0.69897421962E+02 0.  0.
         11    1    3    3    0    0  0.21526981046E+01 -0.25643686128E+02 -0.41891542270E+02  0.49164357632E+02  0.51100000000E-03 0. -1.
         22    1    1    0    0    0 -0.27171906101E+02  0.63208927539E+01  0.32743699399E+02  0.43016462160E+02  0.00000000000E+00 0. -1.
</event>
<event>
 5    1  0.1046082E-009  0.9118800E+02  0.7561462E-02  0.1125453E+00
         25   -1    0    0    0    0  0.00000000000E+00  0.00000000000E+00  0.99999998245E-14  0.12509000000E+03  0.12509000000E+03 0.  0.
        -11    1    3    3    0    0  0.58766848041E+01 -0.36740849865E+02 -0.24935412790E+02  0.44790627193E+02  0.51100000000E-03 0.  1.
         23    2    1    0    0    0  0.38477044414E+01  0.11853288442E+02 -0.28929126725E+02  0.93590799226E+02  0.88130800803E+02 0.  0.
         11    1    3    3    0    0 -0.20289803627E+01  0.48594138307E+02 -0.39937139351E+01  0.48800172032E+02  0.51100000000E-03 0. -1.
         22    1    1    0    0    0 -0.38477044414E+01 -0.11853288442E+02  0.28929126725E+02  0.31499200774E+02  0.00000000000E+00 0. -1.
</event>
<event>
 5    1  0.1046082E-009  0.9118800E+02  0.7561462E-02  0.1125453E+00
         25   -1    0    0    0    0  0.00000000000E+00  0.00000000000E+00  0.99999998245E-14  0.12509000000E+03  0.12509000000E+03 0.  0.
        -11    1    3    3    0    0  0.14182387829E+02 -0.14281543791E+02  0.16442500435E+02  0.25989583267E+02  0.51100000000E-03 0. -1.
         23    2    1    0    0    0 -0.21106183610E+02 -0.48198849612E+01 -0.31870638435E+02  0.86561570602E+02  0.77514293090E+02 0.  0.
         11    1    3    3    0    0 -0.35288571439E+02  0.94616588296E+01 -0.48313138870E+02  0.60571987335E+02  0.51100000000E-03 0.  1.
         22    1    1    0    0    0  0.21106183610E+02  0.48198849612E+01  0.31870638435E+02  0.38528429398E+02  0.00000000000E+00 0.  1.
</event>
<event>
 5    1  0.1046082E-009  0.9118800E+02  0.7561462E-02  0.1125453E+00
         25   -1    0    0    0    0  0.00000000000E+00  0.00000000000E+00  0.99999998245E-14  0.12509000000E+03  0.12509000000E+03 0.  0.
        -11    1    3    3    0    0  0.13772325305E+01  0.31683482498E+02  0.33080105812E+02  0.45826119554E+02  0.51100000000E-03 0. -1.
         23    2    1    0    0    0  0.27619611298E+02 -0.30419958342E+01  0.75138276564E+01  0.96305381313E+02  0.91903058692E+02 0.  0.
         11    1    3    3    0    0  0.26242378767E+02 -0.34725478332E+02 -0.25566278155E+02  0.50479261759E+02  0.51100000000E-03 0.  1.
         22    1    1    0    0    0 -0.27619611298E+02  0.30419958342E+01 -0.75138276564E+01  0.28784618687E+02  0.00000000000E+00 0. -1.
</event>
<event>
 5    1  0.1046082E-009  0.9118800E+02  0.7561462E-02  0.1125453E+00
         25   -1    0    0    0    0  0.00000000000E+00  0.00000000000E+00  0.99999998245E-14  0.12509000000E+03  0.12509000000E+03 0.  0.
        -11    1    3    3    0    0  0.28462382452E+02 -0.36413184729E+02  0.11092123773E+02  0.47529595485E+02  0.51100000000E-03 0.  1.
         23    2    1    0    0    0  0.16640208344E+02  0.10691207817E+02  0.20063494101E+02  0.96916568298E+02  0.92731218890E+02 0.  0.
         11    1    3    3    0    0 -0.11822174108E+02  0.47104392546E+02  0.89713703285E+01  0.49386972813E+02  0.51100000000E-03 0. -1.
         22    1    1    0    0    0 -0.16640208344E+02 -0.10691207817E+02 -0.20063494101E+02  0.28173431702E+02  0.00000000000E+00 0.  1.
</event>
<event>
 5    1  0.1046082E-009  0.9118800E+02  0.7561462E-02  0.1125453E+00
         25   -1    0    0    0    0  0.00000000000E+00  0.00000000000E+00  0.99999998245E-14  0.12509000000E+03  0.12509000000E+03 0.  0.
        -11    1    3    3    0    0 -0.58221283166E+02  0.22215664483E+02 -0.36572339837E+01  0.62422983929E+02  0.51100000000E-03 0.  1.
         23    2    1    0    0    0 -0.25583372797E+02  0.12302487760E+02 -0.26877800038E+00  0.96701051264E+02  0.92440039513E+02 0.  0.
         11    1    3    3    0    0  0.32637910369E+02 -0.99131767231E+01  0.33884559833E+01  0.34278067335E+02  0.51100000000E-03 0. -1.
         22    1    1    0    0    0  0.25583372797E+02 -0.12302487760E+02  0.26877800038E+00  0.28388948736E+02  0.00000000000E+00 0.  1.
</event>
<event>
 5    1  0.1046082E-009  0.9118800E+02  0.7561462E-02  0.1125453E+00
         25   -1    0    0    0    0  0.00000000000E+00  0.00000000000E+00  0.99999998245E-14  0.12509000000E+03  0.12509000000E+03 0.  0.
        -11    1    3    3    0    0 -0.56555306092E+01 -0.20658996380E+02  0.30666280119E+02  0.37405880480E+02  0.51100000000E-03 0.  1.
         23    2    1    0    0    0 -0.18319000683E+02  0.24276690780E+02 -0.23495239946E+01  0.94586495869E+02  0.89532907004E+02 0.  0.
         11    1    3    3    0    0 -0.12663470074E+02  0.44935687159E+02 -0.33015804113E+02  0.57180615389E+02  0.51100000000E-03 0. -1.
         22    1    1    0    0    0  0.18319000683E+02 -0.24276690780E+02  0.23495239946E+01  0.30503504131E+02  0.00000000000E+00 0. -1.
</event>
<event>
 5    1  0.1046082E-009  0.9118800E+02  0.7561462E-02  0.1125453E+00
         25   -1    0    0    0    0  0.00000000000E+00  0.00000000000E+00  0.99999998245E-14  0.12509000000E+03  0.12509000000E+03 0.  0.
        -11    1    3    3    0    0 -0.46607157215E+02  0.10969554401E+02  0.18791072988E+02  0.51436005402E+02  0.51100000000E-03 0. -1.
         23    2    1    0    0    0 -0.19007367491E+02 -0.17537125492E+02 -0.64159945305E+01  0.98444254087E+02  0.94769591048E+02 0.  0.
         11    1    3    3    0    0  0.27599789723E+02 -0.28506679893E+02 -0.25207067518E+02  0.47008248685E+02  0.51100000000E-03 0.  1.
         22    1    1    0    0    0  0.19007367491E+02  0.17537125492E+02  0.64159945305E+01  0.26645745913E+02  0.00000000000E+00 0. -1.
</event>
<event>
 5    1  0.1046082E-009  0.9118800E+02  0.7561462E-02  0.1125453E+00
         25   -1    0    0    0    0  0.00000000000E+00  0.00000000000E+00  0.99999998245E-14  0.12509000000E+03  0.12509000000E+03 0.  0.
        -11    1    3    3    0    0  0.16650359614E+02  0.38934356712E+02  0.57370536092E+01  0.42732100255E+02  0.51100000000E-03 0. -1.
         23    2    1    0    0    0 -0.10663708838E+02 -0.12809255720E+02 -0.12762983066E+02  0.10409749050E+03  0.10195882538E+03 0.  0.
         11    1    3    3    0    0 -0.27314068452E+02 -0.51743612431E+02 -0.18500036676E+02  0.61365390247E+02  0.51100000000E-03 0.  1.
         22    1    1    0    0    0  0.10663708838E+02  0.12809255720E+02  0.12762983066E+02  0.20992509498E+02  0.00000000000E+00 0.  1.
</event>
<event>
 5    1  0.1046082E-009  0.9118800E+02  0.7561462E-02  0.1125453E+00
         25   -1    0    0    0    0  0.00000000000E+00  0.00000000000E+00  0.99999998245E-14  0.12509000000E+03  0.12509000000E+03 0.  0.
        -11    1    3    3    0    0 -0.58605785597E+01 -0.60130697506E+02  0.49029025549E+01  0.60614236095E+02  0.51100000000E-03 0.  1.
         23    2    1    0    0    0 -0.89571149704E+01 -0.27534898857E+02 -0.67320200311E+01  0.95362560532E+02  0.90610690836E+02 0.  0.
         11    1    3    3    0    0 -0.30965364107E+01  0.32595798649E+02 -0.11634922586E+02  0.34748324437E+02  0.51100000000E-03 0. -1.
         22    1    1    0    0    0  0.89571149704E+01  0.27534898857E+02  0.67320200311E+01  0.29727439468E+02  0.00000000000E+00 0.  1.
</event>
<event>
 5    1  0.1046082E-009  0.9118800E+02  0.7561462E-02  0.1125453E+00
         25   -1    0    0    0    0  0.00000000000E+00  0.00000000000E+00  0.99999998245E-14  0.12509000000E+03  0.12509000000E+03 0.  0.
        -11    1    3    3    0    0  0.89965100024E+01  0.35005399966E+02  0.16261342896E+02  0.39632644272E+02  0.51100000000E-03 0.  1.
         23    2    1    0    0    0 -0.25260388659E+02 -0.98539485248E+01  0.17106124119E+01  0.97921751408E+02  0.94077391903E+02 0.  0.
         11    1    3    3    0    0 -0.34256898661E+02 -0.44859348490E+02 -0.14550730484E+02  0.58289107136E+02  0.51100000000E-03 0. -1.
         22    1    1    0    0    0  0.25260388659E+02  0.98539485248E+01 -0.17106124119E+01  0.27168248592E+02  0.00000000000E+00 0. -1.
</event>
<event>
 5    1  0.1046082E-009  0.9118800E+02  0.7561462E-02  0.1125453E+00
         25   -1    0    0    0    0  0.00000000000E+00  0.00000000000E+00  0.99999998245E-14  0.12509000000E+03  0.12509000000E+03 0.  0.
        -11    1    3    3    0    0  0.10281156031E+02  0.39560319112E+02  0.43809357054E+02  0.59916448354E+02  0.51100000000E-03 0. -1.
         23    2    1    0    0    0  0.16943594674E+02  0.14784441121E+02  0.18277408451E+02  0.96111926230E+02  0.91639367109E+02 0.  0.
         11    1    3    3    0    0  0.66624386431E+01 -0.24775877991E+02 -0.25531948603E+02  0.36195477876E+02  0.51100000000E-03 0.  1.
         22    1    1    0    0    0 -0.16943594674E+02 -0.14784441121E+02 -0.18277408451E+02  0.28978073770E+02  0.00000000000E+00 0. -1.
</event>
<event>
 5    1  0.1046082E-009  0.9118800E+02  0.7561462E-02  0.1125453E+00
         25   -1    0    0    0    0  0.00000000000E+00  0.00000000000E+00  0.99999998245E-14  0.12509000000E+03  0.12509000000E+03 0.  0.
        -11    1    3    3    0    0 -0.14722089037E+02  0.86097452052E+01  0.29923459060E+02  0.34442430525E+02  0.51100000000E-03 0. -1.
         23    2    1    0    0    0  0.39690635006E+01 -0.28470204896E+02 -0.12444503929E+02  0.93766339456E+02  0.88379605707E+02 0.  0.
         11    1    3    3    0    0  0.18691152538E+02 -0.37079950101E+02 -0.42367962988E+02  0.59323908930E+02  0.51100000000E-03 0.  1.
         22    1    1    0    0    0 -0.39690635006E+01  0.28470204896E+02  0.12444503929E+02  0.31323660544E+02  0.00000000000E+00 0. -1.
</event>
<event>
 5    1  0.1046082E-009  0.9118800E+02  0.7561462E-02  0.1125453E+00
         25   -1    0    0    0    0  0.00000000000E+00  0.00000000000E+00  0.99999998245E-14  0.12509000000E+03  0.12509000000E+03 0.  0.
        -11    1    3    3    0    0  0.40798955075E+02 -0.18537009118E+02  0.62116070202E+00  0.44816975390E+02  0.51100000000E-03 0. -1.
         23    2    1    0    0    0  0.74773376097E+01  0.75257005643E+01  0.27959542425E+02  0.95185439155E+02  0.90365840159E+02 0.  0.
         11    1    3    3    0    0 -0.33321617465E+02  0.26062709682E+02  0.27338381723E+02  0.50368463765E+02  0.51100000000E-03 0.  1.
         22    1    1    0    0    0 -0.74773376097E+01 -0.75257005643E+01 -0.27959542425E+02  0.29904560845E+02  0.00000000000E+00 0.  1.
</event>
<event>
 5    1  0.1046082E-009  0.9118800E+02  0.7561462E-02  0.1125453E+00
         25   -1    0    0    0    0  0.00000000000E+00  0.00000000000E+00  0.99999998245E-14  0.12509000000E+03  0.12509000000E+03 0.  0.
        -11    1    3    3    0    0 -0.26353502644E+01 -0.31903424693E+02  0.13702889693E+02  0.34821584748E+02  0.51100000000E-03 0.  1.
         23    2    1    0    0    0  0.16315917649E+02  0.13562003765E+02 -0.21126820379E+02  0.95148729917E+02  0.90315010661E+02 0.  0.
         11    1    3    3    0    0  0.18951267914E+02  0.45465428457E+02 -0.34829710072E+02  0.60327145170E+02  0.51100000000E-03 0. -1.
         22    1    1    0    0    0 -0.16315917649E+02 -0.13562003765E+02  0.21126820379E+02  0.29941270083E+02  0.00000000000E+00 0. -1.
</event>
<event>
 5    1  0.1046082E-009  0.9118800E+02  0.7561462E-02  0.1125453E+00
         25   -1    0    0    0    0  0.00000000000E+00  0.00000000000E+00  0.99999998245E-14  0.12509000000E+03  0.12509000000E+03 0.  0.
        -11    1    3    3    0    0 -0.23535913462E+02  0.25381021832E+02 -0.36280776059E+01  0.34803713007E+02  0.51100000000E-03 0.  1.
         23    2    1    0    0    0  0.26673361058E+02 -0.35843190823E+01  0.13132968229E+02  0.95143541312E+02  0.90307823944E+02 0.  0.
         11    1    3    3    0    0  0.50209274520E+02 -0.28965340914E+02  0.16761045835E+02  0.60339828305E+02  0.51100000000E-03 0. -1.
         22    1    1    0    0    0 -0.26673361058E+02  0.35843190823E+01 -0.13132968229E+02  0.29946458688E+02  0.00000000000E+00 0. -1.
</event>
<event>
 5    1  0.1046082E-009  0.9118800E+02  0.7561462E-02  0.1125453E+00
         25   -1    0    0    0    0  0.00000000000E+00  0.00000000000E+00  0.99999998245E-14  0.12509000000E+03  0.12509000000E+03 0.  0.
        -11    1    3    3    0    0 -0.29619440044E+02 -0.12201031649E+02  0.22245281797E+02  0.39000371336E+02  0.51100000000E-03 0.  1.
         23    2    1    0    0    0  0.15931309136E+01  0.30341174491E+02  0.72502939851E+01  0.93853935932E+02  0.88503500447E+02 0.  0.
         11    1    3    3    0    0  0.31212570958E+02  0.42542206141E+02 -0.14994987812E+02  0.54853564596E+02  0.51100000000E-03 0. -1.
         22    1    1    0    0    0 -0.15931309136E+01 -0.30341174491E+02 -0.72502939851E+01  0.31236064068E+02  0.00000000000E+00 0. -1.
</event>
<event>
 5    1  0.1046082E-009  0.9118800E+02  0.7561462E-02  0.1125453E+00
         25   -1    0    0    0    0  0.00000000000E+00  0.00000000000E+00  0.99999998245E-14  0.12509000000E+03  0.12509000000E+03 0.  0.
        -11    1    3    3    0    0  0.18971158778E+02  0.24602292584E+02  0.13783998334E+02  0.33987884255E+02  0.51100000000E-03 0.  1.
         23    2    1    0    0    0 -0.81669985341E+01 -0.23319127726E+02 -0.15057732321E+02  0.96155299629E+02  0.91698553757E+02 0.  0.
         11    1    3    3    0    0 -0.27138157313E+02 -0.47921420310E+02 -0.28841730655E+02  0.62167415374E+02  0.51100000000E-03 0. -1.
         22    1    1    0    0    0  0.81669985341E+01  0.23319127726E+02  0.15057732321E+02  0.28934700371E+02  0.00000000000E+00 0. -1.
</event>
<event>
 5    1  0.1046082E-009  0.9118800E+02  0.7561462E-02  0.1125453E+00
         25   -1    0    0    0    0  0.00000000000E+00  0.00000000000E+00  0.99999998245E-14  0.12509000000E+03  0.12509000000E+03 0.  0.
        -11    1    3    3    0    0  0.29308652043E+02  0.94983998088E+00 -0.41806477121E+02  0.51065456133E+02  0.51100000000E-03 0. -1.
         23    2    1    0    0    0  0.31784680199E+02 -0.42065873614E+01 -0.23633925931E+00  0.93027293800E+02  0.87327316820E+02 0.  0.
         11    1    3    3    0    0  0.24760281563E+01 -0.51564273422E+01  0.41570137861E+02  0.41961837667E+02  0.51100000000E-03 0.  1.
         22    1    1    0    0    0 -0.31784680199E+02  0.42065873614E+01  0.23633925931E+00  0.32062706200E+02  0.00000000000E+00 0.  1.
</event>
<event>
 5    1  0.1046082E-009  0.9118800E+02  0.7561462E-02  0.1125453E+00
         25   -1    0    0    0    0  0.00000000000E+00  0.00000000000E+00  0.99999998245E-14  0.12509000000E+03  0.12509000000E+03 0.  0.
        -11    1    3    3    0    0 -0.17046251688E+02 -0.45111669383E+02  0.12622180239E+02  0.49849341474E+02  0.51100000000E-03 0.  1.
         23    2    1    0    0    0 -0.27072752551E+02 -0.46816242681E+01 -0.81991883727E+01  0.96418093429E+02  0.92056344235E+02 0.  0.
         11    1    3    3    0    0 -0.10026500863E+02  0.40430045115E+02 -0.20821368612E+02  0.46568751955E+02  0.51100000000E-03 0. -1.
         22    1    1    0    0    0  0.27072752551E+02  0.46816242681E+01  0.81991883727E+01  0.28671906571E+02  0.00000000000E+00 0. -1.
</event>
<event>
 5    1  0.1046082E-009  0.9118800E+02  0.7561462E-02  0.1125453E+00
         25   -1    0    0    0    0  0.00000000000E+00  0.00000000000E+00  0.99999998245E-14  0.12509000000E+03  0.12509000000E+03 0.  0.
        -11    1    3    3    0    0  0.27505026730E+02 -0.27332588471E+02 -0.29221796416E+02  0.48554199345E+02  0.51100000000E-03 0. -1.
         23    2    1    0    0    0 -0.38675328936E+01  0.84466126101E+01 -0.27381623734E+02  0.96175360220E+02  0.91725915204E+02 0.  0.
         11    1    3    3    0    0 -0.31372559624E+02  0.35779201081E+02  0.18401726822E+01  0.47621160876E+02  0.51100000000E-03 0.  1.
         22    1    1    0    0    0  0.38675328936E+01 -0.84466126101E+01  0.27381623734E+02  0.28914639780E+02  0.00000000000E+00 0. -1.
</event>
<event>
 4    1  0.1046082E-009  0.9118800E+02  0.7561462E-02  0.1125453E+00
         25   -1    0    0    0    0  0.00000000000E+00  0.00000000000E+00  0.99999998245E-14  0.12509000000E+03  0.12509000000E+03 0.  0.
        -11    1    1    0    0    0  0.10688203102E+02 -0.23740111446E+02 -0.30982873009E+02  0.40469358745E+02  0.51100000000E-03 0. -1.
         11    1    1    0    0    0  0.26116770295E+02  0.18632206964E+02 -0.54963245665E+01  0.32549261298E+02  0.51100000000E-03 0.  1.
         22    1    1    0    0    0 -0.36804973397E+02  0.51079044817E+01  0.36479197576E+02  0.52071379958E+02  0.00000000000E+00 0. -1.
</event>
<event>
 5    1  0.1046082E-009  0.9118800E+02  0.7561462E-02  0.1125453E+00
         25   -1    0    0    0    0  0.00000000000E+00  0.00000000000E+00  0.99999998245E-14  0.12509000000E+03  0.12509000000E+03 0.  0.
        -11    1    3    3    0    0  0.23701701183E+02  0.31917242610E+02  0.23688408453E+02  0.46277658866E+02  0.51100000000E-03 0. -1.
         23    2    1    0    0    0 -0.18169109252E+02  0.10624369533E+02  0.23888548769E+02  0.93252027054E+02  0.87648639627E+02 0.  0.
         11    1    3    3    0    0 -0.41870810434E+02 -0.21292873077E+02  0.20014031605E+00  0.46974368189E+02  0.51100000000E-03 0.  1.
         22    1    1    0    0    0  0.18169109252E+02 -0.10624369533E+02 -0.23888548769E+02  0.31837972946E+02  0.00000000000E+00 0.  1.
</event>
<event>
 5    1  0.1046082E-009  0.9118800E+02  0.7561462E-02  0.1125453E+00
         25   -1    0    0    0    0  0.00000000000E+00  0.00000000000E+00  0.99999998245E-14  0.12509000000E+03  0.12509000000E+03 0.  0.
        -11    1    3    3    0    0  0.32779735084E+02 -0.25527410464E+02 -0.15441182006E+02  0.44323693654E+02  0.51100000000E-03 0. -1.
         23    2    1    0    0    0  0.98539627958E+01  0.20879159687E+02 -0.17491091415E+02  0.96124880099E+02  0.91657047754E+02 0.  0.
         11    1    3    3    0    0 -0.22925772288E+02  0.46406570151E+02 -0.20499094095E+01  0.51801186444E+02  0.51100000000E-03 0.  1.
         22    1    1    0    0    0 -0.98539627958E+01 -0.20879159687E+02  0.17491091415E+02  0.28965119901E+02  0.00000000000E+00 0.  1.
</event>
<event>
 5    1  0.1046082E-009  0.9118800E+02  0.7561462E-02  0.1125453E+00
         25   -1    0    0    0    0  0.00000000000E+00  0.00000000000E+00  0.99999998245E-14  0.12509000000E+03  0.12509000000E+03 0.  0.
        -11    1    3    3    0    0  0.88125584954E+01 -0.23619393650E+02 -0.24388111221E+02  0.35075873657E+02  0.51100000000E-03 0. -1.
         23    2    1    0    0    0  0.45730212521E+01  0.15858986011E+01  0.29752452630E+02  0.94946409715E+02  0.90034352792E+02 0.  0.
         11    1    3    3    0    0 -0.42395372434E+01  0.25205292252E+02  0.54140563851E+02  0.59870536058E+02  0.51100000000E-03 0.  1.
         22    1    1    0    0    0 -0.45730212521E+01 -0.15858986011E+01 -0.29752452630E+02  0.30143590285E+02  0.00000000000E+00 0.  1.
</event>
<event>
 5    1  0.1046082E-009  0.9118800E+02  0.7561462E-02  0.1125453E+00
         25   -1    0    0    0    0  0.00000000000E+00  0.00000000000E+00  0.99999998245E-14  0.12509000000E+03  0.12509000000E+03 0.  0.
        -11    1    3    3    0    0  0.63692007497E+01  0.35575298841E+02 -0.12796408701E+02  0.38339492455E+02  0.51100000000E-03 0. -1.
         23    2    1    0    0    0 -0.18399801162E+02 -0.15978120624E+02  0.83673147829E+01  0.99324422612E+02  0.95924324074E+02 0.  0.
         11    1    3    3    0    0 -0.24769001912E+02 -0.51553419465E+02  0.21163723483E+02  0.60984930157E+02  0.51100000000E-03 0.  1.
         22    1    1    0    0    0  0.18399801162E+02  0.15978120624E+02 -0.83673147829E+01  0.25765577388E+02  0.00000000000E+00 0.  1.
</event>
<event>
 5    1  0.1046082E-009  0.9118800E+02  0.7561462E-02  0.1125453E+00
         25   -1    0    0    0    0  0.00000000000E+00  0.00000000000E+00  0.99999998245E-14  0.12509000000E+03  0.12509000000E+03 0.  0.
        -11    1    3    3    0    0 -0.23922173390E+02 -0.69631638202E+01  0.32930838285E+02  0.41294020639E+02  0.51100000000E-03 0.  1.
         23    2    1    0    0    0  0.17927502099E+01  0.11281105044E+02 -0.19509183986E+02  0.10248279884E+03  0.99958183831E+02 0.  0.
         11    1    3    3    0    0  0.25714923600E+02  0.18244268864E+02 -0.52440022271E+02  0.61188778205E+02  0.51100000000E-03 0. -1.
         22    1    1    0    0    0 -0.17927502099E+01 -0.11281105044E+02  0.19509183986E+02  0.22607201156E+02  0.00000000000E+00 0. -1.
</event>
<event>
 5    1  0.1046082E-009  0.9118800E+02  0.7561462E-02  0.1125453E+00
         25   -1    0    0    0    0  0.00000000000E+00  0.00000000000E+00  0.99999998245E-14  0.12509000000E+03  0.12509000000E+03 0.  0.
        -11    1    3    3    0    0 -0.26042019202E+02  0.12582370666E+02 -0.23956521477E+02  0.37555528717E+02  0.51100000000E-03 0. -1.
         23    2    1    0    0    0  0.18167867779E+02 -0.11064425428E+02  0.13285002735E+02  0.10001044204E+03  0.96814793756E+02 0.  0.
         11    1    3    3    0    0  0.44209886982E+02 -0.23646796094E+02  0.37241524212E+02  0.62454913324E+02  0.51100000000E-03 0.  1.
         22    1    1    0    0    0 -0.18167867779E+02  0.11064425428E+02 -0.13285002735E+02  0.25079557958E+02  0.00000000000E+00 0.  1.
</event>
<event>
 5    1  0.1046082E-009  0.9118800E+02  0.7561462E-02  0.1125453E+00
         25   -1    0    0    0    0  0.00000000000E+00  0.00000000000E+00  0.99999998245E-14  0.12509000000E+03  0.12509000000E+03 0.  0.
        -11    1    3    3    0    0 -0.30360913860E+02  0.16227738955E+02 -0.40989944769E+02  0.53528498713E+02  0.51100000000E-03 0.  1.
         23    2    1    0    0    0 -0.16456037567E+02  0.25508598672E+02 -0.35552952069E+01  0.94526461222E+02  0.89448990875E+02 0.  0.
         11    1    3    3    0    0  0.13904876294E+02  0.92808597173E+01  0.37434649562E+02  0.40997962509E+02  0.51100000000E-03 0. -1.
         22    1    1    0    0    0  0.16456037567E+02 -0.25508598672E+02  0.35552952069E+01  0.30563538778E+02  0.00000000000E+00 0. -1.
</event>
<event>
 5    1  0.1046082E-009  0.9118800E+02  0.7561462E-02  0.1125453E+00
         25   -1    0    0    0    0  0.00000000000E+00  0.00000000000E+00  0.99999998245E-14  0.12509000000E+03  0.12509000000E+03 0.  0.
        -11    1    3    3    0    0 -0.33178168434E+02 -0.15133004827E+02 -0.27370385332E+02  0.45595358198E+02  0.51100000000E-03 0.  1.
         23    2    1    0    0    0 -0.42844998193E+02 -0.82682367576E+01  0.60319785055E+01  0.81039547404E+02  0.68021804368E+02 0.  0.
         11    1    3    3    0    0 -0.96668297596E+01  0.68647680697E+01  0.33402363838E+02  0.35444189206E+02  0.51100000000E-03 0. -1.
         22    1    1    0    0    0  0.42844998193E+02  0.82682367576E+01 -0.60319785055E+01  0.44050452596E+02  0.00000000000E+00 0.  1.
</event>
<event>
 5    1  0.1046082E-009  0.9118800E+02  0.7561462E-02  0.1125453E+00
         25   -1    0    0    0    0  0.00000000000E+00  0.00000000000E+00  0.99999998245E-14  0.12509000000E+03  0.12509000000E+03 0.  0.
        -11    1    3    3    0    0 -0.14549747774E+01  0.11595636334E+02  0.41635178198E+02  0.43244234268E+02  0.51100000000E-03 0.  1.
         23    2    1    0    0    0  0.10245856977E+02  0.27417858371E+02 -0.63777656710E+01  0.95133490894E+02  0.90293901521E+02 0.  0.
         11    1    3    3    0    0  0.11700831755E+02  0.15822222037E+02 -0.48012943869E+02  0.51889256626E+02  0.51100000000E-03 0. -1.
         22    1    1    0    0    0 -0.10245856977E+02 -0.27417858371E+02  0.63777656710E+01  0.29956509106E+02  0.00000000000E+00 0. -1.
</event>
<event>
 5    1  0.1046082E-009  0.9118800E+02  0.7561462E-02  0.1125453E+00
         25   -1    0    0    0    0  0.00000000000E+00  0.00000000000E+00  0.99999998245E-14  0.12509000000E+03  0.12509000000E+03 0.  0.
        -11    1    3    3    0    0  0.27881639993E+02 -0.45044020463E+00  0.37107280149E+02  0.46417011810E+02  0.51100000000E-03 0.  1.
         23    2    1    0    0    0  0.26246511683E+02  0.51554648814E+01 -0.11930931896E+02  0.95801686126E+02  0.91214898645E+02 0.  0.
         11    1    3    3    0    0 -0.16351283094E+01  0.56059050861E+01 -0.49038212045E+02  0.49384674316E+02  0.51100000000E-03 0. -1.
         22    1    1    0    0    0 -0.26246511683E+02 -0.51554648814E+01  0.11930931896E+02  0.29288313874E+02  0.00000000000E+00 0. -1.
</event>
<event>
 5    1  0.1046082E-009  0.9118800E+02  0.7561462E-02  0.1125453E+00
         25   -1    0    0    0    0  0.00000000000E+00  0.00000000000E+00  0.99999998245E-14  0.12509000000E+03  0.12509000000E+03 0.  0.
        -11    1    3    3    0    0 -0.24096201950E+02  0.60632363904E+00  0.79660303441E+01  0.25386063430E+02  0.51100000000E-03 0. -1.
         23    2    1    0    0    0  0.30896057283E+02  0.70348943025E+01 -0.20206887863E+02  0.87508429908E+02  0.79027532509E+02 0.  0.
         11    1    3    3    0    0  0.54992259233E+02  0.64285706634E+01 -0.28172918207E+02  0.62122366478E+02  0.51100000000E-03 0.  1.
         22    1    1    0    0    0 -0.30896057283E+02 -0.70348943025E+01  0.20206887863E+02  0.37581570092E+02  0.00000000000E+00 0.  1.
</event>
<event>
 5    1  0.1046082E-009  0.9118800E+02  0.7561462E-02  0.1125453E+00
         25   -1    0    0    0    0  0.00000000000E+00  0.00000000000E+00  0.99999998245E-14  0.12509000000E+03  0.12509000000E+03 0.  0.
        -11    1    3    3    0    0  0.20057628694E+02  0.42406262638E+02 -0.87669039175E+01  0.47722721887E+02  0.51100000000E-03 0. -1.
         23    2    1    0    0    0  0.22882868729E+01  0.14355883449E+02  0.25688132810E+02  0.95573770335E+02  0.90901802855E+02 0.  0.
         11    1    3    3    0    0 -0.17769341821E+02 -0.28050379189E+02  0.34455036727E+02  0.47851048448E+02  0.51100000000E-03 0.  1.
         22    1    1    0    0    0 -0.22882868729E+01 -0.14355883449E+02 -0.25688132810E+02  0.29516229665E+02  0.00000000000E+00 0.  1.
</event>
<event>
 5    1  0.1046082E-009  0.9118800E+02  0.7561462E-02  0.1125453E+00
         25   -1    0    0    0    0  0.00000000000E+00  0.00000000000E+00  0.99999998245E-14  0.12509000000E+03  0.12509000000E+03 0.  0.
        -11    1    3    3    0    0 -0.47467957386E+02 -0.37427677257E+01 -0.28294906451E+02  0.55387877915E+02  0.51100000000E-03 0.  1.
         23    2    1    0    0    0 -0.23515679080E+02  0.15670612202E+02 -0.61065359796E+00  0.96824682963E+02  0.92607186998E+02 0.  0.
         11    1    3    3    0    0  0.23952278306E+02  0.19413379928E+02  0.27684252853E+02  0.41436805048E+02  0.51100000000E-03 0. -1.
         22    1    1    0    0    0  0.23515679080E+02 -0.15670612202E+02  0.61065359796E+00  0.28265317037E+02  0.00000000000E+00 0.  1.
</event>
<event>
 5    1  0.1046082E-009  0.9118800E+02  0.7561462E-02  0.1125453E+00
         25   -1    0    0    0    0  0.00000000000E+00  0.00000000000E+00  0.99999998245E-14  0.12509000000E+03  0.12509000000E+03 0.  0.
        -11    1    3    3    0    0  0.19364247073E+02 -0.80594274404E+01  0.24110554765E+02  0.31956959911E+02  0.51100000000E-03 0.  1.
         23    2    1    0    0    0 -0.25681784282E+02  0.21386976483E+02 -0.16645841550E+01  0.91627668231E+02  0.85298897637E+02 0.  0.
         11    1    3    3    0    0 -0.45046031355E+02  0.29446403924E+02 -0.25775138920E+02  0.59670708321E+02  0.51100000000E-03 0. -1.
         22    1    1    0    0    0  0.25681784282E+02 -0.21386976483E+02  0.16645841550E+01  0.33462331769E+02  0.00000000000E+00 0. -1.
</event>
<event>
 5    1  0.1046082E-009  0.9118800E+02  0.7561462E-02  0.1125453E+00
         25   -1    0    0    0    0  0.00000000000E+00  0.00000000000E+00  0.99999998245E-14  0.12509000000E+03  0.12509000000E+03 0.  0.
        -11    1    3    3    0    0  0.12746457875E+02  0.42106926011E+02 -0.19804953420E+01  0.44038480543E+02  0.51100000000E-03 0. -1.
         23    2    1    0    0    0  0.58475970022E+01 -0.72777322092E+01 -0.24588735801E+02  0.98788560779E+02  0.95222970105E+02 0.  0.
         11    1    3    3    0    0 -0.68988608729E+01 -0.49384658220E+02 -0.22608240459E+02  0.54750080236E+02  0.51100000000E-03 0.  1.
         22    1    1    0    0    0 -0.58475970022E+01  0.72777322092E+01  0.24588735801E+02  0.26301439221E+02  0.00000000000E+00 0.  1.
</event>
<event>
 5    1  0.1046082E-009  0.9118800E+02  0.7561462E-02  0.1125453E+00
         25   -1    0    0    0    0  0.00000000000E+00  0.00000000000E+00  0.99999998245E-14  0.12509000000E+03  0.12509000000E+03 0.  0.
        -11    1    3    3    0    0  0.46068008321E+02 -0.34877953027E+02 -0.78947473037E+01  0.58318607950E+02  0.51100000000E-03 0. -1.
         23    2    1    0    0    0  0.25485367491E+02 -0.77392086754E+01 -0.16895235267E+02  0.93548784396E+02  0.88071146127E+02 0.  0.
         11    1    3    3    0    0 -0.20582640830E+02  0.27138744352E+02 -0.90004879634E+01  0.35230176446E+02  0.51100000000E-03 0.  1.
         22    1    1    0    0    0 -0.25485367491E+02  0.77392086754E+01  0.16895235267E+02  0.31541215604E+02  0.00000000000E+00 0.  1.
</event>
<event>
 5    1  0.1046082E-009  0.9118800E+02  0.7561462E-02  0.1125453E+00
         25   -1    0    0    0    0  0.00000000000E+00  0.00000000000E+00  0.99999998245E-14  0.12509000000E+03  0.12509000000E+03 0.  0.
        -11    1    3    3    0    0 -0.57144039670E+02  0.14945269923E+02  0.66295730885E+01  0.59436971680E+02  0.51100000000E-03 0.  1.
         23    2    1    0    0    0 -0.19792366440E+02 -0.58411035895E+01  0.96890537125E+01  0.10229232419E+03  0.99719534526E+02 0.  0.
         11    1    3    3    0    0  0.37351673230E+02 -0.20786373513E+02  0.30594806240E+01  0.42855352511E+02  0.51100000000E-03 0. -1.
         22    1    1    0    0    0  0.19792366440E+02  0.58411035895E+01 -0.96890537125E+01  0.22797675809E+02  0.00000000000E+00 0.  1.
</event>
<event>
 5    1  0.1046082E-009  0.9118800E+02  0.7561462E-02  0.1125453E+00
         25   -1    0    0    0    0  0.00000000000E+00  0.00000000000E+00  0.99999998245E-14  0.12509000000E+03  0.12509000000E+03 0.  0.
        -11    1    3    3    0    0  0.32397072387E+01  0.57668926260E+02  0.15236949061E+02  0.59735796437E+02  0.51100000000E-03 0.  1.
         23    2    1    0    0    0  0.13993930713E+02  0.25470024590E+02  0.27814824134E+01  0.95896012711E+02  0.91344164345E+02 0.  0.
         11    1    3    3    0    0  0.10754223474E+02 -0.32198901670E+02 -0.12455466648E+02  0.36160216274E+02  0.51100000000E-03 0. -1.
         22    1    1    0    0    0 -0.13993930713E+02 -0.25470024590E+02 -0.27814824134E+01  0.29193987289E+02  0.00000000000E+00 0.  1.
</event>
<event>
 5    1  0.1046082E-009  0.9118800E+02  0.7561462E-02  0.1125453E+00
         25   -1    0    0    0    0  0.00000000000E+00  0.00000000000E+00  0.99999998245E-14  0.12509000000E+03  0.12509000000E+03 0.  0.
        -11    1    3    3    0    0 -0.92142410211E+01 -0.19374089740E+02  0.51498865858E+02  0.55788805112E+02  0.51100000000E-03 0. -1.
         23    2    1    0    0    0 -0.23560927258E+02 -0.36646660566E+01  0.19143845602E+02  0.94511676060E+02  0.89428312165E+02 0.  0.
         11    1    3    3    0    0 -0.14346686237E+02  0.15709423684E+02 -0.32355020256E+02  0.38722870948E+02  0.51100000000E-03 0.  1.
         22    1    1    0    0    0  0.23560927258E+02  0.36646660566E+01 -0.19143845602E+02  0.30578323940E+02  0.00000000000E+00 0. -1.
</event>
<event>
 5    1  0.1046082E-009  0.9118800E+02  0.7561462E-02  0.1125453E+00
         25   -1    0    0    0    0  0.00000000000E+00  0.00000000000E+00  0.99999998245E-14  0.12509000000E+03  0.12509000000E+03 0.  0.
        -11    1    3    3    0    0  0.26524540919E+02 -0.10818835733E+02  0.19552720655E+02  0.34682954932E+02  0.51100000000E-03 0.  1.
         23    2    1    0    0    0 -0.20344945530E+02  0.16013566712E+02 -0.11254436262E+02  0.96858573132E+02  0.92652953143E+02 0.  0.
         11    1    3    3    0    0 -0.46869486449E+02  0.26832402445E+02 -0.30807156917E+02  0.62175618199E+02  0.51100000000E-03 0. -1.
         22    1    1    0    0    0  0.20344945530E+02 -0.16013566712E+02  0.11254436262E+02  0.28231426868E+02  0.00000000000E+00 0. -1.
</event>
<event>
 5    1  0.1046082E-009  0.9118800E+02  0.7561462E-02  0.1125453E+00
         25   -1    0    0    0    0  0.00000000000E+00  0.00000000000E+00  0.99999998245E-14  0.12509000000E+03  0.12509000000E+03 0.  0.
        -11    1    3    3    0    0 -0.39113297263E+02 -0.12878102482E+02 -0.96448475892E+01  0.42293245697E+02  0.51100000000E-03 0.  1.
         23    2    1    0    0    0  0.13495302174E+02  0.99481303846E+01  0.12923582663E+02  0.10392145098E+03  0.10174261892E+03 0.  0.
         11    1    3    3    0    0  0.52608599437E+02  0.22826232866E+02  0.22568430252E+02  0.61628205279E+02  0.51100000000E-03 0. -1.
         22    1    1    0    0    0 -0.13495302174E+02 -0.99481303846E+01 -0.12923582663E+02  0.21168549024E+02  0.00000000000E+00 0. -1.
</event>
<event>
 5    1  0.1046082E-009  0.9118800E+02  0.7561462E-02  0.1125453E+00
         25   -1    0    0    0    0  0.00000000000E+00  0.00000000000E+00  0.99999998245E-14  0.12509000000E+03  0.12509000000E+03 0.  0.
        -11    1    3    3    0    0 -0.33414717130E+02 -0.16974686548E+02  0.16195101360E+02  0.40828477961E+02  0.51100000000E-03 0. -1.
         23    2    1    0    0    0  0.19638411816E+02 -0.21769111798E+02  0.37437487144E+01  0.95533662244E+02  0.90846593332E+02 0.  0.
         11    1    3    3    0    0  0.53053128946E+02 -0.47944252503E+01 -0.12451352646E+02  0.54705184283E+02  0.51100000000E-03 0.  1.
         22    1    1    0    0    0 -0.19638411816E+02  0.21769111798E+02 -0.37437487144E+01  0.29556337756E+02  0.00000000000E+00 0.  1.
</event>
<event>
 5    1  0.1046082E-009  0.9118800E+02  0.7561462E-02  0.1125453E+00
         25   -1    0    0    0    0  0.00000000000E+00  0.00000000000E+00  0.99999998245E-14  0.12509000000E+03  0.12509000000E+03 0.  0.
        -11    1    3    3    0    0 -0.27281756248E+02 -0.54479061774E+02  0.11837737983E+02  0.62067660151E+02  0.51100000000E-03 0.  1.
         23    2    1    0    0    0 -0.81599030247E+01 -0.27547908292E+02  0.76241628261E+01  0.95364604671E+02  0.90613512770E+02 0.  0.
         11    1    3    3    0    0  0.19121853223E+02  0.26931153482E+02 -0.42135751566E+01  0.33296944521E+02  0.51100000000E-03 0. -1.
         22    1    1    0    0    0  0.81599030247E+01  0.27547908292E+02 -0.76241628261E+01  0.29725395329E+02  0.00000000000E+00 0.  1.
</event>
<event>
 5    1  0.1046082E-009  0.9118800E+02  0.7561462E-02  0.1125453E+00
         25   -1    0    0    0    0  0.00000000000E+00  0.00000000000E+00  0.99999998245E-14  0.12509000000E+03  0.12509000000E+03 0.  0.
        -11    1    3    3    0    0  0.53547526061E+01 -0.39408336326E+02  0.21474690755E+02  0.45197927947E+02  0.51100000000E-03 0. -1.
         23    2    1    0    0    0 -0.10277622338E+02 -0.88888084990E+01  0.39059704369E+02  0.83734215122E+02  0.72808775839E+02 0.  0.
         11    1    3    3    0    0 -0.15632374944E+02  0.30519527827E+02  0.17585013614E+02  0.38536287175E+02  0.51100000000E-03 0.  1.
         22    1    1    0    0    0  0.10277622338E+02  0.88888084990E+01 -0.39059704369E+02  0.41355784878E+02  0.00000000000E+00 0.  1.
</event>
<event>
 5    1  0.1046082E-009  0.9118800E+02  0.7561462E-02  0.1125453E+00
         25   -1    0    0    0    0  0.00000000000E+00  0.00000000000E+00  0.99999998245E-14  0.12509000000E+03  0.12509000000E+03 0.  0.
        -11    1    3    3    0    0  0.21291326211E+02 -0.48815186184E+02 -0.30794413398E+02  0.61518605891E+02  0.51100000000E-03 0.  1.
         23    2    1    0    0    0  0.61929149522E+01 -0.20426199872E+02 -0.21037774278E+02  0.95120519134E+02  0.90275929111E+02 0.  0.
         11    1    3    3    0    0 -0.15098411259E+02  0.28388986312E+02  0.97566391195E+01  0.33601913242E+02  0.51100000000E-03 0. -1.
         22    1    1    0    0    0 -0.61929149522E+01  0.20426199872E+02  0.21037774278E+02  0.29969480866E+02  0.00000000000E+00 0.  1.
</event>
<event>
 5    1  0.1046082E-009  0.9118800E+02  0.7561462E-02  0.1125453E+00
         25   -1    0    0    0    0  0.00000000000E+00  0.00000000000E+00  0.99999998245E-14  0.12509000000E+03  0.12509000000E+03 0.  0.
        -11    1    3    3    0    0 -0.27362423076E+02  0.19941709506E+02 -0.48502975728E+02  0.59151607158E+02  0.51100000000E-03 0. -1.
         23    2    1    0    0    0 -0.94176232530E+01 -0.45153063357E+01 -0.26443529236E+02  0.96658681749E+02  0.92382687231E+02 0.  0.
         11    1    3    3    0    0  0.17944799823E+02 -0.24457015842E+02  0.22059446492E+02  0.37507074591E+02  0.51100000000E-03 0.  1.
         22    1    1    0    0    0  0.94176232530E+01  0.45153063357E+01  0.26443529236E+02  0.28431318251E+02  0.00000000000E+00 0. -1.
</event>
<event>
 5    1  0.1046082E-009  0.9118800E+02  0.7561462E-02  0.1125453E+00
         25   -1    0    0    0    0  0.00000000000E+00  0.00000000000E+00  0.99999998245E-14  0.12509000000E+03  0.12509000000E+03 0.  0.
        -11    1    3    3    0    0 -0.18025382459E+02  0.29205799981E+02  0.14949783667E+02  0.37435133194E+02  0.51100000000E-03 0. -1.
         23    2    1    0    0    0  0.22017681486E+02  0.12718563761E+02 -0.19723070822E+02  0.92910197565E+02  0.87159423625E+02 0.  0.
         11    1    3    3    0    0  0.40043063945E+02 -0.16487236220E+02 -0.34672854488E+02  0.55475064370E+02  0.51100000000E-03 0.  1.
         22    1    1    0    0    0 -0.22017681486E+02 -0.12718563761E+02  0.19723070822E+02  0.32179802435E+02  0.00000000000E+00 0.  1.
</event>
<event>
 5    1  0.1046082E-009  0.9118800E+02  0.7561462E-02  0.1125453E+00
         25   -1    0    0    0    0  0.00000000000E+00  0.00000000000E+00  0.99999998245E-14  0.12509000000E+03  0.12509000000E+03 0.  0.
        -11    1    3    3    0    0 -0.38130616683E+02  0.58512241006E+01 -0.22605982286E+02  0.44712539488E+02  0.51100000000E-03 0.  1.
         23    2    1    0    0    0 -0.31157050804E+01 -0.28129811510E+02 -0.70821196763E+01  0.95915519150E+02  0.91370873263E+02 0.  0.
         11    1    3    3    0    0  0.35014911602E+02 -0.33981035611E+02  0.15523862609E+02  0.51202979662E+02  0.51100000000E-03 0. -1.
         22    1    1    0    0    0  0.31157050804E+01  0.28129811510E+02  0.70821196763E+01  0.29174480850E+02  0.00000000000E+00 0. -1.
</event>
<event>
 5    1  0.1046082E-009  0.9118800E+02  0.7561462E-02  0.1125453E+00
         25   -1    0    0    0    0  0.00000000000E+00  0.00000000000E+00  0.99999998245E-14  0.12509000000E+03  0.12509000000E+03 0.  0.
        -11    1    3    3    0    0 -0.31631896302E+02  0.12709290447E+02 -0.39666459069E+02  0.52302303034E+02  0.51100000000E-03 0. -1.
         23    2    1    0    0    0 -0.21442135180E+02 -0.17322642030E+02 -0.98886887769E+01  0.95804760480E+02  0.91219114647E+02 0.  0.
         11    1    3    3    0    0  0.10189761122E+02 -0.30031932477E+02  0.29777770292E+02  0.43502457446E+02  0.51100000000E-03 0.  1.
         22    1    1    0    0    0  0.21442135180E+02  0.17322642030E+02  0.98886887769E+01  0.29285239520E+02  0.00000000000E+00 0. -1.
</event>
<event>
 5    1  0.1046082E-009  0.9118800E+02  0.7561462E-02  0.1125453E+00
         25   -1    0    0    0    0  0.00000000000E+00  0.00000000000E+00  0.99999998245E-14  0.12509000000E+03  0.12509000000E+03 0.  0.
        -11    1    3    3    0    0  0.51363282292E+02 -0.11204997067E+02 -0.91593008278E+01  0.53363203792E+02  0.51100000000E-03 0.  1.
         23    2    1    0    0    0  0.10853260683E+02 -0.21245736887E+02 -0.16955825137E+02  0.95820995756E+02  0.91241375583E+02 0.  0.
         11    1    3    3    0    0 -0.40510021609E+02 -0.10040739821E+02 -0.77965243094E+01  0.42457791964E+02  0.51100000000E-03 0. -1.
         22    1    1    0    0    0 -0.10853260683E+02  0.21245736887E+02  0.16955825137E+02  0.29269004244E+02  0.00000000000E+00 0. -1.
</event>
<event>
 5    1  0.1046082E-009  0.9118800E+02  0.7561462E-02  0.1125453E+00
         25   -1    0    0    0    0  0.00000000000E+00  0.00000000000E+00  0.99999998245E-14  0.12509000000E+03  0.12509000000E+03 0.  0.
        -11    1    3    3    0    0  0.56580753650E+02  0.83081525930E+01  0.12618000159E+02  0.58562966211E+02  0.51100000000E-03 0.  1.
         23    2    1    0    0    0  0.20759099938E+02  0.15187238872E+02  0.15341695367E+02  0.95140708330E+02  0.90303899750E+02 0.  0.
         11    1    3    3    0    0 -0.35821653712E+02  0.68790862790E+01  0.27236952077E+01  0.36577742120E+02  0.51100000000E-03 0. -1.
         22    1    1    0    0    0 -0.20759099938E+02 -0.15187238872E+02 -0.15341695367E+02  0.29949291670E+02  0.00000000000E+00 0.  1.
</event>
<event>
 5    1  0.1046082E-009  0.9118800E+02  0.7561462E-02  0.1125453E+00
         25   -1    0    0    0    0  0.00000000000E+00  0.00000000000E+00  0.99999998245E-14  0.12509000000E+03  0.12509000000E+03 0.  0.
        -11    1    3    3    0    0  0.62704761673E+01 -0.53230015733E+02 -0.69821042493E+01  0.54050931780E+02  0.51100000000E-03 0. -1.
         23    2    1    0    0    0  0.21913252907E+02 -0.11709584839E+02  0.44018637801E+01  0.99857452867E+02  0.96616921179E+02 0.  0.
         11    1    3    3    0    0  0.15642776740E+02  0.41520430893E+02  0.11383968029E+02  0.45806521087E+02  0.51100000000E-03 0.  1.
         22    1    1    0    0    0 -0.21913252907E+02  0.11709584839E+02 -0.44018637801E+01  0.25232547133E+02  0.00000000000E+00 0. -1.
</event>
<event>
 5    1  0.1046082E-009  0.9118800E+02  0.7561462E-02  0.1125453E+00
         25   -1    0    0    0    0  0.00000000000E+00  0.00000000000E+00  0.99999998245E-14  0.12509000000E+03  0.12509000000E+03 0.  0.
        -11    1    3    3    0    0 -0.45309910370E+02  0.26323256332E+02 -0.18822568515E+02  0.55679357822E+02  0.51100000000E-03 0.  1.
         23    2    1    0    0    0 -0.21205263631E+02 -0.57496044325E+01 -0.19363439338E+02  0.95804099983E+02  0.91218208894E+02 0.  0.
         11    1    3    3    0    0  0.24104646739E+02 -0.32072860765E+02 -0.54087082319E+00  0.40124742162E+02  0.51100000000E-03 0. -1.
         22    1    1    0    0    0  0.21205263631E+02  0.57496044325E+01  0.19363439338E+02  0.29285900017E+02  0.00000000000E+00 0.  1.
</event>
<event>
 5    1  0.1046082E-009  0.9118800E+02  0.7561462E-02  0.1125453E+00
         25   -1    0    0    0    0  0.00000000000E+00  0.00000000000E+00  0.99999998245E-14  0.12509000000E+03  0.12509000000E+03 0.  0.
        -11    1    3    3    0    0  0.64289521231E+00 -0.53218283520E+02  0.28677875777E+02  0.60456757888E+02  0.51100000000E-03 0.  1.
         23    2    1    0    0    0  0.49906348567E+01 -0.32088120392E+02  0.54417049126E+01  0.92163322990E+02  0.86080845986E+02 0.  0.
         11    1    3    3    0    0  0.43477396444E+01  0.21130163127E+02 -0.23236170865E+02  0.31706565101E+02  0.51100000000E-03 0. -1.
         22    1    1    0    0    0 -0.49906348567E+01  0.32088120392E+02 -0.54417049126E+01  0.32926677010E+02  0.00000000000E+00 0.  1.
</event>
<event>
 5    1  0.1046082E-009  0.9118800E+02  0.7561462E-02  0.1125453E+00
         25   -1    0    0    0    0  0.00000000000E+00  0.00000000000E+00  0.99999998245E-14  0.12509000000E+03  0.12509000000E+03 0.  0.
        -11    1    3    3    0    0 -0.19897498618E+02 -0.63615134205E+00  0.24997857580E+01  0.20063999324E+02  0.51100000000E-03 0. -1.
         23    2    1    0    0    0  0.36422503212E+02  0.22073208477E+02  0.10256200644E+02  0.81283437428E+02  0.68468841642E+02 0.  0.
         11    1    3    3    0    0  0.56320001831E+02  0.22709359819E+02  0.77564148858E+01  0.61219438104E+02  0.51100000000E-03 0.  1.
         22    1    1    0    0    0 -0.36422503212E+02 -0.22073208477E+02 -0.10256200644E+02  0.43806562572E+02  0.00000000000E+00 0.  1.
</event>
<event>
 5    1  0.1046082E-009  0.9118800E+02  0.7561462E-02  0.1125453E+00
         25   -1    0    0    0    0  0.00000000000E+00  0.00000000000E+00  0.99999998245E-14  0.12509000000E+03  0.12509000000E+03 0.  0.
        -11    1    3    3    0    0  0.34021586701E+02  0.84060755956E+01  0.49510683080E+02  0.60658372942E+02  0.51100000000E-03 0.  1.
         23    2    1    0    0    0  0.15451207530E+02 -0.64643182029E+01  0.26394654007E+02  0.93829721944E+02  0.88469270010E+02 0.  0.
         11    1    3    3    0    0 -0.18570379171E+02 -0.14870393799E+02 -0.23116029074E+02  0.33171349003E+02  0.51100000000E-03 0. -1.
         22    1    1    0    0    0 -0.15451207530E+02  0.64643182029E+01 -0.26394654007E+02  0.31260278056E+02  0.00000000000E+00 0.  1.
</event>
<event>
 5    1  0.1046082E-009  0.9118800E+02  0.7561462E-02  0.1125453E+00
         25   -1    0    0    0    0  0.00000000000E+00  0.00000000000E+00  0.99999998245E-14  0.12509000000E+03  0.12509000000E+03 0.  0.
        -11    1    3    3    0    0 -0.30936999093E+02 -0.17762850428E+02 -0.20643867109E+02  0.41216331929E+02  0.51100000000E-03 0.  1.
         23    2    1    0    0    0 -0.13670302921E+02  0.21833678761E+02  0.13248358665E+02  0.96122678454E+02  0.91654042986E+02 0.  0.
         11    1    3    3    0    0  0.17266696172E+02  0.39596529189E+02  0.33892225775E+02  0.54906346525E+02  0.51100000000E-03 0. -1.
         22    1    1    0    0    0  0.13670302921E+02 -0.21833678761E+02 -0.13248358665E+02  0.28967321546E+02  0.00000000000E+00 0. -1.
</event>
<event>
 5    1  0.1046082E-009  0.9118800E+02  0.7561462E-02  0.1125453E+00
         25   -1    0    0    0    0  0.00000000000E+00  0.00000000000E+00  0.99999998245E-14  0.12509000000E+03  0.12509000000E+03 0.  0.
        -11    1    3    3    0    0  0.51736760862E+02 -0.22568430892E+02  0.64945995654E+01  0.56817306529E+02  0.51100000000E-03 0. -1.
         23    2    1    0    0    0  0.14436390280E+02 -0.25422310310E+02  0.95068954236E+01  0.94347776815E+02  0.89198759540E+02 0.  0.
         11    1    3    3    0    0 -0.37300370582E+02 -0.28538794172E+01  0.30122958581E+01  0.37530470286E+02  0.51100000000E-03 0.  1.
         22    1    1    0    0    0 -0.14436390280E+02  0.25422310310E+02 -0.95068954236E+01  0.30742223185E+02  0.00000000000E+00 0.  1.
</event>
<event>
 5    1  0.1046082E-009  0.9118800E+02  0.7561462E-02  0.1125453E+00
         25   -1    0    0    0    0  0.00000000000E+00  0.00000000000E+00  0.99999998245E-14  0.12509000000E+03  0.12509000000E+03 0.  0.
        -11    1    3    3    0    0  0.17594771817E+02  0.21395399166E-01  0.59747202295E+02  0.62284064057E+02  0.51100000000E-03 0. -1.
         23    2    1    0    0    0  0.41668487316E+01 -0.60431886249E+00  0.28222549471E+02  0.96555106829E+02  0.92242335868E+02 0.  0.
         11    1    3    3    0    0 -0.13427923085E+02 -0.62571426166E+00 -0.31524652824E+02  0.34271042772E+02  0.51100000000E-03 0.  1.
         22    1    1    0    0    0 -0.41668487316E+01  0.60431886249E+00 -0.28222549471E+02  0.28534893171E+02  0.00000000000E+00 0. -1.
</event>
<event>
 5    1  0.1046082E-009  0.9118800E+02  0.7561462E-02  0.1125453E+00
         25   -1    0    0    0    0  0.00000000000E+00  0.00000000000E+00  0.99999998245E-14  0.12509000000E+03  0.12509000000E+03 0.  0.
        -11    1    3    3    0    0 -0.27973695054E+02  0.43007414941E+02 -0.31671260234E+02  0.60292902401E+02  0.51100000000E-03 0.  1.
         23    2    1    0    0    0 -0.64039026852E+01  0.15570935487E+02 -0.23575837386E+02  0.96119599416E+02  0.91649840599E+02 0.  0.
         11    1    3    3    0    0  0.21569792369E+02 -0.27436479454E+02  0.80954228476E+01  0.35826697015E+02  0.51100000000E-03 0. -1.
         22    1    1    0    0    0  0.64039026852E+01 -0.15570935487E+02  0.23575837386E+02  0.28970400584E+02  0.00000000000E+00 0.  1.
</event>
<event>
 5    1  0.1046082E-009  0.9118800E+02  0.7561462E-02  0.1125453E+00
         25   -1    0    0    0    0  0.00000000000E+00  0.00000000000E+00  0.99999998245E-14  0.12509000000E+03  0.12509000000E+03 0.  0.
        -11    1    3    3    0    0  0.11007164866E+02 -0.17266366661E+02  0.56237698007E+02  0.59849509384E+02  0.51100000000E-03 0.  1.
         23    2    1    0    0    0  0.10285016071E+02 -0.18354525325E+02  0.20160276579E+02  0.95950560965E+02  0.91418834177E+02 0.  0.
         11    1    3    3    0    0 -0.72214879495E+00 -0.10881586646E+01 -0.36077421428E+02  0.36101051582E+02  0.51100000000E-03 0. -1.
         22    1    1    0    0    0 -0.10285016071E+02  0.18354525325E+02 -0.20160276579E+02  0.29139439035E+02  0.00000000000E+00 0.  1.
</event>
<event>
 5    1  0.1046082E-009  0.9118800E+02  0.7561462E-02  0.1125453E+00
         25   -1    0    0    0    0  0.00000000000E+00  0.00000000000E+00  0.99999998245E-14  0.12509000000E+03  0.12509000000E+03 0.  0.
        -11    1    3    3    0    0 -0.11715585049E+02  0.37459222898E+02 -0.40209644536E+01  0.39453979122E+02  0.51100000000E-03 0. -1.
         23    2    1    0    0    0 -0.13587222960E+02 -0.11323643594E+02  0.23640825001E+02  0.95564991300E+02  0.90889721220E+02 0.  0.
         11    1    3    3    0    0 -0.18716379105E+01 -0.48782866492E+02  0.27661789454E+02  0.56111012178E+02  0.51100000000E-03 0.  1.
         22    1    1    0    0    0  0.13587222960E+02  0.11323643594E+02 -0.23640825001E+02  0.29525008700E+02  0.00000000000E+00 0.  1.
</event>
<event>
 4    1  0.1046082E-009  0.9118800E+02  0.7561462E-02  0.1125453E+00
         25   -1    0    0    0    0  0.00000000000E+00  0.00000000000E+00  0.99999998245E-14  0.12509000000E+03  0.12509000000E+03 0.  0.
        -11    1    1    0    0    0  0.30119896062E+02 -0.10172953370E+02 -0.48123598216E+02  0.57676492825E+02  0.51100000000E-03 0. -1.
         11    1    1    0    0    0  0.30702207985E+01  0.90994631419E+01  0.84842798623E+00  0.96408669491E+01  0.51100000000E-03 0.  1.
         22    1    1    0    0    0 -0.33190116860E+02  0.10734902278E+01  0.47275170230E+02  0.57772640226E+02  0.00000000000E+00 0. -1.
</event>
<event>
 5    1  0.1046082E-009  0.9118800E+02  0.7561462E-02  0.1125453E+00
         25   -1    0    0    0    0  0.00000000000E+00  0.00000000000E+00  0.99999998245E-14  0.12509000000E+03  0.12509000000E+03 0.  0.
        -11    1    3    3    0    0 -0.95474733159E+01 -0.12242139233E+02 -0.45249063122E+02  0.47838289407E+02  0.51100000000E-03 0. -1.
         23    2    1    0    0    0 -0.15683087109E+02  0.19920980797E+02 -0.58443356048E+01  0.99071526643E+02  0.95593966523E+02 0.  0.
         11    1    3    3    0    0 -0.61356137929E+01  0.32163120030E+02  0.39404727517E+02  0.51233237236E+02  0.51100000000E-03 0.  1.
         22    1    1    0    0    0  0.15683087109E+02 -0.19920980797E+02  0.58443356048E+01  0.26018473357E+02  0.00000000000E+00 0. -1.
</event>
<event>
 5    1  0.1046082E-009  0.9118800E+02  0.7561462E-02  0.1125453E+00
         25   -1    0    0    0    0  0.00000000000E+00  0.00000000000E+00  0.99999998245E-14  0.12509000000E+03  0.12509000000E+03 0.  0.
        -11    1    3    3    0    0 -0.46166321186E+02  0.30894909941E+02 -0.15013389277E+02  0.57543257902E+02  0.51100000000E-03 0. -1.
         23    2    1    0    0    0 -0.20137705289E+02  0.16289893173E+01 -0.19556204206E+02  0.96971929237E+02  0.92805868115E+02 0.  0.
         11    1    3    3    0    0  0.26028615898E+02 -0.29265920624E+02 -0.45428149286E+01  0.39428671335E+02  0.51100000000E-03 0.  1.
         22    1    1    0    0    0  0.20137705289E+02 -0.16289893173E+01  0.19556204206E+02  0.28118070763E+02  0.00000000000E+00 0. -1.
</event>
<event>
 5    1  0.1046082E-009  0.9118800E+02  0.7561462E-02  0.1125453E+00
         25   -1    0    0    0    0  0.00000000000E+00  0.00000000000E+00  0.99999998245E-14  0.12509000000E+03  0.12509000000E+03 0.  0.
        -11    1    3    3    0    0  0.44196986558E+02 -0.99689272285E+01  0.19494107836E+02  0.49323152489E+02  0.51100000000E-03 0.  1.
         23    2    1    0    0    0  0.20153824749E+02  0.18955966488E+02 -0.84278122317E+01  0.96167113966E+02  0.91714668794E+02 0.  0.
         11    1    3    3    0    0 -0.24043161809E+02  0.28924893717E+02 -0.27921920068E+02  0.46843961477E+02  0.51100000000E-03 0. -1.
         22    1    1    0    0    0 -0.20153824749E+02 -0.18955966488E+02  0.84278122317E+01  0.28922886034E+02  0.00000000000E+00 0. -1.
</event>
<event>
 5    1  0.1046082E-009  0.9118800E+02  0.7561462E-02  0.1125453E+00
         25   -1    0    0    0    0  0.00000000000E+00  0.00000000000E+00  0.99999998245E-14  0.12509000000E+03  0.12509000000E+03 0.  0.
        -11    1    3    3    0    0  0.12439320176E+02  0.31229828893E+02  0.13969856551E+02  0.36403238749E+02  0.51100000000E-03 0. -1.
         23    2    1    0    0    0 -0.21559700221E+00 -0.26448890607E+02  0.13361201491E+02  0.95457045343E+02  0.90741035391E+02 0.  0.
         11    1    3    3    0    0 -0.12654917178E+02 -0.57678719500E+02 -0.60865505918E+00  0.59053806594E+02  0.51100000000E-03 0.  1.
         22    1    1    0    0    0  0.21559700221E+00  0.26448890607E+02 -0.13361201491E+02  0.29632954657E+02  0.00000000000E+00 0.  1.
</event>
<event>
 5    1  0.1046082E-009  0.9118800E+02  0.7561462E-02  0.1125453E+00
         25   -1    0    0    0    0  0.00000000000E+00  0.00000000000E+00  0.99999998245E-14  0.12509000000E+03  0.12509000000E+03 0.  0.
        -11    1    3    3    0    0 -0.23016893679E+02 -0.22092062621E+02  0.26960995029E+02  0.41769987775E+02  0.51100000000E-03 0. -1.
         23    2    1    0    0    0  0.72298016479E+01 -0.15630411148E+02 -0.20435658640E+02  0.98365555599E+02  0.94665656918E+02 0.  0.
         11    1    3    3    0    0  0.30246695327E+02  0.64616514730E+01 -0.47396653669E+02  0.56595567824E+02  0.51100000000E-03 0.  1.
         22    1    1    0    0    0 -0.72298016479E+01  0.15630411148E+02  0.20435658640E+02  0.26724444401E+02  0.00000000000E+00 0.  1.
</event>
<event>
 5    1  0.1046082E-009  0.9118800E+02  0.7561462E-02  0.1125453E+00
         25   -1    0    0    0    0  0.00000000000E+00  0.00000000000E+00  0.99999998245E-14  0.12509000000E+03  0.12509000000E+03 0.  0.
        -11    1    3    3    0    0 -0.55578143931E+02  0.20831573217E+02  0.18100609864E+01  0.59381485722E+02  0.51100000000E-03 0.  1.
         23    2    1    0    0    0 -0.23491581683E+02  0.22729525442E+02 -0.43657107744E+01  0.92112050286E+02  0.86006305819E+02 0.  0.
         11    1    3    3    0    0  0.32086562248E+02  0.18979522242E+01 -0.61757717608E+01  0.32730564564E+02  0.51100000000E-03 0. -1.
         22    1    1    0    0    0  0.23491581683E+02 -0.22729525442E+02  0.43657107744E+01  0.32977949714E+02  0.00000000000E+00 0.  1.
</event>
<event>
 5    1  0.1046082E-009  0.9118800E+02  0.7561462E-02  0.1125453E+00
         25   -1    0    0    0    0  0.00000000000E+00  0.00000000000E+00  0.99999998245E-14  0.12509000000E+03  0.12509000000E+03 0.  0.
        -11    1    3    3    0    0  0.19145444265E+01 -0.49599278049E+02  0.14046219253E+02  0.51585367489E+02  0.51100000000E-03 0.  1.
         23    2    1    0    0    0  0.26028745636E+02 -0.15223854889E+02  0.54007193918E+01  0.94456209392E+02  0.89350693146E+02 0.  0.
         11    1    3    3    0    0  0.24114201209E+02  0.34375423160E+02 -0.86454998614E+01  0.42870841904E+02  0.51100000000E-03 0. -1.
         22    1    1    0    0    0 -0.26028745636E+02  0.15223854889E+02 -0.54007193918E+01  0.30633790608E+02  0.00000000000E+00 0.  1.
</event>
<event>
 5    1  0.1046082E-009  0.9118800E+02  0.7561462E-02  0.1125453E+00
         25   -1    0    0    0    0  0.00000000000E+00  0.00000000000E+00  0.99999998245E-14  0.12509000000E+03  0.12509000000E+03 0.  0.
        -11    1    3    3    0    0  0.82466488735E+01 -0.45932817621E+02 -0.16176977278E+02  0.49391553391E+02  0.51100000000E-03 0. -1.
         23    2    1    0    0    0 -0.24420882303E+02 -0.13682127600E+02 -0.75095330496E+01  0.96107708946E+02  0.91633610231E+02 0.  0.
         11    1    3    3    0    0 -0.32667531177E+02  0.32250690022E+02  0.86674442280E+01  0.46716155555E+02  0.51100000000E-03 0.  1.
         22    1    1    0    0    0  0.24420882303E+02  0.13682127600E+02  0.75095330496E+01  0.28982291054E+02  0.00000000000E+00 0.  1.
</event>
<event>
 5    1  0.1046082E-009  0.9118800E+02  0.7561462E-02  0.1125453E+00
         25   -1    0    0    0    0  0.00000000000E+00  0.00000000000E+00  0.99999998245E-14  0.12509000000E+03  0.12509000000E+03 0.  0.
        -11    1    3    3    0    0  0.68143291840E+01 -0.22835557477E+02 -0.21622502356E+02  0.32178103982E+02  0.51100000000E-03 0. -1.
         23    2    1    0    0    0 -0.77285905521E+01  0.20128077179E+02  0.21412437008E+02  0.94703110368E+02  0.89695685804E+02 0.  0.
         11    1    3    3    0    0 -0.14542919736E+02  0.42963634656E+02  0.43034939364E+02  0.62525006386E+02  0.51100000000E-03 0.  1.
         22    1    1    0    0    0  0.77285905521E+01 -0.20128077179E+02 -0.21412437008E+02  0.30386889632E+02  0.00000000000E+00 0.  1.
</event>
<event>
 5    1  0.1046082E-009  0.9118800E+02  0.7561462E-02  0.1125453E+00
         25   -1    0    0    0    0  0.00000000000E+00  0.00000000000E+00  0.99999998245E-14  0.12509000000E+03  0.12509000000E+03 0.  0.
        -11    1    3    3    0    0  0.61581185026E+01 -0.23463196153E+01  0.55253531256E+02  0.55645128769E+02  0.51100000000E-03 0. -1.
         23    2    1    0    0    0 -0.17854638618E+02  0.13051834354E+00  0.25511080099E+02  0.93951272296E+02  0.88640967972E+02 0.  0.
         11    1    3    3    0    0 -0.24012757121E+02  0.24768379589E+01 -0.29742451157E+02  0.38306143527E+02  0.51100000000E-03 0.  1.
         22    1    1    0    0    0  0.17854638618E+02 -0.13051834354E+00 -0.25511080099E+02  0.31138727704E+02  0.00000000000E+00 0. -1.
</event>
<event>
 5    1  0.1046082E-009  0.9118800E+02  0.7561462E-02  0.1125453E+00
         25   -1    0    0    0    0  0.00000000000E+00  0.00000000000E+00  0.99999998245E-14  0.12509000000E+03  0.12509000000E+03 0.  0.
        -11    1    3    3    0    0 -0.50443778553E+02  0.31769545100E+02 -0.22919441451E+01  0.59658459574E+02  0.51100000000E-03 0.  1.
         23    2    1    0    0    0 -0.28608328128E+02  0.25729988096E+01  0.15846644685E+01  0.96322519703E+02  0.91926382934E+02 0.  0.
         11    1    3    3    0    0  0.21835450425E+02 -0.29196546291E+02  0.38766086136E+01  0.36664060129E+02  0.51100000000E-03 0. -1.
         22    1    1    0    0    0  0.28608328128E+02 -0.25729988096E+01 -0.15846644685E+01  0.28767480297E+02  0.00000000000E+00 0.  1.
</event>
<event>
 5    1  0.1046082E-009  0.9118800E+02  0.7561462E-02  0.1125453E+00
         25   -1    0    0    0    0  0.00000000000E+00  0.00000000000E+00  0.99999998245E-14  0.12509000000E+03  0.12509000000E+03 0.  0.
        -11    1    3    3    0    0 -0.19825834248E+02  0.14845085167E+02 -0.16675195462E+02  0.29858037464E+02  0.51100000000E-03 0.  1.
         23    2    1    0    0    0  0.25489889001E+02  0.95537117824E+01  0.22329353284E+02  0.89881934614E+02  0.82699179571E+02 0.  0.
         11    1    3    3    0    0  0.45315723249E+02 -0.52913733843E+01  0.39004548747E+02  0.60023897150E+02  0.51100000000E-03 0. -1.
         22    1    1    0    0    0 -0.25489889001E+02 -0.95537117824E+01 -0.22329353284E+02  0.35208065386E+02  0.00000000000E+00 0. -1.
</event>
<event>
 5    1  0.1046082E-009  0.9118800E+02  0.7561462E-02  0.1125453E+00
         25   -1    0    0    0    0  0.00000000000E+00  0.00000000000E+00  0.99999998245E-14  0.12509000000E+03  0.12509000000E+03 0.  0.
        -11    1    3    3    0    0 -0.97353086792E+01  0.27424949437E+02 -0.19856378029E+02  0.35230382277E+02  0.51100000000E-03 0. -1.
         23    2    1    0    0    0  0.38178266015E+01 -0.13916055720E+02  0.24051351538E+02  0.97041828623E+02  0.92900035441E+02 0.  0.
         11    1    3    3    0    0  0.13553135281E+02 -0.41341005157E+02  0.43907729567E+02  0.61811446346E+02  0.51100000000E-03 0.  1.
         22    1    1    0    0    0 -0.38178266015E+01  0.13916055720E+02 -0.24051351538E+02  0.28048171377E+02  0.00000000000E+00 0.  1.
</event>
<event>
 5    1  0.1046082E-009  0.9118800E+02  0.7561462E-02  0.1125453E+00
         25   -1    0    0    0    0  0.00000000000E+00  0.00000000000E+00  0.99999998245E-14  0.12509000000E+03  0.12509000000E+03 0.  0.
        -11    1    3    3    0    0  0.23806490879E+02  0.18688745543E+01  0.26883902062E+02  0.35958112999E+02  0.51100000000E-03 0.  1.
         23    2    1    0    0    0 -0.26838372120E+02 -0.96816112017E+01 -0.38277561322E+01  0.96303136147E+02  0.91900002727E+02 0.  0.
         11    1    3    3    0    0 -0.50644862999E+02 -0.11550485756E+02 -0.30711658195E+02  0.60345023148E+02  0.51100000000E-03 0. -1.
         22    1    1    0    0    0  0.26838372120E+02  0.96816112017E+01  0.38277561322E+01  0.28786863853E+02  0.00000000000E+00 0. -1.
</event>
<event>
 5    1  0.1046082E-009  0.9118800E+02  0.7561462E-02  0.1125453E+00
         25   -1    0    0    0    0  0.00000000000E+00  0.00000000000E+00  0.99999998245E-14  0.12509000000E+03  0.12509000000E+03 0.  0.
        -11    1    3    3    0    0  0.46980111492E+02  0.21773286235E+02 -0.34966131890E+02  0.62480695010E+02  0.51100000000E-03 0.  1.
         23    2    1    0    0    0  0.22795832344E+02  0.95164325737E+01 -0.14548118019E+02  0.96421895789E+02  0.92061510896E+02 0.  0.
         11    1    3    3    0    0 -0.24184279149E+02 -0.12256853662E+02  0.20418013871E+02  0.33941200779E+02  0.51100000000E-03 0. -1.
         22    1    1    0    0    0 -0.22795832344E+02 -0.95164325737E+01  0.14548118019E+02  0.28668104211E+02  0.00000000000E+00 0.  1.
</event>
<event>
 5    1  0.1046082E-009  0.9118800E+02  0.7561462E-02  0.1125453E+00
         25   -1    0    0    0    0  0.00000000000E+00  0.00000000000E+00  0.99999998245E-14  0.12509000000E+03  0.12509000000E+03 0.  0.
        -11    1    3    3    0    0 -0.25781057759E+02 -0.17792469685E+02  0.33183177632E+02  0.45632863099E+02  0.51100000000E-03 0.  1.
         23    2    1    0    0    0  0.20300437888E+02 -0.15634213581E+02  0.16112791889E+02  0.94821890128E+02  0.89861183902E+02 0.  0.
         11    1    3    3    0    0  0.46081495646E+02  0.21582561035E+01 -0.17070385743E+02  0.49189027029E+02  0.51100000000E-03 0. -1.
         22    1    1    0    0    0 -0.20300437888E+02  0.15634213581E+02 -0.16112791889E+02  0.30268109872E+02  0.00000000000E+00 0.  1.
</event>
<event>
 5    1  0.1046082E-009  0.9118800E+02  0.7561462E-02  0.1125453E+00
         25   -1    0    0    0    0  0.00000000000E+00  0.00000000000E+00  0.99999998245E-14  0.12509000000E+03  0.12509000000E+03 0.  0.
        -11    1    3    3    0    0 -0.36066115187E+02  0.21875551376E+02 -0.11394971058E+02  0.43693818537E+02  0.51100000000E-03 0.  1.
         23    2    1    0    0    0 -0.28334985826E+01  0.87510956721E+01  0.27252322066E+02  0.96327186375E+02  0.91932732948E+02 0.  0.
         11    1    3    3    0    0  0.33232616605E+02 -0.13124455704E+02  0.38647293123E+02  0.52633367838E+02  0.51100000000E-03 0. -1.
         22    1    1    0    0    0  0.28334985826E+01 -0.87510956721E+01 -0.27252322066E+02  0.28762813625E+02  0.00000000000E+00 0. -1.
</event>
<event>
 5    1  0.1046082E-009  0.9118800E+02  0.7561462E-02  0.1125453E+00
         25   -1    0    0    0    0  0.00000000000E+00  0.00000000000E+00  0.99999998245E-14  0.12509000000E+03  0.12509000000E+03 0.  0.
        -11    1    3    3    0    0  0.20840310229E+02 -0.12047222513E+02  0.41389012591E+02  0.47880105098E+02  0.51100000000E-03 0.  1.
         23    2    1    0    0    0 -0.87262330481E+01  0.19430367151E+02  0.19109413544E+02  0.96474340007E+02  0.92132742730E+02 0.  0.
         11    1    3    3    0    0 -0.29566543277E+02  0.31477589664E+02 -0.22279599047E+02  0.48594234909E+02  0.51100000000E-03 0. -1.
         22    1    1    0    0    0  0.87262330481E+01 -0.19430367151E+02 -0.19109413544E+02  0.28615659993E+02  0.00000000000E+00 0.  1.
</event>
<event>
 5    1  0.1046082E-009  0.9118800E+02  0.7561462E-02  0.1125453E+00
         25   -1    0    0    0    0  0.00000000000E+00  0.00000000000E+00  0.99999998245E-14  0.12509000000E+03  0.12509000000E+03 0.  0.
        -11    1    3    3    0    0  0.32755262086E+01  0.51178638632E+01 -0.41242144248E+02  0.41687360973E+02  0.51100000000E-03 0.  1.
         23    2    1    0    0    0 -0.26474512113E+02  0.88378490410E+00  0.62365416784E+01  0.97876486454E+02  0.94017186094E+02 0.  0.
         11    1    3    3    0    0 -0.29750038322E+02 -0.42340789591E+01  0.47478685926E+02  0.56189125481E+02  0.51100000000E-03 0. -1.
         22    1    1    0    0    0  0.26474512113E+02 -0.88378490410E+00 -0.62365416784E+01  0.27213513546E+02  0.00000000000E+00 0. -1.
</event>
<event>
 5    1  0.1046082E-009  0.9118800E+02  0.7561462E-02  0.1125453E+00
         25   -1    0    0    0    0  0.00000000000E+00  0.00000000000E+00  0.99999998245E-14  0.12509000000E+03  0.12509000000E+03 0.  0.
        -11    1    3    3    0    0  0.17433722351E+02  0.69268896805E+01  0.42260647737E+02  0.46237201722E+02  0.51100000000E-03 0. -1.
         23    2    1    0    0    0 -0.54854967606E+01  0.27969852953E+02  0.28566153598E+01  0.96444518677E+02  0.92092244965E+02 0.  0.
         11    1    3    3    0    0 -0.22919219112E+02  0.21042963272E+02 -0.39404032377E+02  0.50207316955E+02  0.51100000000E-03 0.  1.
         22    1    1    0    0    0  0.54854967606E+01 -0.27969852953E+02 -0.28566153598E+01  0.28645481323E+02  0.00000000000E+00 0.  1.
</event>
<event>
 5    1  0.1046082E-009  0.9118800E+02  0.7561462E-02  0.1125453E+00
         25   -1    0    0    0    0  0.00000000000E+00  0.00000000000E+00  0.99999998245E-14  0.12509000000E+03  0.12509000000E+03 0.  0.
        -11    1    3    3    0    0  0.14724464515E+02  0.17655636538E+02  0.39312741802E+02  0.45541442940E+02  0.51100000000E-03 0. -1.
         23    2    1    0    0    0 -0.25862735297E+02  0.32153219918E+01  0.15600090813E+02  0.94715961646E+02  0.89713606463E+02 0.  0.
         11    1    3    3    0    0 -0.40587199812E+02 -0.14440314546E+02 -0.23712650988E+02  0.49174518706E+02  0.51100000000E-03 0.  1.
         22    1    1    0    0    0  0.25862735297E+02 -0.32153219918E+01 -0.15600090813E+02  0.30374038354E+02  0.00000000000E+00 0.  1.
</event>
<event>
 5    1  0.1046082E-009  0.9118800E+02  0.7561462E-02  0.1125453E+00
         25   -1    0    0    0    0  0.00000000000E+00  0.00000000000E+00  0.99999998245E-14  0.12509000000E+03  0.12509000000E+03 0.  0.
        -11    1    3    3    0    0 -0.27668230382E+02 -0.25767575577E+02  0.22597080918E+02  0.44046872646E+02  0.51100000000E-03 0.  1.
         23    2    1    0    0    0  0.21876280211E+02 -0.10180130002E+02  0.15358949892E+02  0.96487482200E+02  0.92150584354E+02 0.  0.
         11    1    3    3    0    0  0.49544510593E+02  0.15587445575E+02 -0.72381310260E+01  0.52440609555E+02  0.51100000000E-03 0. -1.
         22    1    1    0    0    0 -0.21876280211E+02  0.10180130002E+02 -0.15358949892E+02  0.28602517800E+02  0.00000000000E+00 0. -1.
</event>
<event>
 5    1  0.1046082E-009  0.9118800E+02  0.7561462E-02  0.1125453E+00
         25   -1    0    0    0    0  0.00000000000E+00  0.00000000000E+00  0.99999998245E-14  0.12509000000E+03  0.12509000000E+03 0.  0.
        -11    1    3    3    0    0  0.10493444269E+02 -0.18485707638E+02  0.32764120723E+02  0.39055362840E+02  0.51100000000E-03 0. -1.
         23    2    1    0    0    0  0.26301811555E+02  0.92624665827E+01 -0.12565287655E+02  0.94504627154E+02  0.89418451795E+02 0.  0.
         11    1    3    3    0    0  0.15808367286E+02  0.27748174221E+02 -0.45329408379E+02  0.55449264315E+02  0.51100000000E-03 0.  1.
         22    1    1    0    0    0 -0.26301811555E+02 -0.92624665827E+01  0.12565287655E+02  0.30585372846E+02  0.00000000000E+00 0.  1.
</event>
<event>
 5    1  0.1046082E-009  0.9118800E+02  0.7561462E-02  0.1125453E+00
         25   -1    0    0    0    0  0.00000000000E+00  0.00000000000E+00  0.99999998245E-14  0.12509000000E+03  0.12509000000E+03 0.  0.
        -11    1    3    3    0    0  0.61130422302E+01  0.35240766456E+02 -0.23189698866E+02  0.42626787816E+02  0.51100000000E-03 0. -1.
         23    2    1    0    0    0 -0.57175393261E+01 -0.15929370423E+02 -0.24675997242E+02  0.95167768501E+02  0.90341376033E+02 0.  0.
         11    1    3    3    0    0 -0.11830581556E+02 -0.51170136879E+02 -0.14862983757E+01  0.52540980685E+02  0.51100000000E-03 0.  1.
         22    1    1    0    0    0  0.57175393261E+01  0.15929370423E+02  0.24675997242E+02  0.29922231499E+02  0.00000000000E+00 0.  1.
</event>
<event>
 5    1  0.1046082E-009  0.9118800E+02  0.7561462E-02  0.1125453E+00
         25   -1    0    0    0    0  0.00000000000E+00  0.00000000000E+00  0.99999998245E-14  0.12509000000E+03  0.12509000000E+03 0.  0.
        -11    1    3    3    0    0  0.44597471719E+02 -0.32562447247E+02  0.26520146718E+02  0.61258188323E+02  0.51100000000E-03 0.  1.
         23    2    1    0    0    0  0.20591527682E+02 -0.14462653320E+02  0.23808411336E+01  0.99814562163E+02  0.96561374586E+02 0.  0.
         11    1    3    3    0    0 -0.24005944037E+02  0.18099793926E+02 -0.24139305585E+02  0.38556373840E+02  0.51100000000E-03 0. -1.
         22    1    1    0    0    0 -0.20591527682E+02  0.14462653320E+02 -0.23808411336E+01  0.25275437837E+02  0.00000000000E+00 0.  1.
</event>
<event>
 5    1  0.1046082E-009  0.9118800E+02  0.7561462E-02  0.1125453E+00
         25   -1    0    0    0    0  0.00000000000E+00  0.00000000000E+00  0.99999998245E-14  0.12509000000E+03  0.12509000000E+03 0.  0.
        -11    1    3    3    0    0 -0.58951483620E+01  0.54460149041E+02 -0.59530718169E+01  0.55100813715E+02  0.51100000000E-03 0.  1.
         23    2    1    0    0    0  0.18457657057E+02  0.18554903182E+02 -0.46703811752E+01  0.98504628150E+02  0.94849247601E+02 0.  0.
         11    1    3    3    0    0  0.24352805419E+02 -0.35905245859E+02  0.12826906416E+01  0.43403814435E+02  0.51100000000E-03 0. -1.
         22    1    1    0    0    0 -0.18457657057E+02 -0.18554903182E+02  0.46703811752E+01  0.26585371850E+02  0.00000000000E+00 0.  1.
</event>
<event>
 5    1  0.1046082E-009  0.9118800E+02  0.7561462E-02  0.1125453E+00
         25   -1    0    0    0    0  0.00000000000E+00  0.00000000000E+00  0.99999998245E-14  0.12509000000E+03  0.12509000000E+03 0.  0.
        -11    1    3    3    0    0 -0.27708960848E+02  0.26230722443E+02  0.21914062422E+02  0.44000720940E+02  0.51100000000E-03 0.  1.
         23    2    1    0    0    0 -0.22878192685E+02 -0.16791107788E+02 -0.67465766297E+01  0.95920336007E+02  0.91377467475E+02 0.  0.
         11    1    3    3    0    0  0.48307681632E+01 -0.43021830231E+02 -0.28660639052E+02  0.51919615066E+02  0.51100000000E-03 0. -1.
         22    1    1    0    0    0  0.22878192685E+02  0.16791107788E+02  0.67465766297E+01  0.29169663993E+02  0.00000000000E+00 0. -1.
</event>
<event>
 5    1  0.1046082E-009  0.9118800E+02  0.7561462E-02  0.1125453E+00
         25   -1    0    0    0    0  0.00000000000E+00  0.00000000000E+00  0.99999998245E-14  0.12509000000E+03  0.12509000000E+03 0.  0.
        -11    1    3    3    0    0 -0.72988805381E+01  0.12718431307E+02 -0.32504598589E+02  0.35659235574E+02  0.51100000000E-03 0. -1.
         23    2    1    0    0    0  0.15085130394E+02 -0.19628431700E+02  0.14064134455E+02  0.96618323408E+02  0.92328024186E+02 0.  0.
         11    1    3    3    0    0  0.22384010932E+02 -0.32346863007E+02  0.46568733045E+02  0.60959087833E+02  0.51100000000E-03 0.  1.
         22    1    1    0    0    0 -0.15085130394E+02  0.19628431700E+02 -0.14064134455E+02  0.28471676592E+02  0.00000000000E+00 0.  1.
</event>
<event>
 5    1  0.1046082E-009  0.9118800E+02  0.7561462E-02  0.1125453E+00
         25   -1    0    0    0    0  0.00000000000E+00  0.00000000000E+00  0.99999998245E-14  0.12509000000E+03  0.12509000000E+03 0.  0.
        -11    1    3    3    0    0  0.26173698600E+02  0.27998880200E+02 -0.47992606868E+02  0.61418971866E+02  0.51100000000E-03 0.  1.
         23    2    1    0    0    0  0.14324504659E+02  0.19268150903E+02 -0.17177969856E+02  0.95568216156E+02  0.90894159426E+02 0.  0.
         11    1    3    3    0    0 -0.11849193941E+02 -0.87307292973E+01  0.30814637012E+02  0.34149244289E+02  0.51100000000E-03 0. -1.
         22    1    1    0    0    0 -0.14324504659E+02 -0.19268150903E+02  0.17177969856E+02  0.29521783844E+02  0.00000000000E+00 0.  1.
</event>
<event>
 5    1  0.1046082E-009  0.9118800E+02  0.7561462E-02  0.1125453E+00
         25   -1    0    0    0    0  0.00000000000E+00  0.00000000000E+00  0.99999998245E-14  0.12509000000E+03  0.12509000000E+03 0.  0.
        -11    1    3    3    0    0 -0.17760479464E+01  0.35138904391E+02 -0.82427829391E+01  0.36136414030E+02  0.51100000000E-03 0. -1.
         23    2    1    0    0    0 -0.11736800267E+02 -0.78341932665E+01  0.28331369336E+02  0.93438877538E+02  0.87914903642E+02 0.  0.
         11    1    3    3    0    0 -0.99607523209E+01 -0.42973097658E+02  0.36574152275E+02  0.57302463507E+02  0.51100000000E-03 0.  1.
         22    1    1    0    0    0  0.11736800267E+02  0.78341932665E+01 -0.28331369336E+02  0.31651122462E+02  0.00000000000E+00 0.  1.
</event>
<event>
 5    1  0.1046082E-009  0.9118800E+02  0.7561462E-02  0.1125453E+00
         25   -1    0    0    0    0  0.00000000000E+00  0.00000000000E+00  0.99999998245E-14  0.12509000000E+03  0.12509000000E+03 0.  0.
        -11    1    3    3    0    0  0.47513743837E+02 -0.22734108315E+02  0.27509866557E+02  0.59423802407E+02  0.51100000000E-03 0.  1.
         23    2    1    0    0    0  0.27911366080E+02  0.17494963037E+01  0.97136845851E+01  0.95484919997E+02  0.90779453539E+02 0.  0.
         11    1    3    3    0    0 -0.19602377757E+02  0.24483604618E+02 -0.17796181972E+02  0.36061117590E+02  0.51100000000E-03 0. -1.
         22    1    1    0    0    0 -0.27911366080E+02 -0.17494963037E+01 -0.97136845851E+01  0.29605080003E+02  0.00000000000E+00 0.  1.
</event>
<event>
 5    1  0.1046082E-009  0.9118800E+02  0.7561462E-02  0.1125453E+00
         25   -1    0    0    0    0  0.00000000000E+00  0.00000000000E+00  0.99999998245E-14  0.12509000000E+03  0.12509000000E+03 0.  0.
        -11    1    3    3    0    0  0.43021455729E+02  0.35810751400E+02  0.26574830113E+02  0.61963514787E+02  0.51100000000E-03 0.  1.
         23    2    1    0    0    0  0.16676878972E+02  0.19445701257E+02  0.16693804966E+02  0.94513265153E+02  0.89430534920E+02 0.  0.
         11    1    3    3    0    0 -0.26344576757E+02 -0.16365050143E+02 -0.98810251474E+01  0.32549750366E+02  0.51100000000E-03 0. -1.
         22    1    1    0    0    0 -0.16676878972E+02 -0.19445701257E+02 -0.16693804966E+02  0.30576734847E+02  0.00000000000E+00 0.  1.
</event>
<event>
 5    1  0.1046082E-009  0.9118800E+02  0.7561462E-02  0.1125453E+00
         25   -1    0    0    0    0  0.00000000000E+00  0.00000000000E+00  0.99999998245E-14  0.12509000000E+03  0.12509000000E+03 0.  0.
        -11    1    3    3    0    0 -0.42529141377E+02  0.13671380492E+02 -0.16848983986E+01  0.44704288314E+02  0.51100000000E-03 0. -1.
         23    2    1    0    0    0 -0.92957887882E+01 -0.24680394631E+02 -0.11374651489E+02  0.96368644447E+02  0.91989126356E+02 0.  0.
         11    1    3    3    0    0  0.33233352589E+02 -0.38351775123E+02 -0.96897530903E+01  0.51664356132E+02  0.51100000000E-03 0.  1.
         22    1    1    0    0    0  0.92957887882E+01  0.24680394631E+02  0.11374651489E+02  0.28721355553E+02  0.00000000000E+00 0.  1.
</event>
<event>
 5    1  0.1046082E-009  0.9118800E+02  0.7561462E-02  0.1125453E+00
         25   -1    0    0    0    0  0.00000000000E+00  0.00000000000E+00  0.99999998245E-14  0.12509000000E+03  0.12509000000E+03 0.  0.
        -11    1    3    3    0    0  0.60635791064E+01  0.45874605012E+02 -0.34045451803E+02  0.57448578445E+02  0.51100000000E-03 0.  1.
         23    2    1    0    0    0  0.56265832045E+01  0.81157657876E+01 -0.27626330269E+02  0.95751659607E+02  0.91146267616E+02 0.  0.
         11    1    3    3    0    0 -0.43699590190E+00 -0.37758839224E+02  0.64191215340E+01  0.38303081162E+02  0.51100000000E-03 0. -1.
         22    1    1    0    0    0 -0.56265832045E+01 -0.81157657876E+01  0.27626330269E+02  0.29338340393E+02  0.00000000000E+00 0.  1.
</event>
<event>
 5    1  0.1046082E-009  0.9118800E+02  0.7561462E-02  0.1125453E+00
         25   -1    0    0    0    0  0.00000000000E+00  0.00000000000E+00  0.99999998245E-14  0.12509000000E+03  0.12509000000E+03 0.  0.
        -11    1    3    3    0    0 -0.25069717063E+02  0.15429939326E+02 -0.19657518418E+02  0.35397623816E+02  0.51100000000E-03 0. -1.
         23    2    1    0    0    0  0.67527053058E+01  0.29568644634E+01  0.29171985638E+02  0.95001018254E+02  0.90110191693E+02 0.  0.
         11    1    3    3    0    0  0.31822422369E+02 -0.12473074863E+02  0.48829504056E+02  0.59603394438E+02  0.51100000000E-03 0.  1.
         22    1    1    0    0    0 -0.67527053058E+01 -0.29568644634E+01 -0.29171985638E+02  0.30088981746E+02  0.00000000000E+00 0.  1.
</event>
<event>
 5    1  0.1046082E-009  0.9118800E+02  0.7561462E-02  0.1125453E+00
         25   -1    0    0    0    0  0.00000000000E+00  0.00000000000E+00  0.99999998245E-14  0.12509000000E+03  0.12509000000E+03 0.  0.
        -11    1    3    3    0    0  0.32832300582E+02  0.11400620424E+02 -0.61815332013E+01  0.35300785551E+02  0.51100000000E-03 0. -1.
         23    2    1    0    0    0 -0.23847584471E+02 -0.29002390979E+01  0.14170779744E+02  0.97198609384E+02  0.93110901594E+02 0.  0.
         11    1    3    3    0    0 -0.56679885053E+02 -0.14300859522E+02  0.20352312946E+02  0.61897823833E+02  0.51100000000E-03 0.  1.
         22    1    1    0    0    0  0.23847584471E+02  0.29002390979E+01 -0.14170779744E+02  0.27891390616E+02  0.00000000000E+00 0.  1.
</event>
<event>
 5    1  0.1046082E-009  0.9118800E+02  0.7561462E-02  0.1125453E+00
         25   -1    0    0    0    0  0.00000000000E+00  0.00000000000E+00  0.99999998245E-14  0.12509000000E+03  0.12509000000E+03 0.  0.
        -11    1    3    3    0    0  0.17626870855E+02 -0.28190701411E+01 -0.54631682967E+02  0.57474120408E+02  0.51100000000E-03 0. -1.
         23    2    1    0    0    0  0.22268105751E+02 -0.82147035019E+01 -0.16697783230E+02  0.96069906062E+02  0.91581990580E+02 0.  0.
         11    1    3    3    0    0  0.46412348965E+01 -0.53956333608E+01  0.37933899737E+02  0.38595785654E+02  0.51100000000E-03 0.  1.
         22    1    1    0    0    0 -0.22268105751E+02  0.82147035019E+01  0.16697783230E+02  0.29020093938E+02  0.00000000000E+00 0. -1.
</event>
<event>
 5    1  0.1046082E-009  0.9118800E+02  0.7561462E-02  0.1125453E+00
         25   -1    0    0    0    0  0.00000000000E+00  0.00000000000E+00  0.99999998245E-14  0.12509000000E+03  0.12509000000E+03 0.  0.
        -11    1    3    3    0    0  0.55036957808E+01 -0.10245543981E+02 -0.58109665196E+02  0.59262087613E+02  0.51100000000E-03 0. -1.
         23    2    1    0    0    0  0.16509571161E+02 -0.21685861389E+01 -0.25260187562E+02  0.94835318025E+02  0.89879874073E+02 0.  0.
         11    1    3    3    0    0  0.11005875380E+02  0.80769578423E+01  0.32849477634E+02  0.35573230412E+02  0.51100000000E-03 0.  1.
         22    1    1    0    0    0 -0.16509571161E+02  0.21685861389E+01  0.25260187562E+02  0.30254681975E+02  0.00000000000E+00 0. -1.
</event>
<event>
 5    1  0.1046082E-009  0.9118800E+02  0.7561462E-02  0.1125453E+00
         25   -1    0    0    0    0  0.00000000000E+00  0.00000000000E+00  0.99999998245E-14  0.12509000000E+03  0.12509000000E+03 0.  0.
        -11    1    3    3    0    0 -0.15426574412E+02 -0.58399752954E+02 -0.41944541412E+01  0.60548359094E+02  0.51100000000E-03 0. -1.
         23    2    1    0    0    0 -0.99498257881E+01 -0.23333791063E+02 -0.12216777065E+02  0.96934814324E+02  0.92755828645E+02 0.  0.
         11    1    3    3    0    0  0.54767486240E+01  0.35065961891E+02 -0.80223229234E+01  0.36386455230E+02  0.51100000000E-03 0.  1.
         22    1    1    0    0    0  0.99498257881E+01  0.23333791063E+02  0.12216777065E+02  0.28155185676E+02  0.00000000000E+00 0. -1.
</event>
<event>
 5    1  0.1046082E-009  0.9118800E+02  0.7561462E-02  0.1125453E+00
         25   -1    0    0    0    0  0.00000000000E+00  0.00000000000E+00  0.99999998245E-14  0.12509000000E+03  0.12509000000E+03 0.  0.
        -11    1    3    3    0    0  0.28621977143E+02  0.15955111917E+02 -0.24178746477E+02  0.40723395651E+02  0.51100000000E-03 0.  1.
         23    2    1    0    0    0 -0.24842952048E+02  0.87378753919E+01 -0.33991093602E+01  0.98536720028E+02  0.94891561883E+02 0.  0.
         11    1    3    3    0    0 -0.53464929192E+02 -0.72172365255E+01  0.20779637117E+02  0.57813324377E+02  0.51100000000E-03 0. -1.
         22    1    1    0    0    0  0.24842952048E+02 -0.87378753919E+01  0.33991093602E+01  0.26553279972E+02  0.00000000000E+00 0. -1.
</event>
<event>
 5    1  0.1046082E-009  0.9118800E+02  0.7561462E-02  0.1125453E+00
         25   -1    0    0    0    0  0.00000000000E+00  0.00000000000E+00  0.99999998245E-14  0.12509000000E+03  0.12509000000E+03 0.  0.
        -11    1    3    3    0    0 -0.43093961238E+02 -0.30346721519E+02 -0.29883402458E+02  0.60589031556E+02  0.51100000000E-03 0. -1.
         23    2    1    0    0    0 -0.18422882548E+02 -0.25230383701E+02 -0.11413018949E+02  0.91829935890E+02  0.85595007220E+02 0.  0.
         11    1    3    3    0    0  0.24671078690E+02  0.51163378179E+01  0.18470383509E+02  0.31240904335E+02  0.51100000000E-03 0.  1.
         22    1    1    0    0    0  0.18422882548E+02  0.25230383701E+02  0.11413018949E+02  0.33260064110E+02  0.00000000000E+00 0. -1.
</event>
<event>
 5    1  0.1046082E-009  0.9118800E+02  0.7561462E-02  0.1125453E+00
         25   -1    0    0    0    0  0.00000000000E+00  0.00000000000E+00  0.99999998245E-14  0.12509000000E+03  0.12509000000E+03 0.  0.
        -11    1    3    3    0    0  0.52367533824E+02 -0.21383380161E+02  0.28126287322E+01  0.56634957637E+02  0.51100000000E-03 0. -1.
         23    2    1    0    0    0  0.22539866021E+02  0.49015386404E+01  0.14215839911E+02  0.97994599178E+02  0.94174204124E+02 0.  0.
         11    1    3    3    0    0 -0.29827667803E+02  0.26284918801E+02  0.11403211179E+02  0.41359641541E+02  0.51100000000E-03 0.  1.
         22    1    1    0    0    0 -0.22539866021E+02 -0.49015386404E+01 -0.14215839911E+02  0.27095400822E+02  0.00000000000E+00 0. -1.
</event>
<event>
 5    1  0.1046082E-009  0.9118800E+02  0.7561462E-02  0.1125453E+00
         25   -1    0    0    0    0  0.00000000000E+00  0.00000000000E+00  0.99999998245E-14  0.12509000000E+03  0.12509000000E+03 0.  0.
        -11    1    3    3    0    0 -0.31506322619E+01 -0.24583031359E+02  0.24668952097E+02  0.34968687598E+02  0.51100000000E-03 0.  1.
         23    2    1    0    0    0  0.16244260265E+02  0.11026162465E+02 -0.21203221565E+02  0.96193134167E+02  0.91750150985E+02 0.  0.
         11    1    3    3    0    0  0.19394892527E+02  0.35609193824E+02 -0.45872173662E+02  0.61224446569E+02  0.51100000000E-03 0. -1.
         22    1    1    0    0    0 -0.16244260265E+02 -0.11026162465E+02  0.21203221565E+02  0.28896865833E+02  0.00000000000E+00 0. -1.
</event>
<event>
 5    1  0.1046082E-009  0.9118800E+02  0.7561462E-02  0.1125453E+00
         25   -1    0    0    0    0  0.00000000000E+00  0.00000000000E+00  0.99999998245E-14  0.12509000000E+03  0.12509000000E+03 0.  0.
        -11    1    3    3    0    0 -0.31830595025E+02 -0.16864607420E+02 -0.75763980631E+01  0.36810373143E+02  0.51100000000E-03 0. -1.
         23    2    1    0    0    0  0.18310951703E+02 -0.11083939776E+02  0.21244136246E+02  0.94932778675E+02  0.90015412396E+02 0.  0.
         11    1    3    3    0    0  0.50141546728E+02  0.57806676435E+01  0.28820534309E+02  0.58122405532E+02  0.51100000000E-03 0.  1.
         22    1    1    0    0    0 -0.18310951703E+02  0.11083939776E+02 -0.21244136246E+02  0.30157221325E+02  0.00000000000E+00 0.  1.
</event>
<event>
 5    1  0.1046082E-009  0.9118800E+02  0.7561462E-02  0.1125453E+00
         25   -1    0    0    0    0  0.00000000000E+00  0.00000000000E+00  0.99999998245E-14  0.12509000000E+03  0.12509000000E+03 0.  0.
        -11    1    3    3    0    0 -0.45406065334E+02 -0.19725496338E+02 -0.70107864322E+01  0.49999571014E+02  0.51100000000E-03 0. -1.
         23    2    1    0    0    0 -0.83971647351E+01 -0.15752835694E+01 -0.27687131036E+02  0.96114646353E+02  0.91643080070E+02 0.  0.
         11    1    3    3    0    0  0.37008900599E+02  0.18150212768E+02 -0.20676344604E+02  0.46115075339E+02  0.51100000000E-03 0.  1.
         22    1    1    0    0    0  0.83971647351E+01  0.15752835694E+01  0.27687131036E+02  0.28975353647E+02  0.00000000000E+00 0. -1.
</event>
<event>
 5    1  0.1046082E-009  0.9118800E+02  0.7561462E-02  0.1125453E+00
         25   -1    0    0    0    0  0.00000000000E+00  0.00000000000E+00  0.99999998245E-14  0.12509000000E+03  0.12509000000E+03 0.  0.
        -11    1    3    3    0    0  0.44899813050E+02  0.10557025988E+02 -0.16688818904E+02  0.49050593129E+02  0.51100000000E-03 0.  1.
         23    2    1    0    0    0  0.20419013935E+01  0.36016111922E+00 -0.29958409345E+02  0.95059925611E+02  0.90191929181E+02 0.  0.
         11    1    3    3    0    0 -0.42857911656E+02 -0.10196864869E+02 -0.13269590441E+02  0.46009332482E+02  0.51100000000E-03 0. -1.
         22    1    1    0    0    0 -0.20419013935E+01 -0.36016111922E+00  0.29958409345E+02  0.30030074389E+02  0.00000000000E+00 0. -1.
</event>
<event>
 4    1  0.1046082E-009  0.9118800E+02  0.7561462E-02  0.1125453E+00
         25   -1    0    0    0    0  0.00000000000E+00  0.00000000000E+00  0.99999998245E-14  0.12509000000E+03  0.12509000000E+03 0.  0.
        -11    1    1    0    0    0 -0.11773120766E+02  0.34503937827E+02 -0.14151848792E+02  0.39107581396E+02  0.51100000000E-03 0.  1.
         11    1    1    0    0    0 -0.15884118324E+02  0.16826335554E+02  0.15165870384E+02  0.27666485282E+02  0.51100000000E-03 0. -1.
         22    1    1    0    0    0  0.27657239091E+02 -0.51330273381E+02 -0.10140215918E+01  0.58315933322E+02  0.00000000000E+00 0. -1.
</event>
<event>
 5    1  0.1046082E-009  0.9118800E+02  0.7561462E-02  0.1125453E+00
         25   -1    0    0    0    0  0.00000000000E+00  0.00000000000E+00  0.99999998245E-14  0.12509000000E+03  0.12509000000E+03 0.  0.
        -11    1    3    3    0    0  0.63222769105E+01  0.22051876619E+02 -0.44690027049E+02  0.50234002087E+02  0.51100000000E-03 0.  1.
         23    2    1    0    0    0  0.20629840692E+02 -0.11154950938E+02 -0.22078583475E+02  0.92879953342E+02  0.87116006722E+02 0.  0.
         11    1    3    3    0    0  0.14307563782E+02 -0.33206827557E+02  0.22611443574E+02  0.42645951256E+02  0.51100000000E-03 0. -1.
         22    1    1    0    0    0 -0.20629840692E+02  0.11154950938E+02  0.22078583475E+02  0.32210046658E+02  0.00000000000E+00 0. -1.
</event>
<event>
 5    1  0.1046082E-009  0.9118800E+02  0.7561462E-02  0.1125453E+00
         25   -1    0    0    0    0  0.00000000000E+00  0.00000000000E+00  0.99999998245E-14  0.12509000000E+03  0.12509000000E+03 0.  0.
        -11    1    3    3    0    0  0.19490092189E+02 -0.12650797115E+02  0.57777687204E+02  0.62274934766E+02  0.51100000000E-03 0.  1.
         23    2    1    0    0    0  0.10349805140E+02 -0.18953879360E+01  0.25579629232E+02  0.97430853348E+02  0.93422389129E+02 0.  0.
         11    1    3    3    0    0 -0.91402870487E+01  0.10755409179E+02 -0.32198057972E+02  0.35155918582E+02  0.51100000000E-03 0. -1.
         22    1    1    0    0    0 -0.10349805140E+02  0.18953879360E+01 -0.25579629232E+02  0.27659146652E+02  0.00000000000E+00 0.  1.
</event>
<event>
 5    1  0.1046082E-009  0.9118800E+02  0.7561462E-02  0.1125453E+00
         25   -1    0    0    0    0  0.00000000000E+00  0.00000000000E+00  0.99999998245E-14  0.12509000000E+03  0.12509000000E+03 0.  0.
        -11    1    3    3    0    0 -0.35923939232E+02 -0.29513909061E+01 -0.22012011191E+02  0.42234686635E+02  0.51100000000E-03 0. -1.
         23    2    1    0    0    0  0.82653198267E+01  0.25837390403E+02 -0.68302169498E+01  0.97116117211E+02  0.93000011311E+02 0.  0.
         11    1    3    3    0    0  0.44189259059E+02  0.28788781310E+02  0.15181794241E+02  0.54881430576E+02  0.51100000000E-03 0.  1.
         22    1    1    0    0    0 -0.82653198267E+01 -0.25837390403E+02  0.68302169498E+01  0.27973882789E+02  0.00000000000E+00 0.  1.
</event>
<event>
 5    1  0.1046082E-009  0.9118800E+02  0.7561462E-02  0.1125453E+00
         25   -1    0    0    0    0  0.00000000000E+00  0.00000000000E+00  0.99999998245E-14  0.12509000000E+03  0.12509000000E+03 0.  0.
        -11    1    3    3    0    0 -0.31154903418E+02 -0.16616769468E+02 -0.10868098204E+02  0.36944019724E+02  0.51100000000E-03 0. -1.
         23    2    1    0    0    0  0.16958498732E+02 -0.15747125716E+02  0.20323867890E+02  0.94290288093E+02  0.89118102398E+02 0.  0.
         11    1    3    3    0    0  0.48113402151E+02  0.86964375237E+00  0.31191966093E+02  0.57346268368E+02  0.51100000000E-03 0.  1.
         22    1    1    0    0    0 -0.16958498732E+02  0.15747125716E+02 -0.20323867890E+02  0.30799711907E+02  0.00000000000E+00 0.  1.
</event>
<event>
 5    1  0.1046082E-009  0.9118800E+02  0.7561462E-02  0.1125453E+00
         25   -1    0    0    0    0  0.00000000000E+00  0.00000000000E+00  0.99999998245E-14  0.12509000000E+03  0.12509000000E+03 0.  0.
        -11    1    3    3    0    0  0.22435661837E+01 -0.22527356841E+02  0.30966654872E+02  0.38359472229E+02  0.51100000000E-03 0.  1.
         23    2    1    0    0    0  0.25892966905E+02  0.15951908027E+01 -0.14784420988E+02  0.95230839382E+02  0.90428664132E+02 0.  0.
         11    1    3    3    0    0  0.23649400722E+02  0.24122547644E+02 -0.45751075860E+02  0.56871367153E+02  0.51100000000E-03 0. -1.
         22    1    1    0    0    0 -0.25892966905E+02 -0.15951908027E+01  0.14784420988E+02  0.29859160618E+02  0.00000000000E+00 0. -1.
</event>
<event>
 5    1  0.1046082E-009  0.9118800E+02  0.7561462E-02  0.1125453E+00
         25   -1    0    0    0    0  0.00000000000E+00  0.00000000000E+00  0.99999998245E-14  0.12509000000E+03  0.12509000000E+03 0.  0.
        -11    1    3    3    0    0  0.37972046254E+02 -0.38564034141E+00 -0.16177325980E+01  0.38008447406E+02  0.51100000000E-03 0. -1.
         23    2    1    0    0    0 -0.12016555770E+02 -0.20177904594E+02  0.18272354649E+02  0.95333918424E+02  0.90571141161E+02 0.  0.
         11    1    3    3    0    0 -0.49988602023E+02 -0.19792264253E+02  0.19890087247E+02  0.57325471018E+02  0.51100000000E-03 0.  1.
         22    1    1    0    0    0  0.12016555770E+02  0.20177904594E+02 -0.18272354649E+02  0.29756081576E+02  0.00000000000E+00 0.  1.
</event>
<event>
 5    1  0.1046082E-009  0.9118800E+02  0.7561462E-02  0.1125453E+00
         25   -1    0    0    0    0  0.00000000000E+00  0.00000000000E+00  0.99999998245E-14  0.12509000000E+03  0.12509000000E+03 0.  0.
        -11    1    3    3    0    0  0.40593651998E+02  0.35742515922E+01  0.46807207155E+02  0.62060732342E+02  0.51100000000E-03 0. -1.
         23    2    1    0    0    0  0.17937145574E+02 -0.36424447572E+01  0.22825421118E+02  0.95832378012E+02  0.91256979082E+02 0.  0.
         11    1    3    3    0    0 -0.22656506423E+02 -0.72166963494E+01 -0.23981786037E+02  0.33771645670E+02  0.51100000000E-03 0.  1.
         22    1    1    0    0    0 -0.17937145574E+02  0.36424447572E+01 -0.22825421118E+02  0.29257621988E+02  0.00000000000E+00 0. -1.
</event>
<event>
 5    1  0.1046082E-009  0.9118800E+02  0.7561462E-02  0.1125453E+00
         25   -1    0    0    0    0  0.00000000000E+00  0.00000000000E+00  0.99999998245E-14  0.12509000000E+03  0.12509000000E+03 0.  0.
        -11    1    3    3    0    0  0.42263043613E+02 -0.75643756795E+01  0.33154266231E+02  0.54245645028E+02  0.51100000000E-03 0.  1.
         23    2    1    0    0    0  0.10497617812E+01 -0.43582699552E+01  0.28948053290E+02  0.95796889784E+02  0.91208320817E+02 0.  0.
         11    1    3    3    0    0 -0.41213281832E+02  0.32061057243E+01 -0.42062129411E+01  0.41551244757E+02  0.51100000000E-03 0. -1.
         22    1    1    0    0    0 -0.10497617812E+01  0.43582699552E+01 -0.28948053290E+02  0.29293110216E+02  0.00000000000E+00 0.  1.
</event>
<event>
 5    1  0.1046082E-009  0.9118800E+02  0.7561462E-02  0.1125453E+00
         25   -1    0    0    0    0  0.00000000000E+00  0.00000000000E+00  0.99999998245E-14  0.12509000000E+03  0.12509000000E+03 0.  0.
        -11    1    3    3    0    0 -0.10447763637E+02  0.26352064703E+02 -0.31360081548E+02  0.42273417109E+02  0.51100000000E-03 0.  1.
         23    2    1    0    0    0  0.63882160114E+01  0.23254168621E+02  0.18310163559E+02  0.94810836346E+02  0.89845795322E+02 0.  0.
         11    1    3    3    0    0  0.16835979649E+02 -0.30978960818E+01  0.49670245106E+02  0.52537419237E+02  0.51100000000E-03 0. -1.
         22    1    1    0    0    0 -0.63882160114E+01 -0.23254168621E+02 -0.18310163559E+02  0.30279163654E+02  0.00000000000E+00 0. -1.
</event>
<event>
 5    1  0.1046082E-009  0.9118800E+02  0.7561462E-02  0.1125453E+00
         25   -1    0    0    0    0  0.00000000000E+00  0.00000000000E+00  0.99999998245E-14  0.12509000000E+03  0.12509000000E+03 0.  0.
        -11    1    3    3    0    0  0.27350015206E+02 -0.34325175109E+02 -0.44105332839E+02  0.62221550632E+02  0.51100000000E-03 0.  1.
         23    2    1    0    0    0  0.13063620091E+02 -0.12223644913E+02 -0.22969896464E+02  0.95974852595E+02  0.91452066801E+02 0.  0.
         11    1    3    3    0    0 -0.14286395115E+02  0.22101530196E+02  0.21135436374E+02  0.33753301963E+02  0.51100000000E-03 0. -1.
         22    1    1    0    0    0 -0.13063620091E+02  0.12223644913E+02  0.22969896464E+02  0.29115147405E+02  0.00000000000E+00 0.  1.
</event>
<event>
 5    1  0.1046082E-009  0.9118800E+02  0.7561462E-02  0.1125453E+00
         25   -1    0    0    0    0  0.00000000000E+00  0.00000000000E+00  0.99999998245E-14  0.12509000000E+03  0.12509000000E+03 0.  0.
        -11    1    3    3    0    0 -0.15412559028E+02  0.31116669506E+02 -0.27433543898E+02  0.44253739142E+02  0.51100000000E-03 0.  1.
         23    2    1    0    0    0  0.16374654028E+02  0.19870466029E+02  0.12458084468E+02  0.96486353670E+02  0.92149052416E+02 0.  0.
         11    1    3    3    0    0  0.31787213055E+02 -0.11246203477E+02  0.39891628366E+02  0.52232614528E+02  0.51100000000E-03 0. -1.
         22    1    1    0    0    0 -0.16374654028E+02 -0.19870466029E+02 -0.12458084468E+02  0.28603646330E+02  0.00000000000E+00 0. -1.
</event>
<event>
 5    1  0.1046082E-009  0.9118800E+02  0.7561462E-02  0.1125453E+00
         25   -1    0    0    0    0  0.00000000000E+00  0.00000000000E+00  0.99999998245E-14  0.12509000000E+03  0.12509000000E+03 0.  0.
        -11    1    3    3    0    0 -0.18818960314E+02 -0.16080002022E+02  0.54945275770E+02  0.60263613085E+02  0.51100000000E-03 0.  1.
         23    2    1    0    0    0 -0.60472266146E+01  0.46412623933E+01  0.25541490060E+02  0.98435207170E+02  0.94757648924E+02 0.  0.
         11    1    3    3    0    0  0.12771733699E+02  0.20721264416E+02 -0.29403785710E+02  0.38171594085E+02  0.51100000000E-03 0. -1.
         22    1    1    0    0    0  0.60472266146E+01 -0.46412623933E+01 -0.25541490060E+02  0.26654792830E+02  0.00000000000E+00 0.  1.
</event>
<event>
 5    1  0.1046082E-009  0.9118800E+02  0.7561462E-02  0.1125453E+00
         25   -1    0    0    0    0  0.00000000000E+00  0.00000000000E+00  0.99999998245E-14  0.12509000000E+03  0.12509000000E+03 0.  0.
        -11    1    3    3    0    0  0.24437316938E+02 -0.19154407002E+02 -0.20552118937E+02  0.37235243518E+02  0.51100000000E-03 0.  1.
         23    2    1    0    0    0 -0.37684663420E+01  0.28857398057E+02 -0.20381632548E+01  0.95916298304E+02  0.91371939947E+02 0.  0.
         11    1    3    3    0    0 -0.28205783280E+02  0.48011805059E+02  0.18513955683E+02  0.58681054786E+02  0.51100000000E-03 0. -1.
         22    1    1    0    0    0  0.37684663420E+01 -0.28857398057E+02  0.20381632548E+01  0.29173701696E+02  0.00000000000E+00 0. -1.
</event>
<event>
 5    1  0.1046082E-009  0.9118800E+02  0.7561462E-02  0.1125453E+00
         25   -1    0    0    0    0  0.00000000000E+00  0.00000000000E+00  0.99999998245E-14  0.12509000000E+03  0.12509000000E+03 0.  0.
        -11    1    3    3    0    0  0.11685753820E+02  0.22357621673E+02  0.55097937203E+02  0.60598702737E+02  0.51100000000E-03 0.  1.
         23    2    1    0    0    0 -0.18160973000E+01  0.18316699469E+02  0.23171803240E+02  0.95497228007E+02  0.90796411839E+02 0.  0.
         11    1    3    3    0    0 -0.13501851120E+02 -0.40409222040E+01 -0.31926133963E+02  0.34898525269E+02  0.51100000000E-03 0. -1.
         22    1    1    0    0    0  0.18160973000E+01 -0.18316699469E+02 -0.23171803240E+02  0.29592771993E+02  0.00000000000E+00 0.  1.
</event>
<event>
 5    1  0.1046082E-009  0.9118800E+02  0.7561462E-02  0.1125453E+00
         25   -1    0    0    0    0  0.00000000000E+00  0.00000000000E+00  0.99999998245E-14  0.12509000000E+03  0.12509000000E+03 0.  0.
        -11    1    3    3    0    0 -0.10909243626E+02  0.76658983922E+01 -0.35878101393E+02  0.38275524222E+02  0.51100000000E-03 0.  1.
         23    2    1    0    0    0 -0.18104999130E+02  0.62900154214E+01  0.21596421422E+02  0.96215085182E+02  0.91780073605E+02 0.  0.
         11    1    3    3    0    0 -0.71957555043E+01 -0.13758829708E+01  0.57474522815E+02  0.57939560960E+02  0.51100000000E-03 0. -1.
         22    1    1    0    0    0  0.18104999130E+02 -0.62900154214E+01 -0.21596421422E+02  0.28874914818E+02  0.00000000000E+00 0. -1.
</event>
<event>
 5    1  0.1046082E-009  0.9118800E+02  0.7561462E-02  0.1125453E+00
         25   -1    0    0    0    0  0.00000000000E+00  0.00000000000E+00  0.99999998245E-14  0.12509000000E+03  0.12509000000E+03 0.  0.
        -11    1    3    3    0    0 -0.34685805803E+02  0.32687023032E+02  0.32711432929E+02  0.57806439463E+02  0.51100000000E-03 0. -1.
         23    2    1    0    0    0 -0.23224234416E+01  0.25442667785E+02  0.16021384477E+02  0.94933611701E+02  0.90016570005E+02 0.  0.
         11    1    3    3    0    0  0.32363382361E+02 -0.72443552470E+01 -0.16690048452E+02  0.37127172238E+02  0.51100000000E-03 0.  1.
         22    1    1    0    0    0  0.23224234416E+01 -0.25442667785E+02 -0.16021384477E+02  0.30156388299E+02  0.00000000000E+00 0. -1.
</event>
<event>
 5    1  0.1046082E-009  0.9118800E+02  0.7561462E-02  0.1125453E+00
         25   -1    0    0    0    0  0.00000000000E+00  0.00000000000E+00  0.99999998245E-14  0.12509000000E+03  0.12509000000E+03 0.  0.
        -11    1    3    3    0    0  0.14593208856E+02 -0.41235190973E+02 -0.28185096812E+02  0.52035587840E+02  0.51100000000E-03 0. -1.
         23    2    1    0    0    0 -0.49359932400E-02 -0.25919468414E+02  0.11285993664E+02  0.96820006717E+02  0.92600870301E+02 0.  0.
         11    1    3    3    0    0 -0.14598144849E+02  0.15315722560E+02  0.39471090476E+02  0.44784418877E+02  0.51100000000E-03 0.  1.
         22    1    1    0    0    0  0.49359932400E-02  0.25919468414E+02 -0.11285993664E+02  0.28269993283E+02  0.00000000000E+00 0. -1.
</event>
<event>
 5    1  0.1046082E-009  0.9118800E+02  0.7561462E-02  0.1125453E+00
         25   -1    0    0    0    0  0.00000000000E+00  0.00000000000E+00  0.99999998245E-14  0.12509000000E+03  0.12509000000E+03 0.  0.
        -11    1    3    3    0    0 -0.52589610239E+02 -0.18768486622E+02  0.14531125270E+02  0.57698152458E+02  0.51100000000E-03 0.  1.
         23    2    1    0    0    0 -0.29288971359E+02  0.34909905941E+01 -0.46954122910E+01  0.95222329264E+02  0.90416891317E+02 0.  0.
         11    1    3    3    0    0  0.23300638880E+02  0.22259477216E+02 -0.19226537561E+02  0.37524176806E+02  0.51100000000E-03 0. -1.
         22    1    1    0    0    0  0.29288971359E+02 -0.34909905941E+01  0.46954122910E+01  0.29867670736E+02  0.00000000000E+00 0.  1.
</event>
<event>
 5    1  0.1046082E-009  0.9118800E+02  0.7561462E-02  0.1125453E+00
         25   -1    0    0    0    0  0.00000000000E+00  0.00000000000E+00  0.99999998245E-14  0.12509000000E+03  0.12509000000E+03 0.  0.
        -11    1    3    3    0    0 -0.26652675190E+02  0.18310694441E+02  0.33235148413E+01  0.32506805085E+02  0.51100000000E-03 0.  1.
         23    2    1    0    0    0  0.25578382606E+02 -0.14397331298E+02 -0.68020800387E+01  0.94960195850E+02  0.90053504640E+02 0.  0.
         11    1    3    3    0    0  0.52231057795E+02 -0.32708025739E+02 -0.10125594880E+02  0.62453390765E+02  0.51100000000E-03 0. -1.
         22    1    1    0    0    0 -0.25578382606E+02  0.14397331298E+02  0.68020800387E+01  0.30129804150E+02  0.00000000000E+00 0. -1.
</event>
<event>
 5    1  0.1046082E-009  0.9118800E+02  0.7561462E-02  0.1125453E+00
         25   -1    0    0    0    0  0.00000000000E+00  0.00000000000E+00  0.99999998245E-14  0.12509000000E+03  0.12509000000E+03 0.  0.
        -11    1    3    3    0    0  0.21118694699E+02  0.43757086746E+02  0.20990346943E+01  0.48632168913E+02  0.51100000000E-03 0.  1.
         23    2    1    0    0    0  0.29850841274E+02 -0.15405373076E+01  0.46769410681E+01  0.94835748105E+02  0.89880472634E+02 0.  0.
         11    1    3    3    0    0  0.87321465750E+01 -0.45297624053E+02  0.25779063738E+01  0.46203579193E+02  0.51100000000E-03 0. -1.
         22    1    1    0    0    0 -0.29850841274E+02  0.15405373076E+01 -0.46769410681E+01  0.30254251895E+02  0.00000000000E+00 0. -1.
</event>
<event>
 5    1  0.1046082E-009  0.9118800E+02  0.7561462E-02  0.1125453E+00
         25   -1    0    0    0    0  0.00000000000E+00  0.00000000000E+00  0.99999998245E-14  0.12509000000E+03  0.12509000000E+03 0.  0.
        -11    1    3    3    0    0  0.17378756498E+02  0.42493407954E+02  0.55746481133E+01  0.46247028000E+02  0.51100000000E-03 0. -1.
         23    2    1    0    0    0  0.18018905872E+02 -0.22715006846E+01  0.24281659742E+02  0.94767736166E+02  0.89785767993E+02 0.  0.
         11    1    3    3    0    0  0.64014937483E+00 -0.44764908639E+02  0.18707011628E+02  0.48520708166E+02  0.51100000000E-03 0.  1.
         22    1    1    0    0    0 -0.18018905872E+02  0.22715006846E+01 -0.24281659742E+02  0.30322263834E+02  0.00000000000E+00 0.  1.
</event>
<event>
 5    1  0.1046082E-009  0.9118800E+02  0.7561462E-02  0.1125453E+00
         25   -1    0    0    0    0  0.00000000000E+00  0.00000000000E+00  0.99999998245E-14  0.12509000000E+03  0.12509000000E+03 0.  0.
        -11    1    3    3    0    0 -0.57208539855E+02 -0.23328048287E+02 -0.82292020910E+01  0.62327639427E+02  0.51100000000E-03 0.  1.
         23    2    1    0    0    0 -0.25391600887E+02 -0.13951427301E+02 -0.54116263056E+01  0.95616937407E+02  0.90961185681E+02 0.  0.
         11    1    3    3    0    0  0.31816938968E+02  0.93766209865E+01  0.28175757854E+01  0.33289297980E+02  0.51100000000E-03 0. -1.
         22    1    1    0    0    0  0.25391600887E+02  0.13951427301E+02  0.54116263056E+01  0.29473062593E+02  0.00000000000E+00 0.  1.
</event>
<event>
 5    1  0.1046082E-009  0.9118800E+02  0.7561462E-02  0.1125453E+00
         25   -1    0    0    0    0  0.00000000000E+00  0.00000000000E+00  0.99999998245E-14  0.12509000000E+03  0.12509000000E+03 0.  0.
        -11    1    3    3    0    0  0.41112044876E+02 -0.35853735871E+02 -0.25739324285E+02  0.60317521705E+02  0.51100000000E-03 0. -1.
         23    2    1    0    0    0  0.21380075938E+02 -0.55270644399E+01 -0.16102055598E+02  0.97759938109E+02  0.93861990263E+02 0.  0.
         11    1    3    3    0    0 -0.19731968938E+02  0.30326671431E+02  0.96372686861E+01  0.37442416404E+02  0.51100000000E-03 0.  1.
         22    1    1    0    0    0 -0.21380075938E+02  0.55270644399E+01  0.16102055598E+02  0.27330061891E+02  0.00000000000E+00 0. -1.
</event>
<event>
 5    1  0.1046082E-009  0.9118800E+02  0.7561462E-02  0.1125453E+00
         25   -1    0    0    0    0  0.00000000000E+00  0.00000000000E+00  0.99999998245E-14  0.12509000000E+03  0.12509000000E+03 0.  0.
        -11    1    3    3    0    0  0.26297134209E+02  0.24338294375E+02 -0.36639569344E+02  0.51247925642E+02  0.51100000000E-03 0.  1.
         23    2    1    0    0    0  0.88415587691E+01  0.30037953612E+02  0.16725051963E+01  0.93733197033E+02  0.88332684403E+02 0.  0.
         11    1    3    3    0    0 -0.17455575440E+02  0.56996592370E+01  0.38312074540E+02  0.42485271391E+02  0.51100000000E-03 0. -1.
         22    1    1    0    0    0 -0.88415587691E+01 -0.30037953612E+02 -0.16725051963E+01  0.31356802967E+02  0.00000000000E+00 0. -1.
</event>
<event>
 5    1  0.1046082E-009  0.9118800E+02  0.7561462E-02  0.1125453E+00
         25   -1    0    0    0    0  0.00000000000E+00  0.00000000000E+00  0.99999998245E-14  0.12509000000E+03  0.12509000000E+03 0.  0.
        -11    1    3    3    0    0  0.25676523611E+01  0.54248740679E+01 -0.61938528033E+02  0.62228637719E+02  0.51100000000E-03 0.  1.
         23    2    1    0    0    0  0.41584989960E+01  0.66125307073E+01 -0.35541805377E+02  0.88699910611E+02  0.80891504725E+02 0.  0.
         11    1    3    3    0    0  0.15908466349E+01  0.11876566394E+01  0.26396722656E+02  0.26471272892E+02  0.51100000000E-03 0. -1.
         22    1    1    0    0    0 -0.41584989960E+01 -0.66125307073E+01  0.35541805377E+02  0.36390089389E+02  0.00000000000E+00 0.  1.
</event>
<event>
 5    1  0.1046082E-009  0.9118800E+02  0.7561462E-02  0.1125453E+00
         25   -1    0    0    0    0  0.00000000000E+00  0.00000000000E+00  0.99999998245E-14  0.12509000000E+03  0.12509000000E+03 0.  0.
        -11    1    3    3    0    0 -0.23223544258E+02 -0.54802189728E+01  0.23405632537E+02  0.33424383953E+02  0.51100000000E-03 0.  1.
         23    2    1    0    0    0 -0.84358883066E+01  0.27172922151E+02 -0.20439271671E+02  0.90057219120E+02  0.82963889612E+02 0.  0.
         11    1    3    3    0    0  0.14787655952E+02  0.32653141124E+02 -0.43844904208E+02  0.56632835167E+02  0.51100000000E-03 0. -1.
         22    1    1    0    0    0  0.84358883066E+01 -0.27172922151E+02  0.20439271671E+02  0.35032780880E+02  0.00000000000E+00 0. -1.
</event>
<event>
 5    1  0.1046082E-009  0.9118800E+02  0.7561462E-02  0.1125453E+00
         25   -1    0    0    0    0  0.00000000000E+00  0.00000000000E+00  0.99999998245E-14  0.12509000000E+03  0.12509000000E+03 0.  0.
        -11    1    3    3    0    0 -0.93512666244E+00  0.25926866735E+02  0.51900413392E+02  0.58023527910E+02  0.51100000000E-03 0.  1.
         23    2    1    0    0    0  0.16215179514E+02  0.13958285789E+02  0.23268771126E+02  0.93479851337E+02  0.87973184024E+02 0.  0.
         11    1    3    3    0    0  0.17150306176E+02 -0.11968580946E+02 -0.28631642267E+02  0.35456323427E+02  0.51100000000E-03 0. -1.
         22    1    1    0    0    0 -0.16215179514E+02 -0.13958285789E+02 -0.23268771126E+02  0.31610148663E+02  0.00000000000E+00 0.  1.
</event>
<event>
 5    1  0.1046082E-009  0.9118800E+02  0.7561462E-02  0.1125453E+00
         25   -1    0    0    0    0  0.00000000000E+00  0.00000000000E+00  0.99999998245E-14  0.12509000000E+03  0.12509000000E+03 0.  0.
        -11    1    3    3    0    0 -0.46032100775E+02  0.81969741566E+01  0.35744545848E+02  0.58854203292E+02  0.51100000000E-03 0. -1.
         23    2    1    0    0    0 -0.13792320562E+02  0.17425421976E+02  0.14687015197E+02  0.98452022357E+02  0.94779844129E+02 0.  0.
         11    1    3    3    0    0  0.32239780212E+02  0.92284478190E+01 -0.21057530651E+02  0.39597819064E+02  0.51100000000E-03 0.  1.
         22    1    1    0    0    0  0.13792320562E+02 -0.17425421976E+02 -0.14687015197E+02  0.26637977643E+02  0.00000000000E+00 0. -1.
</event>
<event>
 5    1  0.1046082E-009  0.9118800E+02  0.7561462E-02  0.1125453E+00
         25   -1    0    0    0    0  0.00000000000E+00  0.00000000000E+00  0.99999998245E-14  0.12509000000E+03  0.12509000000E+03 0.  0.
        -11    1    3    3    0    0 -0.14044992853E+02  0.16878517969E+02 -0.36851606247E+02  0.42897401743E+02  0.51100000000E-03 0. -1.
         23    2    1    0    0    0 -0.66022994301E+01 -0.26432291197E+02 -0.44780811926E+01  0.97480045512E+02  0.93488232875E+02 0.  0.
         11    1    3    3    0    0  0.74426934225E+01 -0.43310809166E+02  0.32373525054E+02  0.54582643768E+02  0.51100000000E-03 0.  1.
         22    1    1    0    0    0  0.66022994301E+01  0.26432291197E+02  0.44780811926E+01  0.27609954488E+02  0.00000000000E+00 0.  1.
</event>
<event>
 5    1  0.1046082E-009  0.9118800E+02  0.7561462E-02  0.1125453E+00
         25   -1    0    0    0    0  0.00000000000E+00  0.00000000000E+00  0.99999998245E-14  0.12509000000E+03  0.12509000000E+03 0.  0.
        -11    1    3    3    0    0 -0.11679809164E+02 -0.35675927820E+02 -0.12527256367E+02  0.39574258303E+02  0.51100000000E-03 0.  1.
         23    2    1    0    0    0  0.96702746320E+01  0.16305226788E+02 -0.21439355552E+02  0.96471464074E+02  0.92128837950E+02 0.  0.
         11    1    3    3    0    0  0.21350083796E+02  0.51981154607E+02 -0.89120991851E+01  0.56897205771E+02  0.51100000000E-03 0. -1.
         22    1    1    0    0    0 -0.96702746320E+01 -0.16305226788E+02  0.21439355552E+02  0.28618535926E+02  0.00000000000E+00 0. -1.
</event>
<event>
 5    1  0.1046082E-009  0.9118800E+02  0.7561462E-02  0.1125453E+00
         25   -1    0    0    0    0  0.00000000000E+00  0.00000000000E+00  0.99999998245E-14  0.12509000000E+03  0.12509000000E+03 0.  0.
        -11    1    3    3    0    0 -0.48427006020E+01  0.43213537458E+02 -0.33975304910E+02  0.55183175994E+02  0.51100000000E-03 0.  1.
         23    2    1    0    0    0  0.18726843946E+02  0.13717388251E+02 -0.15127658330E+02  0.97382465444E+02  0.93357576579E+02 0.  0.
         11    1    3    3    0    0  0.23569544548E+02 -0.29496149207E+02  0.18847646579E+02  0.42199289450E+02  0.51100000000E-03 0. -1.
         22    1    1    0    0    0 -0.18726843946E+02 -0.13717388251E+02  0.15127658330E+02  0.27707534556E+02  0.00000000000E+00 0. -1.
</event>
<event>
 5    1  0.1046082E-009  0.9118800E+02  0.7561462E-02  0.1125453E+00
         25   -1    0    0    0    0  0.00000000000E+00  0.00000000000E+00  0.99999998245E-14  0.12509000000E+03  0.12509000000E+03 0.  0.
        -11    1    3    3    0    0 -0.35852928900E+01 -0.16850010498E+02  0.36105765777E+02  0.40005043451E+02  0.51100000000E-03 0.  1.
         23    2    1    0    0    0  0.25507969581E+02 -0.10645133221E+02 -0.10689262079E+02  0.95454958289E+02  0.90738158261E+02 0.  0.
         11    1    3    3    0    0  0.29093262471E+02  0.62048772775E+01 -0.46795027856E+02  0.55449914838E+02  0.51100000000E-03 0. -1.
         22    1    1    0    0    0 -0.25507969581E+02  0.10645133221E+02  0.10689262079E+02  0.29635041711E+02  0.00000000000E+00 0. -1.
</event>
<event>
 5    1  0.1046082E-009  0.9118800E+02  0.7561462E-02  0.1125453E+00
         25   -1    0    0    0    0  0.00000000000E+00  0.00000000000E+00  0.99999998245E-14  0.12509000000E+03  0.12509000000E+03 0.  0.
        -11    1    3    3    0    0  0.14031194197E+02  0.12964853913E+02  0.56140041795E+02  0.59301485147E+02  0.51100000000E-03 0.  1.
         23    2    1    0    0    0 -0.29875816365E+00 -0.65800319235E+01  0.27464834720E+02  0.96846359605E+02  0.92636462292E+02 0.  0.
         11    1    3    3    0    0 -0.14329952361E+02 -0.19544885837E+02 -0.28675207075E+02  0.37544874458E+02  0.51100000000E-03 0. -1.
         22    1    1    0    0    0  0.29875816365E+00  0.65800319235E+01 -0.27464834720E+02  0.28243640395E+02  0.00000000000E+00 0.  1.
</event>
<event>
 5    1  0.1046082E-009  0.9118800E+02  0.7561462E-02  0.1125453E+00
         25   -1    0    0    0    0  0.00000000000E+00  0.00000000000E+00  0.99999998245E-14  0.12509000000E+03  0.12509000000E+03 0.  0.
        -11    1    3    3    0    0 -0.45392872007E+02 -0.23595539552E+02  0.15483306596E+02  0.53450866216E+02  0.51100000000E-03 0.  1.
         23    2    1    0    0    0 -0.22548436186E+02 -0.88468197844E+01 -0.16764258701E+02  0.95632597458E+02  0.90982718865E+02 0.  0.
         11    1    3    3    0    0  0.22844435821E+02  0.14748719767E+02 -0.32247565297E+02  0.42181731242E+02  0.51100000000E-03 0. -1.
         22    1    1    0    0    0  0.22548436186E+02  0.88468197844E+01  0.16764258701E+02  0.29457402542E+02  0.00000000000E+00 0.  1.
</event>
<event>
 5    1  0.1046082E-009  0.9118800E+02  0.7561462E-02  0.1125453E+00
         25   -1    0    0    0    0  0.00000000000E+00  0.00000000000E+00  0.99999998245E-14  0.12509000000E+03  0.12509000000E+03 0.  0.
        -11    1    3    3    0    0  0.32732793637E+02  0.75581639861E+01  0.13357118000E+02  0.36152098468E+02  0.51100000000E-03 0.  1.
         23    2    1    0    0    0 -0.94158267879E+01  0.35935532825E+01 -0.27997732124E+02  0.95333581812E+02  0.90570676258E+02 0.  0.
         11    1    3    3    0    0 -0.42148620425E+02 -0.39646107035E+01 -0.41354850124E+02  0.59181483344E+02  0.51100000000E-03 0. -1.
         22    1    1    0    0    0  0.94158267879E+01 -0.35935532825E+01  0.27997732124E+02  0.29756418188E+02  0.00000000000E+00 0. -1.
</event>
<event>
 5    1  0.1046082E-009  0.9118800E+02  0.7561462E-02  0.1125453E+00
         25   -1    0    0    0    0  0.00000000000E+00  0.00000000000E+00  0.99999998245E-14  0.12509000000E+03  0.12509000000E+03 0.  0.
        -11    1    3    3    0    0  0.36333778348E+01  0.15683496428E+02  0.33457405518E+02  0.37129119017E+02  0.51100000000E-03 0. -1.
         23    2    1    0    0    0 -0.21077875845E+01  0.14660128547E+02 -0.25083740417E+02  0.95960012516E+02  0.91431765986E+02 0.  0.
         11    1    3    3    0    0 -0.57411654193E+01 -0.10233678818E+01 -0.58541145935E+02  0.58830893499E+02  0.51100000000E-03 0.  1.
         22    1    1    0    0    0  0.21077875845E+01 -0.14660128547E+02  0.25083740417E+02  0.29129987484E+02  0.00000000000E+00 0.  1.
</event>
<event>
 5    1  0.1046082E-009  0.9118800E+02  0.7561462E-02  0.1125453E+00
         25   -1    0    0    0    0  0.00000000000E+00  0.00000000000E+00  0.99999998245E-14  0.12509000000E+03  0.12509000000E+03 0.  0.
        -11    1    3    3    0    0 -0.11220955542E+02  0.46640617748E+02 -0.24973519385E+01  0.48036380319E+02  0.51100000000E-03 0.  1.
         23    2    1    0    0    0 -0.11209846492E+02  0.59848965347E+01 -0.26819679706E+02  0.95412148588E+02  0.90679122370E+02 0.  0.
         11    1    3    3    0    0  0.11109049657E-01 -0.40655721214E+02 -0.24322327767E+02  0.47375768269E+02  0.51100000000E-03 0. -1.
         22    1    1    0    0    0  0.11209846492E+02 -0.59848965347E+01  0.26819679706E+02  0.29677851412E+02  0.00000000000E+00 0.  1.
</event>
<event>
 5    1  0.1046082E-009  0.9118800E+02  0.7561462E-02  0.1125453E+00
         25   -1    0    0    0    0  0.00000000000E+00  0.00000000000E+00  0.99999998245E-14  0.12509000000E+03  0.12509000000E+03 0.  0.
        -11    1    3    3    0    0 -0.46207540721E+01 -0.13105617100E+02 -0.41441798470E+02  0.43709623980E+02  0.51100000000E-03 0.  1.
         23    2    1    0    0    0  0.24658424307E+02 -0.17092435944E+02  0.58053946152E+00  0.95081229917E+02  0.90221471949E+02 0.  0.
         11    1    3    3    0    0  0.29279178379E+02 -0.39868188440E+01  0.42022337932E+02  0.51371605937E+02  0.51100000000E-03 0. -1.
         22    1    1    0    0    0 -0.24658424307E+02  0.17092435944E+02 -0.58053946152E+00  0.30008770083E+02  0.00000000000E+00 0. -1.
</event>
<event>
 5    1  0.1046082E-009  0.9118800E+02  0.7561462E-02  0.1125453E+00
         25   -1    0    0    0    0  0.00000000000E+00  0.00000000000E+00  0.99999998245E-14  0.12509000000E+03  0.12509000000E+03 0.  0.
        -11    1    3    3    0    0 -0.55723700195E+02 -0.25132878130E+02 -0.95107951095E+01  0.61864752084E+02  0.51100000000E-03 0.  1.
         23    2    1    0    0    0 -0.27273129007E+02 -0.10096952806E+02  0.17440414666E+01  0.95955592465E+02  0.91425718607E+02 0.  0.
         11    1    3    3    0    0  0.28450571188E+02  0.15035925324E+02  0.11254836576E+02  0.34090840381E+02  0.51100000000E-03 0. -1.
         22    1    1    0    0    0  0.27273129007E+02  0.10096952806E+02 -0.17440414666E+01  0.29134407535E+02  0.00000000000E+00 0.  1.
</event>
<event>
 5    1  0.1046082E-009  0.9118800E+02  0.7561462E-02  0.1125453E+00
         25   -1    0    0    0    0  0.00000000000E+00  0.00000000000E+00  0.99999998245E-14  0.12509000000E+03  0.12509000000E+03 0.  0.
        -11    1    3    3    0    0 -0.14712408455E+02  0.24689901989E+02  0.15101628437E+02  0.32466989458E+02  0.51100000000E-03 0.  1.
         23    2    1    0    0    0  0.28769699422E+02 -0.94003252713E+01 -0.10082497835E+02  0.93188299691E+02  0.87557642252E+02 0.  0.
         11    1    3    3    0    0  0.43482107876E+02 -0.34090227260E+02 -0.25184126272E+02  0.60721310233E+02  0.51100000000E-03 0. -1.
         22    1    1    0    0    0 -0.28769699422E+02  0.94003252713E+01  0.10082497835E+02  0.31901700309E+02  0.00000000000E+00 0. -1.
</event>
<event>
 5    1  0.1046082E-009  0.9118800E+02  0.7561462E-02  0.1125453E+00
         25   -1    0    0    0    0  0.00000000000E+00  0.00000000000E+00  0.99999998245E-14  0.12509000000E+03  0.12509000000E+03 0.  0.
        -11    1    3    3    0    0  0.24670149865E+02  0.18183078397E+02 -0.48285705903E+02  0.57190471489E+02  0.51100000000E-03 0.  1.
         23    2    1    0    0    0 -0.56234358708E+01  0.48599314934E+01 -0.28253915058E+02  0.95874838162E+02  0.91315162549E+02 0.  0.
         11    1    3    3    0    0 -0.30293585736E+02 -0.13323146904E+02  0.20031790844E+02  0.38684366672E+02  0.51100000000E-03 0. -1.
         22    1    1    0    0    0  0.56234358708E+01 -0.48599314934E+01  0.28253915058E+02  0.29215161838E+02  0.00000000000E+00 0.  1.
</event>
<event>
 5    1  0.1046082E-009  0.9118800E+02  0.7561462E-02  0.1125453E+00
         25   -1    0    0    0    0  0.00000000000E+00  0.00000000000E+00  0.99999998245E-14  0.12509000000E+03  0.12509000000E+03 0.  0.
        -11    1    3    3    0    0  0.41994192733E+01 -0.11225668555E+02 -0.32530362207E+02  0.34668072089E+02  0.51100000000E-03 0.  1.
         23    2    1    0    0    0 -0.22652702120E+02 -0.15689923020E+02  0.18078608588E+02  0.92133139012E+02  0.86036972390E+02 0.  0.
         11    1    3    3    0    0 -0.26852121393E+02 -0.44642544653E+01  0.50608970796E+02  0.57465066923E+02  0.51100000000E-03 0. -1.
         22    1    1    0    0    0  0.22652702120E+02  0.15689923020E+02 -0.18078608588E+02  0.32956860988E+02  0.00000000000E+00 0. -1.
</event>
<event>
 5    1  0.1046082E-009  0.9118800E+02  0.7561462E-02  0.1125453E+00
         25   -1    0    0    0    0  0.00000000000E+00  0.00000000000E+00  0.99999998245E-14  0.12509000000E+03  0.12509000000E+03 0.  0.
        -11    1    3    3    0    0 -0.58473215535E+02 -0.75422440125E+01  0.16331101374E+02  0.61177669554E+02  0.51100000000E-03 0. -1.
         23    2    1    0    0    0 -0.28070014842E+02  0.37145324015E+01  0.17634175939E+01  0.96720419005E+02  0.92466244255E+02 0.  0.
         11    1    3    3    0    0  0.30403200692E+02  0.11256776414E+02 -0.14567683780E+02  0.35542749451E+02  0.51100000000E-03 0.  1.
         22    1    1    0    0    0  0.28070014842E+02 -0.37145324015E+01 -0.17634175939E+01  0.28369580995E+02  0.00000000000E+00 0. -1.
</event>
<event>
 5    1  0.1046082E-009  0.9118800E+02  0.7561462E-02  0.1125453E+00
         25   -1    0    0    0    0  0.00000000000E+00  0.00000000000E+00  0.99999998245E-14  0.12509000000E+03  0.12509000000E+03 0.  0.
        -11    1    3    3    0    0  0.26168812565E+02  0.45012813615E+02 -0.34533732391E+02  0.62478306745E+02  0.51100000000E-03 0.  1.
         23    2    1    0    0    0  0.10751734789E+02  0.21854104600E+02 -0.14754933108E+02  0.96613523043E+02  0.92321520216E+02 0.  0.
         11    1    3    3    0    0 -0.15417077776E+02 -0.23158709015E+02  0.19778799283E+02  0.34135216298E+02  0.51100000000E-03 0. -1.
         22    1    1    0    0    0 -0.10751734789E+02 -0.21854104600E+02  0.14754933108E+02  0.28476476957E+02  0.00000000000E+00 0.  1.
</event>
<event>
 5    1  0.1046082E-009  0.9118800E+02  0.7561462E-02  0.1125453E+00
         25   -1    0    0    0    0  0.00000000000E+00  0.00000000000E+00  0.99999998245E-14  0.12509000000E+03  0.12509000000E+03 0.  0.
        -11    1    3    3    0    0 -0.27193821152E+02 -0.41756047601E+02 -0.27517739721E+02  0.56923610389E+02  0.51100000000E-03 0.  1.
         23    2    1    0    0    0  0.21494058607E+01 -0.18726056235E+02 -0.24261413824E+02  0.94367022794E+02  0.89225745514E+02 0.  0.
         11    1    3    3    0    0  0.29343227013E+02  0.23029991366E+02  0.32563258971E+01  0.37443412404E+02  0.51100000000E-03 0. -1.
         22    1    1    0    0    0 -0.21494058607E+01  0.18726056235E+02  0.24261413824E+02  0.30722977206E+02  0.00000000000E+00 0.  1.
</event>
<event>
 5    1  0.1046082E-009  0.9118800E+02  0.7561462E-02  0.1125453E+00
         25   -1    0    0    0    0  0.00000000000E+00  0.00000000000E+00  0.99999998245E-14  0.12509000000E+03  0.12509000000E+03 0.  0.
        -11    1    3    3    0    0  0.76684227724E+01 -0.16462704078E+02  0.54986364103E+02  0.57907905945E+02  0.51100000000E-03 0. -1.
         23    2    1    0    0    0  0.11624217714E+02 -0.20686728820E+02  0.18099029681E+02  0.95246440190E+02  0.90450242160E+02 0.  0.
         11    1    3    3    0    0  0.39557949412E+01 -0.42240247418E+01 -0.36887334421E+02  0.37338534246E+02  0.51100000000E-03 0.  1.
         22    1    1    0    0    0 -0.11624217714E+02  0.20686728820E+02 -0.18099029681E+02  0.29843559810E+02  0.00000000000E+00 0. -1.
</event>
<event>
 5    1  0.1046082E-009  0.9118800E+02  0.7561462E-02  0.1125453E+00
         25   -1    0    0    0    0  0.00000000000E+00  0.00000000000E+00  0.99999998245E-14  0.12509000000E+03  0.12509000000E+03 0.  0.
        -11    1    3    3    0    0 -0.11475224612E+02 -0.32568509083E+02  0.40644066656E+02  0.53332248390E+02  0.51100000000E-03 0. -1.
         23    2    1    0    0    0 -0.22608273620E+02 -0.16196340342E+02  0.14523732605E+01  0.97241034765E+02  0.93167880611E+02 0.  0.
         11    1    3    3    0    0 -0.11133049008E+02  0.16372168741E+02 -0.39191693395E+02  0.43908786375E+02  0.51100000000E-03 0.  1.
         22    1    1    0    0    0  0.22608273620E+02  0.16196340342E+02 -0.14523732605E+01  0.27848965235E+02  0.00000000000E+00 0. -1.
</event>
<event>
 5    1  0.1046082E-009  0.9118800E+02  0.7561462E-02  0.1125453E+00
         25   -1    0    0    0    0  0.00000000000E+00  0.00000000000E+00  0.99999998245E-14  0.12509000000E+03  0.12509000000E+03 0.  0.
        -11    1    3    3    0    0 -0.41658041442E+00  0.39193983266E+02  0.18165100974E+02  0.43200842089E+02  0.51100000000E-03 0.  1.
         23    2    1    0    0    0 -0.10420088444E+02  0.89847006376E+01 -0.24836748711E+02  0.96696916771E+02  0.92434444542E+02 0.  0.
         11    1    3    3    0    0 -0.10003508030E+02 -0.30209282629E+02 -0.43001849685E+02  0.53496074682E+02  0.51100000000E-03 0. -1.
         22    1    1    0    0    0  0.10420088444E+02 -0.89847006376E+01  0.24836748711E+02  0.28393083229E+02  0.00000000000E+00 0. -1.
</event>
<event>
 5    1  0.1046082E-009  0.9118800E+02  0.7561462E-02  0.1125453E+00
         25   -1    0    0    0    0  0.00000000000E+00  0.00000000000E+00  0.99999998245E-14  0.12509000000E+03  0.12509000000E+03 0.  0.
        -11    1    3    3    0    0 -0.13063485721E+02  0.13168425525E+02 -0.31968942831E+02  0.36960457193E+02  0.51100000000E-03 0.  1.
         23    2    1    0    0    0  0.21005356557E+02 -0.17405524883E+02  0.68313012265E+01  0.96968051686E+02  0.92800641543E+02 0.  0.
         11    1    3    3    0    0  0.34068842278E+02 -0.30573950407E+02  0.38800244057E+02  0.60007594493E+02  0.51100000000E-03 0. -1.
         22    1    1    0    0    0 -0.21005356557E+02  0.17405524883E+02 -0.68313012265E+01  0.28121948314E+02  0.00000000000E+00 0. -1.
</event>
<event>
 5    1  0.1046082E-009  0.9118800E+02  0.7561462E-02  0.1125453E+00
         25   -1    0    0    0    0  0.00000000000E+00  0.00000000000E+00  0.99999998245E-14  0.12509000000E+03  0.12509000000E+03 0.  0.
        -11    1    3    3    0    0 -0.23971266152E+02  0.79063168567E+01 -0.56579004829E+02  0.61954138157E+02  0.51100000000E-03 0.  1.
         23    2    1    0    0    0 -0.56658197443E+01  0.18109744129E+01 -0.28193618645E+02  0.96275745299E+02  0.91862712015E+02 0.  0.
         11    1    3    3    0    0  0.18305446407E+02 -0.60953424438E+01  0.28385386184E+02  0.34321607141E+02  0.51100000000E-03 0. -1.
         22    1    1    0    0    0  0.56658197443E+01 -0.18109744129E+01  0.28193618645E+02  0.28814254701E+02  0.00000000000E+00 0.  1.
</event>
<event>
 5    1  0.1046082E-009  0.9118800E+02  0.7561462E-02  0.1125453E+00
         25   -1    0    0    0    0  0.00000000000E+00  0.00000000000E+00  0.99999998245E-14  0.12509000000E+03  0.12509000000E+03 0.  0.
        -11    1    3    3    0    0  0.28403378035E+01  0.52414483435E+02  0.31374395026E+02  0.61153072336E+02  0.51100000000E-03 0.  1.
         23    2    1    0    0    0 -0.79927241560E+01  0.23938668889E+02  0.13779850808E+02  0.96335386528E+02  0.91943889964E+02 0.  0.
         11    1    3    3    0    0 -0.10833061960E+02 -0.28475814546E+02 -0.17594544218E+02  0.35182314193E+02  0.51100000000E-03 0. -1.
         22    1    1    0    0    0  0.79927241560E+01 -0.23938668889E+02 -0.13779850808E+02  0.28754613472E+02  0.00000000000E+00 0.  1.
</event>
<event>
 5    1  0.1046082E-009  0.9118800E+02  0.7561462E-02  0.1125453E+00
         25   -1    0    0    0    0  0.00000000000E+00  0.00000000000E+00  0.99999998245E-14  0.12509000000E+03  0.12509000000E+03 0.  0.
        -11    1    3    3    0    0 -0.39910421540E+01 -0.34678066593E+02  0.24255008304E-01  0.34906980801E+02  0.51100000000E-03 0.  1.
         23    2    1    0    0    0 -0.93057899594E+01  0.26288459419E+02 -0.65121519098E+01  0.96452804818E+02  0.92103499441E+02 0.  0.
         11    1    3    3    0    0 -0.53147478054E+01  0.60966526012E+02 -0.65364069181E+01  0.61545824017E+02  0.51100000000E-03 0. -1.
         22    1    1    0    0    0  0.93057899594E+01 -0.26288459419E+02  0.65121519098E+01  0.28637195182E+02  0.00000000000E+00 0. -1.
</event>
<event>
 5    1  0.1046082E-009  0.9118800E+02  0.7561462E-02  0.1125453E+00
         25   -1    0    0    0    0  0.00000000000E+00  0.00000000000E+00  0.99999998245E-14  0.12509000000E+03  0.12509000000E+03 0.  0.
        -11    1    3    3    0    0 -0.94063306996E+01  0.27163225800E+02  0.20067034109E+02  0.35057178313E+02  0.51100000000E-03 0.  1.
         23    2    1    0    0    0  0.16793062573E+02 -0.24545688934E+02  0.52317914004E+01  0.94892824021E+02  0.89959872241E+02 0.  0.
         11    1    3    3    0    0  0.26199393273E+02 -0.51708914734E+02 -0.14835242708E+02  0.59835645708E+02  0.51100000000E-03 0. -1.
         22    1    1    0    0    0 -0.16793062573E+02  0.24545688934E+02 -0.52317914004E+01  0.30197175979E+02  0.00000000000E+00 0. -1.
</event>
<event>
 5    1  0.1046082E-009  0.9118800E+02  0.7561462E-02  0.1125453E+00
         25   -1    0    0    0    0  0.00000000000E+00  0.00000000000E+00  0.99999998245E-14  0.12509000000E+03  0.12509000000E+03 0.  0.
        -11    1    3    3    0    0  0.22775708174E+02 -0.12069737435E+02  0.56160280921E+02  0.61793111251E+02  0.51100000000E-03 0. -1.
         23    2    1    0    0    0  0.17020999360E+02 -0.27453294021E+01  0.25898143010E+02  0.93977863074E+02  0.88678484899E+02 0.  0.
         11    1    3    3    0    0 -0.57547088146E+01  0.93244080333E+01 -0.30262137912E+02  0.32184751824E+02  0.51100000000E-03 0.  1.
         22    1    1    0    0    0 -0.17020999360E+02  0.27453294021E+01 -0.25898143010E+02  0.31112136926E+02  0.00000000000E+00 0. -1.
</event>
<event>
 5    1  0.1046082E-009  0.9118800E+02  0.7561462E-02  0.1125453E+00
         25   -1    0    0    0    0  0.00000000000E+00  0.00000000000E+00  0.99999998245E-14  0.12509000000E+03  0.12509000000E+03 0.  0.
        -11    1    3    3    0    0  0.27995005447E+02  0.14838229300E+02  0.50122514207E+02  0.59297215866E+02  0.51100000000E-03 0.  1.
         23    2    1    0    0    0  0.14742822572E+01  0.14844063768E+02  0.25829401599E+02  0.95262534062E+02  0.90472496769E+02 0.  0.
         11    1    3    3    0    0 -0.26520723190E+02  0.58344674050E-02 -0.24293112608E+02  0.35965318197E+02  0.51100000000E-03 0. -1.
         22    1    1    0    0    0 -0.14742822572E+01 -0.14844063768E+02 -0.25829401599E+02  0.29827465938E+02  0.00000000000E+00 0.  1.
</event>
<event>
 5    1  0.1046082E-009  0.9118800E+02  0.7561462E-02  0.1125453E+00
         25   -1    0    0    0    0  0.00000000000E+00  0.00000000000E+00  0.99999998245E-14  0.12509000000E+03  0.12509000000E+03 0.  0.
        -11    1    3    3    0    0 -0.29769145577E+02  0.78147351287E+01  0.37118494117E+02  0.48218821214E+02  0.51100000000E-03 0. -1.
         23    2    1    0    0    0 -0.86864184137E+01  0.16511495226E+02 -0.12366785937E+02  0.10270650756E+03  0.10023774719E+03 0.  0.
         11    1    3    3    0    0  0.21082727164E+02  0.86967600974E+01 -0.49485280054E+02  0.54487686344E+02  0.51100000000E-03 0.  1.
         22    1    1    0    0    0  0.86864184137E+01 -0.16511495226E+02  0.12366785937E+02  0.22383492441E+02  0.00000000000E+00 0.  1.
</event>
<event>
 5    1  0.1046082E-009  0.9118800E+02  0.7561462E-02  0.1125453E+00
         25   -1    0    0    0    0  0.00000000000E+00  0.00000000000E+00  0.99999998245E-14  0.12509000000E+03  0.12509000000E+03 0.  0.
        -11    1    3    3    0    0  0.20057458989E+02 -0.89371504365E+01  0.31975350403E+02  0.38789139623E+02  0.51100000000E-03 0.  1.
         23    2    1    0    0    0  0.14857323931E+01 -0.24271040333E+02 -0.18380682232E+02  0.94608197578E+02  0.89563222196E+02 0.  0.
         11    1    3    3    0    0 -0.18571726596E+02 -0.15333889897E+02 -0.50356032634E+02  0.55819057956E+02  0.51100000000E-03 0. -1.
         22    1    1    0    0    0 -0.14857323931E+01  0.24271040333E+02  0.18380682232E+02  0.30481802422E+02  0.00000000000E+00 0. -1.
</event>
<event>
 5    1  0.1046082E-009  0.9118800E+02  0.7561462E-02  0.1125453E+00
         25   -1    0    0    0    0  0.00000000000E+00  0.00000000000E+00  0.99999998245E-14  0.12509000000E+03  0.12509000000E+03 0.  0.
        -11    1    3    3    0    0 -0.30110785503E+02 -0.21687548688E+01 -0.37157324661E+02  0.47875146763E+02  0.51100000000E-03 0. -1.
         23    2    1    0    0    0  0.65561125160E+01 -0.11970134960E+02  0.98255111274E+01  0.10827312124E+03  0.10695915749E+03 0.  0.
         11    1    3    3    0    0  0.36666898019E+02 -0.98013800916E+01  0.46982835788E+02  0.60397974478E+02  0.51100000000E-03 0.  1.
         22    1    1    0    0    0 -0.65561125160E+01  0.11970134960E+02 -0.98255111274E+01  0.16816878759E+02  0.00000000000E+00 0.  1.
</event>
<event>
 5    1  0.1046082E-009  0.9118800E+02  0.7561462E-02  0.1125453E+00
         25   -1    0    0    0    0  0.00000000000E+00  0.00000000000E+00  0.99999998245E-14  0.12509000000E+03  0.12509000000E+03 0.  0.
        -11    1    3    3    0    0 -0.35644126364E+02  0.91589679423E+01  0.15630657872E+02  0.39983845535E+02  0.51100000000E-03 0.  1.
         23    2    1    0    0    0  0.23390642716E+02 -0.19910388625E+01  0.63142661391E+01  0.10078040602E+03  0.97804569827E+02 0.  0.
         11    1    3    3    0    0  0.59034769080E+02 -0.11150006805E+02 -0.93163917329E+01  0.60796560489E+02  0.51100000000E-03 0. -1.
         22    1    1    0    0    0 -0.23390642716E+02  0.19910388625E+01 -0.63142661391E+01  0.24309593976E+02  0.00000000000E+00 0. -1.
</event>
<event>
 5    1  0.1046082E-009  0.9118800E+02  0.7561462E-02  0.1125453E+00
         25   -1    0    0    0    0  0.00000000000E+00  0.00000000000E+00  0.99999998245E-14  0.12509000000E+03  0.12509000000E+03 0.  0.
        -11    1    3    3    0    0  0.41899063189E+02  0.22672942775E+02 -0.76174462246E+00  0.47646343882E+02  0.51100000000E-03 0. -1.
         23    2    1    0    0    0  0.13635798701E+02 -0.14614479316E+02  0.18129695362E+02  0.98104747253E+02  0.94320398471E+02 0.  0.
         11    1    3    3    0    0 -0.28263264489E+02 -0.37287422091E+02  0.18891439985E+02  0.50458403371E+02  0.51100000000E-03 0.  1.
         22    1    1    0    0    0 -0.13635798701E+02  0.14614479316E+02 -0.18129695362E+02  0.26985252747E+02  0.00000000000E+00 0.  1.
</event>
<event>
 5    1  0.1046082E-009  0.9118800E+02  0.7561462E-02  0.1125453E+00
         25   -1    0    0    0    0  0.00000000000E+00  0.00000000000E+00  0.99999998245E-14  0.12509000000E+03  0.12509000000E+03 0.  0.
        -11    1    3    3    0    0 -0.20497435215E+02  0.43011862042E+02 -0.26719565421E+02  0.54626919218E+02  0.51100000000E-03 0. -1.
         23    2    1    0    0    0 -0.28913978739E+02  0.14515476573E+02 -0.30915223971E+01  0.92589619427E+02  0.86698113522E+02 0.  0.
         11    1    3    3    0    0 -0.84165435245E+01 -0.28496385470E+02  0.23628043024E+02  0.37962700209E+02  0.51100000000E-03 0.  1.
         22    1    1    0    0    0  0.28913978739E+02 -0.14515476573E+02  0.30915223971E+01  0.32500380573E+02  0.00000000000E+00 0. -1.
</event>
<event>
 5    1  0.1046082E-009  0.9118800E+02  0.7561462E-02  0.1125453E+00
         25   -1    0    0    0    0  0.00000000000E+00  0.00000000000E+00  0.99999998245E-14  0.12509000000E+03  0.12509000000E+03 0.  0.
        -11    1    3    3    0    0  0.35428272393E+02  0.63048629229E+01  0.55254902995E+01  0.36406659068E+02  0.51100000000E-03 0.  1.
         23    2    1    0    0    0 -0.10152462109E+02 -0.25379186217E+02 -0.12857633030E+02  0.94882479296E+02  0.89945486659E+02 0.  0.
         11    1    3    3    0    0 -0.45580734502E+02 -0.31684049140E+02 -0.18383123330E+02  0.58475820228E+02  0.51100000000E-03 0. -1.
         22    1    1    0    0    0  0.10152462109E+02  0.25379186217E+02  0.12857633030E+02  0.30207520704E+02  0.00000000000E+00 0. -1.
</event>
<event>
 5    1  0.1046082E-009  0.9118800E+02  0.7561462E-02  0.1125453E+00
         25   -1    0    0    0    0  0.00000000000E+00  0.00000000000E+00  0.99999998245E-14  0.12509000000E+03  0.12509000000E+03 0.  0.
        -11    1    3    3    0    0 -0.27224209326E+02  0.21191658223E+02  0.49151734717E+02  0.60051119703E+02  0.51100000000E-03 0.  1.
         23    2    1    0    0    0 -0.17223950102E+02  0.15736067805E+01  0.96275232506E+01  0.10529530628E+03  0.10341794634E+03 0.  0.
         11    1    3    3    0    0  0.10000259225E+02 -0.19618051443E+02 -0.39524211466E+02  0.45244186580E+02  0.51100000000E-03 0. -1.
         22    1    1    0    0    0  0.17223950102E+02 -0.15736067805E+01 -0.96275232506E+01  0.19794693717E+02  0.00000000000E+00 0.  1.
</event>
<event>
 5    1  0.1046082E-009  0.9118800E+02  0.7561462E-02  0.1125453E+00
         25   -1    0    0    0    0  0.00000000000E+00  0.00000000000E+00  0.99999998245E-14  0.12509000000E+03  0.12509000000E+03 0.  0.
        -11    1    3    3    0    0 -0.22570190220E+02 -0.66816040067E+01  0.47545941328E+02  0.53053499938E+02  0.51100000000E-03 0. -1.
         23    2    1    0    0    0  0.22751044753E+01 -0.23306992838E+02  0.14827167994E+02  0.97372912739E+02  0.93344776013E+02 0.  0.
         11    1    3    3    0    0  0.24845294695E+02 -0.16625388831E+02 -0.32718773334E+02  0.44319412801E+02  0.51100000000E-03 0.  1.
         22    1    1    0    0    0 -0.22751044753E+01  0.23306992838E+02 -0.14827167994E+02  0.27717087261E+02  0.00000000000E+00 0.  1.
</event>
<event>
 5    1  0.1046082E-009  0.9118800E+02  0.7561462E-02  0.1125453E+00
         25   -1    0    0    0    0  0.00000000000E+00  0.00000000000E+00  0.99999998245E-14  0.12509000000E+03  0.12509000000E+03 0.  0.
        -11    1    3    3    0    0 -0.33202107346E+02  0.99834463866E+01 -0.11738739774E+02  0.36603922546E+02  0.51100000000E-03 0. -1.
         23    2    1    0    0    0  0.17087019993E+02 -0.19942275273E+02  0.67504560241E+01  0.97974888865E+02  0.94148019609E+02 0.  0.
         11    1    3    3    0    0  0.50289127340E+02 -0.29925721660E+02  0.18489195798E+02  0.61370966319E+02  0.51100000000E-03 0.  1.
         22    1    1    0    0    0 -0.17087019993E+02  0.19942275273E+02 -0.67504560241E+01  0.27115111135E+02  0.00000000000E+00 0.  1.
</event>
<event>
 5    1  0.1046082E-009  0.9118800E+02  0.7561462E-02  0.1125453E+00
         25   -1    0    0    0    0  0.00000000000E+00  0.00000000000E+00  0.99999998245E-14  0.12509000000E+03  0.12509000000E+03 0.  0.
        -11    1    3    3    0    0 -0.35620806325E+02  0.43446520731E+00  0.27897604227E+01  0.35732525334E+02  0.51100000000E-03 0. -1.
         23    2    1    0    0    0  0.20609515440E+02  0.21015803047E+02  0.79057429556E+00  0.95644438160E+02  0.90998996911E+02 0.  0.
         11    1    3    3    0    0  0.56230321765E+02  0.20581337839E+02 -0.19991861271E+01  0.59911912826E+02  0.51100000000E-03 0.  1.
         22    1    1    0    0    0 -0.20609515440E+02 -0.21015803047E+02 -0.79057429556E+00  0.29445561840E+02  0.00000000000E+00 0.  1.
</event>
<event>
 5    1  0.1046082E-009  0.9118800E+02  0.7561462E-02  0.1125453E+00
         25   -1    0    0    0    0  0.00000000000E+00  0.00000000000E+00  0.99999998245E-14  0.12509000000E+03  0.12509000000E+03 0.  0.
        -11    1    3    3    0    0  0.26979751604E+01 -0.11758330393E+02 -0.31640485524E+02  0.33862334946E+02  0.51100000000E-03 0.  1.
         23    2    1    0    0    0  0.35568030630E+01  0.95369321156E+01  0.26989027355E+02  0.96245390109E+02  0.91821367869E+02 0.  0.
         11    1    3    3    0    0  0.85882790257E+00  0.21295262508E+02  0.58629512879E+02  0.62383055162E+02  0.51100000000E-03 0. -1.
         22    1    1    0    0    0 -0.35568030630E+01 -0.95369321156E+01 -0.26989027355E+02  0.28844609891E+02  0.00000000000E+00 0. -1.
</event>
<event>
 5    1  0.1046082E-009  0.9118800E+02  0.7561462E-02  0.1125453E+00
         25   -1    0    0    0    0  0.00000000000E+00  0.00000000000E+00  0.99999998245E-14  0.12509000000E+03  0.12509000000E+03 0.  0.
        -11    1    3    3    0    0  0.91018447615E+00 -0.83942153399E+01 -0.30294735726E+02  0.31449360882E+02  0.51100000000E-03 0.  1.
         23    2    1    0    0    0  0.10752134831E+02  0.84183134763E+01  0.28553888480E+02  0.93438760647E+02  0.87914737324E+02 0.  0.
         11    1    3    3    0    0  0.98419503553E+01  0.16812528816E+02  0.58848624206E+02  0.61989399765E+02  0.51100000000E-03 0. -1.
         22    1    1    0    0    0 -0.10752134831E+02 -0.84183134763E+01 -0.28553888480E+02  0.31651239353E+02  0.00000000000E+00 0. -1.
</event>
<event>
 5    1  0.1046082E-009  0.9118800E+02  0.7561462E-02  0.1125453E+00
         25   -1    0    0    0    0  0.00000000000E+00  0.00000000000E+00  0.99999998245E-14  0.12509000000E+03  0.12509000000E+03 0.  0.
        -11    1    3    3    0    0 -0.20621185323E+02  0.43472740114E+02 -0.32061127969E+02  0.57818927213E+02  0.51100000000E-03 0. -1.
         23    2    1    0    0    0  0.40484047889E+01  0.16313075796E+02 -0.24656314659E+02  0.95249760795E+02  0.90454834341E+02 0.  0.
         11    1    3    3    0    0  0.24669590112E+02 -0.27159664318E+02  0.74048133093E+01  0.37430833581E+02  0.51100000000E-03 0.  1.
         22    1    1    0    0    0 -0.40484047889E+01 -0.16313075796E+02  0.24656314659E+02  0.29840239205E+02  0.00000000000E+00 0. -1.
</event>
<event>
 5    1  0.1046082E-009  0.9118800E+02  0.7561462E-02  0.1125453E+00
         25   -1    0    0    0    0  0.00000000000E+00  0.00000000000E+00  0.99999998245E-14  0.12509000000E+03  0.12509000000E+03 0.  0.
        -11    1    3    3    0    0 -0.55027762196E+02  0.21268048968E+02 -0.11086563900E+02  0.60027463869E+02  0.51100000000E-03 0.  1.
         23    2    1    0    0    0 -0.28932376317E+02  0.55755102994E+01  0.61104894596E+01  0.94998360033E+02  0.90106501503E+02 0.  0.
         11    1    3    3    0    0  0.26095385878E+02 -0.15692538668E+02  0.17197053360E+02  0.34970896164E+02  0.51100000000E-03 0. -1.
         22    1    1    0    0    0  0.28932376317E+02 -0.55755102994E+01 -0.61104894596E+01  0.30091639967E+02  0.00000000000E+00 0.  1.
</event>
<event>
 5    1  0.1046082E-009  0.9118800E+02  0.7561462E-02  0.1125453E+00
         25   -1    0    0    0    0  0.00000000000E+00  0.00000000000E+00  0.99999998245E-14  0.12509000000E+03  0.12509000000E+03 0.  0.
        -11    1    3    3    0    0  0.93599267671E+01 -0.19322414798E+02  0.35953746320E+02  0.41876435109E+02  0.51100000000E-03 0. -1.
         23    2    1    0    0    0 -0.16474755816E+02 -0.27375484298E+02 -0.67518921931E+01  0.92433870898E+02  0.86473104034E+02 0.  0.
         11    1    3    3    0    0 -0.25834682583E+02 -0.80530695001E+01 -0.42705638513E+02  0.50557435789E+02  0.51100000000E-03 0.  1.
         22    1    1    0    0    0  0.16474755816E+02  0.27375484298E+02  0.67518921931E+01  0.32656129102E+02  0.00000000000E+00 0.  1.
</event>
<event>
 5    1  0.1046082E-009  0.9118800E+02  0.7561462E-02  0.1125453E+00
         25   -1    0    0    0    0  0.00000000000E+00  0.00000000000E+00  0.99999998245E-14  0.12509000000E+03  0.12509000000E+03 0.  0.
        -11    1    3    3    0    0  0.28442134651E+02  0.28218883065E+02  0.20043517613E+02  0.44799586867E+02  0.51100000000E-03 0.  1.
         23    2    1    0    0    0 -0.17090715999E+02  0.44705490171E+01  0.22823191487E+02  0.96228668576E+02  0.91798584981E+02 0.  0.
         11    1    3    3    0    0 -0.45532850650E+02 -0.23748334048E+02  0.27796738745E+01  0.51429081709E+02  0.51100000000E-03 0. -1.
         22    1    1    0    0    0  0.17090715999E+02 -0.44705490171E+01 -0.22823191487E+02  0.28861331424E+02  0.00000000000E+00 0. -1.
</event>
<event>
 5    1  0.1046082E-009  0.9118800E+02  0.7561462E-02  0.1125453E+00
         25   -1    0    0    0    0  0.00000000000E+00  0.00000000000E+00  0.99999998245E-14  0.12509000000E+03  0.12509000000E+03 0.  0.
        -11    1    3    3    0    0  0.10880250154E+02 -0.27069052228E+02 -0.48690573319E+02  0.56761653978E+02  0.51100000000E-03 0.  1.
         23    2    1    0    0    0  0.21198468182E+02 -0.14774247925E+02 -0.12428286615E+02  0.96417438845E+02  0.92055454755E+02 0.  0.
         11    1    3    3    0    0  0.10318218028E+02  0.12294804304E+02  0.36262286704E+02  0.39655784867E+02  0.51100000000E-03 0. -1.
         22    1    1    0    0    0 -0.21198468182E+02  0.14774247925E+02  0.12428286615E+02  0.28672561155E+02  0.00000000000E+00 0.  1.
</event>
<event>
 5    1  0.1046082E-009  0.9118800E+02  0.7561462E-02  0.1125453E+00
         25   -1    0    0    0    0  0.00000000000E+00  0.00000000000E+00  0.99999998245E-14  0.12509000000E+03  0.12509000000E+03 0.  0.
        -11    1    3    3    0    0 -0.29682836300E+02  0.63246997590E+01  0.20402152370E+02  0.36569391839E+02  0.51100000000E-03 0.  1.
         23    2    1    0    0    0  0.24607033544E+02  0.14874153144E+02 -0.27494983666E+01  0.96205639650E+02  0.91767199083E+02 0.  0.
         11    1    3    3    0    0  0.54289869844E+02  0.85494533847E+01 -0.23151650736E+02  0.59636247811E+02  0.51100000000E-03 0. -1.
         22    1    1    0    0    0 -0.24607033544E+02 -0.14874153144E+02  0.27494983666E+01  0.28884360350E+02  0.00000000000E+00 0. -1.
</event>
<event>
 5    1  0.1046082E-009  0.9118800E+02  0.7561462E-02  0.1125453E+00
         25   -1    0    0    0    0  0.00000000000E+00  0.00000000000E+00  0.99999998245E-14  0.12509000000E+03  0.12509000000E+03 0.  0.
        -11    1    3    3    0    0  0.18360796349E+02 -0.66056314495E-01 -0.56549692997E+02  0.59455790167E+02  0.51100000000E-03 0.  1.
         23    2    1    0    0    0  0.21247643723E+02  0.67125547341E+01 -0.26158053629E+02  0.90727745643E+02  0.83968799592E+02 0.  0.
         11    1    3    3    0    0  0.28868473747E+01  0.67786110486E+01  0.30391639369E+02  0.31271955476E+02  0.51100000000E-03 0. -1.
         22    1    1    0    0    0 -0.21247643723E+02 -0.67125547341E+01  0.26158053629E+02  0.34362254357E+02  0.00000000000E+00 0.  1.
</event>
<event>
 5    1  0.1046082E-009  0.9118800E+02  0.7561462E-02  0.1125453E+00
         25   -1    0    0    0    0  0.00000000000E+00  0.00000000000E+00  0.99999998245E-14  0.12509000000E+03  0.12509000000E+03 0.  0.
        -11    1    3    3    0    0 -0.20722377260E+01 -0.36097973231E+02  0.73920250414E+01  0.36905282482E+02  0.51100000000E-03 0.  1.
         23    2    1    0    0    0 -0.13663298993E+02  0.22143868411E+02  0.11936170032E+02  0.96462935837E+02  0.92117257816E+02 0.  0.
         11    1    3    3    0    0 -0.11591061267E+02  0.58241841642E+02  0.45441449906E+01  0.59557653355E+02  0.51100000000E-03 0. -1.
         22    1    1    0    0    0  0.13663298993E+02 -0.22143868411E+02 -0.11936170032E+02  0.28627064163E+02  0.00000000000E+00 0. -1.
</event>
<event>
 5    1  0.1046082E-009  0.9118800E+02  0.7561462E-02  0.1125453E+00
         25   -1    0    0    0    0  0.00000000000E+00  0.00000000000E+00  0.99999998245E-14  0.12509000000E+03  0.12509000000E+03 0.  0.
        -11    1    3    3    0    0 -0.19645978810E+02  0.43561072999E+02  0.79916707573E+01  0.48449957337E+02  0.51100000000E-03 0. -1.
         23    2    1    0    0    0 -0.26373479806E+01  0.13393268748E+02 -0.25206908890E+02  0.96424279916E+02  0.92064750309E+02 0.  0.
         11    1    3    3    0    0  0.17008630829E+02 -0.30167804251E+02 -0.33198579647E+02  0.47974322579E+02  0.51100000000E-03 0.  1.
         22    1    1    0    0    0  0.26373479806E+01 -0.13393268748E+02  0.25206908890E+02  0.28665720084E+02  0.00000000000E+00 0.  1.
</event>
<event>
 5    1  0.1046082E-009  0.9118800E+02  0.7561462E-02  0.1125453E+00
         25   -1    0    0    0    0  0.00000000000E+00  0.00000000000E+00  0.99999998245E-14  0.12509000000E+03  0.12509000000E+03 0.  0.
        -11    1    3    3    0    0 -0.16972224191E+02  0.16287625616E+02  0.30444952892E+02  0.38473865143E+02  0.51100000000E-03 0. -1.
         23    2    1    0    0    0 -0.21398681966E+02 -0.28064951211E+02  0.60594663674E+01  0.89281310984E+02  0.81785636160E+02 0.  0.
         11    1    3    3    0    0 -0.44264577746E+01 -0.44352576827E+02 -0.24385486524E+02  0.50807445841E+02  0.51100000000E-03 0.  1.
         22    1    1    0    0    0  0.21398681966E+02  0.28064951211E+02 -0.60594663674E+01  0.35808689016E+02  0.00000000000E+00 0.  1.
</event>
<event>
 5    1  0.1046082E-009  0.9118800E+02  0.7561462E-02  0.1125453E+00
         25   -1    0    0    0    0  0.00000000000E+00  0.00000000000E+00  0.99999998245E-14  0.12509000000E+03  0.12509000000E+03 0.  0.
        -11    1    3    3    0    0 -0.37343239346E+02 -0.49562132158E+01  0.43114614547E+02  0.57253397821E+02  0.51100000000E-03 0.  1.
         23    2    1    0    0    0 -0.26121387711E+02 -0.19980621942E+02  0.21847153846E+02  0.85607721947E+02  0.75959408743E+02 0.  0.
         11    1    3    3    0    0  0.11221851635E+02 -0.15024408726E+02 -0.21267460701E+02  0.28354324125E+02  0.51100000000E-03 0. -1.
         22    1    1    0    0    0  0.26121387711E+02  0.19980621942E+02 -0.21847153846E+02  0.39482278053E+02  0.00000000000E+00 0.  1.
</event>
<event>
 5    1  0.1046082E-009  0.9118800E+02  0.7561462E-02  0.1125453E+00
         25   -1    0    0    0    0  0.00000000000E+00  0.00000000000E+00  0.99999998245E-14  0.12509000000E+03  0.12509000000E+03 0.  0.
        -11    1    3    3    0    0  0.63500982761E+00  0.18421855449E+02  0.51867338148E+02  0.55045333703E+02  0.51100000000E-03 0. -1.
         23    2    1    0    0    0  0.13134859956E+02  0.22216338216E+02  0.12715514423E+02  0.96318928820E+02  0.91921496465E+02 0.  0.
         11    1    3    3    0    0  0.12499850128E+02  0.37944827672E+01 -0.39151823725E+02  0.41273595117E+02  0.51100000000E-03 0.  1.
         22    1    1    0    0    0 -0.13134859956E+02 -0.22216338216E+02 -0.12715514423E+02  0.28771071180E+02  0.00000000000E+00 0. -1.
</event>
<event>
 5    1  0.1046082E-009  0.9118800E+02  0.7561462E-02  0.1125453E+00
         25   -1    0    0    0    0  0.00000000000E+00  0.00000000000E+00  0.99999998245E-14  0.12509000000E+03  0.12509000000E+03 0.  0.
        -11    1    3    3    0    0  0.43104279987E+01  0.43192449535E+02  0.41657194374E+02  0.60162191863E+02  0.51100000000E-03 0.  1.
         23    2    1    0    0    0 -0.97744165175E+01  0.14209760077E+02  0.18174446437E+02  0.10003472105E+03  0.96846158486E+02 0.  0.
         11    1    3    3    0    0 -0.14084844516E+02 -0.28982689458E+02 -0.23482747937E+02  0.39872529192E+02  0.51100000000E-03 0. -1.
         22    1    1    0    0    0  0.97744165175E+01 -0.14209760077E+02 -0.18174446437E+02  0.25055278945E+02  0.00000000000E+00 0.  1.
</event>
<event>
 5    1  0.1046082E-009  0.9118800E+02  0.7561462E-02  0.1125453E+00
         25   -1    0    0    0    0  0.00000000000E+00  0.00000000000E+00  0.99999998245E-14  0.12509000000E+03  0.12509000000E+03 0.  0.
        -11    1    3    3    0    0 -0.89344019381E+01  0.21518783704E+02  0.47526825799E+02  0.52930905537E+02  0.51100000000E-03 0.  1.
         23    2    1    0    0    0 -0.91945699043E+01  0.29841877697E+02  0.86524009267E+01  0.92687194227E+02  0.86838782532E+02 0.  0.
         11    1    3    3    0    0 -0.26016796620E+00  0.83230939923E+01 -0.38874424873E+02  0.39756288690E+02  0.51100000000E-03 0. -1.
         22    1    1    0    0    0  0.91945699043E+01 -0.29841877697E+02 -0.86524009267E+01  0.32402805773E+02  0.00000000000E+00 0.  1.
</event>
<event>
 5    1  0.1046082E-009  0.9118800E+02  0.7561462E-02  0.1125453E+00
         25   -1    0    0    0    0  0.00000000000E+00  0.00000000000E+00  0.99999998245E-14  0.12509000000E+03  0.12509000000E+03 0.  0.
        -11    1    3    3    0    0 -0.27084836801E+02  0.76308378048E+01  0.35254285479E+02  0.45107457422E+02  0.51100000000E-03 0. -1.
         23    2    1    0    0    0  0.84659271057E+01  0.22266923395E+02 -0.49757375713E+01  0.10075389999E+03  0.97770663289E+02 0.  0.
         11    1    3    3    0    0  0.35550763907E+02  0.14636085590E+02 -0.40230023051E+02  0.55646442570E+02  0.51100000000E-03 0.  1.
         22    1    1    0    0    0 -0.84659271057E+01 -0.22266923395E+02  0.49757375713E+01  0.24336100008E+02  0.00000000000E+00 0.  1.
</event>
<event>
 5    1  0.1046082E-009  0.9118800E+02  0.7561462E-02  0.1125453E+00
         25   -1    0    0    0    0  0.00000000000E+00  0.00000000000E+00  0.99999998245E-14  0.12509000000E+03  0.12509000000E+03 0.  0.
        -11    1    3    3    0    0 -0.12610871900E+02  0.32202257588E+02 -0.11257221917E+01  0.34601831375E+02  0.51100000000E-03 0. -1.
         23    2    1    0    0    0  0.40771485853E+01 -0.20658666094E+02  0.21974569428E+02  0.94655064039E+02  0.89628655135E+02 0.  0.
         11    1    3    3    0    0  0.16688020485E+02 -0.52860923682E+02  0.23100291620E+02  0.60053232664E+02  0.51100000000E-03 0.  1.
         22    1    1    0    0    0 -0.40771485853E+01  0.20658666094E+02 -0.21974569428E+02  0.30434935961E+02  0.00000000000E+00 0.  1.
</event>
<event>
 5    1  0.1046082E-009  0.9118800E+02  0.7561462E-02  0.1125453E+00
         25   -1    0    0    0    0  0.00000000000E+00  0.00000000000E+00  0.99999998245E-14  0.12509000000E+03  0.12509000000E+03 0.  0.
        -11    1    3    3    0    0  0.50065205891E+01  0.89292776887E+01  0.36820173596E+02  0.38216782078E+02  0.51100000000E-03 0. -1.
         23    2    1    0    0    0 -0.24710670579E+02 -0.30041206699E+01 -0.12665583655E+02  0.97160463828E+02  0.93059640771E+02 0.  0.
         11    1    3    3    0    0 -0.29717191168E+02 -0.11933398359E+02 -0.49485757251E+02  0.58943681750E+02  0.51100000000E-03 0.  1.
         22    1    1    0    0    0  0.24710670579E+02  0.30041206699E+01  0.12665583655E+02  0.27929536172E+02  0.00000000000E+00 0.  1.
</event>
<event>
 5    1  0.1046082E-009  0.9118800E+02  0.7561462E-02  0.1125453E+00
         25   -1    0    0    0    0  0.00000000000E+00  0.00000000000E+00  0.99999998245E-14  0.12509000000E+03  0.12509000000E+03 0.  0.
        -11    1    3    3    0    0  0.41640724961E+02 -0.16992294590E+02 -0.33169941461E+01  0.45096457745E+02  0.51100000000E-03 0. -1.
         23    2    1    0    0    0  0.55598340503E+00 -0.26806652514E+01 -0.29228052835E+02  0.95734009874E+02  0.91122041737E+02 0.  0.
         11    1    3    3    0    0 -0.41084741556E+02  0.14311629339E+02 -0.25911058689E+02  0.50637552130E+02  0.51100000000E-03 0.  1.
         22    1    1    0    0    0 -0.55598340503E+00  0.26806652514E+01  0.29228052835E+02  0.29355990126E+02  0.00000000000E+00 0.  1.
</event>
<event>
 5    1  0.1046082E-009  0.9118800E+02  0.7561462E-02  0.1125453E+00
         25   -1    0    0    0    0  0.00000000000E+00  0.00000000000E+00  0.99999998245E-14  0.12509000000E+03  0.12509000000E+03 0.  0.
        -11    1    3    3    0    0  0.45668283381E+02  0.34559646092E+02  0.16577443570E+02  0.59621916109E+02  0.51100000000E-03 0. -1.
         23    2    1    0    0    0  0.20843156508E+02  0.74671681654E+01  0.18237197947E+02  0.96405663462E+02  0.92039452329E+02 0.  0.
         11    1    3    3    0    0 -0.24825126873E+02 -0.27092477927E+02  0.16597543773E+01  0.36783747353E+02  0.51100000000E-03 0.  1.
         22    1    1    0    0    0 -0.20843156508E+02 -0.74671681654E+01 -0.18237197947E+02  0.28684336538E+02  0.00000000000E+00 0. -1.
</event>
<event>
 5    1  0.1046082E-009  0.9118800E+02  0.7561462E-02  0.1125453E+00
         25   -1    0    0    0    0  0.00000000000E+00  0.00000000000E+00  0.99999998245E-14  0.12509000000E+03  0.12509000000E+03 0.  0.
        -11    1    3    3    0    0 -0.44593950636E+02  0.12623803951E+02  0.15894861556E+02  0.48996198665E+02  0.51100000000E-03 0.  1.
         23    2    1    0    0    0 -0.30336634547E+01  0.58793369095E+01 -0.19812098211E+02  0.10420246898E+03  0.10208753886E+03 0.  0.
         11    1    3    3    0    0  0.41560287181E+02 -0.67444670411E+01 -0.35706959768E+02  0.55206270317E+02  0.51100000000E-03 0. -1.
         22    1    1    0    0    0  0.30336634547E+01 -0.58793369095E+01  0.19812098211E+02  0.20887531017E+02  0.00000000000E+00 0. -1.
</event>
<event>
 5    1  0.1046082E-009  0.9118800E+02  0.7561462E-02  0.1125453E+00
         25   -1    0    0    0    0  0.00000000000E+00  0.00000000000E+00  0.99999998245E-14  0.12509000000E+03  0.12509000000E+03 0.  0.
        -11    1    3    3    0    0 -0.34241009361E+02 -0.27739432501E+02  0.28707368625E+02  0.52593116006E+02  0.51100000000E-03 0.  1.
         23    2    1    0    0    0 -0.12004513703E+02  0.46663415362E+01  0.30548343887E+02  0.91937558057E+02  0.85752143849E+02 0.  0.
         11    1    3    3    0    0  0.22236495658E+02  0.32405774038E+02  0.18409752616E+01  0.39344442051E+02  0.51100000000E-03 0. -1.
         22    1    1    0    0    0  0.12004513703E+02 -0.46663415362E+01 -0.30548343887E+02  0.33152441943E+02  0.00000000000E+00 0.  1.
</event>
<event>
 5    1  0.1046082E-009  0.9118800E+02  0.7561462E-02  0.1125453E+00
         25   -1    0    0    0    0  0.00000000000E+00  0.00000000000E+00  0.99999998245E-14  0.12509000000E+03  0.12509000000E+03 0.  0.
        -11    1    3    3    0    0 -0.23895834777E+02  0.31708556914E+02 -0.95843240327E+01  0.40844862207E+02  0.51100000000E-03 0.  1.
         23    2    1    0    0    0  0.16525845751E+02 -0.67638222814E+01  0.14947953604E+02  0.10180278921E+03  0.99103550408E+02 0.  0.
         11    1    3    3    0    0  0.40421680528E+02 -0.38472379195E+02  0.24532277637E+02  0.60957926999E+02  0.51100000000E-03 0. -1.
         22    1    1    0    0    0 -0.16525845751E+02  0.67638222814E+01 -0.14947953604E+02  0.23287210795E+02  0.00000000000E+00 0. -1.
</event>
<event>
 5    1  0.1046082E-009  0.9118800E+02  0.7561462E-02  0.1125453E+00
         25   -1    0    0    0    0  0.00000000000E+00  0.00000000000E+00  0.99999998245E-14  0.12509000000E+03  0.12509000000E+03 0.  0.
        -11    1    3    3    0    0  0.53077072903E+02 -0.22125081103E+02  0.22918579853E+02  0.61902796258E+02  0.51100000000E-03 0. -1.
         23    2    1    0    0    0  0.20814997108E+02 -0.15379655370E+02  0.11296898925E+02  0.96851412408E+02  0.92643285003E+02 0.  0.
         11    1    3    3    0    0 -0.32262075795E+02  0.67454257337E+01 -0.11621680928E+02  0.34948616150E+02  0.51100000000E-03 0.  1.
         22    1    1    0    0    0 -0.20814997108E+02  0.15379655370E+02 -0.11296898925E+02  0.28238587592E+02  0.00000000000E+00 0. -1.
</event>
<event>
 5    1  0.1046082E-009  0.9118800E+02  0.7561462E-02  0.1125453E+00
         25   -1    0    0    0    0  0.00000000000E+00  0.00000000000E+00  0.99999998245E-14  0.12509000000E+03  0.12509000000E+03 0.  0.
        -11    1    3    3    0    0 -0.21795747475E+02  0.55772894529E+01  0.13811215149E+02  0.26399061154E+02  0.51100000000E-03 0. -1.
         23    2    1    0    0    0  0.26452649915E+02  0.20060185441E+02 -0.19306710602E+02  0.86685536696E+02  0.77714087980E+02 0.  0.
         11    1    3    3    0    0  0.48248397390E+02  0.14482895988E+02 -0.33117925751E+02  0.60286475542E+02  0.51100000000E-03 0.  1.
         22    1    1    0    0    0 -0.26452649915E+02 -0.20060185441E+02  0.19306710602E+02  0.38404463304E+02  0.00000000000E+00 0.  1.
</event>
<event>
 5    1  0.1046082E-009  0.9118800E+02  0.7561462E-02  0.1125453E+00
         25   -1    0    0    0    0  0.00000000000E+00  0.00000000000E+00  0.99999998245E-14  0.12509000000E+03  0.12509000000E+03 0.  0.
        -11    1    3    3    0    0 -0.28073931706E+02 -0.18531142305E+02  0.22478959312E+02  0.40458033672E+02  0.51100000000E-03 0. -1.
         23    2    1    0    0    0  0.61015261596E+01 -0.15970932996E+02 -0.22390491557E+02  0.96918499607E+02  0.92733824097E+02 0.  0.
         11    1    3    3    0    0  0.34175457866E+02  0.25602093096E+01 -0.44869450869E+02  0.56460465935E+02  0.51100000000E-03 0.  1.
         22    1    1    0    0    0 -0.61015261596E+01  0.15970932996E+02  0.22390491557E+02  0.28171500393E+02  0.00000000000E+00 0.  1.
</event>
<event>
 5    1  0.1046082E-009  0.9118800E+02  0.7561462E-02  0.1125453E+00
         25   -1    0    0    0    0  0.00000000000E+00  0.00000000000E+00  0.99999998245E-14  0.12509000000E+03  0.12509000000E+03 0.  0.
        -11    1    3    3    0    0  0.44000066465E+02 -0.21019582216E+02 -0.83655251563E+00  0.48770159994E+02  0.51100000000E-03 0. -1.
         23    2    1    0    0    0  0.19921047739E+02  0.19936099434E+02 -0.50181249038E+01  0.96463477662E+02  0.92117993581E+02 0.  0.
         11    1    3    3    0    0 -0.24079018726E+02  0.40955681650E+02 -0.41815723881E+01  0.47693317667E+02  0.51100000000E-03 0.  1.
         22    1    1    0    0    0 -0.19921047739E+02 -0.19936099434E+02  0.50181249038E+01  0.28626522338E+02  0.00000000000E+00 0. -1.
</event>
<event>
 5    1  0.1046082E-009  0.9118800E+02  0.7561462E-02  0.1125453E+00
         25   -1    0    0    0    0  0.00000000000E+00  0.00000000000E+00  0.99999998245E-14  0.12509000000E+03  0.12509000000E+03 0.  0.
        -11    1    3    3    0    0  0.18325104093E+02  0.95891568855E+01  0.28944388130E+02  0.35574414602E+02  0.51100000000E-03 0. -1.
         23    2    1    0    0    0 -0.28844688583E+02  0.16439351225E+01 -0.69450556409E+01  0.95375485365E+02  0.90628532089E+02 0.  0.
         11    1    3    3    0    0 -0.47169792676E+02 -0.79452217631E+01 -0.35889443771E+02  0.59801070763E+02  0.51100000000E-03 0.  1.
         22    1    1    0    0    0  0.28844688583E+02 -0.16439351225E+01  0.69450556409E+01  0.29714514635E+02  0.00000000000E+00 0.  1.
</event>
<event>
 5    1  0.1046082E-009  0.9118800E+02  0.7561462E-02  0.1125453E+00
         25   -1    0    0    0    0  0.00000000000E+00  0.00000000000E+00  0.99999998245E-14  0.12509000000E+03  0.12509000000E+03 0.  0.
        -11    1    3    3    0    0 -0.13316909906E+02  0.29313280007E+02 -0.12041124575E+02  0.34374367711E+02  0.51100000000E-03 0. -1.
         23    2    1    0    0    0 -0.16431516186E+02 -0.67920775203E+01  0.30208785558E+02  0.90037214574E+02  0.82933721984E+02 0.  0.
         11    1    3    3    0    0 -0.31146062797E+01 -0.36105357527E+02  0.42249910133E+02  0.55662846864E+02  0.51100000000E-03 0.  1.
         22    1    1    0    0    0  0.16431516186E+02  0.67920775203E+01 -0.30208785558E+02  0.35052785426E+02  0.00000000000E+00 0.  1.
</event>
<event>
 5    1  0.1046082E-009  0.9118800E+02  0.7561462E-02  0.1125453E+00
         25   -1    0    0    0    0  0.00000000000E+00  0.00000000000E+00  0.99999998245E-14  0.12509000000E+03  0.12509000000E+03 0.  0.
        -11    1    3    3    0    0  0.33179962702E+02 -0.35342870193E+02 -0.13712604870E+02  0.50379201373E+02  0.51100000000E-03 0. -1.
         23    2    1    0    0    0  0.27107009346E+02  0.90929594261E+01 -0.51276177133E+01  0.96042378235E+02  0.91544383152E+02 0.  0.
         11    1    3    3    0    0 -0.60729533560E+01  0.44435829619E+02  0.85849871565E+01  0.45663176862E+02  0.51100000000E-03 0.  1.
         22    1    1    0    0    0 -0.27107009346E+02 -0.90929594261E+01  0.51276177133E+01  0.29047621765E+02  0.00000000000E+00 0. -1.
</event>
<event>
 5    1  0.1046082E-009  0.9118800E+02  0.7561462E-02  0.1125453E+00
         25   -1    0    0    0    0  0.00000000000E+00  0.00000000000E+00  0.99999998245E-14  0.12509000000E+03  0.12509000000E+03 0.  0.
        -11    1    3    3    0    0 -0.28501776657E+02 -0.10528217174E+02 -0.36758873699E+02  0.47690768764E+02  0.51100000000E-03 0.  1.
         23    2    1    0    0    0  0.33518432379E+01  0.20791988971E+02 -0.21744003949E+02  0.94818836062E+02  0.89856932431E+02 0.  0.
         11    1    3    3    0    0  0.31853619895E+02  0.31320206145E+02  0.15014869750E+02  0.47128067298E+02  0.51100000000E-03 0. -1.
         22    1    1    0    0    0 -0.33518432379E+01 -0.20791988971E+02  0.21744003949E+02  0.30271163938E+02  0.00000000000E+00 0. -1.
</event>
<event>
 5    1  0.1046082E-009  0.9118800E+02  0.7561462E-02  0.1125453E+00
         25   -1    0    0    0    0  0.00000000000E+00  0.00000000000E+00  0.99999998245E-14  0.12509000000E+03  0.12509000000E+03 0.  0.
        -11    1    3    3    0    0  0.11111635822E+02 -0.55280919634E+02 -0.44248400220E+01  0.56559948158E+02  0.51100000000E-03 0.  1.
         23    2    1    0    0    0  0.21122998501E+02 -0.20540045111E+02  0.76011541187E+01  0.94662182747E+02  0.89638589791E+02 0.  0.
         11    1    3    3    0    0  0.10011362679E+02  0.34740874523E+02  0.12025994141E+02  0.38102234589E+02  0.51100000000E-03 0. -1.
         22    1    1    0    0    0 -0.21122998501E+02  0.20540045111E+02 -0.76011541187E+01  0.30427817253E+02  0.00000000000E+00 0.  1.
</event>
<event>
 5    1  0.1046082E-009  0.9118800E+02  0.7561462E-02  0.1125453E+00
         25   -1    0    0    0    0  0.00000000000E+00  0.00000000000E+00  0.99999998245E-14  0.12509000000E+03  0.12509000000E+03 0.  0.
        -11    1    3    3    0    0  0.17820086690E+02  0.38580375472E+01  0.35620640243E+02  0.40015871288E+02  0.51100000000E-03 0.  1.
         23    2    1    0    0    0 -0.27420416215E+02 -0.75735020544E+01  0.40472993911E+01  0.96356434417E+02  0.91972521235E+02 0.  0.
         11    1    3    3    0    0 -0.45240502905E+02 -0.11431539602E+02 -0.31573340852E+02  0.56340563128E+02  0.51100000000E-03 0. -1.
         22    1    1    0    0    0  0.27420416215E+02  0.75735020544E+01 -0.40472993911E+01  0.28733565583E+02  0.00000000000E+00 0. -1.
</event>
<event>
 5    1  0.1046082E-009  0.9118800E+02  0.7561462E-02  0.1125453E+00
         25   -1    0    0    0    0  0.00000000000E+00  0.00000000000E+00  0.99999998245E-14  0.12509000000E+03  0.12509000000E+03 0.  0.
        -11    1    3    3    0    0  0.45844991950E+02  0.22154078494E+02 -0.33699952289E+02  0.61059424050E+02  0.51100000000E-03 0. -1.
         23    2    1    0    0    0  0.19417797275E+02  0.19749485205E+02 -0.20028928579E+02  0.90910313096E+02  0.84240334937E+02 0.  0.
         11    1    3    3    0    0 -0.26427194675E+02 -0.24045932887E+01  0.13671023711E+02  0.29850889046E+02  0.51100000000E-03 0.  1.
         22    1    1    0    0    0 -0.19417797275E+02 -0.19749485205E+02  0.20028928579E+02  0.34179686904E+02  0.00000000000E+00 0. -1.
</event>
<event>
 5    1  0.1046082E-009  0.9118800E+02  0.7561462E-02  0.1125453E+00
         25   -1    0    0    0    0  0.00000000000E+00  0.00000000000E+00  0.99999998245E-14  0.12509000000E+03  0.12509000000E+03 0.  0.
        -11    1    3    3    0    0 -0.69902873704E+01 -0.57096240557E+02 -0.16030817299E+02  0.59714587052E+02  0.51100000000E-03 0. -1.
         23    2    1    0    0    0  0.79303247006E+01 -0.29508846308E+02 -0.94102068249E+00  0.94519629047E+02  0.89439435905E+02 0.  0.
         11    1    3    3    0    0  0.14920612071E+02  0.27587394250E+02  0.15089796617E+02  0.34805041995E+02  0.51100000000E-03 0.  1.
         22    1    1    0    0    0 -0.79303247006E+01  0.29508846308E+02  0.94102068249E+00  0.30570370953E+02  0.00000000000E+00 0. -1.
</event>
<event>
 5    1  0.1046082E-009  0.9118800E+02  0.7561462E-02  0.1125453E+00
         25   -1    0    0    0    0  0.00000000000E+00  0.00000000000E+00  0.99999998245E-14  0.12509000000E+03  0.12509000000E+03 0.  0.
        -11    1    3    3    0    0  0.10171738214E+02 -0.14007201184E+02  0.48604809527E+02  0.51595478995E+02  0.51100000000E-03 0. -1.
         23    2    1    0    0    0  0.18769545247E+01  0.19989052447E+02  0.19338077951E+02  0.97214447362E+02  0.93132176723E+02 0.  0.
         11    1    3    3    0    0 -0.82947836889E+01  0.33996253631E+02 -0.29266731577E+02  0.45618968367E+02  0.51100000000E-03 0.  1.
         22    1    1    0    0    0 -0.18769545247E+01 -0.19989052447E+02 -0.19338077951E+02  0.27875552638E+02  0.00000000000E+00 0. -1.
</event>
<event>
 5    1  0.1046082E-009  0.9118800E+02  0.7561462E-02  0.1125453E+00
         25   -1    0    0    0    0  0.00000000000E+00  0.00000000000E+00  0.99999998245E-14  0.12509000000E+03  0.12509000000E+03 0.  0.
        -11    1    3    3    0    0 -0.34259295091E+02  0.95088057263E+00 -0.35905157537E+02  0.49636516921E+02  0.51100000000E-03 0.  1.
         23    2    1    0    0    0  0.18187256005E+01  0.23163482057E+02 -0.18289374075E+02  0.95520490909E+02  0.90828455429E+02 0.  0.
         11    1    3    3    0    0  0.36078020692E+02  0.22212601484E+02  0.17615783462E+02  0.45883973988E+02  0.51100000000E-03 0. -1.
         22    1    1    0    0    0 -0.18187256005E+01 -0.23163482057E+02  0.18289374075E+02  0.29569509091E+02  0.00000000000E+00 0.  1.
</event>
<event>
 5    1  0.1046082E-009  0.9118800E+02  0.7561462E-02  0.1125453E+00
         25   -1    0    0    0    0  0.00000000000E+00  0.00000000000E+00  0.99999998245E-14  0.12509000000E+03  0.12509000000E+03 0.  0.
        -11    1    3    3    0    0 -0.29005516332E+02 -0.20940586523E+02  0.37794328100E+02  0.52040747289E+02  0.51100000000E-03 0.  1.
         23    2    1    0    0    0 -0.27618374818E+02 -0.76973900099E+01 -0.42158736331E+01  0.96110731013E+02  0.91637735594E+02 0.  0.
         11    1    3    3    0    0  0.13871415141E+01  0.13243196513E+02 -0.42010201734E+02  0.44069983724E+02  0.51100000000E-03 0. -1.
         22    1    1    0    0    0  0.27618374818E+02  0.76973900099E+01  0.42158736331E+01  0.28979268987E+02  0.00000000000E+00 0.  1.
</event>
<event>
 5    1  0.1046082E-009  0.9118800E+02  0.7561462E-02  0.1125453E+00
         25   -1    0    0    0    0  0.00000000000E+00  0.00000000000E+00  0.99999998245E-14  0.12509000000E+03  0.12509000000E+03 0.  0.
        -11    1    3    3    0    0  0.50648270743E+02 -0.48585600901E+01 -0.22719779702E+02  0.55722897675E+02  0.51100000000E-03 0.  1.
         23    2    1    0    0    0  0.26011474145E+02 -0.66662761271E+01  0.97509312913E+01  0.96522243952E+02  0.92197759690E+02 0.  0.
         11    1    3    3    0    0 -0.24636796598E+02 -0.18077160369E+01  0.32470710994E+02  0.40799346276E+02  0.51100000000E-03 0. -1.
         22    1    1    0    0    0 -0.26011474145E+02  0.66662761271E+01 -0.97509312913E+01  0.28567756048E+02  0.00000000000E+00 0.  1.
</event>
<event>
 5    1  0.1046082E-009  0.9118800E+02  0.7561462E-02  0.1125453E+00
         25   -1    0    0    0    0  0.00000000000E+00  0.00000000000E+00  0.99999998245E-14  0.12509000000E+03  0.12509000000E+03 0.  0.
        -11    1    3    3    0    0 -0.27547481035E+02  0.32772502165E+02  0.49751916346E+01  0.43100500479E+02  0.51100000000E-03 0.  1.
         23    2    1    0    0    0 -0.11282196761E+02 -0.89141673946E+01 -0.24499200047E+02  0.96682938430E+02  0.92415525949E+02 0.  0.
         11    1    3    3    0    0  0.16265284274E+02 -0.41686669560E+02 -0.29474391682E+02  0.53582437951E+02  0.51100000000E-03 0. -1.
         22    1    1    0    0    0  0.11282196761E+02  0.89141673946E+01  0.24499200047E+02  0.28407061570E+02  0.00000000000E+00 0. -1.
</event>
<event>
 5    1  0.1046082E-009  0.9118800E+02  0.7561462E-02  0.1125453E+00
         25   -1    0    0    0    0  0.00000000000E+00  0.00000000000E+00  0.99999998245E-14  0.12509000000E+03  0.12509000000E+03 0.  0.
        -11    1    3    3    0    0 -0.24839606830E+02  0.32770518568E+02 -0.19488647738E+02  0.45505168340E+02  0.51100000000E-03 0.  1.
         23    2    1    0    0    0 -0.51490602561E+01  0.27433952527E+02  0.20540948734E+02  0.90433613176E+02  0.83529475303E+02 0.  0.
         11    1    3    3    0    0  0.19690546574E+02 -0.53365660410E+01  0.40029596472E+02  0.44928444837E+02  0.51100000000E-03 0. -1.
         22    1    1    0    0    0  0.51490602561E+01 -0.27433952527E+02 -0.20540948734E+02  0.34656386824E+02  0.00000000000E+00 0.  1.
</event>
<event>
 5    1  0.1046082E-009  0.9118800E+02  0.7561462E-02  0.1125453E+00
         25   -1    0    0    0    0  0.00000000000E+00  0.00000000000E+00  0.99999998245E-14  0.12509000000E+03  0.12509000000E+03 0.  0.
        -11    1    3    3    0    0 -0.28607117241E+02 -0.48448498809E+02  0.12556058222E+01  0.56277888553E+02  0.51100000000E-03 0.  1.
         23    2    1    0    0    0 -0.25358639937E+02 -0.10023299173E+02  0.10394499476E+02  0.95908280291E+02  0.91360962469E+02 0.  0.
         11    1    3    3    0    0  0.32484773038E+01  0.38425199636E+02  0.91388936543E+01  0.39630391739E+02  0.51100000000E-03 0. -1.
         22    1    1    0    0    0  0.25358639937E+02  0.10023299173E+02 -0.10394499476E+02  0.29181719709E+02  0.00000000000E+00 0.  1.
</event>
<event>
 5    1  0.1046082E-009  0.9118800E+02  0.7561462E-02  0.1125453E+00
         25   -1    0    0    0    0  0.00000000000E+00  0.00000000000E+00  0.99999998245E-14  0.12509000000E+03  0.12509000000E+03 0.  0.
        -11    1    3    3    0    0 -0.46468902350E+01  0.21445748079E+02  0.57728813833E+02  0.61758640256E+02  0.51100000000E-03 0. -1.
         23    2    1    0    0    0 -0.78306801228E+01  0.57427861276E+01  0.26677460514E+02  0.96700106672E+02  0.92438761281E+02 0.  0.
         11    1    3    3    0    0 -0.31837898878E+01 -0.15702961951E+02 -0.31051353319E+02  0.34941466415E+02  0.51100000000E-03 0.  1.
         22    1    1    0    0    0  0.78306801228E+01 -0.57427861276E+01 -0.26677460514E+02  0.28389893328E+02  0.00000000000E+00 0. -1.
</event>
<event>
 5    1  0.1046082E-009  0.9118800E+02  0.7561462E-02  0.1125453E+00
         25   -1    0    0    0    0  0.00000000000E+00  0.00000000000E+00  0.99999998245E-14  0.12509000000E+03  0.12509000000E+03 0.  0.
        -11    1    3    3    0    0 -0.17816686956E+02 -0.41790743345E+02 -0.62895956001E+01  0.45863488490E+02  0.51100000000E-03 0. -1.
         23    2    1    0    0    0 -0.21490326045E+02  0.27142383306E+01  0.18203388697E+02  0.96795750350E+02  0.92568097758E+02 0.  0.
         11    1    3    3    0    0 -0.36736390889E+01  0.44504981676E+02  0.24492984297E+02  0.50932261860E+02  0.51100000000E-03 0.  1.
         22    1    1    0    0    0  0.21490326045E+02 -0.27142383306E+01 -0.18203388697E+02  0.28294249650E+02  0.00000000000E+00 0.  1.
</event>
<event>
 5    1  0.1046082E-009  0.9118800E+02  0.7561462E-02  0.1125453E+00
         25   -1    0    0    0    0  0.00000000000E+00  0.00000000000E+00  0.99999998245E-14  0.12509000000E+03  0.12509000000E+03 0.  0.
        -11    1    3    3    0    0  0.42645044560E+02  0.20037570990E+02  0.82680919211E+01  0.47837907782E+02  0.51100000000E-03 0.  1.
         23    2    1    0    0    0 -0.16472012732E+01  0.27265121664E+02 -0.95929134228E+01  0.96139626612E+02  0.91677171017E+02 0.  0.
         11    1    3    3    0    0 -0.44292245833E+02  0.72275506737E+01 -0.17861005344E+02  0.48301718829E+02  0.51100000000E-03 0. -1.
         22    1    1    0    0    0  0.16472012732E+01 -0.27265121664E+02  0.95929134228E+01  0.28950373388E+02  0.00000000000E+00 0. -1.
</event>
<event>
 5    1  0.1046082E-009  0.9118800E+02  0.7561462E-02  0.1125453E+00
         25   -1    0    0    0    0  0.00000000000E+00  0.00000000000E+00  0.99999998245E-14  0.12509000000E+03  0.12509000000E+03 0.  0.
        -11    1    3    3    0    0 -0.14565747601E+02 -0.53766992062E+02 -0.25451930641E+02  0.61244193294E+02  0.51100000000E-03 0. -1.
         23    2    1    0    0    0 -0.64442239938E+01 -0.28370632515E+02 -0.34894011318E+01  0.95788178684E+02  0.91196372971E+02 0.  0.
         11    1    3    3    0    0  0.81215236076E+01  0.25396359547E+02  0.21962529509E+02  0.34543985390E+02  0.51100000000E-03 0.  1.
         22    1    1    0    0    0  0.64442239938E+01  0.28370632515E+02  0.34894011318E+01  0.29301821316E+02  0.00000000000E+00 0. -1.
</event>
<event>
 5    1  0.1046082E-009  0.9118800E+02  0.7561462E-02  0.1125453E+00
         25   -1    0    0    0    0  0.00000000000E+00  0.00000000000E+00  0.99999998245E-14  0.12509000000E+03  0.12509000000E+03 0.  0.
        -11    1    3    3    0    0 -0.15673913278E+02  0.24778156687E+02  0.20172756888E+02  0.35588884880E+02  0.51100000000E-03 0.  1.
         23    2    1    0    0    0  0.26534985815E+02 -0.12786972152E+02 -0.14308295991E+00  0.95634396089E+02  0.90985191726E+02 0.  0.
         11    1    3    3    0    0  0.42208899093E+02 -0.37565128839E+02 -0.20315839848E+02  0.60045511209E+02  0.51100000000E-03 0. -1.
         22    1    1    0    0    0 -0.26534985815E+02  0.12786972152E+02  0.14308295991E+00  0.29455603911E+02  0.00000000000E+00 0. -1.
</event>
<event>
 5    1  0.1046082E-009  0.9118800E+02  0.7561462E-02  0.1125453E+00
         25   -1    0    0    0    0  0.00000000000E+00  0.00000000000E+00  0.99999998245E-14  0.12509000000E+03  0.12509000000E+03 0.  0.
        -11    1    3    3    0    0  0.49368050981E+01  0.17991935144E+02 -0.49510010489E+02  0.52908627970E+02  0.51100000000E-03 0.  1.
         23    2    1    0    0    0  0.22469912439E+02  0.14759134598E+02 -0.97324745693E+01  0.96498916069E+02  0.92166103976E+02 0.  0.
         11    1    3    3    0    0  0.17533107341E+02 -0.32328005453E+01  0.39777535920E+02  0.43590288099E+02  0.51100000000E-03 0. -1.
         22    1    1    0    0    0 -0.22469912439E+02 -0.14759134598E+02  0.97324745693E+01  0.28591083931E+02  0.00000000000E+00 0.  1.
</event>
<event>
 5    1  0.1046082E-009  0.9118800E+02  0.7561462E-02  0.1125453E+00
         25   -1    0    0    0    0  0.00000000000E+00  0.00000000000E+00  0.99999998245E-14  0.12509000000E+03  0.12509000000E+03 0.  0.
        -11    1    3    3    0    0 -0.29281714648E+02  0.19354343575E+02  0.11329439553E+02  0.36883134748E+02  0.51100000000E-03 0.  1.
         23    2    1    0    0    0  0.12931047917E+02 -0.61954833374E+01 -0.23696064599E+02  0.97393438995E+02  0.93372278904E+02 0.  0.
         11    1    3    3    0    0  0.42212762565E+02 -0.25549826913E+02 -0.35025504153E+02  0.60510304247E+02  0.51100000000E-03 0. -1.
         22    1    1    0    0    0 -0.12931047917E+02  0.61954833374E+01  0.23696064599E+02  0.27696561005E+02  0.00000000000E+00 0. -1.
</event>
<event>
 5    1  0.1046082E-009  0.9118800E+02  0.7561462E-02  0.1125453E+00
         25   -1    0    0    0    0  0.00000000000E+00  0.00000000000E+00  0.99999998245E-14  0.12509000000E+03  0.12509000000E+03 0.  0.
        -11    1    3    3    0    0 -0.41470061566E+02 -0.27528864599E+02 -0.97313704936E+01  0.50717886040E+02  0.51100000000E-03 0.  1.
         23    2    1    0    0    0 -0.63797627964E+01 -0.20808421399E+02  0.18713711884E+02  0.96386432505E+02  0.92013311994E+02 0.  0.
         11    1    3    3    0    0  0.35090298770E+02  0.67204432000E+01  0.28445082377E+02  0.45668546465E+02  0.51100000000E-03 0. -1.
         22    1    1    0    0    0  0.63797627964E+01  0.20808421399E+02 -0.18713711884E+02  0.28703567495E+02  0.00000000000E+00 0.  1.
</event>
<event>
 5    1  0.1046082E-009  0.9118800E+02  0.7561462E-02  0.1125453E+00
         25   -1    0    0    0    0  0.00000000000E+00  0.00000000000E+00  0.99999998245E-14  0.12509000000E+03  0.12509000000E+03 0.  0.
        -11    1    3    3    0    0 -0.67557160989E+00 -0.13579008920E+02 -0.31176704592E+02  0.34012244702E+02  0.51100000000E-03 0. -1.
         23    2    1    0    0    0  0.17542544603E+00 -0.55143906047E+01  0.29424044217E+02  0.95153172247E+02  0.90321163261E+02 0.  0.
         11    1    3    3    0    0  0.85099705592E+00  0.80646183148E+01  0.60600748809E+02  0.61140927545E+02  0.51100000000E-03 0.  1.
         22    1    1    0    0    0 -0.17542544603E+00  0.55143906047E+01 -0.29424044217E+02  0.29936827753E+02  0.00000000000E+00 0.  1.
</event>
<event>
 5    1  0.1046082E-009  0.9118800E+02  0.7561462E-02  0.1125453E+00
         25   -1    0    0    0    0  0.00000000000E+00  0.00000000000E+00  0.99999998245E-14  0.12509000000E+03  0.12509000000E+03 0.  0.
        -11    1    3    3    0    0  0.14167504058E+02  0.16424678628E+02  0.49452097682E+02  0.53999983377E+02  0.51100000000E-03 0. -1.
         23    2    1    0    0    0  0.40537605283E+01 -0.15251057681E+02  0.25950263171E+02  0.94718238552E+02  0.89716781156E+02 0.  0.
         11    1    3    3    0    0 -0.10113743530E+02 -0.31675736309E+02 -0.23501834511E+02  0.40718255175E+02  0.51100000000E-03 0.  1.
         22    1    1    0    0    0 -0.40537605283E+01  0.15251057681E+02 -0.25950263171E+02  0.30371761448E+02  0.00000000000E+00 0. -1.
</event>
<event>
 5    1  0.1046082E-009  0.9118800E+02  0.7561462E-02  0.1125453E+00
         25   -1    0    0    0    0  0.00000000000E+00  0.00000000000E+00  0.99999998245E-14  0.12509000000E+03  0.12509000000E+03 0.  0.
        -11    1    3    3    0    0  0.28937482790E+02 -0.27721815924E+02 -0.34841712956E+02  0.53101995728E+02  0.51100000000E-03 0.  1.
         23    2    1    0    0    0 -0.30989078296E+01 -0.43024437338E+00 -0.29384405102E+02  0.95539507565E+02  0.90854641613E+02 0.  0.
         11    1    3    3    0    0 -0.32036390619E+02  0.27291571551E+02  0.54573078542E+01  0.42437511837E+02  0.51100000000E-03 0. -1.
         22    1    1    0    0    0  0.30989078296E+01  0.43024437338E+00  0.29384405102E+02  0.29550492435E+02  0.00000000000E+00 0.  1.
</event>
<event>
 5    1  0.1046082E-009  0.9118800E+02  0.7561462E-02  0.1125453E+00
         25   -1    0    0    0    0  0.00000000000E+00  0.00000000000E+00  0.99999998245E-14  0.12509000000E+03  0.12509000000E+03 0.  0.
        -11    1    3    3    0    0  0.24566440667E+02  0.31184185234E+02 -0.44851737165E+02  0.59896925987E+02  0.51100000000E-03 0.  1.
         23    2    1    0    0    0  0.20824687452E+02  0.60605625859E+01 -0.17523579908E+02  0.97206781406E+02  0.93121879664E+02 0.  0.
         11    1    3    3    0    0 -0.37417532147E+01 -0.25123622648E+02  0.27328157256E+02  0.37309855419E+02  0.51100000000E-03 0. -1.
         22    1    1    0    0    0 -0.20824687452E+02 -0.60605625859E+01  0.17523579908E+02  0.27883218594E+02  0.00000000000E+00 0.  1.
</event>
<event>
 5    1  0.1046082E-009  0.9118800E+02  0.7561462E-02  0.1125453E+00
         25   -1    0    0    0    0  0.00000000000E+00  0.00000000000E+00  0.99999998245E-14  0.12509000000E+03  0.12509000000E+03 0.  0.
        -11    1    3    3    0    0 -0.30203240925E+02 -0.55546312391E+01 -0.30604126184E+02  0.43355532869E+02  0.51100000000E-03 0.  1.
         23    2    1    0    0    0  0.18475753946E+02  0.10790597449E+02 -0.20027091570E+02  0.95783432922E+02  0.91189863189E+02 0.  0.
         11    1    3    3    0    0  0.48678994871E+02  0.16345228688E+02  0.10577034615E+02  0.52427900053E+02  0.51100000000E-03 0. -1.
         22    1    1    0    0    0 -0.18475753946E+02 -0.10790597449E+02  0.20027091570E+02  0.29306567078E+02  0.00000000000E+00 0. -1.
</event>
<event>
 5    1  0.1046082E-009  0.9118800E+02  0.7561462E-02  0.1125453E+00
         25   -1    0    0    0    0  0.00000000000E+00  0.00000000000E+00  0.99999998245E-14  0.12509000000E+03  0.12509000000E+03 0.  0.
        -11    1    3    3    0    0  0.22879402145E+02 -0.14505105520E+02  0.21623478477E+02  0.34661793813E+02  0.51100000000E-03 0.  1.
         23    2    1    0    0    0 -0.21030280153E+02  0.21607554253E+02  0.17519788208E+01  0.94886879070E+02  0.89951605354E+02 0.  0.
         11    1    3    3    0    0 -0.43909682297E+02  0.36112659774E+02 -0.19871499656E+02  0.60225085257E+02  0.51100000000E-03 0. -1.
         22    1    1    0    0    0  0.21030280153E+02 -0.21607554253E+02 -0.17519788208E+01  0.30203120930E+02  0.00000000000E+00 0. -1.
</event>
<event>
 5    1  0.1046082E-009  0.9118800E+02  0.7561462E-02  0.1125453E+00
         25   -1    0    0    0    0  0.00000000000E+00  0.00000000000E+00  0.99999998245E-14  0.12509000000E+03  0.12509000000E+03 0.  0.
        -11    1    3    3    0    0 -0.19469982959E+02  0.50534177285E+02  0.10119973408E+02  0.55092623575E+02  0.51100000000E-03 0.  1.
         23    2    1    0    0    0 -0.24545785890E+02  0.14999712629E+02 -0.79025307014E+01  0.95258188533E+02  0.90466488310E+02 0.  0.
         11    1    3    3    0    0 -0.50758029311E+01 -0.35534464656E+02 -0.18022504109E+02  0.40165564958E+02  0.51100000000E-03 0. -1.
         22    1    1    0    0    0  0.24545785890E+02 -0.14999712629E+02  0.79025307014E+01  0.29831811467E+02  0.00000000000E+00 0.  1.
</event>
<event>
 5    1  0.1046082E-009  0.9118800E+02  0.7561462E-02  0.1125453E+00
         25   -1    0    0    0    0  0.00000000000E+00  0.00000000000E+00  0.99999998245E-14  0.12509000000E+03  0.12509000000E+03 0.  0.
        -11    1    3    3    0    0 -0.38153101405E+02  0.27299937645E+02  0.10411219427E+02  0.48055584821E+02  0.51100000000E-03 0. -1.
         23    2    1    0    0    0 -0.22260744971E+02 -0.17798268436E+02  0.44900324207E+01  0.96237278861E+02  0.91810317097E+02 0.  0.
         11    1    3    3    0    0  0.15892356434E+02 -0.45098206081E+02 -0.59211870063E+01  0.48181694040E+02  0.51100000000E-03 0.  1.
         22    1    1    0    0    0  0.22260744971E+02  0.17798268436E+02 -0.44900324207E+01  0.28852721139E+02  0.00000000000E+00 0.  1.
</event>
<event>
 5    1  0.1046082E-009  0.9118800E+02  0.7561462E-02  0.1125453E+00
         25   -1    0    0    0    0  0.00000000000E+00  0.00000000000E+00  0.99999998245E-14  0.12509000000E+03  0.12509000000E+03 0.  0.
        -11    1    3    3    0    0  0.93682902729E+01  0.36910108454E+02  0.32098984402E+01  0.38215499696E+02  0.51100000000E-03 0. -1.
         23    2    1    0    0    0  0.27027467146E+02 -0.11334213473E+02  0.16735098787E+02  0.91340749537E+02  0.84877091251E+02 0.  0.
         11    1    3    3    0    0  0.17659176873E+02 -0.48244321927E+02  0.13525200347E+02  0.53125249841E+02  0.51100000000E-03 0.  1.
         22    1    1    0    0    0 -0.27027467146E+02  0.11334213473E+02 -0.16735098787E+02  0.33749250463E+02  0.00000000000E+00 0.  1.
</event>
<event>
 5    1  0.1046082E-009  0.9118800E+02  0.7561462E-02  0.1125453E+00
         25   -1    0    0    0    0  0.00000000000E+00  0.00000000000E+00  0.99999998245E-14  0.12509000000E+03  0.12509000000E+03 0.  0.
        -11    1    3    3    0    0 -0.37950919070E+02  0.25284421855E+02  0.34802680403E+02  0.57365501918E+02  0.51100000000E-03 0.  1.
         23    2    1    0    0    0 -0.18192867001E+02  0.22983789200E+02  0.20241148862E+01  0.95707487909E+02  0.91085625787E+02 0.  0.
         11    1    3    3    0    0  0.19758052069E+02 -0.23006326543E+01 -0.32778565516E+02  0.38341985991E+02  0.51100000000E-03 0. -1.
         22    1    1    0    0    0  0.18192867001E+02 -0.22983789200E+02 -0.20241148862E+01  0.29382512091E+02  0.00000000000E+00 0.  1.
</event>
<event>
 5    1  0.1046082E-009  0.9118800E+02  0.7561462E-02  0.1125453E+00
         25   -1    0    0    0    0  0.00000000000E+00  0.00000000000E+00  0.99999998245E-14  0.12509000000E+03  0.12509000000E+03 0.  0.
        -11    1    3    3    0    0 -0.28842545807E+02 -0.37913928520E+02  0.19057302282E+01  0.47675887327E+02  0.51100000000E-03 0. -1.
         23    2    1    0    0    0 -0.29751145165E+02  0.50750527714E+01 -0.11616678252E+02  0.92750642974E+02  0.86930131481E+02 0.  0.
         11    1    3    3    0    0 -0.90859935711E+00  0.42988981291E+02 -0.13522408481E+02  0.45074755647E+02  0.51100000000E-03 0.  1.
         22    1    1    0    0    0  0.29751145165E+02 -0.50750527714E+01  0.11616678252E+02  0.32339357026E+02  0.00000000000E+00 0.  1.
</event>
<event>
 5    1  0.1046082E-009  0.9118800E+02  0.7561462E-02  0.1125453E+00
         25   -1    0    0    0    0  0.00000000000E+00  0.00000000000E+00  0.99999998245E-14  0.12509000000E+03  0.12509000000E+03 0.  0.
        -11    1    3    3    0    0  0.51346134957E+01  0.34009741524E+02 -0.33238370580E+01  0.34555385504E+02  0.51100000000E-03 0. -1.
         23    2    1    0    0    0  0.18364492676E+02  0.58048333288E+00  0.34040426650E+02  0.86407417373E+02  0.77265125241E+02 0.  0.
         11    1    3    3    0    0  0.13229879180E+02 -0.33429258191E+02  0.37364263708E+02  0.51852031870E+02  0.51100000000E-03 0.  1.
         22    1    1    0    0    0 -0.18364492676E+02 -0.58048333288E+00 -0.34040426650E+02  0.38682582627E+02  0.00000000000E+00 0.  1.
</event>
<event>
 5    1  0.1046082E-009  0.9118800E+02  0.7561462E-02  0.1125453E+00
         25   -1    0    0    0    0  0.00000000000E+00  0.00000000000E+00  0.99999998245E-14  0.12509000000E+03  0.12509000000E+03 0.  0.
        -11    1    3    3    0    0  0.19927644407E+01  0.33239434376E+02 -0.23579525703E+01  0.33382496137E+02  0.51100000000E-03 0.  1.
         23    2    1    0    0    0  0.35788595089E+01 -0.29025759648E+02 -0.31696258953E+01  0.95673176806E+02  0.91038493360E+02 0.  0.
         11    1    3    3    0    0  0.15860950682E+01 -0.62265194024E+02 -0.81167332498E+00  0.62290680669E+02  0.51100000000E-03 0. -1.
         22    1    1    0    0    0 -0.35788595089E+01  0.29025759648E+02  0.31696258953E+01  0.29416823194E+02  0.00000000000E+00 0. -1.
</event>
<event>
 5    1  0.1046082E-009  0.9118800E+02  0.7561462E-02  0.1125453E+00
         25   -1    0    0    0    0  0.00000000000E+00  0.00000000000E+00  0.99999998245E-14  0.12509000000E+03  0.12509000000E+03 0.  0.
        -11    1    3    3    0    0 -0.31885170720E+02 -0.11451628509E+01  0.30793338824E+02  0.44341912746E+02  0.51100000000E-03 0. -1.
         23    2    1    0    0    0  0.13173935224E+02 -0.15967237707E+02  0.25761137228E+02  0.92042436692E+02  0.85904998177E+02 0.  0.
         11    1    3    3    0    0  0.45059105945E+02 -0.14822074857E+02 -0.50322015959E+01  0.47700523946E+02  0.51100000000E-03 0.  1.
         22    1    1    0    0    0 -0.13173935224E+02  0.15967237707E+02 -0.25761137228E+02  0.33047563308E+02  0.00000000000E+00 0. -1.
</event>
<event>
 5    1  0.1046082E-009  0.9118800E+02  0.7561462E-02  0.1125453E+00
         25   -1    0    0    0    0  0.00000000000E+00  0.00000000000E+00  0.99999998245E-14  0.12509000000E+03  0.12509000000E+03 0.  0.
        -11    1    3    3    0    0 -0.40840249100E+02 -0.92765300816E+01 -0.28451332280E+02  0.50630606017E+02  0.51100000000E-03 0. -1.
         23    2    1    0    0    0 -0.26079357896E+02  0.61058871490E+01  0.11520910173E+02  0.95932734399E+02  0.91394438517E+02 0.  0.
         11    1    3    3    0    0  0.14760891204E+02  0.15382417231E+02  0.39972242452E+02  0.45302128382E+02  0.51100000000E-03 0.  1.
         22    1    1    0    0    0  0.26079357896E+02 -0.61058871490E+01 -0.11520910173E+02  0.29157265601E+02  0.00000000000E+00 0.  1.
</event>
<event>
 5    1  0.1046082E-009  0.9118800E+02  0.7561462E-02  0.1125453E+00
         25   -1    0    0    0    0  0.00000000000E+00  0.00000000000E+00  0.99999998245E-14  0.12509000000E+03  0.12509000000E+03 0.  0.
        -11    1    3    3    0    0  0.29105424516E+02  0.47111919193E+01  0.15214879799E+02  0.33178511617E+02  0.51100000000E-03 0. -1.
         23    2    1    0    0    0 -0.21483643000E+02  0.36260357009E+01 -0.20547945378E+02  0.95141492346E+02  0.90304985772E+02 0.  0.
         11    1    3    3    0    0 -0.50589067515E+02 -0.10851562183E+01 -0.35762825176E+02  0.61962980730E+02  0.51100000000E-03 0.  1.
         22    1    1    0    0    0  0.21483643000E+02 -0.36260357009E+01  0.20547945378E+02  0.29948507654E+02  0.00000000000E+00 0.  1.
</event>
<event>
 5    1  0.1046082E-009  0.9118800E+02  0.7561462E-02  0.1125453E+00
         25   -1    0    0    0    0  0.00000000000E+00  0.00000000000E+00  0.99999998245E-14  0.12509000000E+03  0.12509000000E+03 0.  0.
        -11    1    3    3    0    0  0.42175887172E+00  0.54678143249E+02  0.22138010279E+01  0.54724566193E+02  0.51100000000E-03 0.  1.
         23    2    1    0    0    0 -0.16678024178E+02  0.20806540574E+02 -0.12776146389E+02  0.95521460339E+02  0.90829790529E+02 0.  0.
         11    1    3    3    0    0 -0.17099783050E+02 -0.33871602675E+02 -0.14989947417E+02  0.40796894146E+02  0.51100000000E-03 0. -1.
         22    1    1    0    0    0  0.16678024178E+02 -0.20806540574E+02  0.12776146389E+02  0.29568539661E+02  0.00000000000E+00 0. -1.
</event>
<event>
 5    1  0.1046082E-009  0.9118800E+02  0.7561462E-02  0.1125453E+00
         25   -1    0    0    0    0  0.00000000000E+00  0.00000000000E+00  0.99999998245E-14  0.12509000000E+03  0.12509000000E+03 0.  0.
        -11    1    3    3    0    0 -0.15887977954E+02 -0.24555695890E+02  0.30715912000E+02  0.42413173594E+02  0.51100000000E-03 0.  1.
         23    2    1    0    0    0 -0.10938966465E+02 -0.18842910979E+02 -0.21089475013E+02  0.94767034482E+02  0.89784790398E+02 0.  0.
         11    1    3    3    0    0  0.49490114891E+01  0.57127849111E+01 -0.51805387012E+02  0.52353860888E+02  0.51100000000E-03 0. -1.
         22    1    1    0    0    0  0.10938966465E+02  0.18842910979E+02  0.21089475013E+02  0.30322965518E+02  0.00000000000E+00 0. -1.
</event>
<event>
 5    1  0.1046082E-009  0.9118800E+02  0.7561462E-02  0.1125453E+00
         25   -1    0    0    0    0  0.00000000000E+00  0.00000000000E+00  0.99999998245E-14  0.12509000000E+03  0.12509000000E+03 0.  0.
        -11    1    3    3    0    0  0.18775459351E+02 -0.24880679618E+02  0.16430846599E+02  0.35235476615E+02  0.51100000000E-03 0. -1.
         23    2    1    0    0    0 -0.51585828121E+01  0.28945922949E+02  0.43767489253E+01  0.95364028810E+02  0.90612717804E+02 0.  0.
         11    1    3    3    0    0 -0.23934042163E+02  0.53826602567E+02 -0.12054097673E+02  0.60128552195E+02  0.51100000000E-03 0.  1.
         22    1    1    0    0    0  0.51585828121E+01 -0.28945922949E+02 -0.43767489253E+01  0.29725971190E+02  0.00000000000E+00 0.  1.
</event>
<event>
 5    1  0.1046082E-009  0.9118800E+02  0.7561462E-02  0.1125453E+00
         25   -1    0    0    0    0  0.00000000000E+00  0.00000000000E+00  0.99999998245E-14  0.12509000000E+03  0.12509000000E+03 0.  0.
        -11    1    3    3    0    0 -0.29768220742E+02  0.48409252573E+02 -0.23426730660E+02  0.61468808435E+02  0.51100000000E-03 0. -1.
         23    2    1    0    0    0 -0.76022177890E+01  0.27313785687E+02 -0.86633310397E+01  0.95443922543E+02  0.90722943305E+02 0.  0.
         11    1    3    3    0    0  0.22166002953E+02 -0.21095466886E+02  0.14763399620E+02  0.33975114108E+02  0.51100000000E-03 0.  1.
         22    1    1    0    0    0  0.76022177890E+01 -0.27313785687E+02  0.86633310397E+01  0.29646077457E+02  0.00000000000E+00 0. -1.
</event>
<event>
 5    1  0.1046082E-009  0.9118800E+02  0.7561462E-02  0.1125453E+00
         25   -1    0    0    0    0  0.00000000000E+00  0.00000000000E+00  0.99999998245E-14  0.12509000000E+03  0.12509000000E+03 0.  0.
        -11    1    3    3    0    0 -0.19545190107E+02  0.48557562514E+02  0.25264956705E+02  0.58122021396E+02  0.51100000000E-03 0.  1.
         23    2    1    0    0    0 -0.10394480439E+02  0.11612611607E+02  0.24331773121E+02  0.96194790100E+02  0.91752408619E+02 0.  0.
         11    1    3    3    0    0  0.91507096681E+01 -0.36944950907E+02 -0.93318358392E+00  0.38072768704E+02  0.51100000000E-03 0. -1.
         22    1    1    0    0    0  0.10394480439E+02 -0.11612611607E+02 -0.24331773121E+02  0.28895209900E+02  0.00000000000E+00 0.  1.
</event>
<event>
 5    1  0.1046082E-009  0.9118800E+02  0.7561462E-02  0.1125453E+00
         25   -1    0    0    0    0  0.00000000000E+00  0.00000000000E+00  0.99999998245E-14  0.12509000000E+03  0.12509000000E+03 0.  0.
        -11    1    3    3    0    0  0.37608171466E+02  0.91274318958E+01  0.70147455143E+01  0.39330538122E+02  0.51100000000E-03 0. -1.
         23    2    1    0    0    0 -0.67752105035E+01 -0.19419402333E+02 -0.18025745558E+02  0.97741432080E+02  0.93837324012E+02 0.  0.
         11    1    3    3    0    0 -0.44383381970E+02 -0.28546834229E+02 -0.25040491072E+02  0.58410893958E+02  0.51100000000E-03 0.  1.
         22    1    1    0    0    0  0.67752105035E+01  0.19419402333E+02  0.18025745558E+02  0.27348567920E+02  0.00000000000E+00 0.  1.
</event>
<event>
 5    1  0.1046082E-009  0.9118800E+02  0.7561462E-02  0.1125453E+00
         25   -1    0    0    0    0  0.00000000000E+00  0.00000000000E+00  0.99999998245E-14  0.12509000000E+03  0.12509000000E+03 0.  0.
        -11    1    3    3    0    0  0.16121085429E+02 -0.49185058001E+02 -0.29480003708E+02  0.59566181218E+02  0.51100000000E-03 0. -1.
         23    2    1    0    0    0  0.22275775221E+01 -0.28708163967E+02 -0.24822296878E+01  0.96188750127E+02  0.91744173694E+02 0.  0.
         11    1    3    3    0    0 -0.13893507907E+02  0.20476894034E+02  0.26997774020E+02  0.36622568910E+02  0.51100000000E-03 0.  1.
         22    1    1    0    0    0 -0.22275775221E+01  0.28708163967E+02  0.24822296878E+01  0.28901249873E+02  0.00000000000E+00 0. -1.
</event>
<event>
 5    1  0.1046082E-009  0.9118800E+02  0.7561462E-02  0.1125453E+00
         25   -1    0    0    0    0  0.00000000000E+00  0.00000000000E+00  0.99999998245E-14  0.12509000000E+03  0.12509000000E+03 0.  0.
        -11    1    3    3    0    0  0.39120815991E+02 -0.14655706345E+02 -0.16763276756E+02  0.45013724797E+02  0.51100000000E-03 0. -1.
         23    2    1    0    0    0 -0.26480912497E+00  0.18059633810E+02 -0.22164134494E+02  0.96498578995E+02  0.92165646490E+02 0.  0.
         11    1    3    3    0    0 -0.39385625116E+02  0.32715340155E+02 -0.54008577381E+01  0.51484854198E+02  0.51100000000E-03 0.  1.
         22    1    1    0    0    0  0.26480912497E+00 -0.18059633810E+02  0.22164134494E+02  0.28591421005E+02  0.00000000000E+00 0. -1.
</event>
<event>
 5    1  0.1046082E-009  0.9118800E+02  0.7561462E-02  0.1125453E+00
         25   -1    0    0    0    0  0.00000000000E+00  0.00000000000E+00  0.99999998245E-14  0.12509000000E+03  0.12509000000E+03 0.  0.
        -11    1    3    3    0    0 -0.12329501097E+02  0.31652390760E+02  0.18815130561E+01  0.34021030698E+02  0.51100000000E-03 0. -1.
         23    2    1    0    0    0  0.11054158292E+02 -0.22690949076E+02 -0.15235056504E+02  0.95608132145E+02  0.90949075862E+02 0.  0.
         11    1    3    3    0    0  0.23383659389E+02 -0.54343339836E+02 -0.17116569560E+02  0.61587101447E+02  0.51100000000E-03 0.  1.
         22    1    1    0    0    0 -0.11054158292E+02  0.22690949076E+02  0.15235056504E+02  0.29481867855E+02  0.00000000000E+00 0.  1.
</event>
<event>
 5    1  0.1046082E-009  0.9118800E+02  0.7561462E-02  0.1125453E+00
         25   -1    0    0    0    0  0.00000000000E+00  0.00000000000E+00  0.99999998245E-14  0.12509000000E+03  0.12509000000E+03 0.  0.
        -11    1    3    3    0    0  0.91825868351E+01 -0.20846986234E+02 -0.28104915318E+02  0.36177382455E+02  0.51100000000E-03 0. -1.
         23    2    1    0    0    0 -0.26528831031E+02  0.22079652475E+01  0.13137800982E+02  0.95404047075E+02  0.90667945809E+02 0.  0.
         11    1    3    3    0    0 -0.35711417867E+02  0.23054951481E+02  0.41242716300E+02  0.59226664619E+02  0.51100000000E-03 0.  1.
         22    1    1    0    0    0  0.26528831031E+02 -0.22079652475E+01 -0.13137800982E+02  0.29685952925E+02  0.00000000000E+00 0.  1.
</event>
<event>
 5    1  0.1046082E-009  0.9118800E+02  0.7561462E-02  0.1125453E+00
         25   -1    0    0    0    0  0.00000000000E+00  0.00000000000E+00  0.99999998245E-14  0.12509000000E+03  0.12509000000E+03 0.  0.
        -11    1    3    3    0    0  0.16386125230E+00  0.48701327623E+02 -0.10091096173E+01  0.48712056672E+02  0.51100000000E-03 0.  1.
         23    2    1    0    0    0 -0.80179225741E-01  0.14026595108E+02 -0.28738167100E+02  0.93111350133E+02  0.87447638484E+02 0.  0.
         11    1    3    3    0    0 -0.24404047804E+00 -0.34674732515E+02 -0.27729057482E+02  0.44399293461E+02  0.51100000000E-03 0. -1.
         22    1    1    0    0    0  0.80179225741E-01 -0.14026595108E+02  0.28738167100E+02  0.31978649867E+02  0.00000000000E+00 0.  1.
</event>
<event>
 5    1  0.1046082E-009  0.9118800E+02  0.7561462E-02  0.1125453E+00
         25   -1    0    0    0    0  0.00000000000E+00  0.00000000000E+00  0.99999998245E-14  0.12509000000E+03  0.12509000000E+03 0.  0.
        -11    1    3    3    0    0  0.31025648955E+02 -0.41102833983E+01 -0.27963018849E+02  0.41969223797E+02  0.51100000000E-03 0.  1.
         23    2    1    0    0    0 -0.33703879316E+01  0.27723014092E+02  0.11454045233E+01  0.97139383250E+02  0.93031300117E+02 0.  0.
         11    1    3    3    0    0 -0.34396036887E+02  0.31833297491E+02  0.29108423372E+02  0.55170159453E+02  0.51100000000E-03 0. -1.
         22    1    1    0    0    0  0.33703879316E+01 -0.27723014092E+02 -0.11454045233E+01  0.27950616750E+02  0.00000000000E+00 0. -1.
</event>
<event>
 5    1  0.1046082E-009  0.9118800E+02  0.7561462E-02  0.1125453E+00
         25   -1    0    0    0    0  0.00000000000E+00  0.00000000000E+00  0.99999998245E-14  0.12509000000E+03  0.12509000000E+03 0.  0.
        -11    1    3    3    0    0  0.14528607055E+02 -0.19035537882E+02 -0.35661696510E+02  0.42955659972E+02  0.51100000000E-03 0.  1.
         23    2    1    0    0    0 -0.26486755640E+02 -0.13017551416E+02 -0.36073088685E+01  0.95357567431E+02  0.90603797492E+02 0.  0.
         11    1    3    3    0    0 -0.41015362695E+02  0.60179864660E+01  0.32054387641E+02  0.52401907459E+02  0.51100000000E-03 0. -1.
         22    1    1    0    0    0  0.26486755640E+02  0.13017551416E+02  0.36073088685E+01  0.29732432569E+02  0.00000000000E+00 0. -1.
</event>
<event>
 5    1  0.1046082E-009  0.9118800E+02  0.7561462E-02  0.1125453E+00
         25   -1    0    0    0    0  0.00000000000E+00  0.00000000000E+00  0.99999998245E-14  0.12509000000E+03  0.12509000000E+03 0.  0.
        -11    1    3    3    0    0 -0.16004105213E+02  0.13391608740E+00 -0.30308849722E+02  0.34275000932E+02  0.51100000000E-03 0.  1.
         23    2    1    0    0    0  0.10673338903E+01 -0.76801666660E+01  0.28263145063E+02  0.95782500439E+02  0.91188584044E+02 0.  0.
         11    1    3    3    0    0  0.17071439104E+02 -0.78140827534E+01  0.58571994784E+02  0.61507499507E+02  0.51100000000E-03 0. -1.
         22    1    1    0    0    0 -0.10673338903E+01  0.76801666660E+01 -0.28263145063E+02  0.29307499561E+02  0.00000000000E+00 0. -1.
</event>
<event>
 5    1  0.1046082E-009  0.9118800E+02  0.7561462E-02  0.1125453E+00
         25   -1    0    0    0    0  0.00000000000E+00  0.00000000000E+00  0.99999998245E-14  0.12509000000E+03  0.12509000000E+03 0.  0.
        -11    1    3    3    0    0  0.31478829178E+02 -0.27074353878E+02 -0.29233369212E+02  0.50779200467E+02  0.51100000000E-03 0. -1.
         23    2    1    0    0    0  0.14982924887E+02 -0.23730243721E+02  0.11429125169E+02  0.94787567634E+02  0.89813393047E+02 0.  0.
         11    1    3    3    0    0 -0.16495904291E+02  0.33441101576E+01  0.40662494381E+02  0.44008367166E+02  0.51100000000E-03 0.  1.
         22    1    1    0    0    0 -0.14982924887E+02  0.23730243721E+02 -0.11429125169E+02  0.30302432366E+02  0.00000000000E+00 0. -1.
</event>
<event>
 5    1  0.1046082E-009  0.9118800E+02  0.7561462E-02  0.1125453E+00
         25   -1    0    0    0    0  0.00000000000E+00  0.00000000000E+00  0.99999998245E-14  0.12509000000E+03  0.12509000000E+03 0.  0.
        -11    1    3    3    0    0  0.14480748699E+02  0.30208154950E+02 -0.33898184927E+02  0.47658279973E+02  0.51100000000E-03 0. -1.
         23    2    1    0    0    0  0.71710126711E+01  0.23705453215E+02  0.14064577294E+02  0.96608703166E+02  0.92314989347E+02 0.  0.
         11    1    3    3    0    0 -0.73097360280E+01 -0.65027017351E+01  0.47962762221E+02  0.48950423193E+02  0.51100000000E-03 0.  1.
         22    1    1    0    0    0 -0.71710126711E+01 -0.23705453215E+02 -0.14064577294E+02  0.28481296834E+02  0.00000000000E+00 0.  1.
</event>
<event>
 4    1  0.1046082E-009  0.9118800E+02  0.7561462E-02  0.1125453E+00
         25   -1    0    0    0    0  0.00000000000E+00  0.00000000000E+00  0.99999998245E-14  0.12509000000E+03  0.12509000000E+03 0.  0.
        -11    1    1    0    0    0  0.12133140283E+02  0.29870646911E+02 -0.95459299365E+01  0.33624298039E+02  0.51100000000E-03 0.  1.
         11    1    1    0    0    0 -0.30236655279E+02  0.16446258902E+02 -0.13092670593E+02  0.36825979659E+02  0.51100000000E-03 0. -1.
         22    1    1    0    0    0  0.18103514996E+02 -0.46316905813E+02  0.22638600529E+02  0.54639722302E+02  0.00000000000E+00 0. -1.
</event>
<event>
 5    1  0.1046082E-009  0.9118800E+02  0.7561462E-02  0.1125453E+00
         25   -1    0    0    0    0  0.00000000000E+00  0.00000000000E+00  0.99999998245E-14  0.12509000000E+03  0.12509000000E+03 0.  0.
        -11    1    3    3    0    0 -0.38828114964E+02 -0.19655208098E+02  0.36699616946E+01  0.43674000689E+02  0.51100000000E-03 0.  1.
         23    2    1    0    0    0  0.12064114056E+02 -0.23739950420E+02  0.12806828172E+02  0.95541007772E+02  0.90856707096E+02 0.  0.
         11    1    3    3    0    0  0.50892229020E+02 -0.40847423212E+01  0.91368664771E+01  0.51867007083E+02  0.51100000000E-03 0. -1.
         22    1    1    0    0    0 -0.12064114056E+02  0.23739950420E+02 -0.12806828172E+02  0.29548992228E+02  0.00000000000E+00 0. -1.
</event>
<event>
 5    1  0.1046082E-009  0.9118800E+02  0.7561462E-02  0.1125453E+00
         25   -1    0    0    0    0  0.00000000000E+00  0.00000000000E+00  0.99999998245E-14  0.12509000000E+03  0.12509000000E+03 0.  0.
        -11    1    3    3    0    0  0.39662813226E+01  0.32471015614E+02  0.30014629042E+02  0.44395677710E+02  0.51100000000E-03 0.  1.
         23    2    1    0    0    0  0.74080791428E+01 -0.17328143907E+02  0.23850506828E+02  0.94692781644E+02  0.89681280163E+02 0.  0.
         11    1    3    3    0    0  0.34417978202E+01 -0.49799159521E+02 -0.61641222138E+01  0.50297103934E+02  0.51100000000E-03 0. -1.
         22    1    1    0    0    0 -0.74080791428E+01  0.17328143907E+02 -0.23850506828E+02  0.30397218356E+02  0.00000000000E+00 0. -1.
</event>
<event>
 5    1  0.1046082E-009  0.9118800E+02  0.7561462E-02  0.1125453E+00
         25   -1    0    0    0    0  0.00000000000E+00  0.00000000000E+00  0.99999998245E-14  0.12509000000E+03  0.12509000000E+03 0.  0.
        -11    1    3    3    0    0 -0.92501400339E+01  0.28589759430E+02 -0.12528643719E+02  0.32556202920E+02  0.51100000000E-03 0. -1.
         23    2    1    0    0    0  0.19263257412E+02 -0.19384378361E+02  0.14040523279E+02  0.94366010928E+02  0.89224326918E+02 0.  0.
         11    1    3    3    0    0  0.28513397446E+02 -0.47974137790E+02  0.26569166999E+02  0.61809808007E+02  0.51100000000E-03 0.  1.
         22    1    1    0    0    0 -0.19263257412E+02  0.19384378361E+02 -0.14040523279E+02  0.30723989072E+02  0.00000000000E+00 0.  1.
</event>
<event>
 5    1  0.1046082E-009  0.9118800E+02  0.7561462E-02  0.1125453E+00
         25   -1    0    0    0    0  0.00000000000E+00  0.00000000000E+00  0.99999998245E-14  0.12509000000E+03  0.12509000000E+03 0.  0.
        -11    1    3    3    0    0 -0.32717595601E+02 -0.42076187164E+02  0.32250474252E+02  0.62297188362E+02  0.51100000000E-03 0. -1.
         23    2    1    0    0    0 -0.17212252119E+02 -0.20622120590E+02  0.11782393366E+02  0.95758135516E+02  0.91155154783E+02 0.  0.
         11    1    3    3    0    0  0.15505343482E+02  0.21454066574E+02 -0.20468080886E+02  0.33460947154E+02  0.51100000000E-03 0.  1.
         22    1    1    0    0    0  0.17212252119E+02  0.20622120590E+02 -0.11782393366E+02  0.29331864484E+02  0.00000000000E+00 0. -1.
</event>
<event>
 5    1  0.1046082E-009  0.9118800E+02  0.7561462E-02  0.1125453E+00
         25   -1    0    0    0    0  0.00000000000E+00  0.00000000000E+00  0.99999998245E-14  0.12509000000E+03  0.12509000000E+03 0.  0.
        -11    1    3    3    0    0  0.32195761507E+02  0.96662670790E+01  0.17920634708E+01  0.33663262914E+02  0.51100000000E-03 0.  1.
         23    2    1    0    0    0 -0.93193139617E+00 -0.33318128829E+02  0.13411122051E+02  0.89161955252E+02  0.81602879023E+02 0.  0.
         11    1    3    3    0    0 -0.33127692903E+02 -0.42984395908E+02  0.11619058580E+02  0.55498692338E+02  0.51100000000E-03 0. -1.
         22    1    1    0    0    0  0.93193139617E+00  0.33318128829E+02 -0.13411122051E+02  0.35928044748E+02  0.00000000000E+00 0. -1.
</event>
<event>
 5    1  0.1046082E-009  0.9118800E+02  0.7561462E-02  0.1125453E+00
         25   -1    0    0    0    0  0.00000000000E+00  0.00000000000E+00  0.99999998245E-14  0.12509000000E+03  0.12509000000E+03 0.  0.
        -11    1    3    3    0    0 -0.37713539383E+02  0.14749681324E+02  0.31441783618E+02  0.51268410442E+02  0.51100000000E-03 0.  1.
         23    2    1    0    0    0 -0.78841595070E+01  0.29172882418E+02  0.33915708432E+01  0.94680794281E+02  0.89664558289E+02 0.  0.
         11    1    3    3    0    0  0.29829379876E+02  0.14423201094E+02 -0.28050212775E+02  0.43412383838E+02  0.51100000000E-03 0. -1.
         22    1    1    0    0    0  0.78841595070E+01 -0.29172882418E+02 -0.33915708432E+01  0.30409205719E+02  0.00000000000E+00 0.  1.
</event>
<event>
 5    1  0.1046082E-009  0.9118800E+02  0.7561462E-02  0.1125453E+00
         25   -1    0    0    0    0  0.00000000000E+00  0.00000000000E+00  0.99999998245E-14  0.12509000000E+03  0.12509000000E+03 0.  0.
        -11    1    3    3    0    0 -0.16764136255E+01  0.99372834890E+01  0.31644455838E+02  0.33210413297E+02  0.51100000000E-03 0.  1.
         23    2    1    0    0    0  0.60090169119E+01 -0.89677935190E+01 -0.27377652319E+02  0.95661010018E+02  0.91021774243E+02 0.  0.
         11    1    3    3    0    0  0.76854305374E+01 -0.18905077008E+02 -0.59022108157E+02  0.62450596721E+02  0.51100000000E-03 0. -1.
         22    1    1    0    0    0 -0.60090169119E+01  0.89677935190E+01  0.27377652319E+02  0.29428989982E+02  0.00000000000E+00 0. -1.
</event>
<event>
 5    1  0.1046082E-009  0.9118800E+02  0.7561462E-02  0.1125453E+00
         25   -1    0    0    0    0  0.00000000000E+00  0.00000000000E+00  0.99999998245E-14  0.12509000000E+03  0.12509000000E+03 0.  0.
        -11    1    3    3    0    0  0.41466346380E+02  0.25237828130E+01  0.28443866320E+02  0.50347600671E+02  0.51100000000E-03 0.  1.
         23    2    1    0    0    0  0.25680402867E+02  0.53916541517E+01 -0.13733165676E+02  0.95473233374E+02  0.90763348470E+02 0.  0.
         11    1    3    3    0    0 -0.15785943514E+02  0.28678713387E+01 -0.42177031996E+02  0.45125632703E+02  0.51100000000E-03 0. -1.
         22    1    1    0    0    0 -0.25680402867E+02 -0.53916541517E+01  0.13733165676E+02  0.29616766626E+02  0.00000000000E+00 0. -1.
</event>
<event>
 5    1  0.1046082E-009  0.9118800E+02  0.7561462E-02  0.1125453E+00
         25   -1    0    0    0    0  0.00000000000E+00  0.00000000000E+00  0.99999998245E-14  0.12509000000E+03  0.12509000000E+03 0.  0.
        -11    1    3    3    0    0 -0.30745065165E+01 -0.14487783925E+02  0.35100261795E+02  0.38096940188E+02  0.51100000000E-03 0. -1.
         23    2    1    0    0    0  0.28484837153E+02  0.53706837222E+01 -0.79329657075E+01  0.95037343942E+02  0.90160604519E+02 0.  0.
         11    1    3    3    0    0  0.31559343669E+02  0.19858467647E+02 -0.43033227502E+02  0.56940403754E+02  0.51100000000E-03 0.  1.
         22    1    1    0    0    0 -0.28484837153E+02 -0.53706837222E+01  0.79329657075E+01  0.30052656058E+02  0.00000000000E+00 0.  1.
</event>
<event>
 5    1  0.1046082E-009  0.9118800E+02  0.7561462E-02  0.1125453E+00
         25   -1    0    0    0    0  0.00000000000E+00  0.00000000000E+00  0.99999998245E-14  0.12509000000E+03  0.12509000000E+03 0.  0.
        -11    1    3    3    0    0  0.43262720658E+02  0.84701889664E+01 -0.43760497966E+02  0.62115926157E+02  0.51100000000E-03 0.  1.
         23    2    1    0    0    0  0.23677242111E+02  0.53794264266E+01 -0.16879054694E+02  0.95518856802E+02  0.90826204890E+02 0.  0.
         11    1    3    3    0    0 -0.19585478547E+02 -0.30907625398E+01  0.26881443272E+02  0.33402930644E+02  0.51100000000E-03 0. -1.
         22    1    1    0    0    0 -0.23677242111E+02 -0.53794264266E+01  0.16879054694E+02  0.29571143198E+02  0.00000000000E+00 0.  1.
</event>
<event>
 5    1  0.1046082E-009  0.9118800E+02  0.7561462E-02  0.1125453E+00
         25   -1    0    0    0    0  0.00000000000E+00  0.00000000000E+00  0.99999998245E-14  0.12509000000E+03  0.12509000000E+03 0.  0.
        -11    1    3    3    0    0 -0.45920684308E+01 -0.10079962763E+02 -0.60994945059E+02  0.61992548462E+02  0.51100000000E-03 0.  1.
         23    2    1    0    0    0  0.51441892684E+00  0.77439468624E+00 -0.27561860036E+02  0.97512464892E+02  0.93531600899E+02 0.  0.
         11    1    3    3    0    0  0.51064873577E+01  0.10854357450E+02  0.33433085023E+02  0.35519916430E+02  0.51100000000E-03 0. -1.
         22    1    1    0    0    0 -0.51441892684E+00 -0.77439468624E+00  0.27561860036E+02  0.27577535108E+02  0.00000000000E+00 0.  1.
</event>
<event>
 5    1  0.1046082E-009  0.9118800E+02  0.7561462E-02  0.1125453E+00
         25   -1    0    0    0    0  0.00000000000E+00  0.00000000000E+00  0.99999998245E-14  0.12509000000E+03  0.12509000000E+03 0.  0.
        -11    1    3    3    0    0  0.16444810863E+02  0.58363588723E+02 -0.26896082324E+01  0.60695751792E+02  0.51100000000E-03 0.  1.
         23    2    1    0    0    0  0.16367691712E+02  0.24328974742E+02 -0.68338324168E+01  0.94981834837E+02  0.90083557542E+02 0.  0.
         11    1    3    3    0    0 -0.77119151167E-01 -0.34034613981E+02 -0.41442241843E+01  0.34286083044E+02  0.51100000000E-03 0. -1.
         22    1    1    0    0    0 -0.16367691712E+02 -0.24328974742E+02  0.68338324168E+01  0.30108165163E+02  0.00000000000E+00 0.  1.
</event>
<event>
 5    1  0.1046082E-009  0.9118800E+02  0.7561462E-02  0.1125453E+00
         25   -1    0    0    0    0  0.00000000000E+00  0.00000000000E+00  0.99999998245E-14  0.12509000000E+03  0.12509000000E+03 0.  0.
        -11    1    3    3    0    0 -0.31300376892E+02 -0.10464446869E+02  0.30924695070E+02  0.45227812320E+02  0.51100000000E-03 0.  1.
         23    2    1    0    0    0  0.16913875875E+02 -0.22342840165E+01  0.25457897367E+02  0.94444025378E+02  0.89333634031E+02 0.  0.
         11    1    3    3    0    0  0.48214252766E+02  0.82301628524E+01 -0.54667977028E+01  0.49216213058E+02  0.51100000000E-03 0. -1.
         22    1    1    0    0    0 -0.16913875875E+02  0.22342840165E+01 -0.25457897367E+02  0.30645974622E+02  0.00000000000E+00 0.  1.
</event>
<event>
 5    1  0.1046082E-009  0.9118800E+02  0.7561462E-02  0.1125453E+00
         25   -1    0    0    0    0  0.00000000000E+00  0.00000000000E+00  0.99999998245E-14  0.12509000000E+03  0.12509000000E+03 0.  0.
        -11    1    3    3    0    0  0.13169182448E+02  0.94593276288E+01 -0.35474269809E+02  0.39004231364E+02  0.51100000000E-03 0.  1.
         23    2    1    0    0    0  0.62727914156E+01 -0.27819678868E+02  0.67839860559E+01  0.95776096963E+02  0.91179799507E+02 0.  0.
         11    1    3    3    0    0 -0.68963910326E+01 -0.37279006497E+02  0.42258255865E+02  0.56771865599E+02  0.51100000000E-03 0. -1.
         22    1    1    0    0    0 -0.62727914156E+01  0.27819678868E+02 -0.67839860559E+01  0.29313903037E+02  0.00000000000E+00 0. -1.
</event>
<event>
 5    1  0.1046082E-009  0.9118800E+02  0.7561462E-02  0.1125453E+00
         25   -1    0    0    0    0  0.00000000000E+00  0.00000000000E+00  0.99999998245E-14  0.12509000000E+03  0.12509000000E+03 0.  0.
        -11    1    3    3    0    0  0.34956004872E+02  0.28374749252E+01 -0.66775831726E+01  0.35701031608E+02  0.51100000000E-03 0.  1.
         23    2    1    0    0    0 -0.17448643098E+02 -0.12348537920E+02  0.19444997475E+02  0.96192777616E+02  0.91749664870E+02 0.  0.
         11    1    3    3    0    0 -0.52404647971E+02 -0.15186012845E+02  0.26122580648E+02  0.60491746007E+02  0.51100000000E-03 0. -1.
         22    1    1    0    0    0  0.17448643098E+02  0.12348537920E+02 -0.19444997475E+02  0.28897222384E+02  0.00000000000E+00 0. -1.
</event>
<event>
 5    1  0.1046082E-009  0.9118800E+02  0.7561462E-02  0.1125453E+00
         25   -1    0    0    0    0  0.00000000000E+00  0.00000000000E+00  0.99999998245E-14  0.12509000000E+03  0.12509000000E+03 0.  0.
        -11    1    3    3    0    0  0.22276618496E+02  0.26855633630E+02  0.92016204267E+01  0.36085213149E+02  0.51100000000E-03 0. -1.
         23    2    1    0    0    0  0.30866595582E+02 -0.54726395354E+01  0.34834345633E+02  0.78227134723E+02  0.62636702220E+02 0.  0.
         11    1    3    3    0    0  0.85899770860E+01 -0.32328273165E+02  0.25632725206E+02  0.42141921574E+02  0.51100000000E-03 0.  1.
         22    1    1    0    0    0 -0.30866595582E+02  0.54726395354E+01 -0.34834345633E+02  0.46862865277E+02  0.00000000000E+00 0.  1.
</event>
<event>
 5    1  0.1046082E-009  0.9118800E+02  0.7561462E-02  0.1125453E+00
         25   -1    0    0    0    0  0.00000000000E+00  0.00000000000E+00  0.99999998245E-14  0.12509000000E+03  0.12509000000E+03 0.  0.
        -11    1    3    3    0    0 -0.10099329702E+02 -0.14976372077E+02  0.34722788964E+02  0.39140263856E+02  0.51100000000E-03 0.  1.
         23    2    1    0    0    0  0.27700662935E+02 -0.35554065706E+01 -0.67007212490E+01  0.96369496728E+02  0.91990285310E+02 0.  0.
         11    1    3    3    0    0  0.37799992638E+02  0.11420965506E+02 -0.41423510213E+02  0.57229232872E+02  0.51100000000E-03 0. -1.
         22    1    1    0    0    0 -0.27700662935E+02  0.35554065706E+01  0.67007212490E+01  0.28720503272E+02  0.00000000000E+00 0. -1.
</event>
<event>
 5    1  0.1046082E-009  0.9118800E+02  0.7561462E-02  0.1125453E+00
         25   -1    0    0    0    0  0.00000000000E+00  0.00000000000E+00  0.99999998245E-14  0.12509000000E+03  0.12509000000E+03 0.  0.
        -11    1    3    3    0    0 -0.44461365439E+01  0.76729742509E+00 -0.62178900569E+02  0.62342381666E+02  0.51100000000E-03 0.  1.
         23    2    1    0    0    0  0.11791110903E+01  0.16922523125E+01 -0.29753131805E+02  0.95265465250E+02  0.90476549428E+02 0.  0.
         11    1    3    3    0    0  0.56252476342E+01  0.92495488736E+00  0.32425768764E+02  0.32923083585E+02  0.51100000000E-03 0. -1.
         22    1    1    0    0    0 -0.11791110903E+01 -0.16922523125E+01  0.29753131805E+02  0.29824534750E+02  0.00000000000E+00 0.  1.
</event>
<event>
 5    1  0.1046082E-009  0.9118800E+02  0.7561462E-02  0.1125453E+00
         25   -1    0    0    0    0  0.00000000000E+00  0.00000000000E+00  0.99999998245E-14  0.12509000000E+03  0.12509000000E+03 0.  0.
        -11    1    3    3    0    0  0.64065641492E+01  0.25167422143E+02  0.39199757976E+02  0.47021954736E+02  0.51100000000E-03 0.  1.
         23    2    1    0    0    0 -0.22695128404E+02 -0.68771810324E+01  0.18551554172E+02  0.94981452469E+02  0.90083026585E+02 0.  0.
         11    1    3    3    0    0 -0.29101692553E+02 -0.32044603176E+02 -0.20648203805E+02  0.47959497733E+02  0.51100000000E-03 0. -1.
         22    1    1    0    0    0  0.22695128404E+02  0.68771810324E+01 -0.18551554172E+02  0.30108547531E+02  0.00000000000E+00 0. -1.
</event>
<event>
 5    1  0.1046082E-009  0.9118800E+02  0.7561462E-02  0.1125453E+00
         25   -1    0    0    0    0  0.00000000000E+00  0.00000000000E+00  0.99999998245E-14  0.12509000000E+03  0.12509000000E+03 0.  0.
        -11    1    3    3    0    0 -0.59893591625E+02  0.14394170466E+02 -0.30981176934E+01  0.61676841640E+02  0.51100000000E-03 0.  1.
         23    2    1    0    0    0 -0.28466984067E+02  0.12654021860E+01 -0.63675480757E+01  0.95892121771E+02  0.91338835797E+02 0.  0.
         11    1    3    3    0    0  0.31426607558E+02 -0.13128768280E+02 -0.32694303823E+01  0.34215280131E+02  0.51100000000E-03 0. -1.
         22    1    1    0    0    0  0.28466984067E+02 -0.12654021860E+01  0.63675480757E+01  0.29197878229E+02  0.00000000000E+00 0.  1.
</event>
<event>
 5    1  0.1046082E-009  0.9118800E+02  0.7561462E-02  0.1125453E+00
         25   -1    0    0    0    0  0.00000000000E+00  0.00000000000E+00  0.99999998245E-14  0.12509000000E+03  0.12509000000E+03 0.  0.
        -11    1    3    3    0    0  0.47008318547E+02 -0.31763052313E+02 -0.22664137339E+02  0.61092852498E+02  0.51100000000E-03 0. -1.
         23    2    1    0    0    0  0.25671548025E+02 -0.87878841304E+01 -0.37831310493E+01  0.97693515444E+02  0.93773426907E+02 0.  0.
         11    1    3    3    0    0 -0.21336770522E+02  0.22975168182E+02  0.18881006290E+02  0.36600662946E+02  0.51100000000E-03 0.  1.
         22    1    1    0    0    0 -0.25671548025E+02  0.87878841304E+01  0.37831310493E+01  0.27396484556E+02  0.00000000000E+00 0. -1.
</event>
<event>
 5    1  0.1046082E-009  0.9118800E+02  0.7561462E-02  0.1125453E+00
         25   -1    0    0    0    0  0.00000000000E+00  0.00000000000E+00  0.99999998245E-14  0.12509000000E+03  0.12509000000E+03 0.  0.
        -11    1    3    3    0    0  0.37662159996E+02 -0.24674946779E+02  0.24521369278E+02  0.51269765414E+02  0.51100000000E-03 0. -1.
         23    2    1    0    0    0  0.20081471120E+02  0.15414718249E+02  0.13450084948E+02  0.96423228187E+02  0.92063321295E+02 0.  0.
         11    1    3    3    0    0 -0.17580688876E+02  0.40089665028E+02 -0.11071284330E+02  0.45153462773E+02  0.51100000000E-03 0.  1.
         22    1    1    0    0    0 -0.20081471120E+02 -0.15414718249E+02 -0.13450084948E+02  0.28666771813E+02  0.00000000000E+00 0.  1.
</event>
<event>
 5    1  0.1046082E-009  0.9118800E+02  0.7561462E-02  0.1125453E+00
         25   -1    0    0    0    0  0.00000000000E+00  0.00000000000E+00  0.99999998245E-14  0.12509000000E+03  0.12509000000E+03 0.  0.
        -11    1    3    3    0    0 -0.24108154934E+02 -0.30463335552E+02  0.63568463085E+01  0.39365307602E+02  0.51100000000E-03 0. -1.
         23    2    1    0    0    0 -0.14118869471E+02  0.22721695200E+02 -0.10956117065E+02  0.96182312285E+02  0.91735395499E+02 0.  0.
         11    1    3    3    0    0  0.99892854629E+01  0.53185030752E+02 -0.17312963373E+02  0.56817004683E+02  0.51100000000E-03 0.  1.
         22    1    1    0    0    0  0.14118869471E+02 -0.22721695200E+02  0.10956117065E+02  0.28907687715E+02  0.00000000000E+00 0.  1.
</event>
<event>
 5    1  0.1046082E-009  0.9118800E+02  0.7561462E-02  0.1125453E+00
         25   -1    0    0    0    0  0.00000000000E+00  0.00000000000E+00  0.99999998245E-14  0.12509000000E+03  0.12509000000E+03 0.  0.
        -11    1    3    3    0    0 -0.46115639747E+02  0.16857965677E+02 -0.86419455288E+01  0.49855054496E+02  0.51100000000E-03 0.  1.
         23    2    1    0    0    0 -0.15785981838E+02 -0.83135363595E+01  0.19783135713E+02  0.98450094444E+02  0.94777299645E+02 0.  0.
         11    1    3    3    0    0  0.30329657909E+02 -0.25171502036E+02  0.28425081242E+02  0.48595039948E+02  0.51100000000E-03 0. -1.
         22    1    1    0    0    0  0.15785981838E+02  0.83135363595E+01 -0.19783135713E+02  0.26639905556E+02  0.00000000000E+00 0.  1.
</event>
<event>
 5    1  0.1046082E-009  0.9118800E+02  0.7561462E-02  0.1125453E+00
         25   -1    0    0    0    0  0.00000000000E+00  0.00000000000E+00  0.99999998245E-14  0.12509000000E+03  0.12509000000E+03 0.  0.
        -11    1    3    3    0    0 -0.82117284224E+01 -0.41336095528E+02  0.12701208532E+02  0.44016201285E+02  0.51100000000E-03 0. -1.
         23    2    1    0    0    0  0.28437857807E+02 -0.69893758899E+01  0.81234988477E-01  0.95805708458E+02  0.91220414612E+02 0.  0.
         11    1    3    3    0    0  0.36649586230E+02  0.34346719638E+02 -0.12619973543E+02  0.51789507173E+02  0.51100000000E-03 0.  1.
         22    1    1    0    0    0 -0.28437857807E+02  0.69893758899E+01 -0.81234988477E-01  0.29284291542E+02  0.00000000000E+00 0.  1.
</event>
<event>
 5    1  0.1046082E-009  0.9118800E+02  0.7561462E-02  0.1125453E+00
         25   -1    0    0    0    0  0.00000000000E+00  0.00000000000E+00  0.99999998245E-14  0.12509000000E+03  0.12509000000E+03 0.  0.
        -11    1    3    3    0    0 -0.10823007067E+02  0.23387255289E+02  0.31684461235E+02  0.40841232546E+02  0.51100000000E-03 0.  1.
         23    2    1    0    0    0  0.28996355958E+02  0.26109093892E+01 -0.29178067102E+00  0.95974872616E+02  0.91452094186E+02 0.  0.
         11    1    3    3    0    0  0.39819363024E+02 -0.20776345900E+02 -0.31976241906E+02  0.55133640069E+02  0.51100000000E-03 0. -1.
         22    1    1    0    0    0 -0.28996355958E+02 -0.26109093892E+01  0.29178067102E+00  0.29115127384E+02  0.00000000000E+00 0. -1.
</event>
<event>
 5    1  0.1046082E-009  0.9118800E+02  0.7561462E-02  0.1125453E+00
         25   -1    0    0    0    0  0.00000000000E+00  0.00000000000E+00  0.99999998245E-14  0.12509000000E+03  0.12509000000E+03 0.  0.
        -11    1    3    3    0    0  0.36780488617E+02  0.37722641654E+02  0.28297196902E+02  0.59804125184E+02  0.51100000000E-03 0.  1.
         23    2    1    0    0    0  0.15335006739E+02  0.24205373868E+02  0.19451977860E+01  0.96369861592E+02  0.91990781457E+02 0.  0.
         11    1    3    3    0    0 -0.21445481878E+02 -0.13517267786E+02 -0.26351999116E+02  0.36565736408E+02  0.51100000000E-03 0. -1.
         22    1    1    0    0    0 -0.15335006739E+02 -0.24205373868E+02 -0.19451977860E+01  0.28720138408E+02  0.00000000000E+00 0.  1.
</event>
<event>
 5    1  0.1046082E-009  0.9118800E+02  0.7561462E-02  0.1125453E+00
         25   -1    0    0    0    0  0.00000000000E+00  0.00000000000E+00  0.99999998245E-14  0.12509000000E+03  0.12509000000E+03 0.  0.
        -11    1    3    3    0    0  0.14147529031E+02 -0.77268722429E+01 -0.26217207201E+02  0.30776599650E+02  0.51100000000E-03 0.  1.
         23    2    1    0    0    0  0.17072352438E+01 -0.20188706281E+02  0.29551980492E+02  0.89259593018E+02  0.81752412082E+02 0.  0.
         11    1    3    3    0    0 -0.12440293787E+02 -0.12461834039E+02  0.55769187693E+02  0.58482993368E+02  0.51100000000E-03 0. -1.
         22    1    1    0    0    0 -0.17072352438E+01  0.20188706281E+02 -0.29551980492E+02  0.35830406982E+02  0.00000000000E+00 0. -1.
</event>
<event>
 5    1  0.1046082E-009  0.9118800E+02  0.7561462E-02  0.1125453E+00
         25   -1    0    0    0    0  0.00000000000E+00  0.00000000000E+00  0.99999998245E-14  0.12509000000E+03  0.12509000000E+03 0.  0.
        -11    1    3    3    0    0 -0.75674033949E+01  0.35641536758E+02 -0.23538576538E+02  0.43377981999E+02  0.51100000000E-03 0.  1.
         23    2    1    0    0    0 -0.22612564225E+02  0.13401888473E+02  0.18278781973E+02  0.93073558194E+02  0.87393562057E+02 0.  0.
         11    1    3    3    0    0 -0.15045160830E+02 -0.22239648285E+02  0.41817358511E+02  0.49695576195E+02  0.51100000000E-03 0. -1.
         22    1    1    0    0    0  0.22612564225E+02 -0.13401888473E+02 -0.18278781973E+02  0.32016441806E+02  0.00000000000E+00 0. -1.
</event>
<event>
 5    1  0.1046082E-009  0.9118800E+02  0.7561462E-02  0.1125453E+00
         25   -1    0    0    0    0  0.00000000000E+00  0.00000000000E+00  0.99999998245E-14  0.12509000000E+03  0.12509000000E+03 0.  0.
        -11    1    3    3    0    0  0.93055138484E+01 -0.27584511850E+02 -0.35360276623E+02  0.45802260262E+02  0.51100000000E-03 0. -1.
         23    2    1    0    0    0  0.63805750627E+01  0.20094085045E+02 -0.20131673546E+02  0.95939214904E+02  0.91403307843E+02 0.  0.
         11    1    3    3    0    0 -0.29249387857E+01  0.47678596896E+02  0.15228603077E+02  0.50136954642E+02  0.51100000000E-03 0.  1.
         22    1    1    0    0    0 -0.63805750627E+01 -0.20094085045E+02  0.20131673546E+02  0.29150785096E+02  0.00000000000E+00 0.  1.
</event>
<event>
 5    1  0.1046082E-009  0.9118800E+02  0.7561462E-02  0.1125453E+00
         25   -1    0    0    0    0  0.00000000000E+00  0.00000000000E+00  0.99999998245E-14  0.12509000000E+03  0.12509000000E+03 0.  0.
        -11    1    3    3    0    0  0.12466874144E+02 -0.98549398915E+01 -0.30274867012E+02  0.34192255907E+02  0.51100000000E-03 0. -1.
         23    2    1    0    0    0 -0.22881162903E+01  0.53533096654E+01  0.28151716569E+02  0.96342608009E+02  0.91953714290E+02 0.  0.
         11    1    3    3    0    0 -0.14754990434E+02  0.15208249557E+02  0.58426583580E+02  0.62150352102E+02  0.51100000000E-03 0.  1.
         22    1    1    0    0    0  0.22881162903E+01 -0.53533096654E+01 -0.28151716569E+02  0.28747391991E+02  0.00000000000E+00 0.  1.
</event>
<event>
 5    1  0.1046082E-009  0.9118800E+02  0.7561462E-02  0.1125453E+00
         25   -1    0    0    0    0  0.00000000000E+00  0.00000000000E+00  0.99999998245E-14  0.12509000000E+03  0.12509000000E+03 0.  0.
        -11    1    3    3    0    0  0.90077668671E+01 -0.23769996683E+02  0.21633076856E+02  0.33378775004E+02  0.51100000000E-03 0.  1.
         23    2    1    0    0    0  0.95208756173E+00  0.18883735837E+02 -0.22782607160E+02  0.95483427437E+02  0.90777396836E+02 0.  0.
         11    1    3    3    0    0 -0.80556793053E+01  0.42653732520E+02 -0.44415684016E+02  0.62104652433E+02  0.51100000000E-03 0. -1.
         22    1    1    0    0    0 -0.95208756173E+00 -0.18883735837E+02  0.22782607160E+02  0.29606572563E+02  0.00000000000E+00 0. -1.
</event>
<event>
 5    1  0.1046082E-009  0.9118800E+02  0.7561462E-02  0.1125453E+00
         25   -1    0    0    0    0  0.00000000000E+00  0.00000000000E+00  0.99999998245E-14  0.12509000000E+03  0.12509000000E+03 0.  0.
        -11    1    3    3    0    0  0.48503589762E+02 -0.10048850183E+02  0.82074591530E+01  0.50208963301E+02  0.51100000000E-03 0. -1.
         23    2    1    0    0    0  0.21054729257E+02  0.11097130399E+02 -0.19298476625E+02  0.94448865438E+02  0.89340411098E+02 0.  0.
         11    1    3    3    0    0 -0.27448860504E+02  0.21145980582E+02 -0.27505935778E+02  0.44239902137E+02  0.51100000000E-03 0.  1.
         22    1    1    0    0    0 -0.21054729257E+02 -0.11097130399E+02  0.19298476625E+02  0.30641134562E+02  0.00000000000E+00 0. -1.
</event>
<event>
 5    1  0.1046082E-009  0.9118800E+02  0.7561462E-02  0.1125453E+00
         25   -1    0    0    0    0  0.00000000000E+00  0.00000000000E+00  0.99999998245E-14  0.12509000000E+03  0.12509000000E+03 0.  0.
        -11    1    3    3    0    0  0.30241561460E+02 -0.63204003739E+01  0.40352224925E+02  0.50821270715E+02  0.51100000000E-03 0.  1.
         23    2    1    0    0    0  0.29298933609E+02 -0.75474407692E+01 -0.34389286023E+01  0.94639752009E+02  0.89607282391E+02 0.  0.
         11    1    3    3    0    0 -0.94262785114E+00 -0.12270403953E+01 -0.43791153527E+02  0.43818481294E+02  0.51100000000E-03 0. -1.
         22    1    1    0    0    0 -0.29298933609E+02  0.75474407692E+01  0.34389286023E+01  0.30450247991E+02  0.00000000000E+00 0.  1.
</event>
<event>
 5    1  0.1046082E-009  0.9118800E+02  0.7561462E-02  0.1125453E+00
         25   -1    0    0    0    0  0.00000000000E+00  0.00000000000E+00  0.99999998245E-14  0.12509000000E+03  0.12509000000E+03 0.  0.
        -11    1    3    3    0    0  0.24043517416E+02 -0.45903224724E+02  0.31067075255E+02  0.60418208637E+02  0.51100000000E-03 0. -1.
         23    2    1    0    0    0  0.29402396133E+01 -0.19706305572E+02  0.22308232147E+02  0.95179454873E+02  0.90357555966E+02 0.  0.
         11    1    3    3    0    0 -0.21103277802E+02  0.26196919151E+02 -0.87588431085E+01  0.34761246236E+02  0.51100000000E-03 0.  1.
         22    1    1    0    0    0 -0.29402396133E+01  0.19706305572E+02 -0.22308232147E+02  0.29910545127E+02  0.00000000000E+00 0. -1.
</event>
<event>
 5    1  0.1046082E-009  0.9118800E+02  0.7561462E-02  0.1125453E+00
         25   -1    0    0    0    0  0.00000000000E+00  0.00000000000E+00  0.99999998245E-14  0.12509000000E+03  0.12509000000E+03 0.  0.
        -11    1    3    3    0    0 -0.50710215819E+02  0.10251891986E+02 -0.13669519471E+02  0.53511522503E+02  0.51100000000E-03 0.  1.
         23    2    1    0    0    0 -0.19879815137E+02 -0.17299514280E+02 -0.14783152139E+02  0.94873748887E+02  0.89933344186E+02 0.  0.
         11    1    3    3    0    0  0.30830400682E+02 -0.27551406266E+02 -0.11136326675E+01  0.41362226384E+02  0.51100000000E-03 0. -1.
         22    1    1    0    0    0  0.19879815137E+02  0.17299514280E+02  0.14783152139E+02  0.30216251113E+02  0.00000000000E+00 0.  1.
</event>
<event>
 5    1  0.1046082E-009  0.9118800E+02  0.7561462E-02  0.1125453E+00
         25   -1    0    0    0    0  0.00000000000E+00  0.00000000000E+00  0.99999998245E-14  0.12509000000E+03  0.12509000000E+03 0.  0.
        -11    1    3    3    0    0  0.30635228199E+02 -0.24169101702E+02  0.40886402941E+02  0.56518675052E+02  0.51100000000E-03 0. -1.
         23    2    1    0    0    0  0.19071421136E+01 -0.25959429848E+02  0.16262565238E+02  0.94397977956E+02  0.89269132543E+02 0.  0.
         11    1    3    3    0    0 -0.28728086085E+02 -0.17903281452E+01 -0.24623837704E+02  0.37879302904E+02  0.51100000000E-03 0.  1.
         22    1    1    0    0    0 -0.19071421136E+01  0.25959429848E+02 -0.16262565238E+02  0.30692022044E+02  0.00000000000E+00 0. -1.
</event>
<event>
 5    1  0.1046082E-009  0.9118800E+02  0.7561462E-02  0.1125453E+00
         25   -1    0    0    0    0  0.00000000000E+00  0.00000000000E+00  0.99999998245E-14  0.12509000000E+03  0.12509000000E+03 0.  0.
        -11    1    3    3    0    0 -0.18486344575E+02  0.45122814136E+02  0.19597586108E+01  0.48802192014E+02  0.51100000000E-03 0.  1.
         23    2    1    0    0    0 -0.16341869321E+02  0.41465327957E+01 -0.22805618790E+02  0.96728993750E+02  0.92477843597E+02 0.  0.
         11    1    3    3    0    0  0.21444752546E+01 -0.40976281340E+02 -0.24765377401E+02  0.47926801736E+02  0.51100000000E-03 0. -1.
         22    1    1    0    0    0  0.16341869321E+02 -0.41465327957E+01  0.22805618790E+02  0.28361006250E+02  0.00000000000E+00 0.  1.
</event>
<event>
 5    1  0.1046082E-009  0.9118800E+02  0.7561462E-02  0.1125453E+00
         25   -1    0    0    0    0  0.00000000000E+00  0.00000000000E+00  0.99999998245E-14  0.12509000000E+03  0.12509000000E+03 0.  0.
        -11    1    3    3    0    0 -0.28988686508E+01 -0.48812249555E+02  0.26131975948E+02  0.55442937452E+02  0.51100000000E-03 0. -1.
         23    2    1    0    0    0 -0.28039705206E+01 -0.82282232384E+01  0.27700669264E+02  0.96057380655E+02  0.91564880781E+02 0.  0.
         11    1    3    3    0    0  0.94898130203E-01  0.40584026317E+02  0.15686933155E+01  0.40614443203E+02  0.51100000000E-03 0.  1.
         22    1    1    0    0    0  0.28039705206E+01  0.82282232384E+01 -0.27700669264E+02  0.29032619345E+02  0.00000000000E+00 0. -1.
</event>
<event>
 5    1  0.1046082E-009  0.9118800E+02  0.7561462E-02  0.1125453E+00
         25   -1    0    0    0    0  0.00000000000E+00  0.00000000000E+00  0.99999998245E-14  0.12509000000E+03  0.12509000000E+03 0.  0.
        -11    1    3    3    0    0  0.12660060456E+02 -0.43713337807E+02  0.86861102855E+00  0.45517991150E+02  0.51100000000E-03 0.  1.
         23    2    1    0    0    0  0.19814497897E+02  0.54905101701E+00 -0.21687328389E+02  0.95708781567E+02  0.91087402381E+02 0.  0.
         11    1    3    3    0    0  0.71544374415E+01  0.44262388824E+02 -0.22555939417E+02  0.50190790417E+02  0.51100000000E-03 0. -1.
         22    1    1    0    0    0 -0.19814497897E+02 -0.54905101701E+00  0.21687328389E+02  0.29381218433E+02  0.00000000000E+00 0. -1.
</event>
<event>
 5    1  0.1046082E-009  0.9118800E+02  0.7561462E-02  0.1125453E+00
         25   -1    0    0    0    0  0.00000000000E+00  0.00000000000E+00  0.99999998245E-14  0.12509000000E+03  0.12509000000E+03 0.  0.
        -11    1    3    3    0    0  0.23049710126E+02  0.30540568164E+02 -0.12638924426E+02  0.40295878842E+02  0.51100000000E-03 0.  1.
         23    2    1    0    0    0 -0.22742776805E+02 -0.30465241716E+00 -0.18436396070E+02  0.95811553833E+02  0.91228429988E+02 0.  0.
         11    1    3    3    0    0 -0.45792486931E+02 -0.30845220582E+02 -0.57974716437E+01  0.55515674992E+02  0.51100000000E-03 0. -1.
         22    1    1    0    0    0  0.22742776805E+02  0.30465241716E+00  0.18436396070E+02  0.29278446167E+02  0.00000000000E+00 0. -1.
</event>
<event>
 5    1  0.1046082E-009  0.9118800E+02  0.7561462E-02  0.1125453E+00
         25   -1    0    0    0    0  0.00000000000E+00  0.00000000000E+00  0.99999998245E-14  0.12509000000E+03  0.12509000000E+03 0.  0.
        -11    1    3    3    0    0  0.14767509248E+02 -0.28060685097E+02 -0.20724134481E+02  0.37881012761E+02  0.51100000000E-03 0.  1.
         23    2    1    0    0    0  0.14731362020E+01  0.55593562431E+01  0.26848631898E+02  0.97632294217E+02  0.93691724646E+02 0.  0.
         11    1    3    3    0    0 -0.13294373046E+02  0.33620041340E+02  0.47572766379E+02  0.59751281456E+02  0.51100000000E-03 0. -1.
         22    1    1    0    0    0 -0.14731362020E+01 -0.55593562431E+01 -0.26848631898E+02  0.27457705783E+02  0.00000000000E+00 0. -1.
</event>
<event>
 5    1  0.1046082E-009  0.9118800E+02  0.7561462E-02  0.1125453E+00
         25   -1    0    0    0    0  0.00000000000E+00  0.00000000000E+00  0.99999998245E-14  0.12509000000E+03  0.12509000000E+03 0.  0.
        -11    1    3    3    0    0 -0.44341547632E+02  0.13062875989E+02 -0.37067034587E+02  0.59251806967E+02  0.51100000000E-03 0.  1.
         23    2    1    0    0    0 -0.27866304414E+02 -0.44125086238E+01 -0.10704856863E+02  0.94913931427E+02  0.89989217490E+02 0.  0.
         11    1    3    3    0    0  0.16475243218E+02 -0.17475384613E+02  0.26362177724E+02  0.35662124461E+02  0.51100000000E-03 0. -1.
         22    1    1    0    0    0  0.27866304414E+02  0.44125086238E+01  0.10704856863E+02  0.30176068573E+02  0.00000000000E+00 0.  1.
</event>
<event>
 5    1  0.1046082E-009  0.9118800E+02  0.7561462E-02  0.1125453E+00
         25   -1    0    0    0    0  0.00000000000E+00  0.00000000000E+00  0.99999998245E-14  0.12509000000E+03  0.12509000000E+03 0.  0.
        -11    1    3    3    0    0 -0.33488180815E+02  0.19571636673E+02 -0.15637780535E+01  0.38819487612E+02  0.51100000000E-03 0.  1.
         23    2    1    0    0    0  0.22977777362E+02  0.17152382519E+02 -0.69278486193E+01  0.95591227737E+02  0.90925822818E+02 0.  0.
         11    1    3    3    0    0  0.56465958177E+02 -0.24192541543E+01 -0.53640705658E+01  0.56771740125E+02  0.51100000000E-03 0. -1.
         22    1    1    0    0    0 -0.22977777362E+02 -0.17152382519E+02  0.69278486193E+01  0.29498772263E+02  0.00000000000E+00 0. -1.
</event>
<event>
 5    1  0.1046082E-009  0.9118800E+02  0.7561462E-02  0.1125453E+00
         25   -1    0    0    0    0  0.00000000000E+00  0.00000000000E+00  0.99999998245E-14  0.12509000000E+03  0.12509000000E+03 0.  0.
        -11    1    3    3    0    0  0.22985848566E+01 -0.22299855926E+01 -0.37529343338E+02  0.37665739602E+02  0.51100000000E-03 0.  1.
         23    2    1    0    0    0  0.20927899028E+02  0.12380479846E+02  0.15853235166E+02  0.96062800614E+02  0.91572284878E+02 0.  0.
         11    1    3    3    0    0  0.18629314171E+02  0.14610465438E+02  0.53382578505E+02  0.58397061013E+02  0.51100000000E-03 0. -1.
         22    1    1    0    0    0 -0.20927899028E+02 -0.12380479846E+02 -0.15853235166E+02  0.29027199386E+02  0.00000000000E+00 0. -1.
</event>
<event>
 5    1  0.1046082E-009  0.9118800E+02  0.7561462E-02  0.1125453E+00
         25   -1    0    0    0    0  0.00000000000E+00  0.00000000000E+00  0.99999998245E-14  0.12509000000E+03  0.12509000000E+03 0.  0.
        -11    1    3    3    0    0 -0.22083772972E+02 -0.51967876933E+02  0.15586618431E+02  0.58577264668E+02  0.51100000000E-03 0.  1.
         23    2    1    0    0    0 -0.25895499573E+02 -0.20822557677E+02  0.66564087098E+01  0.91201010884E+02  0.84670897025E+02 0.  0.
         11    1    3    3    0    0 -0.38117266009E+01  0.31145319256E+02 -0.89302097214E+01  0.32623746216E+02  0.51100000000E-03 0. -1.
         22    1    1    0    0    0  0.25895499573E+02  0.20822557677E+02 -0.66564087098E+01  0.33888989116E+02  0.00000000000E+00 0.  1.
</event>
<event>
 5    1  0.1046082E-009  0.9118800E+02  0.7561462E-02  0.1125453E+00
         25   -1    0    0    0    0  0.00000000000E+00  0.00000000000E+00  0.99999998245E-14  0.12509000000E+03  0.12509000000E+03 0.  0.
        -11    1    3    3    0    0 -0.43124729196E+02  0.43011515279E+02 -0.55647433176E+01  0.61161254755E+02  0.51100000000E-03 0.  1.
         23    2    1    0    0    0 -0.28874341668E+02  0.16634569613E+02 -0.64212077196E+01  0.91153759467E+02  0.84601060533E+02 0.  0.
         11    1    3    3    0    0  0.14250387528E+02 -0.26376945666E+02 -0.85646440200E+00  0.29992504712E+02  0.51100000000E-03 0. -1.
         22    1    1    0    0    0  0.28874341668E+02 -0.16634569613E+02  0.64212077196E+01  0.33936240533E+02  0.00000000000E+00 0.  1.
</event>
<event>
 5    1  0.1046082E-009  0.9118800E+02  0.7561462E-02  0.1125453E+00
         25   -1    0    0    0    0  0.00000000000E+00  0.00000000000E+00  0.99999998245E-14  0.12509000000E+03  0.12509000000E+03 0.  0.
        -11    1    3    3    0    0  0.21191303927E+01 -0.29458639920E+00 -0.27003326564E+02  0.27087951944E+02  0.51100000000E-03 0.  1.
         23    2    1    0    0    0  0.13605708948E+02  0.20423929909E+02  0.28526646640E+02  0.87459934926E+02  0.78950734131E+02 0.  0.
         11    1    3    3    0    0  0.11486578555E+02  0.20718516308E+02  0.55529973204E+02  0.60371982982E+02  0.51100000000E-03 0. -1.
         22    1    1    0    0    0 -0.13605708948E+02 -0.20423929909E+02 -0.28526646640E+02  0.37630065074E+02  0.00000000000E+00 0. -1.
</event>
<event>
 5    1  0.1046082E-009  0.9118800E+02  0.7561462E-02  0.1125453E+00
         25   -1    0    0    0    0  0.00000000000E+00  0.00000000000E+00  0.99999998245E-14  0.12509000000E+03  0.12509000000E+03 0.  0.
        -11    1    3    3    0    0 -0.13957650811E+02 -0.45039545495E+02  0.32486671394E+02  0.57260461866E+02  0.51100000000E-03 0. -1.
         23    2    1    0    0    0 -0.89800982258E+01 -0.69566418689E+01  0.26665297843E+02  0.96105950260E+02  0.91631209400E+02 0.  0.
         11    1    3    3    0    0  0.49775525852E+01  0.38082903626E+02 -0.58213735502E+01  0.38845488395E+02  0.51100000000E-03 0.  1.
         22    1    1    0    0    0  0.89800982258E+01  0.69566418689E+01 -0.26665297843E+02  0.28984049740E+02  0.00000000000E+00 0. -1.
</event>
<event>
 5    1  0.1046082E-009  0.9118800E+02  0.7561462E-02  0.1125453E+00
         25   -1    0    0    0    0  0.00000000000E+00  0.00000000000E+00  0.99999998245E-14  0.12509000000E+03  0.12509000000E+03 0.  0.
        -11    1    3    3    0    0 -0.18356412995E+02  0.27406824365E+02  0.11822397634E+02  0.35040847677E+02  0.51100000000E-03 0.  1.
         23    2    1    0    0    0 -0.21770155375E+01 -0.29560075709E+02  0.80264915823E+01  0.94382313020E+02  0.89247179066E+02 0.  0.
         11    1    3    3    0    0  0.16179397457E+02 -0.56966900074E+02 -0.37959060517E+01  0.59341465343E+02  0.51100000000E-03 0. -1.
         22    1    1    0    0    0  0.21770155375E+01  0.29560075709E+02 -0.80264915823E+01  0.30707686980E+02  0.00000000000E+00 0. -1.
</event>
<event>
 5    1  0.1046082E-009  0.9118800E+02  0.7561462E-02  0.1125453E+00
         25   -1    0    0    0    0  0.00000000000E+00  0.00000000000E+00  0.99999998245E-14  0.12509000000E+03  0.12509000000E+03 0.  0.
        -11    1    3    3    0    0 -0.43624250193E+01  0.20474945264E+02  0.24108490530E+02  0.31929194345E+02  0.51100000000E-03 0. -1.
         23    2    1    0    0    0 -0.12709160410E+02 -0.65933377475E+01 -0.29353040448E+02  0.92431221019E+02  0.86469270695E+02 0.  0.
         11    1    3    3    0    0 -0.83467353908E+01 -0.27068283011E+02 -0.53461530978E+02  0.60502026674E+02  0.51100000000E-03 0.  1.
         22    1    1    0    0    0  0.12709160410E+02  0.65933377475E+01  0.29353040448E+02  0.32658778981E+02  0.00000000000E+00 0.  1.
</event>
<event>
 5    1  0.1046082E-009  0.9118800E+02  0.7561462E-02  0.1125453E+00
         25   -1    0    0    0    0  0.00000000000E+00  0.00000000000E+00  0.99999998245E-14  0.12509000000E+03  0.12509000000E+03 0.  0.
        -11    1    3    3    0    0 -0.49361275411E+01  0.11438307143E+02 -0.32485526092E+02  0.34792378923E+02  0.51100000000E-03 0.  1.
         23    2    1    0    0    0 -0.32296767509E+01  0.11222290909E+02  0.27713831841E+02  0.95016305507E+02  0.90131410794E+02 0.  0.
         11    1    3    3    0    0  0.17064507901E+01 -0.21601623405E+00  0.60199357933E+02  0.60223926583E+02  0.51100000000E-03 0. -1.
         22    1    1    0    0    0  0.32296767509E+01 -0.11222290909E+02 -0.27713831841E+02  0.30073694493E+02  0.00000000000E+00 0. -1.
</event>
<event>
 5    1  0.1046082E-009  0.9118800E+02  0.7561462E-02  0.1125453E+00
         25   -1    0    0    0    0  0.00000000000E+00  0.00000000000E+00  0.99999998245E-14  0.12509000000E+03  0.12509000000E+03 0.  0.
        -11    1    3    3    0    0 -0.31365873834E+02 -0.26431763595E+02  0.87324190603E+00  0.41027048636E+02  0.51100000000E-03 0.  1.
         23    2    1    0    0    0  0.22046158111E+02 -0.62797070268E+01  0.12041789018E+02  0.99196516446E+02  0.95757382924E+02 0.  0.
         11    1    3    3    0    0  0.53412031945E+02  0.20152056568E+02  0.11168547112E+02  0.58169467810E+02  0.51100000000E-03 0. -1.
         22    1    1    0    0    0 -0.22046158111E+02  0.62797070268E+01 -0.12041789018E+02  0.25893483554E+02  0.00000000000E+00 0. -1.
</event>
<event>
 5    1  0.1046082E-009  0.9118800E+02  0.7561462E-02  0.1125453E+00
         25   -1    0    0    0    0  0.00000000000E+00  0.00000000000E+00  0.99999998245E-14  0.12509000000E+03  0.12509000000E+03 0.  0.
        -11    1    3    3    0    0 -0.75790019571E+01 -0.28691973546E+02 -0.11872471008E+02  0.31962887615E+02  0.51100000000E-03 0. -1.
         23    2    1    0    0    0 -0.16094248572E+01  0.29345004491E+02  0.96619827874E+01  0.94153396303E+02  0.88925747605E+02 0.  0.
         11    1    3    3    0    0  0.59695770999E+01  0.58036978036E+02  0.21534453795E+02  0.62190508688E+02  0.51100000000E-03 0.  1.
         22    1    1    0    0    0  0.16094248572E+01 -0.29345004491E+02 -0.96619827874E+01  0.30936603697E+02  0.00000000000E+00 0.  1.
</event>
<event>
 5    1  0.1046082E-009  0.9118800E+02  0.7561462E-02  0.1125453E+00
         25   -1    0    0    0    0  0.00000000000E+00  0.00000000000E+00  0.99999998245E-14  0.12509000000E+03  0.12509000000E+03 0.  0.
        -11    1    3    3    0    0 -0.31771966311E+02  0.74564526374E+01 -0.22151987184E+02  0.39443213176E+02  0.51100000000E-03 0. -1.
         23    2    1    0    0    0  0.22071382394E+02  0.17077768863E+02 -0.97597476442E+01  0.95525683938E+02  0.90835607047E+02 0.  0.
         11    1    3    3    0    0  0.53843348705E+02  0.96213162257E+01  0.12392239540E+02  0.56082470762E+02  0.51100000000E-03 0.  1.
         22    1    1    0    0    0 -0.22071382394E+02 -0.17077768863E+02  0.97597476442E+01  0.29564316062E+02  0.00000000000E+00 0.  1.
</event>
<event>
 5    1  0.1046082E-009  0.9118800E+02  0.7561462E-02  0.1125453E+00
         25   -1    0    0    0    0  0.00000000000E+00  0.00000000000E+00  0.99999998245E-14  0.12509000000E+03  0.12509000000E+03 0.  0.
        -11    1    3    3    0    0  0.18927006765E+02  0.28236473559E+02 -0.36612189378E+02  0.49959808201E+02  0.51100000000E-03 0.  1.
         23    2    1    0    0    0  0.32587722463E+02  0.11033006566E+01 -0.83968699396E+01  0.91419770532E+02  0.84993470876E+02 0.  0.
         11    1    3    3    0    0  0.13660715698E+02 -0.27133172903E+02  0.28215319439E+02  0.41459962330E+02  0.51100000000E-03 0. -1.
         22    1    1    0    0    0 -0.32587722463E+02 -0.11033006566E+01  0.83968699396E+01  0.33670229468E+02  0.00000000000E+00 0.  1.
</event>
<event>
 5    1  0.1046082E-009  0.9118800E+02  0.7561462E-02  0.1125453E+00
         25   -1    0    0    0    0  0.00000000000E+00  0.00000000000E+00  0.99999998245E-14  0.12509000000E+03  0.12509000000E+03 0.  0.
        -11    1    3    3    0    0 -0.21432455873E+02 -0.35241118751E+02  0.27992372554E+02  0.49848365440E+02  0.51100000000E-03 0.  1.
         23    2    1    0    0    0 -0.19198506702E+02 -0.19321354380E+02 -0.13749335466E+02  0.94578664067E+02  0.89521964212E+02 0.  0.
         11    1    3    3    0    0  0.22339491715E+01  0.15919764371E+02 -0.41741708020E+02  0.44730298627E+02  0.51100000000E-03 0. -1.
         22    1    1    0    0    0  0.19198506702E+02  0.19321354380E+02  0.13749335466E+02  0.30511335933E+02  0.00000000000E+00 0.  1.
</event>
<event>
 5    1  0.1046082E-009  0.9118800E+02  0.7561462E-02  0.1125453E+00
         25   -1    0    0    0    0  0.00000000000E+00  0.00000000000E+00  0.99999998245E-14  0.12509000000E+03  0.12509000000E+03 0.  0.
        -11    1    3    3    0    0 -0.32293526843E+02  0.16183282300E+00  0.21908862007E+02  0.39024303972E+02  0.51100000000E-03 0. -1.
         23    2    1    0    0    0 -0.62041507933E+01  0.13171300975E+02 -0.26107127021E+02  0.95197580598E+02  0.90382645535E+02 0.  0.
         11    1    3    3    0    0  0.26089376049E+02  0.13009468152E+02 -0.48015989028E+02  0.56173276626E+02  0.51100000000E-03 0.  1.
         22    1    1    0    0    0  0.62041507933E+01 -0.13171300975E+02  0.26107127021E+02  0.29892419402E+02  0.00000000000E+00 0.  1.
</event>
<event>
 5    1  0.1046082E-009  0.9118800E+02  0.7561462E-02  0.1125453E+00
         25   -1    0    0    0    0  0.00000000000E+00  0.00000000000E+00  0.99999998245E-14  0.12509000000E+03  0.12509000000E+03 0.  0.
        -11    1    3    3    0    0  0.37597779039E+02  0.24352149922E+02  0.11843830761E+01  0.44810969171E+02  0.51100000000E-03 0.  1.
         23    2    1    0    0    0 -0.68891783051E+01  0.16791831782E+02 -0.22827181117E+02  0.95926553872E+02  0.91385978945E+02 0.  0.
         11    1    3    3    0    0 -0.44486957344E+02 -0.75603181404E+01 -0.24011564193E+02  0.51115584702E+02  0.51100000000E-03 0. -1.
         22    1    1    0    0    0  0.68891783051E+01 -0.16791831782E+02  0.22827181117E+02  0.29163446128E+02  0.00000000000E+00 0.  1.
</event>
<event>
 5    1  0.1046082E-009  0.9118800E+02  0.7561462E-02  0.1125453E+00
         25   -1    0    0    0    0  0.00000000000E+00  0.00000000000E+00  0.99999998245E-14  0.12509000000E+03  0.12509000000E+03 0.  0.
        -11    1    3    3    0    0  0.35510033889E+02  0.97357104401E+01  0.19715210502E+02  0.41766446940E+02  0.51100000000E-03 0.  1.
         23    2    1    0    0    0  0.10553302608E+02 -0.15886211237E+02 -0.21508149630E+02  0.96343793226E+02  0.91955326595E+02 0.  0.
         11    1    3    3    0    0 -0.24956731282E+02 -0.25621921677E+02 -0.41223360133E+02  0.54577346286E+02  0.51100000000E-03 0. -1.
         22    1    1    0    0    0 -0.10553302608E+02  0.15886211237E+02  0.21508149630E+02  0.28746206774E+02  0.00000000000E+00 0. -1.
</event>
<event>
 5    1  0.1046082E-009  0.9118800E+02  0.7561462E-02  0.1125453E+00
         25   -1    0    0    0    0  0.00000000000E+00  0.00000000000E+00  0.99999998245E-14  0.12509000000E+03  0.12509000000E+03 0.  0.
        -11    1    3    3    0    0  0.12920942533E+02  0.29365252647E+02 -0.23435560643E+02  0.39730269592E+02  0.51100000000E-03 0.  1.
         23    2    1    0    0    0 -0.88463851359E+00  0.11686769056E+02  0.27396818635E+02  0.95291529778E+02  0.90512578241E+02 0.  0.
         11    1    3    3    0    0 -0.13805581046E+02 -0.17678483592E+02  0.50832379278E+02  0.55561260186E+02  0.51100000000E-03 0. -1.
         22    1    1    0    0    0  0.88463851359E+00 -0.11686769056E+02 -0.27396818635E+02  0.29798470222E+02  0.00000000000E+00 0. -1.
</event>
<event>
 5    1  0.1046082E-009  0.9118800E+02  0.7561462E-02  0.1125453E+00
         25   -1    0    0    0    0  0.00000000000E+00  0.00000000000E+00  0.99999998245E-14  0.12509000000E+03  0.12509000000E+03 0.  0.
        -11    1    3    3    0    0  0.34201537678E+02  0.43987196382E+02 -0.49770367598E+01  0.55940946723E+02  0.51100000000E-03 0.  1.
         23    2    1    0    0    0  0.23060493423E+01  0.27190859843E+02  0.11376896266E+02  0.95524910939E+02  0.90834542541E+02 0.  0.
         11    1    3    3    0    0 -0.31895488336E+02 -0.16796336540E+02  0.16353933025E+02  0.39583964215E+02  0.51100000000E-03 0. -1.
         22    1    1    0    0    0 -0.23060493423E+01 -0.27190859843E+02 -0.11376896266E+02  0.29565089061E+02  0.00000000000E+00 0.  1.
</event>
<event>
 5    1  0.1046082E-009  0.9118800E+02  0.7561462E-02  0.1125453E+00
         25   -1    0    0    0    0  0.00000000000E+00  0.00000000000E+00  0.99999998245E-14  0.12509000000E+03  0.12509000000E+03 0.  0.
        -11    1    3    3    0    0  0.44936488596E+01 -0.14866390857E+02 -0.26658788448E+02  0.30852770685E+02  0.51100000000E-03 0.  1.
         23    2    1    0    0    0 -0.13760585869E+02 -0.18731590163E+02  0.28053284401E+02  0.88659065903E+02  0.80828318105E+02 0.  0.
         11    1    3    3    0    0 -0.18254234729E+02 -0.38651993056E+01  0.54712072848E+02  0.57806295218E+02  0.51100000000E-03 0. -1.
         22    1    1    0    0    0  0.13760585869E+02  0.18731590163E+02 -0.28053284401E+02  0.36430934097E+02  0.00000000000E+00 0. -1.
</event>
<event>
 5    1  0.1046082E-009  0.9118800E+02  0.7561462E-02  0.1125453E+00
         25   -1    0    0    0    0  0.00000000000E+00  0.00000000000E+00  0.99999998245E-14  0.12509000000E+03  0.12509000000E+03 0.  0.
        -11    1    3    3    0    0 -0.49602222819E+02  0.23321645670E+02  0.26448028034E+01  0.54875082209E+02  0.51100000000E-03 0.  1.
         23    2    1    0    0    0 -0.95424629518E+01  0.27853608238E+02  0.48486580456E+01  0.95250570114E+02  0.90455953542E+02 0.  0.
         11    1    3    3    0    0  0.40059759867E+02  0.45319625685E+01  0.22038552423E+01  0.40375487905E+02  0.51100000000E-03 0. -1.
         22    1    1    0    0    0  0.95424629518E+01 -0.27853608238E+02 -0.48486580456E+01  0.29839429886E+02  0.00000000000E+00 0.  1.
</event>
<event>
 5    1  0.1046082E-009  0.9118800E+02  0.7561462E-02  0.1125453E+00
         25   -1    0    0    0    0  0.00000000000E+00  0.00000000000E+00  0.99999998245E-14  0.12509000000E+03  0.12509000000E+03 0.  0.
        -11    1    3    3    0    0  0.91019987669E+01 -0.15611023787E+02 -0.36573068372E+02  0.40793869339E+02  0.51100000000E-03 0.  1.
         23    2    1    0    0    0  0.27048266414E+02 -0.10252990955E+01  0.12675128753E+02  0.95201560041E+02  0.90388152936E+02 0.  0.
         11    1    3    3    0    0  0.17946267648E+02  0.14585724691E+02  0.49248197125E+02  0.54407690703E+02  0.51100000000E-03 0. -1.
         22    1    1    0    0    0 -0.27048266414E+02  0.10252990955E+01 -0.12675128753E+02  0.29888439959E+02  0.00000000000E+00 0. -1.
</event>
<event>
 5    1  0.1046082E-009  0.9118800E+02  0.7561462E-02  0.1125453E+00
         25   -1    0    0    0    0  0.00000000000E+00  0.00000000000E+00  0.99999998245E-14  0.12509000000E+03  0.12509000000E+03 0.  0.
        -11    1    3    3    0    0  0.28522686393E+01  0.22621607826E+02 -0.24952509923E+02  0.33800892426E+02  0.51100000000E-03 0. -1.
         23    2    1    0    0    0  0.25642939841E+02 -0.20035004372E+02  0.70496367431E+01  0.91793466516E+02  0.85541693652E+02 0.  0.
         11    1    3    3    0    0  0.22790671201E+02 -0.42656612199E+02  0.32002146666E+02  0.57992574090E+02  0.51100000000E-03 0.  1.
         22    1    1    0    0    0 -0.25642939841E+02  0.20035004372E+02 -0.70496367431E+01  0.33296533484E+02  0.00000000000E+00 0.  1.
</event>
<event>
 5    1  0.1046082E-009  0.9118800E+02  0.7561462E-02  0.1125453E+00
         25   -1    0    0    0    0  0.00000000000E+00  0.00000000000E+00  0.99999998245E-14  0.12509000000E+03  0.12509000000E+03 0.  0.
        -11    1    3    3    0    0 -0.41330376695E+02 -0.18153342845E+02  0.22612995230E+02  0.50488527882E+02  0.51100000000E-03 0.  1.
         23    2    1    0    0    0 -0.40785900213E+00  0.16977321491E+01  0.28664391370E+02  0.96372479633E+02  0.91994341427E+02 0.  0.
         11    1    3    3    0    0  0.40922517693E+02  0.19851074994E+02  0.60513961401E+01  0.45883951751E+02  0.51100000000E-03 0. -1.
         22    1    1    0    0    0  0.40785900213E+00 -0.16977321491E+01 -0.28664391370E+02  0.28717520367E+02  0.00000000000E+00 0. -1.
</event>
<event>
 5    1  0.1046082E-009  0.9118800E+02  0.7561462E-02  0.1125453E+00
         25   -1    0    0    0    0  0.00000000000E+00  0.00000000000E+00  0.99999998245E-14  0.12509000000E+03  0.12509000000E+03 0.  0.
        -11    1    3    3    0    0  0.57061768130E+01 -0.46806712948E+02 -0.19627612730E+02  0.51075160426E+02  0.51100000000E-03 0.  1.
         23    2    1    0    0    0  0.29733461287E+00 -0.11125672526E+02  0.18453503050E+02  0.10354004010E+03  0.10127259813E+03 0.  0.
         11    1    3    3    0    0 -0.54088422001E+01  0.35681040421E+02  0.38081115780E+02  0.52464879670E+02  0.51100000000E-03 0. -1.
         22    1    1    0    0    0 -0.29733461287E+00  0.11125672526E+02 -0.18453503050E+02  0.21549959904E+02  0.00000000000E+00 0. -1.
</event>
<event>
 5    1  0.1046082E-009  0.9118800E+02  0.7561462E-02  0.1125453E+00
         25   -1    0    0    0    0  0.00000000000E+00  0.00000000000E+00  0.99999998245E-14  0.12509000000E+03  0.12509000000E+03 0.  0.
        -11    1    3    3    0    0 -0.96356169839E+01 -0.51560466505E+02 -0.32554844720E+02  0.61734469593E+02  0.51100000000E-03 0.  1.
         23    2    1    0    0    0 -0.11117316110E+02 -0.21292314814E+02 -0.15394323060E+02  0.96560321241E+02  0.92249406871E+02 0.  0.
         11    1    3    3    0    0 -0.14816991258E+01  0.30268151692E+02  0.17160521660E+02  0.34825851648E+02  0.51100000000E-03 0. -1.
         22    1    1    0    0    0  0.11117316110E+02  0.21292314814E+02  0.15394323060E+02  0.28529678759E+02  0.00000000000E+00 0.  1.
</event>
<event>
 5    1  0.1046082E-009  0.9118800E+02  0.7561462E-02  0.1125453E+00
         25   -1    0    0    0    0  0.00000000000E+00  0.00000000000E+00  0.99999998245E-14  0.12509000000E+03  0.12509000000E+03 0.  0.
        -11    1    3    3    0    0  0.17984200286E+02 -0.34299322922E-01  0.47709167767E+02  0.50986246436E+02  0.51100000000E-03 0.  1.
         23    2    1    0    0    0 -0.18698623021E+02 -0.42286908546E+01  0.21615292770E+02  0.96198111679E+02  0.91756936957E+02 0.  0.
         11    1    3    3    0    0 -0.36682823307E+02 -0.41943915317E+01 -0.26093874997E+02  0.45211865242E+02  0.51100000000E-03 0. -1.
         22    1    1    0    0    0  0.18698623021E+02  0.42286908546E+01 -0.21615292770E+02  0.28891888321E+02  0.00000000000E+00 0. -1.
</event>
<event>
 5    1  0.1046082E-009  0.9118800E+02  0.7561462E-02  0.1125453E+00
         25   -1    0    0    0    0  0.00000000000E+00  0.00000000000E+00  0.99999998245E-14  0.12509000000E+03  0.12509000000E+03 0.  0.
        -11    1    3    3    0    0  0.10957293429E+02 -0.96780361179E+01 -0.46533528193E+02  0.48775976758E+02  0.51100000000E-03 0.  1.
         23    2    1    0    0    0  0.28665191160E+02  0.66110834292E+01 -0.73319177276E+01  0.94772404021E+02  0.89792271037E+02 0.  0.
         11    1    3    3    0    0  0.17707897731E+02  0.16289119547E+02  0.39201610465E+02  0.45996427263E+02  0.51100000000E-03 0. -1.
         22    1    1    0    0    0 -0.28665191160E+02 -0.66110834292E+01  0.73319177276E+01  0.30317595979E+02  0.00000000000E+00 0. -1.
</event>
<event>
 5    1  0.1046082E-009  0.9118800E+02  0.7561462E-02  0.1125453E+00
         25   -1    0    0    0    0  0.00000000000E+00  0.00000000000E+00  0.99999998245E-14  0.12509000000E+03  0.12509000000E+03 0.  0.
        -11    1    3    3    0    0  0.30974005678E+02  0.41560208798E+02 -0.27237892429E+02  0.58553759634E+02  0.51100000000E-03 0.  1.
         23    2    1    0    0    0  0.26103318611E+02  0.12703362954E+02 -0.42871829181E+01  0.95744836681E+02  0.91136903288E+02 0.  0.
         11    1    3    3    0    0 -0.48706870675E+01 -0.28856845844E+02  0.22950709511E+02  0.37191077047E+02  0.51100000000E-03 0. -1.
         22    1    1    0    0    0 -0.26103318611E+02 -0.12703362954E+02  0.42871829181E+01  0.29345163319E+02  0.00000000000E+00 0.  1.
</event>
<event>
 5    1  0.1046082E-009  0.9118800E+02  0.7561462E-02  0.1125453E+00
         25   -1    0    0    0    0  0.00000000000E+00  0.00000000000E+00  0.99999998245E-14  0.12509000000E+03  0.12509000000E+03 0.  0.
        -11    1    3    3    0    0 -0.66048834161E+01 -0.34808300763E+02 -0.58553605481E+01  0.35909992124E+02  0.51100000000E-03 0. -1.
         23    2    1    0    0    0 -0.15841036268E+01  0.24993088980E+02 -0.13882610826E+02  0.96456265273E+02  0.92108199125E+02 0.  0.
         11    1    3    3    0    0  0.50207797892E+01  0.59801389743E+02 -0.80272502781E+01  0.60546273149E+02  0.51100000000E-03 0.  1.
         22    1    1    0    0    0  0.15841036268E+01 -0.24993088980E+02  0.13882610826E+02  0.28633734727E+02  0.00000000000E+00 0.  1.
</event>
<event>
 5    1  0.1046082E-009  0.9118800E+02  0.7561462E-02  0.1125453E+00
         25   -1    0    0    0    0  0.00000000000E+00  0.00000000000E+00  0.99999998245E-14  0.12509000000E+03  0.12509000000E+03 0.  0.
        -11    1    3    3    0    0  0.32051568107E+02 -0.46536927550E+02  0.22531267484E+02  0.60832940572E+02  0.51100000000E-03 0.  1.
         23    2    1    0    0    0  0.13490434323E+02 -0.16002154866E+02  0.19141678524E+02  0.96726914214E+02  0.92475030674E+02 0.  0.
         11    1    3    3    0    0 -0.18561133785E+02  0.30534772684E+02 -0.33895889598E+01  0.35893973642E+02  0.51100000000E-03 0. -1.
         22    1    1    0    0    0 -0.13490434323E+02  0.16002154866E+02 -0.19141678524E+02  0.28363085786E+02  0.00000000000E+00 0.  1.
</event>
<event>
 5    1  0.1046082E-009  0.9118800E+02  0.7561462E-02  0.1125453E+00
         25   -1    0    0    0    0  0.00000000000E+00  0.00000000000E+00  0.99999998245E-14  0.12509000000E+03  0.12509000000E+03 0.  0.
        -11    1    3    3    0    0 -0.24173155199E+02 -0.11062228185E+02  0.56586965892E+02  0.62520388945E+02  0.51100000000E-03 0.  1.
         23    2    1    0    0    0 -0.11265191925E+02 -0.38170325634E+01  0.25682098619E+02  0.96787270870E+02  0.92556638478E+02 0.  0.
         11    1    3    3    0    0  0.12907963274E+02  0.72451956216E+01 -0.30904867273E+02  0.34266881926E+02  0.51100000000E-03 0. -1.
         22    1    1    0    0    0  0.11265191925E+02  0.38170325634E+01 -0.25682098619E+02  0.28302729130E+02  0.00000000000E+00 0.  1.
</event>
<event>
 5    1  0.1046082E-009  0.9118800E+02  0.7561462E-02  0.1125453E+00
         25   -1    0    0    0    0  0.00000000000E+00  0.00000000000E+00  0.99999998245E-14  0.12509000000E+03  0.12509000000E+03 0.  0.
        -11    1    3    3    0    0  0.30857539795E+02 -0.28222873302E+02 -0.45062088612E+02  0.61476094296E+02  0.51100000000E-03 0.  1.
         23    2    1    0    0    0  0.12119307083E+02 -0.20286473656E+02 -0.17752147769E+02  0.95533996076E+02  0.90847052997E+02 0.  0.
         11    1    3    3    0    0 -0.18738232712E+02  0.79363996460E+01  0.27309940843E+02  0.34057901779E+02  0.51100000000E-03 0. -1.
         22    1    1    0    0    0 -0.12119307083E+02  0.20286473656E+02  0.17752147769E+02  0.29556003924E+02  0.00000000000E+00 0.  1.
</event>
<event>
 5    1  0.1046082E-009  0.9118800E+02  0.7561462E-02  0.1125453E+00
         25   -1    0    0    0    0  0.00000000000E+00  0.00000000000E+00  0.99999998245E-14  0.12509000000E+03  0.12509000000E+03 0.  0.
        -11    1    3    3    0    0  0.21403876889E+02  0.14946495297E+02 -0.43220365136E+02  0.50492807709E+02  0.51100000000E-03 0.  1.
         23    2    1    0    0    0 -0.14464650417E+02  0.32800449590E+01 -0.31960349704E+02  0.89855801274E+02  0.82659641076E+02 0.  0.
         11    1    3    3    0    0 -0.35868527307E+02 -0.11666450338E+02  0.11260015432E+02  0.39362993565E+02  0.51100000000E-03 0. -1.
         22    1    1    0    0    0  0.14464650417E+02 -0.32800449590E+01  0.31960349704E+02  0.35234198726E+02  0.00000000000E+00 0.  1.
</event>
<event>
 5    1  0.1046082E-009  0.9118800E+02  0.7561462E-02  0.1125453E+00
         25   -1    0    0    0    0  0.00000000000E+00  0.00000000000E+00  0.99999998245E-14  0.12509000000E+03  0.12509000000E+03 0.  0.
        -11    1    3    3    0    0  0.53933547050E+02 -0.72321008775E+01  0.22076079572E+02  0.58723794751E+02  0.51100000000E-03 0.  1.
         23    2    1    0    0    0  0.15909370710E+02  0.27608299779E+01  0.21700729068E+02  0.98040935309E+02  0.94235731523E+02 0.  0.
         11    1    3    3    0    0 -0.38024176340E+02  0.99929308555E+01 -0.37535050443E+00  0.39317140558E+02  0.51100000000E-03 0. -1.
         22    1    1    0    0    0 -0.15909370710E+02 -0.27608299779E+01 -0.21700729068E+02  0.27049064691E+02  0.00000000000E+00 0.  1.
</event>
<event>
 5    1  0.1046082E-009  0.9118800E+02  0.7561462E-02  0.1125453E+00
         25   -1    0    0    0    0  0.00000000000E+00  0.00000000000E+00  0.99999998245E-14  0.12509000000E+03  0.12509000000E+03 0.  0.
        -11    1    3    3    0    0 -0.15343997595E+02 -0.10412880055E+02 -0.12217185833E+02  0.22206439679E+02  0.51100000000E-03 0.  1.
         23    2    1    0    0    0  0.31652447385E+02  0.23431208147E+02 -0.20470387736E+02  0.80706042146E+02  0.67405708395E+02 0.  0.
         11    1    3    3    0    0  0.46996444980E+02  0.33844088202E+02 -0.82532019025E+01  0.58499602468E+02  0.51100000000E-03 0. -1.
         22    1    1    0    0    0 -0.31652447385E+02 -0.23431208147E+02  0.20470387736E+02  0.44383957854E+02  0.00000000000E+00 0. -1.
</event>
<event>
 5    1  0.1046082E-009  0.9118800E+02  0.7561462E-02  0.1125453E+00
         25   -1    0    0    0    0  0.00000000000E+00  0.00000000000E+00  0.99999998245E-14  0.12509000000E+03  0.12509000000E+03 0.  0.
        -11    1    3    3    0    0 -0.21579278936E+02 -0.86227818505E+01 -0.34039726163E+02  0.41215538378E+02  0.51100000000E-03 0. -1.
         23    2    1    0    0    0  0.21046287396E+02 -0.17536313095E+02  0.18305740728E+01  0.97634226626E+02  0.93694304615E+02 0.  0.
         11    1    3    3    0    0  0.42625566332E+02 -0.89135312443E+01  0.35870300236E+02  0.56418688248E+02  0.51100000000E-03 0.  1.
         22    1    1    0    0    0 -0.21046287396E+02  0.17536313095E+02 -0.18305740728E+01  0.27455773374E+02  0.00000000000E+00 0. -1.
</event>
<event>
 5    1  0.1046082E-009  0.9118800E+02  0.7561462E-02  0.1125453E+00
         25   -1    0    0    0    0  0.00000000000E+00  0.00000000000E+00  0.99999998245E-14  0.12509000000E+03  0.12509000000E+03 0.  0.
        -11    1    3    3    0    0 -0.49790500839E+02  0.14137725639E+02 -0.19763458111E+02  0.55403641909E+02  0.51100000000E-03 0.  1.
         23    2    1    0    0    0 -0.17545095407E+01 -0.94125098007E+01 -0.12426453458E+02  0.10940273159E+03  0.10827219075E+03 0.  0.
         11    1    3    3    0    0  0.48035991298E+02 -0.23550235440E+02  0.73370046529E+01  0.53999089685E+02  0.51100000000E-03 0. -1.
         22    1    1    0    0    0  0.17545095407E+01  0.94125098007E+01  0.12426453458E+02  0.15687268406E+02  0.00000000000E+00 0. -1.
</event>
<event>
 5    1  0.1046082E-009  0.9118800E+02  0.7561462E-02  0.1125453E+00
         25   -1    0    0    0    0  0.00000000000E+00  0.00000000000E+00  0.99999998245E-14  0.12509000000E+03  0.12509000000E+03 0.  0.
        -11    1    3    3    0    0 -0.33191254196E+02  0.70505242929E+01 -0.13587614106E+02  0.36551231241E+02  0.51100000000E-03 0.  1.
         23    2    1    0    0    0  0.18736031765E+01 -0.21314388452E+02  0.22297720678E+02  0.94186895117E+02  0.88972857212E+02 0.  0.
         11    1    3    3    0    0  0.35064857373E+02 -0.28364912745E+02  0.35885334784E+02  0.57635663876E+02  0.51100000000E-03 0. -1.
         22    1    1    0    0    0 -0.18736031765E+01  0.21314388452E+02 -0.22297720678E+02  0.30903104883E+02  0.00000000000E+00 0. -1.
</event>
<event>
 5    1  0.1046082E-009  0.9118800E+02  0.7561462E-02  0.1125453E+00
         25   -1    0    0    0    0  0.00000000000E+00  0.00000000000E+00  0.99999998245E-14  0.12509000000E+03  0.12509000000E+03 0.  0.
        -11    1    3    3    0    0  0.13553798739E+02 -0.49237134032E+02  0.22897129443E+02  0.55966770184E+02  0.51100000000E-03 0.  1.
         23    2    1    0    0    0 -0.86570834894E+01 -0.15585888116E+02  0.22620497797E+02  0.96288056949E+02  0.91879475333E+02 0.  0.
         11    1    3    3    0    0 -0.22210882228E+02  0.33651245915E+02 -0.27663164555E+00  0.40321286764E+02  0.51100000000E-03 0. -1.
         22    1    1    0    0    0  0.86570834894E+01  0.15585888116E+02 -0.22620497797E+02  0.28801943051E+02  0.00000000000E+00 0.  1.
</event>
<event>
 5    1  0.1046082E-009  0.9118800E+02  0.7561462E-02  0.1125453E+00
         25   -1    0    0    0    0  0.00000000000E+00  0.00000000000E+00  0.99999998245E-14  0.12509000000E+03  0.12509000000E+03 0.  0.
        -11    1    3    3    0    0 -0.23889017939E+02 -0.48039151425E+01  0.49798778810E+02  0.55440789587E+02  0.51100000000E-03 0.  1.
         23    2    1    0    0    0 -0.25989659965E+02  0.52304208725E+01  0.96503804625E+01  0.96877421765E+02  0.92678397036E+02 0.  0.
         11    1    3    3    0    0 -0.21006420257E+01  0.10034336015E+02 -0.40148398347E+02  0.41436632179E+02  0.51100000000E-03 0. -1.
         22    1    1    0    0    0  0.25989659965E+02 -0.52304208725E+01 -0.96503804625E+01  0.28212578235E+02  0.00000000000E+00 0.  1.
</event>
<event>
 5    1  0.1046082E-009  0.9118800E+02  0.7561462E-02  0.1125453E+00
         25   -1    0    0    0    0  0.00000000000E+00  0.00000000000E+00  0.99999998245E-14  0.12509000000E+03  0.12509000000E+03 0.  0.
        -11    1    3    3    0    0 -0.21059663732E+02  0.53239661857E+02  0.22487434454E+02  0.61511427717E+02  0.51100000000E-03 0.  1.
         23    2    1    0    0    0 -0.27217520065E+01  0.28474157257E+02  0.95335830151E+01  0.94939133170E+02  0.90024242493E+02 0.  0.
         11    1    3    3    0    0  0.18337911725E+02 -0.24765504600E+02 -0.12953851438E+02  0.33427705453E+02  0.51100000000E-03 0. -1.
         22    1    1    0    0    0  0.27217520065E+01 -0.28474157257E+02 -0.95335830151E+01  0.30150866830E+02  0.00000000000E+00 0.  1.
</event>
<event>
 5    1  0.1046082E-009  0.9118800E+02  0.7561462E-02  0.1125453E+00
         25   -1    0    0    0    0  0.00000000000E+00  0.00000000000E+00  0.99999998245E-14  0.12509000000E+03  0.12509000000E+03 0.  0.
        -11    1    3    3    0    0 -0.33802791679E+00  0.22269272605E+02  0.42549374303E+02  0.48025868228E+02  0.51100000000E-03 0. -1.
         23    2    1    0    0    0  0.18073602249E+02 -0.14216280904E+02  0.11319656563E+02  0.99460088457E+02  0.96101076114E+02 0.  0.
         11    1    3    3    0    0  0.18411630165E+02 -0.36485553509E+02 -0.31229717740E+02  0.51434220229E+02  0.51100000000E-03 0.  1.
         22    1    1    0    0    0 -0.18073602249E+02  0.14216280904E+02 -0.11319656563E+02  0.25629911543E+02  0.00000000000E+00 0. -1.
</event>
<event>
 5    1  0.1046082E-009  0.9118800E+02  0.7561462E-02  0.1125453E+00
         25   -1    0    0    0    0  0.00000000000E+00  0.00000000000E+00  0.99999998245E-14  0.12509000000E+03  0.12509000000E+03 0.  0.
        -11    1    3    3    0    0 -0.40684597694E+01 -0.45606411472E+02  0.46326950303E+01  0.46021288506E+02  0.51100000000E-03 0. -1.
         23    2    1    0    0    0 -0.86774263511E+01  0.19544755007E+00  0.26659627926E+02  0.97053029961E+02  0.92915116830E+02 0.  0.
         11    1    3    3    0    0 -0.46089665817E+01  0.45801859022E+02  0.22026932896E+02  0.51031741455E+02  0.51100000000E-03 0.  1.
         22    1    1    0    0    0  0.86774263511E+01 -0.19544755007E+00 -0.26659627926E+02  0.28036970039E+02  0.00000000000E+00 0.  1.
</event>
<event>
 5    1  0.1046082E-009  0.9118800E+02  0.7561462E-02  0.1125453E+00
         25   -1    0    0    0    0  0.00000000000E+00  0.00000000000E+00  0.99999998245E-14  0.12509000000E+03  0.12509000000E+03 0.  0.
        -11    1    3    3    0    0 -0.31501500282E+02 -0.47436627665E+01 -0.37645937933E+02  0.49315955831E+02  0.51100000000E-03 0.  1.
         23    2    1    0    0    0  0.60645837350E+01  0.15752480704E+02 -0.26724215078E+02  0.93481401554E+02  0.87975388267E+02 0.  0.
         11    1    3    3    0    0  0.37566084017E+02  0.20496143470E+02  0.10921722855E+02  0.44165445723E+02  0.51100000000E-03 0. -1.
         22    1    1    0    0    0 -0.60645837350E+01 -0.15752480704E+02  0.26724215078E+02  0.31608598446E+02  0.00000000000E+00 0.  1.
</event>
<event>
 5    1  0.1046082E-009  0.9118800E+02  0.7561462E-02  0.1125453E+00
         25   -1    0    0    0    0  0.00000000000E+00  0.00000000000E+00  0.99999998245E-14  0.12509000000E+03  0.12509000000E+03 0.  0.
        -11    1    3    3    0    0  0.17069610950E+02 -0.31616853729E+02 -0.70241981043E+01  0.36610605253E+02  0.51100000000E-03 0.  1.
         23    2    1    0    0    0  0.10311059520E+02  0.26786858981E+02 -0.75665116015E+01  0.95406572632E+02  0.90671430126E+02 0.  0.
         11    1    3    3    0    0 -0.67585514293E+01  0.58403712711E+02 -0.54231349724E+00  0.58795967379E+02  0.51100000000E-03 0. -1.
         22    1    1    0    0    0 -0.10311059520E+02 -0.26786858981E+02  0.75665116015E+01  0.29683427368E+02  0.00000000000E+00 0. -1.
</event>
<event>
 5    1  0.1046082E-009  0.9118800E+02  0.7561462E-02  0.1125453E+00
         25   -1    0    0    0    0  0.00000000000E+00  0.00000000000E+00  0.99999998245E-14  0.12509000000E+03  0.12509000000E+03 0.  0.
        -11    1    3    3    0    0  0.30212396500E+02 -0.24658329548E+02  0.39327859024E+02  0.55385039623E+02  0.51100000000E-03 0.  1.
         23    2    1    0    0    0 -0.38547848556E+01 -0.14565709420E+02  0.29037883502E+02  0.92375814461E+02  0.86389080108E+02 0.  0.
         11    1    3    3    0    0 -0.34067181356E+02  0.10092620128E+02 -0.10289975522E+02  0.36990774838E+02  0.51100000000E-03 0. -1.
         22    1    1    0    0    0  0.38547848556E+01  0.14565709420E+02 -0.29037883502E+02  0.32714185539E+02  0.00000000000E+00 0.  1.
</event>
<event>
 5    1  0.1046082E-009  0.9118800E+02  0.7561462E-02  0.1125453E+00
         25   -1    0    0    0    0  0.00000000000E+00  0.00000000000E+00  0.99999998245E-14  0.12509000000E+03  0.12509000000E+03 0.  0.
        -11    1    3    3    0    0 -0.27249898017E+02  0.40931260675E+01 -0.20768835315E+02  0.34505871146E+02  0.51100000000E-03 0.  1.
         23    2    1    0    0    0  0.78570811876E+01 -0.57268170147E+01  0.28032230246E+02  0.95419541789E+02  0.90689320566E+02 0.  0.
         11    1    3    3    0    0  0.35106979205E+02 -0.98199430822E+01  0.48801065561E+02  0.60913670643E+02  0.51100000000E-03 0. -1.
         22    1    1    0    0    0 -0.78570811876E+01  0.57268170147E+01 -0.28032230246E+02  0.29670458211E+02  0.00000000000E+00 0. -1.
</event>
<event>
 5    1  0.1046082E-009  0.9118800E+02  0.7561462E-02  0.1125453E+00
         25   -1    0    0    0    0  0.00000000000E+00  0.00000000000E+00  0.99999998245E-14  0.12509000000E+03  0.12509000000E+03 0.  0.
        -11    1    3    3    0    0  0.20657530685E+02 -0.52826846141E+02 -0.18460505121E+02  0.59650645401E+02  0.51100000000E-03 0.  1.
         23    2    1    0    0    0 -0.28838624968E+01 -0.28330026920E+02 -0.11764743151E+02  0.94279023554E+02  0.89102289604E+02 0.  0.
         11    1    3    3    0    0 -0.23541393181E+02  0.24496819221E+02  0.66957619709E+01  0.34628378153E+02  0.51100000000E-03 0. -1.
         22    1    1    0    0    0  0.28838624968E+01  0.28330026920E+02  0.11764743151E+02  0.30810976446E+02  0.00000000000E+00 0.  1.
</event>
<event>
 5    1  0.1046082E-009  0.9118800E+02  0.7561462E-02  0.1125453E+00
         25   -1    0    0    0    0  0.00000000000E+00  0.00000000000E+00  0.99999998245E-14  0.12509000000E+03  0.12509000000E+03 0.  0.
        -11    1    3    3    0    0  0.37574579550E+02  0.39094001788E+02 -0.55084186988E+01  0.54502593342E+02  0.51100000000E-03 0. -1.
         23    2    1    0    0    0  0.23286867629E+02  0.10901598289E+01  0.12177986797E+02  0.98788478849E+02  0.95222862478E+02 0.  0.
         11    1    3    3    0    0 -0.14287711921E+02 -0.38003841959E+02  0.17686405495E+02  0.44285885507E+02  0.51100000000E-03 0.  1.
         22    1    1    0    0    0 -0.23286867629E+02 -0.10901598289E+01 -0.12177986797E+02  0.26301521151E+02  0.00000000000E+00 0. -1.
</event>
<event>
 5    1  0.1046082E-009  0.9118800E+02  0.7561462E-02  0.1125453E+00
         25   -1    0    0    0    0  0.00000000000E+00  0.00000000000E+00  0.99999998245E-14  0.12509000000E+03  0.12509000000E+03 0.  0.
        -11    1    3    3    0    0  0.60623077353E+02  0.13000893190E-01 -0.13645436322E+02  0.62139806963E+02  0.51100000000E-03 0. -1.
         23    2    1    0    0    0  0.26257201724E+02 -0.48562130696E+01 -0.70859862001E+01  0.97463298276E+02  0.93465821895E+02 0.  0.
         11    1    3    3    0    0 -0.34365875629E+02 -0.48692139628E+01  0.65594501216E+01  0.35323491313E+02  0.51100000000E-03 0.  1.
         22    1    1    0    0    0 -0.26257201724E+02  0.48562130696E+01  0.70859862001E+01  0.27626701724E+02  0.00000000000E+00 0. -1.
</event>
<event>
 5    1  0.1046082E-009  0.9118800E+02  0.7561462E-02  0.1125453E+00
         25   -1    0    0    0    0  0.00000000000E+00  0.00000000000E+00  0.99999998245E-14  0.12509000000E+03  0.12509000000E+03 0.  0.
        -11    1    3    3    0    0 -0.17527488214E+02  0.11866450365E+02  0.58349667167E+02  0.62070195313E+02  0.51100000000E-03 0.  1.
         23    2    1    0    0    0 -0.14390411407E+02  0.49383832818E+01  0.29598289158E+02  0.91810422313E+02  0.85566484995E+02 0.  0.
         11    1    3    3    0    0  0.31370768073E+01 -0.69280670836E+01 -0.28751378009E+02  0.29740227001E+02  0.51100000000E-03 0. -1.
         22    1    1    0    0    0  0.14390411407E+02 -0.49383832818E+01 -0.29598289158E+02  0.33279577687E+02  0.00000000000E+00 0.  1.
</event>
<event>
 5    1  0.1046082E-009  0.9118800E+02  0.7561462E-02  0.1125453E+00
         25   -1    0    0    0    0  0.00000000000E+00  0.00000000000E+00  0.99999998245E-14  0.12509000000E+03  0.12509000000E+03 0.  0.
        -11    1    3    3    0    0  0.22417535816E+02 -0.24706488023E+02 -0.12161438548E+02  0.35508548976E+02  0.51100000000E-03 0.  1.
         23    2    1    0    0    0  0.43214608652E+01  0.30422890432E+02 -0.43401565876E+01  0.94056723578E+02  0.88789655956E+02 0.  0.
         11    1    3    3    0    0 -0.18096074951E+02  0.55129378456E+02  0.78212819604E+01  0.58548174603E+02  0.51100000000E-03 0. -1.
         22    1    1    0    0    0 -0.43214608652E+01 -0.30422890432E+02  0.43401565876E+01  0.31033276422E+02  0.00000000000E+00 0. -1.
</event>
<event>
 5    1  0.1046082E-009  0.9118800E+02  0.7561462E-02  0.1125453E+00
         25   -1    0    0    0    0  0.00000000000E+00  0.00000000000E+00  0.99999998245E-14  0.12509000000E+03  0.12509000000E+03 0.  0.
        -11    1    3    3    0    0 -0.18974508658E+02  0.19558223462E+02  0.56197631939E+02  0.62455823744E+02  0.51100000000E-03 0. -1.
         23    2    1    0    0    0 -0.10067400270E+02  0.11588519133E+02  0.26555569855E+02  0.94416809520E+02  0.89295516717E+02 0.  0.
         11    1    3    3    0    0  0.89071083877E+01 -0.79697043290E+01 -0.29642062084E+02  0.31960985776E+02  0.51100000000E-03 0.  1.
         22    1    1    0    0    0  0.10067400270E+02 -0.11588519133E+02 -0.26555569855E+02  0.30673190480E+02  0.00000000000E+00 0. -1.
</event>
<event>
 5    1  0.1046082E-009  0.9118800E+02  0.7561462E-02  0.1125453E+00
         25   -1    0    0    0    0  0.00000000000E+00  0.00000000000E+00  0.99999998245E-14  0.12509000000E+03  0.12509000000E+03 0.  0.
        -11    1    3    3    0    0  0.41810806620E+02  0.17392758249E+02  0.13601645012E+02  0.47282727682E+02  0.51100000000E-03 0.  1.
         23    2    1    0    0    0  0.10168304289E+02  0.30072646535E+02 -0.13263791104E+02  0.90685252708E+02  0.83905473138E+02 0.  0.
         11    1    3    3    0    0 -0.31642502331E+02  0.12679888286E+02 -0.26865436116E+02  0.43402525026E+02  0.51100000000E-03 0. -1.
         22    1    1    0    0    0 -0.10168304289E+02 -0.30072646535E+02  0.13263791104E+02  0.34404747292E+02  0.00000000000E+00 0.  1.
</event>
<event>
 5    1  0.1046082E-009  0.9118800E+02  0.7561462E-02  0.1125453E+00
         25   -1    0    0    0    0  0.00000000000E+00  0.00000000000E+00  0.99999998245E-14  0.12509000000E+03  0.12509000000E+03 0.  0.
        -11    1    3    3    0    0 -0.21442669976E+02  0.13999056946E+02  0.47884612982E+02  0.54301913887E+02  0.51100000000E-03 0.  1.
         23    2    1    0    0    0 -0.11360491617E+02 -0.16182006028E+02  0.13512090301E+02  0.10114225119E+03  0.98266272455E+02 0.  0.
         11    1    3    3    0    0  0.10082178359E+02 -0.30181062974E+02 -0.34372522681E+02  0.46840337301E+02  0.51100000000E-03 0. -1.
         22    1    1    0    0    0  0.11360491617E+02  0.16182006028E+02 -0.13512090301E+02  0.23947748812E+02  0.00000000000E+00 0.  1.
</event>
<event>
 5    1  0.1046082E-009  0.9118800E+02  0.7561462E-02  0.1125453E+00
         25   -1    0    0    0    0  0.00000000000E+00  0.00000000000E+00  0.99999998245E-14  0.12509000000E+03  0.12509000000E+03 0.  0.
        -11    1    3    3    0    0  0.12592318003E+02  0.34890634818E+02  0.25172406814E+02  0.44828260459E+02  0.51100000000E-03 0.  1.
         23    2    1    0    0    0  0.29165123225E+02 -0.22669921188E+01 -0.49100707123E+01  0.95427692935E+02  0.90700562945E+02 0.  0.
         11    1    3    3    0    0  0.16572805222E+02 -0.37157626937E+02 -0.30082477527E+02  0.50599432476E+02  0.51100000000E-03 0. -1.
         22    1    1    0    0    0 -0.29165123225E+02  0.22669921188E+01  0.49100707123E+01  0.29662307065E+02  0.00000000000E+00 0. -1.
</event>
<event>
 5    1  0.1046082E-009  0.9118800E+02  0.7561462E-02  0.1125453E+00
         25   -1    0    0    0    0  0.00000000000E+00  0.00000000000E+00  0.99999998245E-14  0.12509000000E+03  0.12509000000E+03 0.  0.
        -11    1    3    3    0    0 -0.43315612779E+02  0.17901525841E+02 -0.21072207278E+00  0.46869513993E+02  0.51100000000E-03 0.  1.
         23    2    1    0    0    0 -0.14752665012E+02 -0.19101224153E+02  0.15757828804E+02  0.96266276130E+02  0.91849816888E+02 0.  0.
         11    1    3    3    0    0  0.28562947768E+02 -0.37002749994E+02  0.15968550877E+02  0.49396762137E+02  0.51100000000E-03 0. -1.
         22    1    1    0    0    0  0.14752665012E+02  0.19101224153E+02 -0.15757828804E+02  0.28823723870E+02  0.00000000000E+00 0. -1.
</event>
<event>
 5    1  0.1046082E-009  0.9118800E+02  0.7561462E-02  0.1125453E+00
         25   -1    0    0    0    0  0.00000000000E+00  0.00000000000E+00  0.99999998245E-14  0.12509000000E+03  0.12509000000E+03 0.  0.
        -11    1    3    3    0    0  0.26997531506E+02 -0.11685755381E+02  0.19655164115E+01  0.29483670756E+02  0.51100000000E-03 0.  1.
         23    2    1    0    0    0 -0.22487587016E+02  0.12544738194E+02  0.24996973613E+02  0.89202527033E+02  0.81665048296E+02 0.  0.
         11    1    3    3    0    0 -0.49485118522E+02  0.24230493575E+02  0.23031457201E+02  0.59718856277E+02  0.51100000000E-03 0. -1.
         22    1    1    0    0    0  0.22487587016E+02 -0.12544738194E+02 -0.24996973613E+02  0.35887472967E+02  0.00000000000E+00 0. -1.
</event>
<event>
 5    1  0.1046082E-009  0.9118800E+02  0.7561462E-02  0.1125453E+00
         25   -1    0    0    0    0  0.00000000000E+00  0.00000000000E+00  0.99999998245E-14  0.12509000000E+03  0.12509000000E+03 0.  0.
        -11    1    3    3    0    0  0.26082713240E+02  0.48380116826E+01 -0.31168273657E+02  0.40928908732E+02  0.51100000000E-03 0.  1.
         23    2    1    0    0    0  0.11180773288E+02  0.69527861227E+01  0.23783862990E+02  0.97905021337E+02  0.94055144134E+02 0.  0.
         11    1    3    3    0    0 -0.14901939952E+02  0.21147744400E+01  0.54952136647E+02  0.56976112605E+02  0.51100000000E-03 0. -1.
         22    1    1    0    0    0 -0.11180773288E+02 -0.69527861227E+01 -0.23783862990E+02  0.27184978663E+02  0.00000000000E+00 0.  1.
</event>
<event>
 5    1  0.1046082E-009  0.9118800E+02  0.7561462E-02  0.1125453E+00
         25   -1    0    0    0    0  0.00000000000E+00  0.00000000000E+00  0.99999998245E-14  0.12509000000E+03  0.12509000000E+03 0.  0.
        -11    1    3    3    0    0 -0.26909272595E+02 -0.25924572008E+02 -0.11430862678E+02  0.39075017687E+02  0.51100000000E-03 0.  1.
         23    2    1    0    0    0 -0.95412894969E+00  0.22337343776E+02 -0.20663409793E+02  0.94645890663E+02  0.89615851422E+02 0.  0.
         11    1    3    3    0    0  0.25955143645E+02  0.48261915785E+02 -0.92325471155E+01  0.55570872976E+02  0.51100000000E-03 0. -1.
         22    1    1    0    0    0  0.95412894969E+00 -0.22337343776E+02  0.20663409793E+02  0.30444109337E+02  0.00000000000E+00 0. -1.
</event>
<event>
 5    1  0.1046082E-009  0.9118800E+02  0.7561462E-02  0.1125453E+00
         25   -1    0    0    0    0  0.00000000000E+00  0.00000000000E+00  0.99999998245E-14  0.12509000000E+03  0.12509000000E+03 0.  0.
        -11    1    3    3    0    0  0.30411937466E+02  0.44296974142E+02  0.56133807950E+01  0.54024234402E+02  0.51100000000E-03 0. -1.
         23    2    1    0    0    0  0.33332704490E+02  0.92543371395E+01  0.89821892318E+01  0.89349383498E+02  0.81889685942E+02 0.  0.
         11    1    3    3    0    0  0.29207670244E+01 -0.35042637003E+02  0.33688084368E+01  0.35325149096E+02  0.51100000000E-03 0.  1.
         22    1    1    0    0    0 -0.33332704490E+02 -0.92543371395E+01 -0.89821892318E+01  0.35740616502E+02  0.00000000000E+00 0.  1.
</event>
<event>
 5    1  0.1046082E-009  0.9118800E+02  0.7561462E-02  0.1125453E+00
         25   -1    0    0    0    0  0.00000000000E+00  0.00000000000E+00  0.99999998245E-14  0.12509000000E+03  0.12509000000E+03 0.  0.
        -11    1    3    3    0    0  0.46690876894E+01 -0.20130067826E+02 -0.47356700343E+02  0.51668917911E+02  0.51100000000E-03 0. -1.
         23    2    1    0    0    0 -0.23149018481E+02 -0.35333569207E+01 -0.23634326378E+02  0.91819246310E+02  0.85579383860E+02 0.  0.
         11    1    3    3    0    0 -0.27818106170E+02  0.16596710905E+02  0.23722373965E+02  0.40150328399E+02  0.51100000000E-03 0.  1.
         22    1    1    0    0    0  0.23149018481E+02  0.35333569207E+01  0.23634326378E+02  0.33270753690E+02  0.00000000000E+00 0. -1.
</event>
<event>
 5    1  0.1046082E-009  0.9118800E+02  0.7561462E-02  0.1125453E+00
         25   -1    0    0    0    0  0.00000000000E+00  0.00000000000E+00  0.99999998245E-14  0.12509000000E+03  0.12509000000E+03 0.  0.
        -11    1    3    3    0    0 -0.68584039164E+01 -0.20507197910E+02 -0.26828306920E+02  0.34457813669E+02  0.51100000000E-03 0. -1.
         23    2    1    0    0    0  0.19755365679E+02  0.11882940112E+02  0.18005796533E+02  0.95837864222E+02  0.91264498963E+02 0.  0.
         11    1    3    3    0    0  0.26613769595E+02  0.32390138022E+02  0.44834103453E+02  0.61380050553E+02  0.51100000000E-03 0.  1.
         22    1    1    0    0    0 -0.19755365679E+02 -0.11882940112E+02 -0.18005796533E+02  0.29252135778E+02  0.00000000000E+00 0.  1.
</event>
<event>
 5    1  0.1046082E-009  0.9118800E+02  0.7561462E-02  0.1125453E+00
         25   -1    0    0    0    0  0.00000000000E+00  0.00000000000E+00  0.99999998245E-14  0.12509000000E+03  0.12509000000E+03 0.  0.
        -11    1    3    3    0    0  0.28979159622E+02 -0.68306638588E+01 -0.17853702244E+02  0.34716053134E+02  0.51100000000E-03 0.  1.
         23    2    1    0    0    0 -0.26206569995E+02  0.10867217819E+02  0.35543373354E+01  0.96497797428E+02  0.92164585718E+02 0.  0.
         11    1    3    3    0    0 -0.55185729616E+02  0.17697881678E+02  0.21408039579E+02  0.61781744294E+02  0.51100000000E-03 0. -1.
         22    1    1    0    0    0  0.26206569995E+02 -0.10867217819E+02 -0.35543373354E+01  0.28592202572E+02  0.00000000000E+00 0. -1.
</event>
<event>
 5    1  0.1046082E-009  0.9118800E+02  0.7561462E-02  0.1125453E+00
         25   -1    0    0    0    0  0.00000000000E+00  0.00000000000E+00  0.99999998245E-14  0.12509000000E+03  0.12509000000E+03 0.  0.
        -11    1    3    3    0    0 -0.27653731956E+02  0.38988953277E+02  0.77407176525E+01  0.48422991220E+02  0.51100000000E-03 0. -1.
         23    2    1    0    0    0 -0.13104052266E+02 -0.25249052505E+01  0.25853244347E+02  0.95995643579E+02  0.91480500712E+02 0.  0.
         11    1    3    3    0    0  0.14549679690E+02 -0.41513858527E+02  0.18112526694E+02  0.47572652358E+02  0.51100000000E-03 0.  1.
         22    1    1    0    0    0  0.13104052266E+02  0.25249052505E+01 -0.25853244347E+02  0.29094356421E+02  0.00000000000E+00 0.  1.
</event>
<event>
 5    1  0.1046082E-009  0.9118800E+02  0.7561462E-02  0.1125453E+00
         25   -1    0    0    0    0  0.00000000000E+00  0.00000000000E+00  0.99999998245E-14  0.12509000000E+03  0.12509000000E+03 0.  0.
        -11    1    3    3    0    0 -0.15503229021E+01 -0.28149080944E+02  0.40049812621E+02  0.48977155392E+02  0.51100000000E-03 0. -1.
         23    2    1    0    0    0 -0.24701974297E+02 -0.17621815239E+02  0.20827410381E+01  0.94675304265E+02  0.89656898903E+02 0.  0.
         11    1    3    3    0    0 -0.23151651394E+02  0.10527265705E+02 -0.37967071583E+02  0.45698148872E+02  0.51100000000E-03 0.  1.
         22    1    1    0    0    0  0.24701974297E+02  0.17621815239E+02 -0.20827410381E+01  0.30414695735E+02  0.00000000000E+00 0. -1.
</event>
<event>
 5    1  0.1046082E-009  0.9118800E+02  0.7561462E-02  0.1125453E+00
         25   -1    0    0    0    0  0.00000000000E+00  0.00000000000E+00  0.99999998245E-14  0.12509000000E+03  0.12509000000E+03 0.  0.
        -11    1    3    3    0    0  0.34524167994E+02 -0.42003022746E+02 -0.11581721224E+02  0.55590542022E+02  0.51100000000E-03 0.  1.
         23    2    1    0    0    0  0.22048040036E+02 -0.12576693550E+02  0.13611636792E+02  0.96287813517E+02  0.91879143910E+02 0.  0.
         11    1    3    3    0    0 -0.12476127958E+02  0.29426329196E+02  0.25193358016E+02  0.40697271495E+02  0.51100000000E-03 0. -1.
         22    1    1    0    0    0 -0.22048040036E+02  0.12576693550E+02 -0.13611636792E+02  0.28802186483E+02  0.00000000000E+00 0.  1.
</event>
<event>
 5    1  0.1046082E-009  0.9118800E+02  0.7561462E-02  0.1125453E+00
         25   -1    0    0    0    0  0.00000000000E+00  0.00000000000E+00  0.99999998245E-14  0.12509000000E+03  0.12509000000E+03 0.  0.
        -11    1    3    3    0    0 -0.44262565562E+02 -0.51545619861E+00 -0.29749402690E+02  0.53333548222E+02  0.51100000000E-03 0.  1.
         23    2    1    0    0    0 -0.28404493708E+01  0.10732199995E+02 -0.26476497248E+02  0.96380190250E+02  0.92004825399E+02 0.  0.
         11    1    3    3    0    0  0.41422116191E+02  0.11247656194E+02  0.32729054422E+01  0.43046642028E+02  0.51100000000E-03 0. -1.
         22    1    1    0    0    0  0.28404493708E+01 -0.10732199995E+02  0.26476497248E+02  0.28709809750E+02  0.00000000000E+00 0.  1.
</event>
<event>
 5    1  0.1046082E-009  0.9118800E+02  0.7561462E-02  0.1125453E+00
         25   -1    0    0    0    0  0.00000000000E+00  0.00000000000E+00  0.99999998245E-14  0.12509000000E+03  0.12509000000E+03 0.  0.
        -11    1    3    3    0    0  0.65428544035E+00 -0.43789624818E+02  0.32407689332E+02  0.54481351481E+02  0.51100000000E-03 0. -1.
         23    2    1    0    0    0 -0.21520986221E+02 -0.18258785874E+02  0.95644350352E+01  0.95290427402E+02  0.90511054725E+02 0.  0.
         11    1    3    3    0    0 -0.22175271661E+02  0.25530838944E+02 -0.22843254296E+02  0.40809075921E+02  0.51100000000E-03 0.  1.
         22    1    1    0    0    0  0.21520986221E+02  0.18258785874E+02 -0.95644350352E+01  0.29799572598E+02  0.00000000000E+00 0. -1.
</event>
<event>
 5    1  0.1046082E-009  0.9118800E+02  0.7561462E-02  0.1125453E+00
         25   -1    0    0    0    0  0.00000000000E+00  0.00000000000E+00  0.99999998245E-14  0.12509000000E+03  0.12509000000E+03 0.  0.
        -11    1    3    3    0    0  0.51397303415E+02  0.24936783852E+01  0.17837776154E+02  0.54461798434E+02  0.51100000000E-03 0. -1.
         23    2    1    0    0    0  0.16893142708E+02 -0.18186359171E+02  0.17551556284E+02  0.94689686540E+02  0.89676962921E+02 0.  0.
         11    1    3    3    0    0 -0.34504160707E+02 -0.20680037556E+02 -0.28621986981E+00  0.40227888107E+02  0.51100000000E-03 0.  1.
         22    1    1    0    0    0 -0.16893142708E+02  0.18186359171E+02 -0.17551556284E+02  0.30400313460E+02  0.00000000000E+00 0. -1.
</event>
<event>
 5    1  0.1046082E-009  0.9118800E+02  0.7561462E-02  0.1125453E+00
         25   -1    0    0    0    0  0.00000000000E+00  0.00000000000E+00  0.99999998245E-14  0.12509000000E+03  0.12509000000E+03 0.  0.
        -11    1    3    3    0    0  0.19286167383E+02  0.16602879929E+02  0.50850107018E+02  0.56862511888E+02  0.51100000000E-03 0.  1.
         23    2    1    0    0    0  0.20627910548E+02  0.20353995985E+02  0.15906887031E+02  0.92032097750E+02  0.85889941875E+02 0.  0.
         11    1    3    3    0    0  0.13417431643E+01  0.37511160562E+01 -0.34943219987E+02  0.35169585862E+02  0.51100000000E-03 0. -1.
         22    1    1    0    0    0 -0.20627910548E+02 -0.20353995985E+02 -0.15906887031E+02  0.33057902250E+02  0.00000000000E+00 0.  1.
</event>
<event>
 5    1  0.1046082E-009  0.9118800E+02  0.7561462E-02  0.1125453E+00
         25   -1    0    0    0    0  0.00000000000E+00  0.00000000000E+00  0.99999998245E-14  0.12509000000E+03  0.12509000000E+03 0.  0.
        -11    1    3    3    0    0 -0.59359361613E+01 -0.35110331315E+02 -0.10167979854E+02  0.37031858146E+02  0.51100000000E-03 0.  1.
         23    2    1    0    0    0  0.28152439314E+02  0.10840501716E+02 -0.53824806684E+01  0.94446119454E+02  0.89336566225E+02 0.  0.
         11    1    3    3    0    0  0.34088375475E+02  0.45950833031E+02  0.47854991859E+01  0.57414261308E+02  0.51100000000E-03 0. -1.
         22    1    1    0    0    0 -0.28152439314E+02 -0.10840501716E+02  0.53824806684E+01  0.30643880546E+02  0.00000000000E+00 0. -1.
</event>
<event>
 5    1  0.1046082E-009  0.9118800E+02  0.7561462E-02  0.1125453E+00
         25   -1    0    0    0    0  0.00000000000E+00  0.00000000000E+00  0.99999998245E-14  0.12509000000E+03  0.12509000000E+03 0.  0.
        -11    1    3    3    0    0 -0.38014099487E+02  0.16671851544E+02  0.44528666169E+02  0.60875483610E+02  0.51100000000E-03 0. -1.
         23    2    1    0    0    0 -0.12349654646E+02  0.16488294028E+02  0.20137626972E+02  0.96281983236E+02  0.91871205859E+02 0.  0.
         11    1    3    3    0    0  0.25664444841E+02 -0.18355751657E+00 -0.24391039197E+02  0.35406499626E+02  0.51100000000E-03 0.  1.
         22    1    1    0    0    0  0.12349654646E+02 -0.16488294028E+02 -0.20137626972E+02  0.28808016764E+02  0.00000000000E+00 0. -1.
</event>
<event>
 5    1  0.1046082E-009  0.9118800E+02  0.7561462E-02  0.1125453E+00
         25   -1    0    0    0    0  0.00000000000E+00  0.00000000000E+00  0.99999998245E-14  0.12509000000E+03  0.12509000000E+03 0.  0.
        -11    1    3    3    0    0  0.47866978676E+02  0.14527645897E+02  0.14375604725E+01  0.50043648181E+02  0.51100000000E-03 0.  1.
         23    2    1    0    0    0  0.19286096519E+02 -0.17233658178E+02 -0.14250007599E+02  0.95560096347E+02  0.90882984129E+02 0.  0.
         11    1    3    3    0    0 -0.28580882157E+02 -0.31761304076E+02 -0.15687568072E+02  0.45516448167E+02  0.51100000000E-03 0. -1.
         22    1    1    0    0    0 -0.19286096519E+02  0.17233658178E+02  0.14250007599E+02  0.29529903653E+02  0.00000000000E+00 0.  1.
</event>
<event>
 5    1  0.1046082E-009  0.9118800E+02  0.7561462E-02  0.1125453E+00
         25   -1    0    0    0    0  0.00000000000E+00  0.00000000000E+00  0.99999998245E-14  0.12509000000E+03  0.12509000000E+03 0.  0.
        -11    1    3    3    0    0  0.19229230746E+02  0.30447953706E+02  0.53657797308E+01  0.36409240480E+02  0.51100000000E-03 0. -1.
         23    2    1    0    0    0  0.12647924135E+02 -0.27295743518E+02  0.53928244816E+01  0.94526784282E+02  0.89449442657E+02 0.  0.
         11    1    3    3    0    0 -0.65813066114E+01 -0.57743697224E+02  0.27044750890E-01  0.58117543802E+02  0.51100000000E-03 0.  1.
         22    1    1    0    0    0 -0.12647924135E+02  0.27295743518E+02 -0.53928244816E+01  0.30563215718E+02  0.00000000000E+00 0.  1.
</event>
<event>
 5    1  0.1046082E-009  0.9118800E+02  0.7561462E-02  0.1125453E+00
         25   -1    0    0    0    0  0.00000000000E+00  0.00000000000E+00  0.99999998245E-14  0.12509000000E+03  0.12509000000E+03 0.  0.
        -11    1    3    3    0    0 -0.22018510232E+02 -0.11876080176E+02  0.22772929069E+02  0.33829903515E+02  0.51100000000E-03 0.  1.
         23    2    1    0    0    0  0.16856240929E+02 -0.77678935943E+01 -0.23976373484E+02  0.94769387958E+02  0.89788069248E+02 0.  0.
         11    1    3    3    0    0  0.38874751161E+02  0.41081865819E+01 -0.46749302553E+02  0.60939484443E+02  0.51100000000E-03 0. -1.
         22    1    1    0    0    0 -0.16856240929E+02  0.77678935943E+01  0.23976373484E+02  0.30320612042E+02  0.00000000000E+00 0. -1.
</event>
<event>
 5    1  0.1046082E-009  0.9118800E+02  0.7561462E-02  0.1125453E+00
         25   -1    0    0    0    0  0.00000000000E+00  0.00000000000E+00  0.99999998245E-14  0.12509000000E+03  0.12509000000E+03 0.  0.
        -11    1    3    3    0    0 -0.38459816632E+02 -0.27000539791E+02 -0.13020426277E+02  0.48761851330E+02  0.51100000000E-03 0.  1.
         23    2    1    0    0    0 -0.10699066828E+02 -0.15940581112E+02  0.22717343600E+02  0.95346935978E+02  0.90589118238E+02 0.  0.
         11    1    3    3    0    0  0.27760749804E+02  0.11059958680E+02  0.35737769877E+02  0.46585084649E+02  0.51100000000E-03 0. -1.
         22    1    1    0    0    0  0.10699066828E+02  0.15940581112E+02 -0.22717343600E+02  0.29743064022E+02  0.00000000000E+00 0.  1.
</event>
<event>
 5    1  0.1046082E-009  0.9118800E+02  0.7561462E-02  0.1125453E+00
         25   -1    0    0    0    0  0.00000000000E+00  0.00000000000E+00  0.99999998245E-14  0.12509000000E+03  0.12509000000E+03 0.  0.
        -11    1    3    3    0    0  0.31097898799E+02  0.19495126333E+02 -0.15481593242E+02  0.39834896636E+02  0.51100000000E-03 0.  1.
         23    2    1    0    0    0 -0.24442358152E+02  0.37102518537E+01 -0.11810894285E+02  0.97691239725E+02  0.93770391139E+02 0.  0.
         11    1    3    3    0    0 -0.55540256951E+02 -0.15784874479E+02  0.36706989573E+01  0.57856343088E+02  0.51100000000E-03 0. -1.
         22    1    1    0    0    0  0.24442358152E+02 -0.37102518537E+01  0.11810894285E+02  0.27398760275E+02  0.00000000000E+00 0. -1.
</event>
<event>
 5    1  0.1046082E-009  0.9118800E+02  0.7561462E-02  0.1125453E+00
         25   -1    0    0    0    0  0.00000000000E+00  0.00000000000E+00  0.99999998245E-14  0.12509000000E+03  0.12509000000E+03 0.  0.
        -11    1    3    3    0    0 -0.17143329480E+02  0.20176884801E+02 -0.32035267954E+02  0.41560303404E+02  0.51100000000E-03 0. -1.
         23    2    1    0    0    0 -0.21858581762E+02 -0.73259361773E+00  0.18494092751E+02  0.96447972196E+02  0.92096935801E+02 0.  0.
         11    1    3    3    0    0 -0.47152522824E+01 -0.20909478418E+02  0.50529360705E+02  0.54887668791E+02  0.51100000000E-03 0.  1.
         22    1    1    0    0    0  0.21858581762E+02  0.73259361773E+00 -0.18494092751E+02  0.28642027804E+02  0.00000000000E+00 0.  1.
</event>
<event>
 5    1  0.1046082E-009  0.9118800E+02  0.7561462E-02  0.1125453E+00
         25   -1    0    0    0    0  0.00000000000E+00  0.00000000000E+00  0.99999998245E-14  0.12509000000E+03  0.12509000000E+03 0.  0.
        -11    1    3    3    0    0  0.22368162190E+02  0.26161235512E+02  0.34795604451E+02  0.48943630971E+02  0.51100000000E-03 0.  1.
         23    2    1    0    0    0  0.28400880091E+02  0.29762589940E+01 -0.56765950905E+01  0.95974852063E+02  0.91452066074E+02 0.  0.
         11    1    3    3    0    0  0.60327179014E+01 -0.23184976518E+02 -0.40472199542E+02  0.47031221092E+02  0.51100000000E-03 0. -1.
         22    1    1    0    0    0 -0.28400880091E+02 -0.29762589940E+01  0.56765950905E+01  0.29115147937E+02  0.00000000000E+00 0. -1.
</event>
<event>
 5    1  0.1046082E-009  0.9118800E+02  0.7561462E-02  0.1125453E+00
         25   -1    0    0    0    0  0.00000000000E+00  0.00000000000E+00  0.99999998245E-14  0.12509000000E+03  0.12509000000E+03 0.  0.
        -11    1    3    3    0    0  0.27837277926E+02  0.28383422091E+02  0.13177737650E+02  0.41882997287E+02  0.51100000000E-03 0.  1.
         23    2    1    0    0    0  0.35998181958E+02  0.27029569451E+02 -0.19821278111E+02  0.75903113587E+02  0.57809453010E+02 0.  0.
         11    1    3    3    0    0  0.81609040327E+01 -0.13538526404E+01 -0.32999015761E+02  0.34020116300E+02  0.51100000000E-03 0. -1.
         22    1    1    0    0    0 -0.35998181958E+02 -0.27029569451E+02  0.19821278111E+02  0.49186886413E+02  0.00000000000E+00 0. -1.
</event>
<event>
 5    1  0.1046082E-009  0.9118800E+02  0.7561462E-02  0.1125453E+00
         25   -1    0    0    0    0  0.00000000000E+00  0.00000000000E+00  0.99999998245E-14  0.12509000000E+03  0.12509000000E+03 0.  0.
        -11    1    3    3    0    0  0.11587618267E+01 -0.35025140062E+02 -0.10324373104E+02  0.36533489370E+02  0.51100000000E-03 0. -1.
         23    2    1    0    0    0 -0.25227688243E+02  0.10974778131E+02  0.13233549073E+02  0.94561180334E+02  0.89497530670E+02 0.  0.
         11    1    3    3    0    0 -0.26386450070E+02  0.45999918193E+02  0.23557922177E+02  0.58027690964E+02  0.51100000000E-03 0.  1.
         22    1    1    0    0    0  0.25227688243E+02 -0.10974778131E+02 -0.13233549073E+02  0.30528819666E+02  0.00000000000E+00 0.  1.
</event>
<event>
 5    1  0.1046082E-009  0.9118800E+02  0.7561462E-02  0.1125453E+00
         25   -1    0    0    0    0  0.00000000000E+00  0.00000000000E+00  0.99999998245E-14  0.12509000000E+03  0.12509000000E+03 0.  0.
        -11    1    3    3    0    0 -0.30599686399E+02 -0.40486545450E+02 -0.62048633506E+00  0.50753188804E+02  0.51100000000E-03 0.  1.
         23    2    1    0    0    0 -0.11286754761E+02 -0.92929618977E+01  0.25435155278E+02  0.95752360390E+02  0.91147229373E+02 0.  0.
         11    1    3    3    0    0  0.19312931638E+02  0.31193583552E+02  0.26055641613E+02  0.44999171586E+02  0.51100000000E-03 0. -1.
         22    1    1    0    0    0  0.11286754761E+02  0.92929618977E+01 -0.25435155278E+02  0.29337639610E+02  0.00000000000E+00 0.  1.
</event>
<event>
 5    1  0.1046082E-009  0.9118800E+02  0.7561462E-02  0.1125453E+00
         25   -1    0    0    0    0  0.00000000000E+00  0.00000000000E+00  0.99999998245E-14  0.12509000000E+03  0.12509000000E+03 0.  0.
        -11    1    3    3    0    0 -0.12867808820E+02 -0.14273145984E+02  0.54261191911E+02  0.57563705127E+02  0.51100000000E-03 0.  1.
         23    2    1    0    0    0 -0.11511863825E+02 -0.20617586002E+02  0.15546850782E+02  0.96817885992E+02  0.92598005472E+02 0.  0.
         11    1    3    3    0    0  0.13559449941E+01 -0.63444400180E+01 -0.38714341130E+02  0.39254180864E+02  0.51100000000E-03 0. -1.
         22    1    1    0    0    0  0.11511863825E+02  0.20617586002E+02 -0.15546850782E+02  0.28272114008E+02  0.00000000000E+00 0.  1.
</event>
<event>
 5    1  0.1046082E-009  0.9118800E+02  0.7561462E-02  0.1125453E+00
         25   -1    0    0    0    0  0.00000000000E+00  0.00000000000E+00  0.99999998245E-14  0.12509000000E+03  0.12509000000E+03 0.  0.
        -11    1    3    3    0    0  0.39442537820E+02  0.22112019942E+01 -0.17714830211E+01  0.39544169688E+02  0.51100000000E-03 0.  1.
         23    2    1    0    0    0 -0.74942487350E+01 -0.26328596116E+02 -0.11618007993E+02  0.95352198345E+02  0.90596384486E+02 0.  0.
         11    1    3    3    0    0 -0.46936786555E+02 -0.28539798110E+02 -0.98465249719E+01  0.55808028657E+02  0.51100000000E-03 0. -1.
         22    1    1    0    0    0  0.74942487350E+01  0.26328596116E+02  0.11618007993E+02  0.29737801655E+02  0.00000000000E+00 0.  1.
</event>
<event>
 5    1  0.1046082E-009  0.9118800E+02  0.7561462E-02  0.1125453E+00
         25   -1    0    0    0    0  0.00000000000E+00  0.00000000000E+00  0.99999998245E-14  0.12509000000E+03  0.12509000000E+03 0.  0.
        -11    1    3    3    0    0  0.34707573594E+02  0.14092692641E+02 -0.14821875453E+02  0.40285327886E+02  0.51100000000E-03 0.  1.
         23    2    1    0    0    0  0.38731399946E+01 -0.29386783518E+02 -0.64290934033E+00  0.95442106460E+02  0.90720439231E+02 0.  0.
         11    1    3    3    0    0 -0.30834433600E+02 -0.43479476158E+02  0.14178966113E+02  0.55156778574E+02  0.51100000000E-03 0. -1.
         22    1    1    0    0    0 -0.38731399946E+01  0.29386783518E+02  0.64290934033E+00  0.29647893540E+02  0.00000000000E+00 0. -1.
</event>
<event>
 5    1  0.1046082E-009  0.9118800E+02  0.7561462E-02  0.1125453E+00
         25   -1    0    0    0    0  0.00000000000E+00  0.00000000000E+00  0.99999998245E-14  0.12509000000E+03  0.12509000000E+03 0.  0.
        -11    1    3    3    0    0  0.11443094489E+02 -0.72336874587E+01 -0.30937855926E+02  0.33770128447E+02  0.51100000000E-03 0. -1.
         23    2    1    0    0    0 -0.66435184401E+00  0.21847550608E+02  0.21170833815E+02  0.94660392126E+02  0.89636090957E+02 0.  0.
         11    1    3    3    0    0 -0.12107446333E+02  0.29081238067E+02  0.52108689741E+02  0.60890263680E+02  0.51100000000E-03 0.  1.
         22    1    1    0    0    0  0.66435184401E+00 -0.21847550608E+02 -0.21170833815E+02  0.30429607874E+02  0.00000000000E+00 0.  1.
</event>
<event>
 5    1  0.1046082E-009  0.9118800E+02  0.7561462E-02  0.1125453E+00
         25   -1    0    0    0    0  0.00000000000E+00  0.00000000000E+00  0.99999998245E-14  0.12509000000E+03  0.12509000000E+03 0.  0.
        -11    1    3    3    0    0 -0.34441835852E+02  0.37662902081E+02 -0.27129463152E+02  0.57799152426E+02  0.51100000000E-03 0. -1.
         23    2    1    0    0    0 -0.69234203066E+01  0.27928000537E+02 -0.21179957592E+01  0.96238780463E+02  0.91812362981E+02 0.  0.
         11    1    3    3    0    0  0.27518415546E+02 -0.97349015434E+01  0.25011467392E+02  0.38439628037E+02  0.51100000000E-03 0.  1.
         22    1    1    0    0    0  0.69234203066E+01 -0.27928000537E+02  0.21179957592E+01  0.28851219537E+02  0.00000000000E+00 0. -1.
</event>
<event>
 5    1  0.1046082E-009  0.9118800E+02  0.7561462E-02  0.1125453E+00
         25   -1    0    0    0    0  0.00000000000E+00  0.00000000000E+00  0.99999998245E-14  0.12509000000E+03  0.12509000000E+03 0.  0.
        -11    1    3    3    0    0 -0.30747181855E+02  0.29066129430E+02  0.22368355347E+02  0.47859924710E+02  0.51100000000E-03 0.  1.
         23    2    1    0    0    0 -0.14776074785E+02  0.13871761802E+02 -0.20624052701E+02  0.96174438250E+02  0.91724657870E+02 0.  0.
         11    1    3    3    0    0  0.15971107070E+02 -0.15194367628E+02 -0.42992408047E+02  0.48314513540E+02  0.51100000000E-03 0. -1.
         22    1    1    0    0    0  0.14776074785E+02 -0.13871761802E+02  0.20624052701E+02  0.28915561750E+02  0.00000000000E+00 0.  1.
</event>
<event>
 5    1  0.1046082E-009  0.9118800E+02  0.7561462E-02  0.1125453E+00
         25   -1    0    0    0    0  0.00000000000E+00  0.00000000000E+00  0.99999998245E-14  0.12509000000E+03  0.12509000000E+03 0.  0.
        -11    1    3    3    0    0 -0.46847057082E+00 -0.40111823832E+02 -0.37220327364E+02  0.54722304823E+02  0.51100000000E-03 0.  1.
         23    2    1    0    0    0  0.12171302628E+02 -0.30685576422E+01 -0.27212818736E+02  0.95121780880E+02  0.90277677421E+02 0.  0.
         11    1    3    3    0    0  0.12639773199E+02  0.37043266189E+02  0.10007508628E+02  0.40399476057E+02  0.51100000000E-03 0. -1.
         22    1    1    0    0    0 -0.12171302628E+02  0.30685576422E+01  0.27212818736E+02  0.29968219120E+02  0.00000000000E+00 0.  1.
</event>
<event>
 5    1  0.1046082E-009  0.9118800E+02  0.7561462E-02  0.1125453E+00
         25   -1    0    0    0    0  0.00000000000E+00  0.00000000000E+00  0.99999998245E-14  0.12509000000E+03  0.12509000000E+03 0.  0.
        -11    1    3    3    0    0 -0.41295462960E+02 -0.98740049618E+01 -0.18623053809E+02  0.46364095683E+02  0.51100000000E-03 0. -1.
         23    2    1    0    0    0  0.46541805184E+01 -0.26198077293E+02 -0.13077905697E+02  0.95441521665E+02  0.90719632882E+02 0.  0.
         11    1    3    3    0    0  0.45949643478E+02 -0.16324072331E+02  0.55451481123E+01  0.49077425983E+02  0.51100000000E-03 0.  1.
         22    1    1    0    0    0 -0.46541805184E+01  0.26198077293E+02  0.13077905697E+02  0.29648478335E+02  0.00000000000E+00 0.  1.
</event>
<event>
 5    1  0.1046082E-009  0.9118800E+02  0.7561462E-02  0.1125453E+00
         25   -1    0    0    0    0  0.00000000000E+00  0.00000000000E+00  0.99999998245E-14  0.12509000000E+03  0.12509000000E+03 0.  0.
        -11    1    3    3    0    0 -0.39530925967E+02 -0.21118097695E+01  0.43850811327E+02  0.59076623994E+02  0.51100000000E-03 0. -1.
         23    2    1    0    0    0 -0.29579812557E+02  0.40130895066E+01  0.12152107423E+02  0.92860449691E+02  0.87087996898E+02 0.  0.
         11    1    3    3    0    0  0.99511134096E+01  0.61248992760E+01 -0.31698703904E+02  0.33783825697E+02  0.51100000000E-03 0.  1.
         22    1    1    0    0    0  0.29579812557E+02 -0.40130895066E+01 -0.12152107423E+02  0.32229550309E+02  0.00000000000E+00 0. -1.
</event>
<event>
 5    1  0.1046082E-009  0.9118800E+02  0.7561462E-02  0.1125453E+00
         25   -1    0    0    0    0  0.00000000000E+00  0.00000000000E+00  0.99999998245E-14  0.12509000000E+03  0.12509000000E+03 0.  0.
        -11    1    3    3    0    0  0.26109851544E+01 -0.69178649559E+01 -0.60833506721E+02  0.61281233989E+02  0.51100000000E-03 0. -1.
         23    2    1    0    0    0  0.61823725017E+00  0.55750651416E+01 -0.29302217546E+02  0.95255732425E+02  0.90463092132E+02 0.  0.
         11    1    3    3    0    0 -0.19927479042E+01  0.12492930097E+02  0.31531289175E+02  0.33974498435E+02  0.51100000000E-03 0.  1.
         22    1    1    0    0    0 -0.61823725017E+00 -0.55750651416E+01  0.29302217546E+02  0.29834267575E+02  0.00000000000E+00 0. -1.
</event>
<event>
 5    1  0.1046082E-009  0.9118800E+02  0.7561462E-02  0.1125453E+00
         25   -1    0    0    0    0  0.00000000000E+00  0.00000000000E+00  0.99999998245E-14  0.12509000000E+03  0.12509000000E+03 0.  0.
        -11    1    3    3    0    0  0.35994248271E+02 -0.37300655124E+02  0.56908714278E+01  0.52147011412E+02  0.51100000000E-03 0. -1.
         23    2    1    0    0    0 -0.26673109719E+01 -0.20124897890E+02  0.19789463089E+02  0.96739534179E+02  0.92492099992E+02 0.  0.
         11    1    3    3    0    0 -0.38661559243E+02  0.17175757233E+02  0.14098591661E+02  0.44592522767E+02  0.51100000000E-03 0.  1.
         22    1    1    0    0    0  0.26673109719E+01  0.20124897890E+02 -0.19789463089E+02  0.28350465821E+02  0.00000000000E+00 0. -1.
</event>
<event>
 5    1  0.1046082E-009  0.9118800E+02  0.7561462E-02  0.1125453E+00
         25   -1    0    0    0    0  0.00000000000E+00  0.00000000000E+00  0.99999998245E-14  0.12509000000E+03  0.12509000000E+03 0.  0.
        -11    1    3    3    0    0 -0.93687594059E+01  0.18579854547E+02  0.14102649368E+02  0.25137011900E+02  0.51100000000E-03 0.  1.
         23    2    1    0    0    0 -0.19616255483E+02 -0.32336611424E+02  0.26961300273E+02  0.78642549801E+02  0.63460893543E+02 0.  0.
         11    1    3    3    0    0 -0.10247496077E+02 -0.50916465971E+02  0.12858650905E+02  0.53505537902E+02  0.51100000000E-03 0. -1.
         22    1    1    0    0    0  0.19616255483E+02  0.32336611424E+02 -0.26961300273E+02  0.46447450199E+02  0.00000000000E+00 0. -1.
</event>
<event>
 5    1  0.1046082E-009  0.9118800E+02  0.7561462E-02  0.1125453E+00
         25   -1    0    0    0    0  0.00000000000E+00  0.00000000000E+00  0.99999998245E-14  0.12509000000E+03  0.12509000000E+03 0.  0.
        -11    1    3    3    0    0 -0.36601052827E+01 -0.31360535912E+02  0.14327689001E+02  0.34672211578E+02  0.51100000000E-03 0. -1.
         23    2    1    0    0    0 -0.27964186319E+01  0.28886529290E+02  0.45082235168E+01  0.95720362432E+02  0.91103304952E+02 0.  0.
         11    1    3    3    0    0  0.86368665081E+00  0.60247065202E+02 -0.98194654841E+01  0.61048150854E+02  0.51100000000E-03 0.  1.
         22    1    1    0    0    0  0.27964186319E+01 -0.28886529290E+02 -0.45082235168E+01  0.29369637568E+02  0.00000000000E+00 0.  1.
</event>
<event>
 5    1  0.1046082E-009  0.9118800E+02  0.7561462E-02  0.1125453E+00
         25   -1    0    0    0    0  0.00000000000E+00  0.00000000000E+00  0.99999998245E-14  0.12509000000E+03  0.12509000000E+03 0.  0.
        -11    1    3    3    0    0  0.30438742591E+02  0.27923210540E+02  0.23034128208E+02  0.47294754465E+02  0.51100000000E-03 0. -1.
         23    2    1    0    0    0 -0.14615358069E+02  0.25239040445E+02  0.95874752715E+01  0.94389225805E+02  0.89256867590E+02 0.  0.
         11    1    3    3    0    0 -0.45054100659E+02 -0.26841700954E+01 -0.13446652936E+02  0.47094471340E+02  0.51100000000E-03 0.  1.
         22    1    1    0    0    0  0.14615358069E+02 -0.25239040445E+02 -0.95874752715E+01  0.30700774195E+02  0.00000000000E+00 0. -1.
</event>
<event>
 5    1  0.1046082E-009  0.9118800E+02  0.7561462E-02  0.1125453E+00
         25   -1    0    0    0    0  0.00000000000E+00  0.00000000000E+00  0.99999998245E-14  0.12509000000E+03  0.12509000000E+03 0.  0.
        -11    1    3    3    0    0  0.26634186955E+02 -0.22179406216E+02  0.59952627954E+01  0.35174552607E+02  0.51100000000E-03 0. -1.
         23    2    1    0    0    0 -0.14677517762E+02  0.10702445961E+02 -0.23290881864E+02  0.95552954528E+02  0.90873153702E+02 0.  0.
         11    1    3    3    0    0 -0.41311704717E+02  0.32881852177E+02 -0.29286144660E+02  0.60378401921E+02  0.51100000000E-03 0.  1.
         22    1    1    0    0    0  0.14677517762E+02 -0.10702445961E+02  0.23290881864E+02  0.29537045472E+02  0.00000000000E+00 0.  1.
</event>
<event>
 5    1  0.1046082E-009  0.9118800E+02  0.7561462E-02  0.1125453E+00
         25   -1    0    0    0    0  0.00000000000E+00  0.00000000000E+00  0.99999998245E-14  0.12509000000E+03  0.12509000000E+03 0.  0.
        -11    1    3    3    0    0  0.93979741340E+01 -0.33424158147E+01 -0.54088376075E+02  0.55000418980E+02  0.51100000000E-03 0. -1.
         23    2    1    0    0    0  0.12750395629E+02  0.17028227937E+02 -0.15482700324E+02  0.98779410028E+02  0.95210948429E+02 0.  0.
         11    1    3    3    0    0  0.33524214949E+01  0.20370643752E+02  0.38605675751E+02  0.43778991048E+02  0.51100000000E-03 0.  1.
         22    1    1    0    0    0 -0.12750395629E+02 -0.17028227937E+02  0.15482700324E+02  0.26310589972E+02  0.00000000000E+00 0.  1.
</event>
<event>
 5    1  0.1046082E-009  0.9118800E+02  0.7561462E-02  0.1125453E+00
         25   -1    0    0    0    0  0.00000000000E+00  0.00000000000E+00  0.99999998245E-14  0.12509000000E+03  0.12509000000E+03 0.  0.
        -11    1    3    3    0    0  0.10488218394E+02 -0.39322257486E+02 -0.39125100254E+02  0.56453663558E+02  0.51100000000E-03 0.  1.
         23    2    1    0    0    0 -0.32631031937E+01 -0.50296527941E+01 -0.29981005670E+02  0.94515403508E+02  0.89433525870E+02 0.  0.
         11    1    3    3    0    0 -0.13751321588E+02  0.34292604692E+02  0.91440945844E+01  0.38061739950E+02  0.51100000000E-03 0. -1.
         22    1    1    0    0    0  0.32631031937E+01  0.50296527941E+01  0.29981005670E+02  0.30574596492E+02  0.00000000000E+00 0.  1.
</event>
<event>
 5    1  0.1046082E-009  0.9118800E+02  0.7561462E-02  0.1125453E+00
         25   -1    0    0    0    0  0.00000000000E+00  0.00000000000E+00  0.99999998245E-14  0.12509000000E+03  0.12509000000E+03 0.  0.
        -11    1    3    3    0    0 -0.61128472629E+02 -0.15485563990E+01  0.49130854566E+01  0.61345143262E+02  0.51100000000E-03 0. -1.
         23    2    1    0    0    0 -0.29611950963E+02 -0.40481918202E+01 -0.56394093562E+01  0.94675226702E+02  0.89656790687E+02 0.  0.
         11    1    3    3    0    0  0.31516521665E+02 -0.24996354211E+01 -0.10552494813E+02  0.33330083440E+02  0.51100000000E-03 0.  1.
         22    1    1    0    0    0  0.29611950963E+02  0.40481918202E+01  0.56394093562E+01  0.30414773298E+02  0.00000000000E+00 0. -1.
</event>
<event>
 5    1  0.1046082E-009  0.9118800E+02  0.7561462E-02  0.1125453E+00
         25   -1    0    0    0    0  0.00000000000E+00  0.00000000000E+00  0.99999998245E-14  0.12509000000E+03  0.12509000000E+03 0.  0.
        -11    1    3    3    0    0  0.45975789981E+02 -0.57068938944E+01  0.34527993928E+02  0.57779964237E+02  0.51100000000E-03 0.  1.
         23    2    1    0    0    0  0.30764254614E+02  0.67475734819E+01  0.50800417238E+01  0.93187399263E+02  0.87556355838E+02 0.  0.
         11    1    3    3    0    0 -0.15211535367E+02  0.12454467376E+02 -0.29447952204E+02  0.35407435026E+02  0.51100000000E-03 0. -1.
         22    1    1    0    0    0 -0.30764254614E+02 -0.67475734819E+01 -0.50800417238E+01  0.31902600737E+02  0.00000000000E+00 0.  1.
</event>
<event>
 5    1  0.1046082E-009  0.9118800E+02  0.7561462E-02  0.1125453E+00
         25   -1    0    0    0    0  0.00000000000E+00  0.00000000000E+00  0.99999998245E-14  0.12509000000E+03  0.12509000000E+03 0.  0.
        -11    1    3    3    0    0 -0.42688526526E+02 -0.12715525095E+02 -0.32063490183E+01  0.44657312388E+02  0.51100000000E-03 0. -1.
         23    2    1    0    0    0 -0.76946471445E+01  0.20751315119E+02 -0.19343088661E+02  0.95696467500E+02  0.91070489947E+02 0.  0.
         11    1    3    3    0    0  0.34993879382E+02  0.33466840214E+02 -0.16136739643E+02  0.51039155113E+02  0.51100000000E-03 0.  1.
         22    1    1    0    0    0  0.76946471445E+01 -0.20751315119E+02  0.19343088661E+02  0.29393532500E+02  0.00000000000E+00 0.  1.
</event>
<event>
 5    1  0.1046082E-009  0.9118800E+02  0.7561462E-02  0.1125453E+00
         25   -1    0    0    0    0  0.00000000000E+00  0.00000000000E+00  0.99999998245E-14  0.12509000000E+03  0.12509000000E+03 0.  0.
        -11    1    3    3    0    0  0.19862723277E+02 -0.36665272518E+02 -0.20157238670E+01  0.41748450603E+02  0.51100000000E-03 0. -1.
         23    2    1    0    0    0  0.32871012913E+01  0.78170726279E+01  0.26596111946E+02  0.97174684670E+02  0.93078754346E+02 0.  0.
         11    1    3    3    0    0 -0.16575621985E+02  0.44482345146E+02  0.28611835813E+02  0.55426234066E+02  0.51100000000E-03 0.  1.
         22    1    1    0    0    0 -0.32871012913E+01 -0.78170726279E+01 -0.26596111946E+02  0.27915315330E+02  0.00000000000E+00 0.  1.
</event>
<event>
 5    1  0.1046082E-009  0.9118800E+02  0.7561462E-02  0.1125453E+00
         25   -1    0    0    0    0  0.00000000000E+00  0.00000000000E+00  0.99999998245E-14  0.12509000000E+03  0.12509000000E+03 0.  0.
        -11    1    3    3    0    0  0.28073706923E+02  0.39520310453E+02 -0.38731174467E+02  0.62049108249E+02  0.51100000000E-03 0.  1.
         23    2    1    0    0    0  0.12468902828E+02  0.22051968685E+02 -0.13862042623E+02  0.96212342783E+02  0.91776335826E+02 0.  0.
         11    1    3    3    0    0 -0.15604804094E+02 -0.17468341767E+02  0.24869131844E+02  0.34163234534E+02  0.51100000000E-03 0. -1.
         22    1    1    0    0    0 -0.12468902828E+02 -0.22051968685E+02  0.13862042623E+02  0.28877657217E+02  0.00000000000E+00 0.  1.
</event>
<event>
 5    1  0.1046082E-009  0.9118800E+02  0.7561462E-02  0.1125453E+00
         25   -1    0    0    0    0  0.00000000000E+00  0.00000000000E+00  0.99999998245E-14  0.12509000000E+03  0.12509000000E+03 0.  0.
        -11    1    3    3    0    0 -0.65031497175E+01 -0.91019265906E+01  0.56234267147E+02  0.57336104033E+02  0.51100000000E-03 0. -1.
         23    2    1    0    0    0  0.52360226420E+01 -0.19871498547E+02  0.22651095222E+02  0.94506270626E+02  0.89420750865E+02 0.  0.
         11    1    3    3    0    0  0.11739172359E+02 -0.10769571957E+02 -0.33583171924E+02  0.37170166593E+02  0.51100000000E-03 0.  1.
         22    1    1    0    0    0 -0.52360226420E+01  0.19871498547E+02 -0.22651095222E+02  0.30583729374E+02  0.00000000000E+00 0. -1.
</event>
<event>
 5    1  0.1046082E-009  0.9118800E+02  0.7561462E-02  0.1125453E+00
         25   -1    0    0    0    0  0.00000000000E+00  0.00000000000E+00  0.99999998245E-14  0.12509000000E+03  0.12509000000E+03 0.  0.
        -11    1    3    3    0    0  0.37002762086E+02  0.27094214130E+02  0.13537517715E+01  0.45881733679E+02  0.51100000000E-03 0. -1.
         23    2    1    0    0    0 -0.14402173479E+02  0.23241434947E+02 -0.28384144765E+01  0.97601029556E+02  0.93649973168E+02 0.  0.
         11    1    3    3    0    0 -0.51404935565E+02 -0.38527791826E+01 -0.41921662480E+01  0.51719295877E+02  0.51100000000E-03 0.  1.
         22    1    1    0    0    0  0.14402173479E+02 -0.23241434947E+02  0.28384144765E+01  0.27488970444E+02  0.00000000000E+00 0.  1.
</event>
<event>
 5    1  0.1046082E-009  0.9118800E+02  0.7561462E-02  0.1125453E+00
         25   -1    0    0    0    0  0.00000000000E+00  0.00000000000E+00  0.99999998245E-14  0.12509000000E+03  0.12509000000E+03 0.  0.
        -11    1    3    3    0    0  0.32783905043E+02  0.77755122358E+01  0.25710888389E+02  0.42382694610E+02  0.51100000000E-03 0. -1.
         23    2    1    0    0    0  0.12280070798E+02 -0.13226592029E+02 -0.20906579591E+02  0.97470659933E+02  0.93475673852E+02 0.  0.
         11    1    3    3    0    0 -0.20503834245E+02 -0.21002104265E+02 -0.46617467981E+02  0.55087965324E+02  0.51100000000E-03 0.  1.
         22    1    1    0    0    0 -0.12280070798E+02  0.13226592029E+02  0.20906579591E+02  0.27619340067E+02  0.00000000000E+00 0.  1.
</event>
<event>
 5    1  0.1046082E-009  0.9118800E+02  0.7561462E-02  0.1125453E+00
         25   -1    0    0    0    0  0.00000000000E+00  0.00000000000E+00  0.99999998245E-14  0.12509000000E+03  0.12509000000E+03 0.  0.
        -11    1    3    3    0    0  0.10778056112E+02  0.27977293287E+02  0.51703909080E+02  0.59767797748E+02  0.51100000000E-03 0.  1.
         23    2    1    0    0    0  0.10488511799E+02  0.21802766513E+02  0.15814703228E+02  0.96185426909E+02  0.91739642490E+02 0.  0.
         11    1    3    3    0    0 -0.28954431319E+00 -0.61745267742E+01 -0.35889205852E+02  0.36417629161E+02  0.51100000000E-03 0. -1.
         22    1    1    0    0    0 -0.10488511799E+02 -0.21802766513E+02 -0.15814703228E+02  0.28904573091E+02  0.00000000000E+00 0. -1.
</event>
<event>
 5    1  0.1046082E-009  0.9118800E+02  0.7561462E-02  0.1125453E+00
         25   -1    0    0    0    0  0.00000000000E+00  0.00000000000E+00  0.99999998245E-14  0.12509000000E+03  0.12509000000E+03 0.  0.
        -11    1    3    3    0    0 -0.21351525535E+02 -0.34402089059E+02  0.35513452338E+02  0.53857187742E+02  0.51100000000E-03 0.  1.
         23    2    1    0    0    0 -0.10022911255E+02 -0.25705193441E+02 -0.52098633220E+01  0.97012279371E+02  0.92860238817E+02 0.  0.
         11    1    3    3    0    0  0.11328614280E+02  0.86968956181E+01 -0.40723315660E+02  0.43155091629E+02  0.51100000000E-03 0. -1.
         22    1    1    0    0    0  0.10022911255E+02  0.25705193441E+02  0.52098633220E+01  0.28077720629E+02  0.00000000000E+00 0.  1.
</event>
<event>
 5    1  0.1046082E-009  0.9118800E+02  0.7561462E-02  0.1125453E+00
         25   -1    0    0    0    0  0.00000000000E+00  0.00000000000E+00  0.99999998245E-14  0.12509000000E+03  0.12509000000E+03 0.  0.
        -11    1    3    3    0    0 -0.17691945816E+01 -0.27571282990E+02  0.19208622593E+02  0.33649322093E+02  0.51100000000E-03 0.  1.
         23    2    1    0    0    0  0.78241244077E+01  0.29989276498E+02  0.81613462073E+01  0.93040332302E+02  0.87345991524E+02 0.  0.
         11    1    3    3    0    0  0.95933189893E+01  0.57560559488E+02 -0.11047276385E+02  0.59391010209E+02  0.51100000000E-03 0. -1.
         22    1    1    0    0    0 -0.78241244077E+01 -0.29989276498E+02 -0.81613462073E+01  0.32049667698E+02  0.00000000000E+00 0. -1.
</event>
<event>
 5    1  0.1046082E-009  0.9118800E+02  0.7561462E-02  0.1125453E+00
         25   -1    0    0    0    0  0.00000000000E+00  0.00000000000E+00  0.99999998245E-14  0.12509000000E+03  0.12509000000E+03 0.  0.
        -11    1    3    3    0    0  0.11964469158E+02  0.49600879415E+01 -0.39364560216E+02  0.41440554966E+02  0.51100000000E-03 0.  1.
         23    2    1    0    0    0 -0.89611945823E+01  0.28069095423E+02  0.45293466506E+01  0.95279060611E+02  0.90495343989E+02 0.  0.
         11    1    3    3    0    0 -0.20925663741E+02  0.23109007481E+02  0.43893906867E+02  0.53838505645E+02  0.51100000000E-03 0. -1.
         22    1    1    0    0    0  0.89611945823E+01 -0.28069095423E+02 -0.45293466506E+01  0.29810939389E+02  0.00000000000E+00 0.  1.
</event>
<event>
 5    1  0.1046082E-009  0.9118800E+02  0.7561462E-02  0.1125453E+00
         25   -1    0    0    0    0  0.00000000000E+00  0.00000000000E+00  0.99999998245E-14  0.12509000000E+03  0.12509000000E+03 0.  0.
        -11    1    3    3    0    0 -0.27454419532E+02 -0.40866163810E+01 -0.36663265063E+02  0.45985221437E+02  0.51100000000E-03 0. -1.
         23    2    1    0    0    0  0.18831533305E+02  0.64988599217E-01 -0.24805731349E+02  0.93945896579E+02  0.88633381443E+02 0.  0.
         11    1    3    3    0    0  0.46285952837E+02  0.41516049802E+01  0.11857533714E+02  0.47960675141E+02  0.51100000000E-03 0.  1.
         22    1    1    0    0    0 -0.18831533305E+02 -0.64988599217E-01  0.24805731349E+02  0.31144103421E+02  0.00000000000E+00 0.  1.
</event>
<event>
 5    1  0.1046082E-009  0.9118800E+02  0.7561462E-02  0.1125453E+00
         25   -1    0    0    0    0  0.00000000000E+00  0.00000000000E+00  0.99999998245E-14  0.12509000000E+03  0.12509000000E+03 0.  0.
        -11    1    3    3    0    0  0.36263696871E+02  0.24732302334E+02  0.23012668600E+02  0.49561329742E+02  0.51100000000E-03 0.  1.
         23    2    1    0    0    0 -0.23696359338E+01 -0.90134332384E+01  0.22364090565E+02  0.10086171694E+03  0.97908509559E+02 0.  0.
         11    1    3    3    0    0 -0.38633332805E+02 -0.33745735572E+02 -0.64857803447E+00  0.51300387198E+02  0.51100000000E-03 0. -1.
         22    1    1    0    0    0  0.23696359338E+01  0.90134332384E+01 -0.22364090565E+02  0.24228283060E+02  0.00000000000E+00 0. -1.
</event>
<event>
 5    1  0.1046082E-009  0.9118800E+02  0.7561462E-02  0.1125453E+00
         25   -1    0    0    0    0  0.00000000000E+00  0.00000000000E+00  0.99999998245E-14  0.12509000000E+03  0.12509000000E+03 0.  0.
        -11    1    3    3    0    0  0.26600593560E+02 -0.30441768248E+02  0.31900415256E+01  0.40552055398E+02  0.51100000000E-03 0. -1.
         23    2    1    0    0    0  0.17354663043E+02  0.23636345544E+02  0.44588252681E+01  0.95429550192E+02  0.90703124352E+02 0.  0.
         11    1    3    3    0    0 -0.92459305164E+01  0.54078113792E+02  0.12687837425E+01  0.54877494794E+02  0.51100000000E-03 0.  1.
         22    1    1    0    0    0 -0.17354663043E+02 -0.23636345544E+02 -0.44588252681E+01  0.29660449808E+02  0.00000000000E+00 0.  1.
</event>
<event>
 5    1  0.1046082E-009  0.9118800E+02  0.7561462E-02  0.1125453E+00
         25   -1    0    0    0    0  0.00000000000E+00  0.00000000000E+00  0.99999998245E-14  0.12509000000E+03  0.12509000000E+03 0.  0.
        -11    1    3    3    0    0  0.10640705341E+02  0.45698793622E+02  0.31262630955E+02  0.56382235173E+02  0.51100000000E-03 0. -1.
         23    2    1    0    0    0 -0.14907113100E+02  0.20021148569E+02  0.12714165230E+02  0.97077174215E+02  0.92947616134E+02 0.  0.
         11    1    3    3    0    0 -0.25547818441E+02 -0.25677645054E+02 -0.18548465725E+02  0.40694939041E+02  0.51100000000E-03 0.  1.
         22    1    1    0    0    0  0.14907113100E+02 -0.20021148569E+02 -0.12714165230E+02  0.28012825785E+02  0.00000000000E+00 0. -1.
</event>
<event>
 5    1  0.1046082E-009  0.9118800E+02  0.7561462E-02  0.1125453E+00
         25   -1    0    0    0    0  0.00000000000E+00  0.00000000000E+00  0.99999998245E-14  0.12509000000E+03  0.12509000000E+03 0.  0.
        -11    1    3    3    0    0  0.10521247379E+02 -0.11488247958E+01  0.33523752986E+02  0.35154778613E+02  0.51100000000E-03 0.  1.
         23    2    1    0    0    0 -0.16006485008E+01  0.14772068246E+02 -0.24446883132E+02  0.96481851323E+02  0.92142940391E+02 0.  0.
         11    1    3    3    0    0 -0.12121895880E+02  0.15920893042E+02 -0.57970636118E+02  0.61327072710E+02  0.51100000000E-03 0. -1.
         22    1    1    0    0    0  0.16006485008E+01 -0.14772068246E+02  0.24446883132E+02  0.28608148677E+02  0.00000000000E+00 0. -1.
</event>
<event>
 5    1  0.1046082E-009  0.9118800E+02  0.7561462E-02  0.1125453E+00
         25   -1    0    0    0    0  0.00000000000E+00  0.00000000000E+00  0.99999998245E-14  0.12509000000E+03  0.12509000000E+03 0.  0.
        -11    1    3    3    0    0 -0.26129241380E+02  0.23112636317E+02  0.22315962075E+01  0.34955846928E+02  0.51100000000E-03 0.  1.
         23    2    1    0    0    0  0.21318035205E+02 -0.49978638246E+01 -0.20956212586E+02  0.94781583450E+02  0.89805058029E+02 0.  0.
         11    1    3    3    0    0  0.47447276584E+02 -0.28110500141E+02 -0.23187808794E+02  0.59825736522E+02  0.51100000000E-03 0. -1.
         22    1    1    0    0    0 -0.21318035205E+02  0.49978638246E+01  0.20956212586E+02  0.30308416550E+02  0.00000000000E+00 0. -1.
</event>
<event>
 5    1  0.1046082E-009  0.9118800E+02  0.7561462E-02  0.1125453E+00
         25   -1    0    0    0    0  0.00000000000E+00  0.00000000000E+00  0.99999998245E-14  0.12509000000E+03  0.12509000000E+03 0.  0.
        -11    1    3    3    0    0 -0.35820034984E+02  0.45628507193E+01  0.15577408031E+02  0.39326201879E+02  0.51100000000E-03 0.  1.
         23    2    1    0    0    0  0.16587910830E+02 -0.16247495079E+02  0.17914419826E+02  0.95763112682E+02  0.91161984571E+02 0.  0.
         11    1    3    3    0    0  0.52407945814E+02 -0.20810345798E+02  0.23370117948E+01  0.56436910804E+02  0.51100000000E-03 0. -1.
         22    1    1    0    0    0 -0.16587910830E+02  0.16247495079E+02 -0.17914419826E+02  0.29326887318E+02  0.00000000000E+00 0. -1.
</event>
<event>
 5    1  0.1046082E-009  0.9118800E+02  0.7561462E-02  0.1125453E+00
         25   -1    0    0    0    0  0.00000000000E+00  0.00000000000E+00  0.99999998245E-14  0.12509000000E+03  0.12509000000E+03 0.  0.
        -11    1    3    3    0    0  0.24599215871E+02 -0.29224709296E+02  0.66672446631E+01  0.38777019052E+02  0.51100000000E-03 0. -1.
         23    2    1    0    0    0 -0.22930597665E+02 -0.39656684583E+01 -0.15651112149E+02  0.97045461367E+02  0.92904926806E+02 0.  0.
         11    1    3    3    0    0 -0.47529813536E+02  0.25259040838E+02 -0.22318356812E+02  0.58268442316E+02  0.51100000000E-03 0.  1.
         22    1    1    0    0    0  0.22930597665E+02  0.39656684583E+01  0.15651112149E+02  0.28044538633E+02  0.00000000000E+00 0.  1.
</event>
<event>
 5    1  0.1046082E-009  0.9118800E+02  0.7561462E-02  0.1125453E+00
         25   -1    0    0    0    0  0.00000000000E+00  0.00000000000E+00  0.99999998245E-14  0.12509000000E+03  0.12509000000E+03 0.  0.
        -11    1    3    3    0    0  0.86888373466E+01  0.35271895266E+02 -0.26838278230E+02  0.45165204181E+02  0.51100000000E-03 0.  1.
         23    2    1    0    0    0  0.12548810530E+02  0.25591693646E+02  0.18119736036E+02  0.91315271824E+02  0.84839534445E+02 0.  0.
         11    1    3    3    0    0  0.38599731835E+01 -0.96802016207E+01  0.44958014266E+02  0.46150067643E+02  0.51100000000E-03 0. -1.
         22    1    1    0    0    0 -0.12548810530E+02 -0.25591693646E+02 -0.18119736036E+02  0.33774728176E+02  0.00000000000E+00 0. -1.
</event>
<event>
 5    1  0.1046082E-009  0.9118800E+02  0.7561462E-02  0.1125453E+00
         25   -1    0    0    0    0  0.00000000000E+00  0.00000000000E+00  0.99999998245E-14  0.12509000000E+03  0.12509000000E+03 0.  0.
        -11    1    3    3    0    0  0.14729848452E+02  0.32437877646E+02 -0.47004738732E+02  0.58979910183E+02  0.51100000000E-03 0.  1.
         23    2    1    0    0    0  0.21446400840E+02  0.12516289623E+02 -0.19984652777E+02  0.93215371194E+02  0.87596309655E+02 0.  0.
         11    1    3    3    0    0  0.67165523882E+01 -0.19921588024E+02  0.27020085955E+02  0.34235461011E+02  0.51100000000E-03 0. -1.
         22    1    1    0    0    0 -0.21446400840E+02 -0.12516289623E+02  0.19984652777E+02  0.31874628806E+02  0.00000000000E+00 0.  1.
</event>
<event>
 5    1  0.1046082E-009  0.9118800E+02  0.7561462E-02  0.1125453E+00
         25   -1    0    0    0    0  0.00000000000E+00  0.00000000000E+00  0.99999998245E-14  0.12509000000E+03  0.12509000000E+03 0.  0.
        -11    1    3    3    0    0  0.28205342274E+02 -0.36997792492E+02  0.40201332474E+01  0.46696246677E+02  0.51100000000E-03 0.  1.
         23    2    1    0    0    0  0.83262617609E+01  0.15325455070E+01  0.27719103208E+02  0.96106832241E+02  0.91632413425E+02 0.  0.
         11    1    3    3    0    0 -0.19879080513E+02  0.38530337999E+02  0.23698969961E+02  0.49410585565E+02  0.51100000000E-03 0. -1.
         22    1    1    0    0    0 -0.83262617609E+01 -0.15325455070E+01 -0.27719103208E+02  0.28983167759E+02  0.00000000000E+00 0. -1.
</event>
<event>
 5    1  0.1046082E-009  0.9118800E+02  0.7561462E-02  0.1125453E+00
         25   -1    0    0    0    0  0.00000000000E+00  0.00000000000E+00  0.99999998245E-14  0.12509000000E+03  0.12509000000E+03 0.  0.
        -11    1    3    3    0    0  0.53632412058E+02 -0.27500932661E+02 -0.12365969712E+02  0.61527669609E+02  0.51100000000E-03 0. -1.
         23    2    1    0    0    0  0.20438244650E+02 -0.18749983928E+02 -0.85429406352E+01  0.96068187921E+02  0.91579643776E+02 0.  0.
         11    1    3    3    0    0 -0.33194167408E+02  0.87509487329E+01  0.38230290763E+01  0.34540518312E+02  0.51100000000E-03 0.  1.
         22    1    1    0    0    0 -0.20438244650E+02  0.18749983928E+02  0.85429406352E+01  0.29021812079E+02  0.00000000000E+00 0. -1.
</event>
<event>
 5    1  0.1046082E-009  0.9118800E+02  0.7561462E-02  0.1125453E+00
         25   -1    0    0    0    0  0.00000000000E+00  0.00000000000E+00  0.99999998245E-14  0.12509000000E+03  0.12509000000E+03 0.  0.
        -11    1    3    3    0    0 -0.86663931588E+01  0.31677150185E+02 -0.10111041971E+02  0.34362499679E+02  0.51100000000E-03 0. -1.
         23    2    1    0    0    0 -0.21588063638E+01 -0.14044376600E+02  0.27640290146E+02  0.94011219484E+02  0.88725525022E+02 0.  0.
         11    1    3    3    0    0  0.65075867951E+01 -0.45721526785E+02  0.37751332117E+02  0.59648719805E+02  0.51100000000E-03 0.  1.
         22    1    1    0    0    0  0.21588063638E+01  0.14044376600E+02 -0.27640290146E+02  0.31078780516E+02  0.00000000000E+00 0.  1.
</event>
<event>
 5    1  0.1046082E-009  0.9118800E+02  0.7561462E-02  0.1125453E+00
         25   -1    0    0    0    0  0.00000000000E+00  0.00000000000E+00  0.99999998245E-14  0.12509000000E+03  0.12509000000E+03 0.  0.
        -11    1    3    3    0    0  0.35209546187E+02  0.25595495069E+02  0.14664547221E+02  0.45933543908E+02  0.51100000000E-03 0. -1.
         23    2    1    0    0    0 -0.12691228449E+02  0.25678346820E+02 -0.12789384331E+01  0.96418054505E+02  0.92056291344E+02 0.  0.
         11    1    3    3    0    0 -0.47900774636E+02  0.82851751301E-01 -0.15943485654E+02  0.50484510597E+02  0.51100000000E-03 0.  1.
         22    1    1    0    0    0  0.12691228449E+02 -0.25678346820E+02  0.12789384331E+01  0.28671945495E+02  0.00000000000E+00 0.  1.
</event>
<event>
 5    1  0.1046082E-009  0.9118800E+02  0.7561462E-02  0.1125453E+00
         25   -1    0    0    0    0  0.00000000000E+00  0.00000000000E+00  0.99999998245E-14  0.12509000000E+03  0.12509000000E+03 0.  0.
        -11    1    3    3    0    0  0.32519481763E+02 -0.36121843795E+01 -0.12799858837E+02  0.35134042702E+02  0.51100000000E-03 0.  1.
         23    2    1    0    0    0 -0.15935698816E+02 -0.92150732866E+01  0.22993319045E+02  0.95635682946E+02  0.90986960931E+02 0.  0.
         11    1    3    3    0    0 -0.48455180579E+02 -0.56028889071E+01  0.35793177881E+02  0.60501640243E+02  0.51100000000E-03 0. -1.
         22    1    1    0    0    0  0.15935698816E+02  0.92150732866E+01 -0.22993319045E+02  0.29454317054E+02  0.00000000000E+00 0. -1.
</event>
<event>
 5    1  0.1046082E-009  0.9118800E+02  0.7561462E-02  0.1125453E+00
         25   -1    0    0    0    0  0.00000000000E+00  0.00000000000E+00  0.99999998245E-14  0.12509000000E+03  0.12509000000E+03 0.  0.
        -11    1    3    3    0    0 -0.54416419957E+02 -0.56611350490E+01 -0.19986138951E+02  0.58246381531E+02  0.51100000000E-03 0.  1.
         23    2    1    0    0    0 -0.20665471970E+02 -0.18176600248E+02 -0.56418738821E+01  0.96995849911E+02  0.92838104412E+02 0.  0.
         11    1    3    3    0    0  0.33750947987E+02 -0.12515465199E+02  0.14344265069E+02  0.38749468381E+02  0.51100000000E-03 0. -1.
         22    1    1    0    0    0  0.20665471970E+02  0.18176600248E+02  0.56418738821E+01  0.28094150089E+02  0.00000000000E+00 0.  1.
</event>
<event>
 5    1  0.1046082E-009  0.9118800E+02  0.7561462E-02  0.1125453E+00
         25   -1    0    0    0    0  0.00000000000E+00  0.00000000000E+00  0.99999998245E-14  0.12509000000E+03  0.12509000000E+03 0.  0.
        -11    1    3    3    0    0  0.29104573493E+02 -0.22979851393E+02 -0.65850513861E+01  0.37663147376E+02  0.51100000000E-03 0.  1.
         23    2    1    0    0    0 -0.70171502095E+01  0.54850580507E+01  0.28322435328E+02  0.95400159957E+02  0.90662582789E+02 0.  0.
         11    1    3    3    0    0 -0.36121723702E+02  0.28464909443E+02  0.34907486714E+02  0.57737012581E+02  0.51100000000E-03 0. -1.
         22    1    1    0    0    0  0.70171502095E+01 -0.54850580507E+01 -0.28322435328E+02  0.29689840043E+02  0.00000000000E+00 0. -1.
</event>
<event>
 5    1  0.1046082E-009  0.9118800E+02  0.7561462E-02  0.1125453E+00
         25   -1    0    0    0    0  0.00000000000E+00  0.00000000000E+00  0.99999998245E-14  0.12509000000E+03  0.12509000000E+03 0.  0.
        -11    1    3    3    0    0  0.11996962152E+02 -0.29296827406E+02 -0.53374675637E+02  0.62057128491E+02  0.51100000000E-03 0. -1.
         23    2    1    0    0    0  0.10779955270E+02 -0.11845147770E+02 -0.26605546589E+02  0.94035691593E+02  0.88760020407E+02 0.  0.
         11    1    3    3    0    0 -0.12170068814E+01  0.17451679636E+02  0.26769129047E+02  0.31978563102E+02  0.51100000000E-03 0.  1.
         22    1    1    0    0    0 -0.10779955270E+02  0.11845147770E+02  0.26605546589E+02  0.31054308407E+02  0.00000000000E+00 0. -1.
</event>
<event>
 5    1  0.1046082E-009  0.9118800E+02  0.7561462E-02  0.1125453E+00
         25   -1    0    0    0    0  0.00000000000E+00  0.00000000000E+00  0.99999998245E-14  0.12509000000E+03  0.12509000000E+03 0.  0.
        -11    1    3    3    0    0 -0.29959644430E+02  0.45594318314E+01  0.19609835887E+02  0.36095905263E+02  0.51100000000E-03 0.  1.
         23    2    1    0    0    0  0.98279105067E+01 -0.17288393111E+02 -0.20398046517E+02  0.96602166404E+02  0.92306131383E+02 0.  0.
         11    1    3    3    0    0  0.39787554937E+02 -0.21847824942E+02 -0.40007882404E+02  0.60506261141E+02  0.51100000000E-03 0. -1.
         22    1    1    0    0    0 -0.98279105067E+01  0.17288393111E+02  0.20398046517E+02  0.28487833596E+02  0.00000000000E+00 0. -1.
</event>
<event>
 5    1  0.1046082E-009  0.9118800E+02  0.7561462E-02  0.1125453E+00
         25   -1    0    0    0    0  0.00000000000E+00  0.00000000000E+00  0.99999998245E-14  0.12509000000E+03  0.12509000000E+03 0.  0.
        -11    1    3    3    0    0  0.37197489331E+02  0.17525507305E+02 -0.20057254141E+02  0.45750301232E+02  0.51100000000E-03 0.  1.
         23    2    1    0    0    0  0.16736853399E+02 -0.23936342113E+02 -0.70046286165E+00  0.95874227143E+02  0.91314325528E+02 0.  0.
         11    1    3    3    0    0 -0.20460635932E+02 -0.41461849417E+02  0.19356791280E+02  0.50123925911E+02  0.51100000000E-03 0. -1.
         22    1    1    0    0    0 -0.16736853399E+02  0.23936342113E+02  0.70046286165E+00  0.29215772857E+02  0.00000000000E+00 0. -1.
</event>
<event>
 5    1  0.1046082E-009  0.9118800E+02  0.7561462E-02  0.1125453E+00
         25   -1    0    0    0    0  0.00000000000E+00  0.00000000000E+00  0.99999998245E-14  0.12509000000E+03  0.12509000000E+03 0.  0.
        -11    1    3    3    0    0 -0.11972848396E+02 -0.54147440728E+02  0.20387072828E+02  0.59084068706E+02  0.51100000000E-03 0.  1.
         23    2    1    0    0    0  0.63860068127E+00 -0.28436455994E+02 -0.35729166227E+01  0.96422848528E+02  0.92062805435E+02 0.  0.
         11    1    3    3    0    0  0.12611449077E+02  0.25710984734E+02 -0.23959989451E+02  0.37338779821E+02  0.51100000000E-03 0. -1.
         22    1    1    0    0    0 -0.63860068127E+00  0.28436455994E+02  0.35729166227E+01  0.28667151472E+02  0.00000000000E+00 0.  1.
</event>
<event>
 5    1  0.1046082E-009  0.9118800E+02  0.7561462E-02  0.1125453E+00
         25   -1    0    0    0    0  0.00000000000E+00  0.00000000000E+00  0.99999998245E-14  0.12509000000E+03  0.12509000000E+03 0.  0.
        -11    1    3    3    0    0 -0.55769754488E+01  0.40925174959E+02  0.15387356169E+02  0.44076562147E+02  0.51100000000E-03 0. -1.
         23    2    1    0    0    0 -0.26957095473E+02  0.35125628932E+01 -0.12253940380E+02  0.95270842579E+02  0.90483983646E+02 0.  0.
         11    1    3    3    0    0 -0.21380120024E+02 -0.37412612065E+02 -0.27641296550E+02  0.51194280433E+02  0.51100000000E-03 0.  1.
         22    1    1    0    0    0  0.26957095473E+02 -0.35125628932E+01  0.12253940380E+02  0.29819157421E+02  0.00000000000E+00 0.  1.
</event>
<event>
 5    1  0.1046082E-009  0.9118800E+02  0.7561462E-02  0.1125453E+00
         25   -1    0    0    0    0  0.00000000000E+00  0.00000000000E+00  0.99999998245E-14  0.12509000000E+03  0.12509000000E+03 0.  0.
        -11    1    3    3    0    0  0.15965179832E+02 -0.30371313572E+02 -0.94127250900E+01  0.35579531321E+02  0.51100000000E-03 0.  1.
         23    2    1    0    0    0  0.66852570712E+01  0.27626199298E+02  0.54097158611E+01  0.96156203577E+02  0.91699786864E+02 0.  0.
         11    1    3    3    0    0 -0.92799227609E+01  0.57997512870E+02  0.14822440951E+02  0.60576672256E+02  0.51100000000E-03 0. -1.
         22    1    1    0    0    0 -0.66852570712E+01 -0.27626199298E+02 -0.54097158611E+01  0.28933796423E+02  0.00000000000E+00 0. -1.
</event>
<event>
 5    1  0.1046082E-009  0.9118800E+02  0.7561462E-02  0.1125453E+00
         25   -1    0    0    0    0  0.00000000000E+00  0.00000000000E+00  0.99999998245E-14  0.12509000000E+03  0.12509000000E+03 0.  0.
        -11    1    3    3    0    0  0.26227020884E+02 -0.29348475181E+02 -0.38614953136E+02  0.55138953797E+02  0.51100000000E-03 0.  1.
         23    2    1    0    0    0  0.10703710142E+02 -0.27049302108E+02 -0.90271286081E+00  0.95985892973E+02  0.91467166809E+02 0.  0.
         11    1    3    3    0    0 -0.15523310742E+02  0.22991730736E+01  0.37712240275E+02  0.40846939176E+02  0.51100000000E-03 0. -1.
         22    1    1    0    0    0 -0.10703710142E+02  0.27049302108E+02  0.90271286081E+00  0.29104107027E+02  0.00000000000E+00 0. -1.
</event>
<event>
 5    1  0.1046082E-009  0.9118800E+02  0.7561462E-02  0.1125453E+00
         25   -1    0    0    0    0  0.00000000000E+00  0.00000000000E+00  0.99999998245E-14  0.12509000000E+03  0.12509000000E+03 0.  0.
        -11    1    3    3    0    0  0.57924479326E+01  0.39490225462E+02  0.20373443183E+02  0.44811913008E+02  0.51100000000E-03 0.  1.
         23    2    1    0    0    0  0.21737881395E+02 -0.70780789658E+01  0.21013109879E+02  0.94038663859E+02  0.88764209139E+02 0.  0.
         11    1    3    3    0    0  0.15945433462E+02 -0.46568304427E+02  0.63966669655E+00  0.49226750850E+02  0.51100000000E-03 0. -1.
         22    1    1    0    0    0 -0.21737881395E+02  0.70780789658E+01 -0.21013109879E+02  0.31051336141E+02  0.00000000000E+00 0. -1.
</event>
<event>
 5    1  0.1046082E-009  0.9118800E+02  0.7561462E-02  0.1125453E+00
         25   -1    0    0    0    0  0.00000000000E+00  0.00000000000E+00  0.99999998245E-14  0.12509000000E+03  0.12509000000E+03 0.  0.
        -11    1    3    3    0    0  0.47812726508E+02  0.17413632434E+01  0.29224791880E+02  0.56064049290E+02  0.51100000000E-03 0. -1.
         23    2    1    0    0    0  0.11929671902E+02 -0.13986132405E+02  0.22859161444E+02  0.95756227088E+02  0.91152535856E+02 0.  0.
         11    1    3    3    0    0 -0.35883054607E+02 -0.15727495648E+02 -0.63656304359E+01  0.39692177798E+02  0.51100000000E-03 0.  1.
         22    1    1    0    0    0 -0.11929671902E+02  0.13986132405E+02 -0.22859161444E+02  0.29333772912E+02  0.00000000000E+00 0. -1.
</event>
<event>
 5    1  0.1046082E-009  0.9118800E+02  0.7561462E-02  0.1125453E+00
         25   -1    0    0    0    0  0.00000000000E+00  0.00000000000E+00  0.99999998245E-14  0.12509000000E+03  0.12509000000E+03 0.  0.
        -11    1    3    3    0    0  0.41036589313E+02  0.24458302048E+01 -0.88230917606E+01  0.42045578797E+02  0.51100000000E-03 0. -1.
         23    2    1    0    0    0 -0.11033011253E+02 -0.92129400855E+01 -0.23639703599E+02  0.97423392174E+02  0.93412398290E+02 0.  0.
         11    1    3    3    0    0 -0.52069600567E+02 -0.11658770290E+02 -0.14816611838E+02  0.55377813378E+02  0.51100000000E-03 0.  1.
         22    1    1    0    0    0  0.11033011253E+02  0.92129400855E+01  0.23639703599E+02  0.27666607826E+02  0.00000000000E+00 0.  1.
</event>
<event>
 5    1  0.1046082E-009  0.9118800E+02  0.7561462E-02  0.1125453E+00
         25   -1    0    0    0    0  0.00000000000E+00  0.00000000000E+00  0.99999998245E-14  0.12509000000E+03  0.12509000000E+03 0.  0.
        -11    1    3    3    0    0  0.15219113373E+02  0.31767964189E+02  0.34942011415E+02  0.49616218342E+02  0.51100000000E-03 0.  1.
         23    2    1    0    0    0 -0.19432944690E+02  0.47275773068E+01  0.21828678757E+02  0.95484585921E+02  0.90778993196E+02 0.  0.
         11    1    3    3    0    0 -0.34652058062E+02 -0.27040386882E+02 -0.13113332658E+02  0.45868367579E+02  0.51100000000E-03 0. -1.
         22    1    1    0    0    0  0.19432944690E+02 -0.47275773068E+01 -0.21828678757E+02  0.29605414079E+02  0.00000000000E+00 0.  1.
</event>
<event>
 5    1  0.1046082E-009  0.9118800E+02  0.7561462E-02  0.1125453E+00
         25   -1    0    0    0    0  0.00000000000E+00  0.00000000000E+00  0.99999998245E-14  0.12509000000E+03  0.12509000000E+03 0.  0.
        -11    1    3    3    0    0  0.17278623800E+02 -0.58786974566E+01  0.28952256091E+02  0.34224889441E+02  0.51100000000E-03 0.  1.
         23    2    1    0    0    0 -0.22175535043E+02 -0.16256061543E+01 -0.18558307669E+02  0.96127822366E+02  0.91661063159E+02 0.  0.
         11    1    3    3    0    0 -0.39454158843E+02  0.42530913023E+01 -0.47510563760E+02  0.61902932925E+02  0.51100000000E-03 0. -1.
         22    1    1    0    0    0  0.22175535043E+02  0.16256061543E+01  0.18558307669E+02  0.28962177634E+02  0.00000000000E+00 0. -1.
</event>
<event>
 5    1  0.1046082E-009  0.9118800E+02  0.7561462E-02  0.1125453E+00
         25   -1    0    0    0    0  0.00000000000E+00  0.00000000000E+00  0.99999998245E-14  0.12509000000E+03  0.12509000000E+03 0.  0.
        -11    1    3    3    0    0 -0.16286671437E+02 -0.48388861019E+01  0.42396989625E+02  0.45674667101E+02  0.51100000000E-03 0. -1.
         23    2    1    0    0    0 -0.29310720243E+02  0.11156764918E+01 -0.51304425868E+01  0.95312752035E+02  0.90541903029E+02 0.  0.
         11    1    3    3    0    0 -0.13024048806E+02  0.59545625937E+01 -0.47527432212E+02  0.49638084934E+02  0.51100000000E-03 0.  1.
         22    1    1    0    0    0  0.29310720243E+02 -0.11156764918E+01  0.51304425868E+01  0.29777247965E+02  0.00000000000E+00 0. -1.
</event>
<event>
 5    1  0.1046082E-009  0.9118800E+02  0.7561462E-02  0.1125453E+00
         25   -1    0    0    0    0  0.00000000000E+00  0.00000000000E+00  0.99999998245E-14  0.12509000000E+03  0.12509000000E+03 0.  0.
        -11    1    3    3    0    0 -0.26401870597E+01 -0.70623988823E+01 -0.37615599664E+02  0.38363803305E+02  0.51100000000E-03 0.  1.
         23    2    1    0    0    0 -0.18469799702E+02  0.20800380918E+02  0.98037894065E+01  0.95595871193E+02  0.90932210767E+02 0.  0.
         11    1    3    3    0    0 -0.15829612642E+02  0.27862779801E+02  0.47419389070E+02  0.57232067888E+02  0.51100000000E-03 0. -1.
         22    1    1    0    0    0  0.18469799702E+02 -0.20800380918E+02 -0.98037894065E+01  0.29494128807E+02  0.00000000000E+00 0. -1.
</event>
<event>
 5    1  0.1046082E-009  0.9118800E+02  0.7561462E-02  0.1125453E+00
         25   -1    0    0    0    0  0.00000000000E+00  0.00000000000E+00  0.99999998245E-14  0.12509000000E+03  0.12509000000E+03 0.  0.
        -11    1    3    3    0    0 -0.18069874661E+02  0.53792919341E+02  0.10394646219E+02  0.57690962999E+02  0.51100000000E-03 0.  1.
         23    2    1    0    0    0 -0.14131762648E+02  0.16458213886E+02  0.19052578493E+02  0.96218209839E+02  0.91784332201E+02 0.  0.
         11    1    3    3    0    0  0.39381120123E+01 -0.37334705454E+02  0.86579322735E+01  0.38527246840E+02  0.51100000000E-03 0. -1.
         22    1    1    0    0    0  0.14131762648E+02 -0.16458213886E+02 -0.19052578493E+02  0.28871790161E+02  0.00000000000E+00 0.  1.
</event>
<event>
 5    1  0.1046082E-009  0.9118800E+02  0.7561462E-02  0.1125453E+00
         25   -1    0    0    0    0  0.00000000000E+00  0.00000000000E+00  0.99999998245E-14  0.12509000000E+03  0.12509000000E+03 0.  0.
        -11    1    3    3    0    0 -0.25490604028E+02  0.40001189090E+02 -0.20669791428E+02  0.51740760530E+02  0.51100000000E-03 0. -1.
         23    2    1    0    0    0 -0.47446384977E+01  0.21957728189E+02  0.15954045462E+02  0.97536688252E+02  0.93563991828E+02 0.  0.
         11    1    3    3    0    0  0.20745965531E+02 -0.18043460900E+02  0.36623836890E+02  0.45795927721E+02  0.51100000000E-03 0.  1.
         22    1    1    0    0    0  0.47446384977E+01 -0.21957728189E+02 -0.15954045462E+02  0.27553311748E+02  0.00000000000E+00 0. -1.
</event>
<event>
 5    1  0.1046082E-009  0.9118800E+02  0.7561462E-02  0.1125453E+00
         25   -1    0    0    0    0  0.00000000000E+00  0.00000000000E+00  0.99999998245E-14  0.12509000000E+03  0.12509000000E+03 0.  0.
        -11    1    3    3    0    0 -0.32790992493E+02  0.43554758589E+02 -0.28794745110E+02  0.61655523115E+02  0.51100000000E-03 0. -1.
         23    2    1    0    0    0 -0.19888929443E+02  0.15398059234E+02 -0.91900038396E+01  0.98310793269E+02  0.94593266991E+02 0.  0.
         11    1    3    3    0    0  0.12902063050E+02 -0.28156699355E+02  0.19604741271E+02  0.36655270154E+02  0.51100000000E-03 0.  1.
         22    1    1    0    0    0  0.19888929443E+02 -0.15398059234E+02  0.91900038396E+01  0.26779206731E+02  0.00000000000E+00 0. -1.
</event>
<event>
 5    1  0.1046082E-009  0.9118800E+02  0.7561462E-02  0.1125453E+00
         25   -1    0    0    0    0  0.00000000000E+00  0.00000000000E+00  0.99999998245E-14  0.12509000000E+03  0.12509000000E+03 0.  0.
        -11    1    3    3    0    0  0.18109945705E+02 -0.10686193081E+01 -0.27794293108E+02  0.33190884446E+02  0.51100000000E-03 0.  1.
         23    2    1    0    0    0 -0.11962786628E+02 -0.19253528936E+02  0.21578539988E+02  0.93793993411E+02  0.88418737673E+02 0.  0.
         11    1    3    3    0    0 -0.30072732333E+02 -0.18184909628E+02  0.49372833096E+02  0.60603108966E+02  0.51100000000E-03 0. -1.
         22    1    1    0    0    0  0.11962786628E+02  0.19253528936E+02 -0.21578539988E+02  0.31296006589E+02  0.00000000000E+00 0. -1.
</event>
<event>
 5    1  0.1046082E-009  0.9118800E+02  0.7561462E-02  0.1125453E+00
         25   -1    0    0    0    0  0.00000000000E+00  0.00000000000E+00  0.99999998245E-14  0.12509000000E+03  0.12509000000E+03 0.  0.
        -11    1    3    3    0    0  0.22048549435E+02 -0.29247652302E+02  0.20251989852E+02  0.41853396405E+02  0.51100000000E-03 0. -1.
         23    2    1    0    0    0  0.21479035028E+02  0.20090063020E+02 -0.11984370177E+01  0.95655397418E+02  0.91014060595E+02 0.  0.
         11    1    3    3    0    0 -0.56951440615E+00  0.49337715322E+02 -0.21450426870E+02  0.53802001013E+02  0.51100000000E-03 0.  1.
         22    1    1    0    0    0 -0.21479035028E+02 -0.20090063020E+02  0.11984370177E+01  0.29434602582E+02  0.00000000000E+00 0.  1.
</event>
<event>
 5    1  0.1046082E-009  0.9118800E+02  0.7561462E-02  0.1125453E+00
         25   -1    0    0    0    0  0.00000000000E+00  0.00000000000E+00  0.99999998245E-14  0.12509000000E+03  0.12509000000E+03 0.  0.
        -11    1    3    3    0    0  0.21080407734E+02  0.43988683890E+02 -0.22853054121E+02  0.53866965606E+02  0.51100000000E-03 0. -1.
         23    2    1    0    0    0 -0.11184164995E+02  0.27769135565E+02 -0.31940021024E+01  0.94983321570E+02  0.90085621995E+02 0.  0.
         11    1    3    3    0    0 -0.32264572728E+02 -0.16219548325E+02  0.19659052019E+02  0.41116355964E+02  0.51100000000E-03 0.  1.
         22    1    1    0    0    0  0.11184164995E+02 -0.27769135565E+02  0.31940021024E+01  0.30106678430E+02  0.00000000000E+00 0. -1.
</event>
<event>
 5    1  0.1046082E-009  0.9118800E+02  0.7561462E-02  0.1125453E+00
         25   -1    0    0    0    0  0.00000000000E+00  0.00000000000E+00  0.99999998245E-14  0.12509000000E+03  0.12509000000E+03 0.  0.
        -11    1    3    3    0    0 -0.49711211350E+00  0.10235598122E+02  0.57966076949E+02  0.58864935798E+02  0.51100000000E-03 0.  1.
         23    2    1    0    0    0 -0.10903733569E+02 -0.60335532587E+01  0.26880957545E+02  0.95460942485E+02  0.90746407593E+02 0.  0.
         11    1    3    3    0    0 -0.10406621456E+02 -0.16269151381E+02 -0.31085119405E+02  0.36596006687E+02  0.51100000000E-03 0. -1.
         22    1    1    0    0    0  0.10903733569E+02  0.60335532587E+01 -0.26880957545E+02  0.29629057515E+02  0.00000000000E+00 0.  1.
</event>
<event>
 5    1  0.1046082E-009  0.9118800E+02  0.7561462E-02  0.1125453E+00
         25   -1    0    0    0    0  0.00000000000E+00  0.00000000000E+00  0.99999998245E-14  0.12509000000E+03  0.12509000000E+03 0.  0.
        -11    1    3    3    0    0 -0.42075803291E+02  0.40571770566E+02  0.19168193657E+02  0.61513099725E+02  0.51100000000E-03 0. -1.
         23    2    1    0    0    0 -0.17747517927E+02  0.15297096798E+02  0.15959966216E+02  0.96740465883E+02  0.92493360057E+02 0.  0.
         11    1    3    3    0    0  0.24328285364E+02 -0.25274673769E+02 -0.32082274412E+01  0.35227366158E+02  0.51100000000E-03 0.  1.
         22    1    1    0    0    0  0.17747517927E+02 -0.15297096798E+02 -0.15959966216E+02  0.28349534117E+02  0.00000000000E+00 0. -1.
</event>
<event>
 5    1  0.1046082E-009  0.9118800E+02  0.7561462E-02  0.1125453E+00
         25   -1    0    0    0    0  0.00000000000E+00  0.00000000000E+00  0.99999998245E-14  0.12509000000E+03  0.12509000000E+03 0.  0.
        -11    1    3    3    0    0  0.10097436525E+02  0.20808121922E+02  0.36348254494E+02  0.43082847717E+02  0.51100000000E-03 0.  1.
         23    2    1    0    0    0  0.27449814064E+02  0.69093126929E+01 -0.10468376060E+02  0.94910242026E+02  0.89984088872E+02 0.  0.
         11    1    3    3    0    0  0.17352377538E+02 -0.13898809229E+02 -0.46816630554E+02  0.51827394310E+02  0.51100000000E-03 0. -1.
         22    1    1    0    0    0 -0.27449814064E+02 -0.69093126929E+01  0.10468376060E+02  0.30179757974E+02  0.00000000000E+00 0. -1.
</event>
<event>
 5    1  0.1046082E-009  0.9118800E+02  0.7561462E-02  0.1125453E+00
         25   -1    0    0    0    0  0.00000000000E+00  0.00000000000E+00  0.99999998245E-14  0.12509000000E+03  0.12509000000E+03 0.  0.
        -11    1    3    3    0    0  0.28756936813E+01 -0.36831731561E+02  0.16857818898E+02  0.40608276523E+02  0.51100000000E-03 0.  1.
         23    2    1    0    0    0 -0.22972214613E+01  0.22257848864E+02  0.10834450556E+02  0.10022889823E+03  0.97096640820E+02 0.  0.
         11    1    3    3    0    0 -0.51729151426E+01  0.59089580425E+02 -0.60233683414E+01  0.59620621704E+02  0.51100000000E-03 0. -1.
         22    1    1    0    0    0  0.22972214613E+01 -0.22257848864E+02 -0.10834450556E+02  0.24861101773E+02  0.00000000000E+00 0. -1.
</event>
<event>
 5    1  0.1046082E-009  0.9118800E+02  0.7561462E-02  0.1125453E+00
         25   -1    0    0    0    0  0.00000000000E+00  0.00000000000E+00  0.99999998245E-14  0.12509000000E+03  0.12509000000E+03 0.  0.
        -11    1    3    3    0    0  0.43604700955E+02 -0.13856798739E+02  0.30805849226E+01  0.45857069470E+02  0.51100000000E-03 0. -1.
         23    2    1    0    0    0  0.15200284182E+01 -0.17564471202E+02 -0.23455695225E+02  0.95747355718E+02  0.91140360727E+02 0.  0.
         11    1    3    3    0    0 -0.42084672537E+02 -0.37076724625E+01 -0.26536280147E+02  0.49890286248E+02  0.51100000000E-03 0.  1.
         22    1    1    0    0    0 -0.15200284182E+01  0.17564471202E+02  0.23455695225E+02  0.29342644282E+02  0.00000000000E+00 0.  1.
</event>
<event>
 5    1  0.1046082E-009  0.9118800E+02  0.7561462E-02  0.1125453E+00
         25   -1    0    0    0    0  0.00000000000E+00  0.00000000000E+00  0.99999998245E-14  0.12509000000E+03  0.12509000000E+03 0.  0.
        -11    1    3    3    0    0 -0.34297884656E+02 -0.21863514861E+02  0.34533318861E+02  0.53356426846E+02  0.51100000000E-03 0. -1.
         23    2    1    0    0    0 -0.14936287496E+00 -0.14328822550E+01  0.31814585650E+02  0.93242812982E+02  0.87635488542E+02 0.  0.
         11    1    3    3    0    0  0.34148521781E+02  0.20430632606E+02 -0.27187332101E+01  0.39886386137E+02  0.51100000000E-03 0.  1.
         22    1    1    0    0    0  0.14936287496E+00  0.14328822550E+01 -0.31814585650E+02  0.31847187018E+02  0.00000000000E+00 0.  1.
</event>
<event>
 5    1  0.1046082E-009  0.9118800E+02  0.7561462E-02  0.1125453E+00
         25   -1    0    0    0    0  0.00000000000E+00  0.00000000000E+00  0.99999998245E-14  0.12509000000E+03  0.12509000000E+03 0.  0.
        -11    1    3    3    0    0 -0.15148701610E+02 -0.22406321973E+02 -0.42356656607E+02  0.50255475164E+02  0.51100000000E-03 0. -1.
         23    2    1    0    0    0 -0.48787721096E+01  0.17369809051E+02 -0.23515560311E+02  0.95450596151E+02  0.90732144498E+02 0.  0.
         11    1    3    3    0    0  0.10269929500E+02  0.39776131024E+02  0.18841096296E+02  0.45195120987E+02  0.51100000000E-03 0.  1.
         22    1    1    0    0    0  0.48787721096E+01 -0.17369809051E+02  0.23515560311E+02  0.29639403849E+02  0.00000000000E+00 0. -1.
</event>
<event>
 5    1  0.1046082E-009  0.9118800E+02  0.7561462E-02  0.1125453E+00
         25   -1    0    0    0    0  0.00000000000E+00  0.00000000000E+00  0.99999998245E-14  0.12509000000E+03  0.12509000000E+03 0.  0.
        -11    1    3    3    0    0 -0.19681904789E+01 -0.81621877986E+01  0.52813190927E+02  0.53476426765E+02  0.51100000000E-03 0. -1.
         23    2    1    0    0    0  0.14518301018E+02 -0.19892757295E+02  0.15304499413E+02  0.96094645897E+02  0.91615775992E+02 0.  0.
         11    1    3    3    0    0  0.16486491497E+02 -0.11730569497E+02 -0.37508691514E+02  0.42618219132E+02  0.51100000000E-03 0.  1.
         22    1    1    0    0    0 -0.14518301018E+02  0.19892757295E+02 -0.15304499413E+02  0.28995354103E+02  0.00000000000E+00 0. -1.
</event>
<event>
 5    1  0.1046082E-009  0.9118800E+02  0.7561462E-02  0.1125453E+00
         25   -1    0    0    0    0  0.00000000000E+00  0.00000000000E+00  0.99999998245E-14  0.12509000000E+03  0.12509000000E+03 0.  0.
        -11    1    3    3    0    0  0.31398999299E+02  0.11082654422E+02  0.22725623547E+02  0.40313476058E+02  0.51100000000E-03 0.  1.
         23    2    1    0    0    0 -0.17635279367E+02 -0.14401639258E+02  0.18530457974E+02  0.95733771285E+02  0.91121714207E+02 0.  0.
         11    1    3    3    0    0 -0.49034278665E+02 -0.25484293680E+02 -0.41951655737E+01  0.55420295227E+02  0.51100000000E-03 0. -1.
         22    1    1    0    0    0  0.17635279367E+02  0.14401639258E+02 -0.18530457974E+02  0.29356228715E+02  0.00000000000E+00 0. -1.
</event>
<event>
 5    1  0.1046082E-009  0.9118800E+02  0.7561462E-02  0.1125453E+00
         25   -1    0    0    0    0  0.00000000000E+00  0.00000000000E+00  0.99999998245E-14  0.12509000000E+03  0.12509000000E+03 0.  0.
        -11    1    3    3    0    0  0.31058861871E+02  0.33882150348E+02 -0.30707625041E+02  0.55277583601E+02  0.51100000000E-03 0.  1.
         23    2    1    0    0    0  0.27549938013E+02  0.53744142576E+01 -0.42193994478E+00  0.97017567856E+02  0.92867362546E+02 0.  0.
         11    1    3    3    0    0 -0.35089238575E+01 -0.28507736090E+02  0.30285685096E+02  0.41739984255E+02  0.51100000000E-03 0. -1.
         22    1    1    0    0    0 -0.27549938013E+02 -0.53744142576E+01  0.42193994478E+00  0.28072432144E+02  0.00000000000E+00 0.  1.
</event>
<event>
 5    1  0.1046082E-009  0.9118800E+02  0.7561462E-02  0.1125453E+00
         25   -1    0    0    0    0  0.00000000000E+00  0.00000000000E+00  0.99999998245E-14  0.12509000000E+03  0.12509000000E+03 0.  0.
        -11    1    3    3    0    0 -0.17130976717E+02  0.21729789207E+02 -0.54668568518E+02  0.61272395794E+02  0.51100000000E-03 0. -1.
         23    2    1    0    0    0 -0.86363762627E-01  0.14247110762E+02 -0.25663787841E+02  0.95736675996E+02  0.91125701647E+02 0.  0.
         11    1    3    3    0    0  0.17044612954E+02 -0.74826784456E+01  0.29004780677E+02  0.34464280202E+02  0.51100000000E-03 0.  1.
         22    1    1    0    0    0  0.86363762627E-01 -0.14247110762E+02  0.25663787841E+02  0.29353324004E+02  0.00000000000E+00 0. -1.
</event>
<event>
 5    1  0.1046082E-009  0.9118800E+02  0.7561462E-02  0.1125453E+00
         25   -1    0    0    0    0  0.00000000000E+00  0.00000000000E+00  0.99999998245E-14  0.12509000000E+03  0.12509000000E+03 0.  0.
        -11    1    3    3    0    0  0.10540888903E+02 -0.81376138322E+01 -0.32104040581E+02  0.34756301870E+02  0.51100000000E-03 0. -1.
         23    2    1    0    0    0 -0.18742634572E+01 -0.22635870348E+01  0.28267338744E+02  0.96670303847E+02  0.92398422695E+02 0.  0.
         11    1    3    3    0    0 -0.12415152360E+02  0.58740267974E+01  0.60371379325E+02  0.61914001977E+02  0.51100000000E-03 0.  1.
         22    1    1    0    0    0  0.18742634572E+01  0.22635870348E+01 -0.28267338744E+02  0.28419696153E+02  0.00000000000E+00 0.  1.
</event>
<event>
 5    1  0.1046082E-009  0.9118800E+02  0.7561462E-02  0.1125453E+00
         25   -1    0    0    0    0  0.00000000000E+00  0.00000000000E+00  0.99999998245E-14  0.12509000000E+03  0.12509000000E+03 0.  0.
        -11    1    3    3    0    0  0.15274914404E+02  0.18807787328E+02  0.43596509632E+02  0.49876963886E+02  0.51100000000E-03 0. -1.
         23    2    1    0    0    0 -0.12201063973E+02  0.24050401702E+02  0.48122159780E+01  0.97695745005E+02  0.93776401005E+02 0.  0.
         11    1    3    3    0    0 -0.27475978377E+02  0.52426143742E+01 -0.38784293653E+02  0.47818781119E+02  0.51100000000E-03 0.  1.
         22    1    1    0    0    0  0.12201063973E+02 -0.24050401702E+02 -0.48122159780E+01  0.27394254995E+02  0.00000000000E+00 0. -1.
</event>
<event>
 5    1  0.1046082E-009  0.9118800E+02  0.7561462E-02  0.1125453E+00
         25   -1    0    0    0    0  0.00000000000E+00  0.00000000000E+00  0.99999998245E-14  0.12509000000E+03  0.12509000000E+03 0.  0.
        -11    1    3    3    0    0 -0.38312428342E+02 -0.41062632963E+02  0.18938630659E+01  0.56192247765E+02  0.51100000000E-03 0.  1.
         23    2    1    0    0    0 -0.26963249997E+02 -0.26268057607E+01 -0.67070854216E+01  0.97181185016E+02  0.93087489855E+02 0.  0.
         11    1    3    3    0    0  0.11349178345E+02  0.38435827203E+02 -0.86009484875E+01  0.40988937251E+02  0.51100000000E-03 0. -1.
         22    1    1    0    0    0  0.26963249997E+02  0.26268057607E+01  0.67070854216E+01  0.27908814984E+02  0.00000000000E+00 0.  1.
</event>
<event>
 5    1  0.1046082E-009  0.9118800E+02  0.7561462E-02  0.1125453E+00
         25   -1    0    0    0    0  0.00000000000E+00  0.00000000000E+00  0.99999998245E-14  0.12509000000E+03  0.12509000000E+03 0.  0.
        -11    1    3    3    0    0  0.19602744973E+02 -0.13449523631E+02 -0.53984235820E+02  0.58986905442E+02  0.51100000000E-03 0.  1.
         23    2    1    0    0    0  0.74771540802E+01  0.82282704741E+01 -0.28145207330E+02  0.94828391256E+02  0.89870233250E+02 0.  0.
         11    1    3    3    0    0 -0.12125590893E+02  0.21677794105E+02  0.25839028490E+02  0.35841485814E+02  0.51100000000E-03 0. -1.
         22    1    1    0    0    0 -0.74771540802E+01 -0.82282704741E+01  0.28145207330E+02  0.30261608744E+02  0.00000000000E+00 0.  1.
</event>
<event>
 5    1  0.1046082E-009  0.9118800E+02  0.7561462E-02  0.1125453E+00
         25   -1    0    0    0    0  0.00000000000E+00  0.00000000000E+00  0.99999998245E-14  0.12509000000E+03  0.12509000000E+03 0.  0.
        -11    1    3    3    0    0  0.92058933369E+01 -0.10532223955E+02  0.93073288627E+01  0.16801862527E+02  0.51100000000E-03 0. -1.
         23    2    1    0    0    0 -0.43797685341E+01  0.25976848930E+02 -0.38480885876E+02  0.78455703280E+02  0.63091518817E+02 0.  0.
         11    1    3    3    0    0 -0.13585661871E+02  0.36509072885E+02 -0.47788214739E+02  0.61653840753E+02  0.51100000000E-03 0.  1.
         22    1    1    0    0    0  0.43797685341E+01 -0.25976848930E+02  0.38480885876E+02  0.46634296720E+02  0.00000000000E+00 0.  1.
</event>
<event>
 5    1  0.1046082E-009  0.9118800E+02  0.7561462E-02  0.1125453E+00
         25   -1    0    0    0    0  0.00000000000E+00  0.00000000000E+00  0.99999998245E-14  0.12509000000E+03  0.12509000000E+03 0.  0.
        -11    1    3    3    0    0  0.25647430551E+01  0.73416014302E+00 -0.20528689284E+02  0.20701303873E+02  0.51100000000E-03 0.  1.
         23    2    1    0    0    0 -0.16663239324E+01 -0.34829468633E+02  0.27548062135E+02  0.80651680409E+02  0.67304749496E+02 0.  0.
         11    1    3    3    0    0 -0.42310669875E+01 -0.35563628776E+02  0.48076751419E+02  0.59950376536E+02  0.51100000000E-03 0. -1.
         22    1    1    0    0    0  0.16663239324E+01  0.34829468633E+02 -0.27548062135E+02  0.44438319591E+02  0.00000000000E+00 0. -1.
</event>
<event>
 5    1  0.1046082E-009  0.9118800E+02  0.7561462E-02  0.1125453E+00
         25   -1    0    0    0    0  0.00000000000E+00  0.00000000000E+00  0.99999998245E-14  0.12509000000E+03  0.12509000000E+03 0.  0.
        -11    1    3    3    0    0  0.12375863160E+02 -0.29196883045E+02  0.15522911885E+02  0.35306950621E+02  0.51100000000E-03 0. -1.
         23    2    1    0    0    0 -0.26410892269E+02  0.71591963006E+01 -0.12045876695E+02  0.95191965492E+02  0.90374873868E+02 0.  0.
         11    1    3    3    0    0 -0.38786755429E+02  0.36356079345E+02 -0.27568788580E+02  0.59885014871E+02  0.51100000000E-03 0.  1.
         22    1    1    0    0    0  0.26410892269E+02 -0.71591963006E+01  0.12045876695E+02  0.29898034508E+02  0.00000000000E+00 0.  1.
</event>
<event>
 5    1  0.1046082E-009  0.9118800E+02  0.7561462E-02  0.1125453E+00
         25   -1    0    0    0    0  0.00000000000E+00  0.00000000000E+00  0.99999998245E-14  0.12509000000E+03  0.12509000000E+03 0.  0.
        -11    1    3    3    0    0  0.35076311786E+02 -0.84791178225E+01  0.52520356579E+01  0.36466792653E+02  0.51100000000E-03 0. -1.
         23    2    1    0    0    0 -0.23824613632E+02  0.10010715440E+02  0.73025322184E+01  0.98235696525E+02  0.94493906982E+02 0.  0.
         11    1    3    3    0    0 -0.58900925418E+02  0.18489833263E+02  0.20504965605E+01  0.61768903872E+02  0.51100000000E-03 0.  1.
         22    1    1    0    0    0  0.23824613632E+02 -0.10010715440E+02 -0.73025322184E+01  0.26854303475E+02  0.00000000000E+00 0.  1.
</event>
<event>
 5    1  0.1046082E-009  0.9118800E+02  0.7561462E-02  0.1125453E+00
         25   -1    0    0    0    0  0.00000000000E+00  0.00000000000E+00  0.99999998245E-14  0.12509000000E+03  0.12509000000E+03 0.  0.
        -11    1    3    3    0    0 -0.20457291940E+01 -0.58613529848E+01  0.39685436361E+02  0.40168075958E+02  0.51100000000E-03 0.  1.
         23    2    1    0    0    0 -0.29565345231E+02  0.39476358321E+01 -0.62570344432E+01  0.94613058760E+02  0.89570011391E+02 0.  0.
         11    1    3    3    0    0 -0.27519616037E+02  0.98089888170E+01 -0.45942470804E+02  0.54444982802E+02  0.51100000000E-03 0. -1.
         22    1    1    0    0    0  0.29565345231E+02 -0.39476358321E+01  0.62570344432E+01  0.30476941240E+02  0.00000000000E+00 0. -1.
</event>
<event>
 5    1  0.1046082E-009  0.9118800E+02  0.7561462E-02  0.1125453E+00
         25   -1    0    0    0    0  0.00000000000E+00  0.00000000000E+00  0.99999998245E-14  0.12509000000E+03  0.12509000000E+03 0.  0.
        -11    1    3    3    0    0 -0.13084759828E+02  0.55117510354E+01 -0.45006753247E+02  0.47193200541E+02  0.51100000000E-03 0. -1.
         23    2    1    0    0    0 -0.15513783462E+02  0.26677811528E+02 -0.32657451870E+01  0.94056982150E+02  0.88790020240E+02 0.  0.
         11    1    3    3    0    0 -0.24290236341E+01  0.21166060493E+02  0.41741008060E+02  0.46863781609E+02  0.51100000000E-03 0.  1.
         22    1    1    0    0    0  0.15513783462E+02 -0.26677811528E+02  0.32657451870E+01  0.31033017850E+02  0.00000000000E+00 0. -1.
</event>
<event>
 5    1  0.1046082E-009  0.9118800E+02  0.7561462E-02  0.1125453E+00
         25   -1    0    0    0    0  0.00000000000E+00  0.00000000000E+00  0.99999998245E-14  0.12509000000E+03  0.12509000000E+03 0.  0.
        -11    1    3    3    0    0 -0.36322884120E+02  0.12786440342E+02  0.57451721586E+01  0.38933943685E+02  0.51100000000E-03 0.  1.
         23    2    1    0    0    0  0.93668945162E+01  0.24771256677E+00 -0.26988600068E+02  0.96521055182E+02  0.92196146803E+02 0.  0.
         11    1    3    3    0    0  0.45689778637E+02 -0.12538727776E+02 -0.32733772227E+02  0.57587111497E+02  0.51100000000E-03 0. -1.
         22    1    1    0    0    0 -0.93668945162E+01 -0.24771256677E+00  0.26988600068E+02  0.28568944818E+02  0.00000000000E+00 0. -1.
</event>
<event>
 5    1  0.1046082E-009  0.9118800E+02  0.7561462E-02  0.1125453E+00
         25   -1    0    0    0    0  0.00000000000E+00  0.00000000000E+00  0.99999998245E-14  0.12509000000E+03  0.12509000000E+03 0.  0.
        -11    1    3    3    0    0 -0.23280773141E+02 -0.22455026267E+02 -0.19745736170E+02  0.37896130407E+02  0.51100000000E-03 0.  1.
         23    2    1    0    0    0  0.15614392438E+02  0.21269464936E+02 -0.70655865778E+01  0.97774767920E+02  0.93881751892E+02 0.  0.
         11    1    3    3    0    0  0.38895165579E+02  0.43724491204E+02  0.12680149592E+02  0.59878637513E+02  0.51100000000E-03 0. -1.
         22    1    1    0    0    0 -0.15614392438E+02 -0.21269464936E+02  0.70655865778E+01  0.27315232080E+02  0.00000000000E+00 0. -1.
</event>
<event>
 5    1  0.1046082E-009  0.9118800E+02  0.7561462E-02  0.1125453E+00
         25   -1    0    0    0    0  0.00000000000E+00  0.00000000000E+00  0.99999998245E-14  0.12509000000E+03  0.12509000000E+03 0.  0.
        -11    1    3    3    0    0 -0.44902610791E+02 -0.20176010486E+02 -0.15125549249E+02  0.51498525176E+02  0.51100000000E-03 0. -1.
         23    2    1    0    0    0 -0.21842255356E+02  0.17264170579E+02 -0.85901732796E+01  0.95953651880E+02  0.91423063432E+02 0.  0.
         11    1    3    3    0    0  0.23060355435E+02  0.37440181064E+02  0.65353759698E+01  0.44455126704E+02  0.51100000000E-03 0.  1.
         22    1    1    0    0    0  0.21842255356E+02 -0.17264170579E+02  0.85901732796E+01  0.29136348120E+02  0.00000000000E+00 0. -1.
</event>
<event>
 5    1  0.1046082E-009  0.9118800E+02  0.7561462E-02  0.1125453E+00
         25   -1    0    0    0    0  0.00000000000E+00  0.00000000000E+00  0.99999998245E-14  0.12509000000E+03  0.12509000000E+03 0.  0.
        -11    1    3    3    0    0  0.16069942558E+02 -0.25147049423E+02  0.27647059315E+02  0.40681408991E+02  0.51100000000E-03 0.  1.
         23    2    1    0    0    0 -0.10942384369E+02 -0.17720872738E+02 -0.20167700170E+02  0.96098600647E+02  0.91621175554E+02 0.  0.
         11    1    3    3    0    0 -0.27012326927E+02  0.74261766850E+01 -0.47814759485E+02  0.55417191656E+02  0.51100000000E-03 0. -1.
         22    1    1    0    0    0  0.10942384369E+02  0.17720872738E+02  0.20167700170E+02  0.28991399353E+02  0.00000000000E+00 0. -1.
</event>
<event>
 5    1  0.1046082E-009  0.9118800E+02  0.7561462E-02  0.1125453E+00
         25   -1    0    0    0    0  0.00000000000E+00  0.00000000000E+00  0.99999998245E-14  0.12509000000E+03  0.12509000000E+03 0.  0.
        -11    1    3    3    0    0  0.90214884857E+01  0.28249067423E+02 -0.28604371718E+02  0.41202028426E+02  0.51100000000E-03 0.  1.
         23    2    1    0    0    0  0.27907393924E+02 -0.11732133860E+02  0.16383669106E+01  0.94772515826E+02  0.89792426792E+02 0.  0.
         11    1    3    3    0    0  0.18885905438E+02 -0.39981201282E+02  0.30242738629E+02  0.53570487400E+02  0.51100000000E-03 0. -1.
         22    1    1    0    0    0 -0.27907393924E+02  0.11732133860E+02 -0.16383669106E+01  0.30317484174E+02  0.00000000000E+00 0. -1.
</event>
<event>
 5    1  0.1046082E-009  0.9118800E+02  0.7561462E-02  0.1125453E+00
         25   -1    0    0    0    0  0.00000000000E+00  0.00000000000E+00  0.99999998245E-14  0.12509000000E+03  0.12509000000E+03 0.  0.
        -11    1    3    3    0    0 -0.12868339545E+02 -0.64075686143E+01 -0.31686716088E+02  0.34795101306E+02  0.51100000000E-03 0. -1.
         23    2    1    0    0    0 -0.35104907328E+01 -0.16032204189E+01  0.28720508202E+02  0.96111362139E+02  0.91638597109E+02 0.  0.
         11    1    3    3    0    0  0.93578488124E+01  0.48043481954E+01  0.60407224289E+02  0.61316260833E+02  0.51100000000E-03 0.  1.
         22    1    1    0    0    0  0.35104907328E+01  0.16032204189E+01 -0.28720508202E+02  0.28978637861E+02  0.00000000000E+00 0.  1.
</event>
<event>
 5    1  0.1046082E-009  0.9118800E+02  0.7561462E-02  0.1125453E+00
         25   -1    0    0    0    0  0.00000000000E+00  0.00000000000E+00  0.99999998245E-14  0.12509000000E+03  0.12509000000E+03 0.  0.
        -11    1    3    3    0    0 -0.20461646293E+02 -0.18631237334E+01  0.41196588310E+02  0.46035954294E+02  0.51100000000E-03 0.  1.
         23    2    1    0    0    0 -0.26886511946E+02 -0.25377817463E+02  0.79308131703E+01  0.87277092927E+02  0.78660504756E+02 0.  0.
         11    1    3    3    0    0 -0.64248656528E+01 -0.23514693729E+02 -0.33265775140E+02  0.41241138633E+02  0.51100000000E-03 0. -1.
         22    1    1    0    0    0  0.26886511946E+02  0.25377817463E+02 -0.79308131703E+01  0.37812907073E+02  0.00000000000E+00 0. -1.
</event>
<event>
 5    1  0.1046082E-009  0.9118800E+02  0.7561462E-02  0.1125453E+00
         25   -1    0    0    0    0  0.00000000000E+00  0.00000000000E+00  0.99999998245E-14  0.12509000000E+03  0.12509000000E+03 0.  0.
        -11    1    3    3    0    0  0.48707785059E+02  0.24704131178E+02 -0.13052161384E+02  0.56152482934E+02  0.51100000000E-03 0. -1.
         23    2    1    0    0    0  0.24794030368E+02 -0.85330470111E+01 -0.94217633617E+00  0.98851773508E+02  0.95305973561E+02 0.  0.
         11    1    3    3    0    0 -0.23913754691E+02 -0.33237178189E+02  0.12109985048E+02  0.42699290574E+02  0.51100000000E-03 0.  1.
         22    1    1    0    0    0 -0.24794030368E+02  0.85330470111E+01  0.94217633617E+00  0.26238226492E+02  0.00000000000E+00 0. -1.
</event>
<event>
 5    1  0.1046082E-009  0.9118800E+02  0.7561462E-02  0.1125453E+00
         25   -1    0    0    0    0  0.00000000000E+00  0.00000000000E+00  0.99999998245E-14  0.12509000000E+03  0.12509000000E+03 0.  0.
        -11    1    3    3    0    0  0.32354823472E+02  0.33259808694E+02 -0.39483716708E+02  0.60926294501E+02  0.51100000000E-03 0. -1.
         23    2    1    0    0    0  0.86415607485E+01  0.23310785628E+02 -0.19455283655E+02  0.93521386460E+02  0.88032223444E+02 0.  0.
         11    1    3    3    0    0 -0.23713262724E+02 -0.99490230661E+01  0.20028433053E+02  0.32595091959E+02  0.51100000000E-03 0.  1.
         22    1    1    0    0    0 -0.86415607485E+01 -0.23310785628E+02  0.19455283655E+02  0.31568613540E+02  0.00000000000E+00 0. -1.
</event>
<event>
 5    1  0.1046082E-009  0.9118800E+02  0.7561462E-02  0.1125453E+00
         25   -1    0    0    0    0  0.00000000000E+00  0.00000000000E+00  0.99999998245E-14  0.12509000000E+03  0.12509000000E+03 0.  0.
        -11    1    3    3    0    0  0.16235949627E+02 -0.11140465771E+02 -0.58669852973E+02  0.61885924782E+02  0.51100000000E-03 0. -1.
         23    2    1    0    0    0  0.74206291772E+01  0.14542475573E+01 -0.26362400127E+02  0.97664524365E+02  0.93734745989E+02 0.  0.
         11    1    3    3    0    0 -0.88153204497E+01  0.12594713329E+02  0.32307452846E+02  0.35778599583E+02  0.51100000000E-03 0.  1.
         22    1    1    0    0    0 -0.74206291772E+01 -0.14542475573E+01  0.26362400127E+02  0.27425475635E+02  0.00000000000E+00 0. -1.
</event>
<event>
 5    1  0.1046082E-009  0.9118800E+02  0.7561462E-02  0.1125453E+00
         25   -1    0    0    0    0  0.00000000000E+00  0.00000000000E+00  0.99999998245E-14  0.12509000000E+03  0.12509000000E+03 0.  0.
        -11    1    3    3    0    0  0.35116615742E+01  0.40682471265E+02 -0.47248615091E+00  0.40836484651E+02  0.51100000000E-03 0.  1.
         23    2    1    0    0    0 -0.66809763651E+01 -0.64647423002E+01  0.27129490333E+02  0.96411827396E+02  0.92047829295E+02 0.  0.
         11    1    3    3    0    0 -0.10192637939E+02 -0.47147213565E+02  0.27601976484E+02  0.55575342745E+02  0.51100000000E-03 0. -1.
         22    1    1    0    0    0  0.66809763651E+01  0.64647423002E+01 -0.27129490333E+02  0.28678172604E+02  0.00000000000E+00 0. -1.
</event>
<event>
 5    1  0.1046082E-009  0.9118800E+02  0.7561462E-02  0.1125453E+00
         25   -1    0    0    0    0  0.00000000000E+00  0.00000000000E+00  0.99999998245E-14  0.12509000000E+03  0.12509000000E+03 0.  0.
        -11    1    3    3    0    0  0.22931566767E+02  0.43992664641E+02 -0.14908442065E+02  0.51802248423E+02  0.51100000000E-03 0. -1.
         23    2    1    0    0    0  0.17507491152E+02  0.13385664838E+01 -0.23605125886E+02  0.95670517088E+02  0.91034838744E+02 0.  0.
         11    1    3    3    0    0 -0.54240756144E+01 -0.42654098158E+02 -0.86966838208E+01  0.43868268665E+02  0.51100000000E-03 0.  1.
         22    1    1    0    0    0 -0.17507491152E+02 -0.13385664838E+01  0.23605125886E+02  0.29419482912E+02  0.00000000000E+00 0. -1.
</event>
<event>
 5    1  0.1046082E-009  0.9118800E+02  0.7561462E-02  0.1125453E+00
         25   -1    0    0    0    0  0.00000000000E+00  0.00000000000E+00  0.99999998245E-14  0.12509000000E+03  0.12509000000E+03 0.  0.
        -11    1    3    3    0    0  0.36672634866E+02 -0.33314645790E+02 -0.13794427223E+02  0.51429893979E+02  0.51100000000E-03 0. -1.
         23    2    1    0    0    0 -0.53570625363E+01 -0.29423508155E+02 -0.27730636730E+01  0.95054507107E+02  0.90184413776E+02 0.  0.
         11    1    3    3    0    0 -0.42029697402E+02  0.38911376343E+01  0.11021363550E+02  0.43624613128E+02  0.51100000000E-03 0.  1.
         22    1    1    0    0    0  0.53570625363E+01  0.29423508155E+02  0.27730636730E+01  0.30035492893E+02  0.00000000000E+00 0.  1.
</event>
<event>
 5    1  0.1046082E-009  0.9118800E+02  0.7561462E-02  0.1125453E+00
         25   -1    0    0    0    0  0.00000000000E+00  0.00000000000E+00  0.99999998245E-14  0.12509000000E+03  0.12509000000E+03 0.  0.
        -11    1    3    3    0    0 -0.75430313630E+00  0.48982954707E+02  0.76304516121E+01  0.49579457613E+02  0.51100000000E-03 0.  1.
         23    2    1    0    0    0  0.17221440804E+02  0.15332988824E+02 -0.18253112294E+02  0.95681588311E+02  0.91050050322E+02 0.  0.
         11    1    3    3    0    0  0.17975743940E+02 -0.33649965883E+02 -0.25883563907E+02  0.46102130698E+02  0.51100000000E-03 0. -1.
         22    1    1    0    0    0 -0.17221440804E+02 -0.15332988824E+02  0.18253112294E+02  0.29408411689E+02  0.00000000000E+00 0. -1.
</event>
<event>
 5    1  0.1046082E-009  0.9118800E+02  0.7561462E-02  0.1125453E+00
         25   -1    0    0    0    0  0.00000000000E+00  0.00000000000E+00  0.99999998245E-14  0.12509000000E+03  0.12509000000E+03 0.  0.
        -11    1    3    3    0    0  0.21830008123E+02 -0.69410202054E+01  0.25869544739E+02  0.34553731512E+02  0.51100000000E-03 0. -1.
         23    2    1    0    0    0 -0.26604422793E+02  0.12718745338E+02 -0.48813252536E+01  0.95200384222E+02  0.90386525681E+02 0.  0.
         11    1    3    3    0    0 -0.48434430916E+02  0.19659765544E+02 -0.30750869993E+02  0.60646652710E+02  0.51100000000E-03 0.  1.
         22    1    1    0    0    0  0.26604422793E+02 -0.12718745338E+02  0.48813252536E+01  0.29889615778E+02  0.00000000000E+00 0.  1.
</event>
<event>
 5    1  0.1046082E-009  0.9118800E+02  0.7561462E-02  0.1125453E+00
         25   -1    0    0    0    0  0.00000000000E+00  0.00000000000E+00  0.99999998245E-14  0.12509000000E+03  0.12509000000E+03 0.  0.
        -11    1    3    3    0    0 -0.16589671051E+02  0.55940273908E+02  0.10495081927E+02  0.59284721264E+02  0.51100000000E-03 0.  1.
         23    2    1    0    0    0 -0.12708852593E+01  0.23190581728E+02  0.17369740983E+02  0.96087825391E+02  0.91606462962E+02 0.  0.
         11    1    3    3    0    0  0.15318785791E+02 -0.32749692180E+02  0.68746590560E+01  0.36803104127E+02  0.51100000000E-03 0. -1.
         22    1    1    0    0    0  0.12708852593E+01 -0.23190581728E+02 -0.17369740983E+02  0.29002174609E+02  0.00000000000E+00 0.  1.
</event>
<event>
 5    1  0.1046082E-009  0.9118800E+02  0.7561462E-02  0.1125453E+00
         25   -1    0    0    0    0  0.00000000000E+00  0.00000000000E+00  0.99999998245E-14  0.12509000000E+03  0.12509000000E+03 0.  0.
        -11    1    3    3    0    0 -0.27618827250E+02 -0.30131674503E+02 -0.37462743537E+02  0.55445239477E+02  0.51100000000E-03 0. -1.
         23    2    1    0    0    0 -0.97823756241E+01 -0.27413418917E+02 -0.11880216736E+01  0.95959229240E+02  0.91430694361E+02 0.  0.
         11    1    3    3    0    0  0.17836451626E+02  0.27182555865E+01  0.36274721864E+02  0.40513989764E+02  0.51100000000E-03 0.  1.
         22    1    1    0    0    0  0.97823756241E+01  0.27413418917E+02  0.11880216736E+01  0.29130770760E+02  0.00000000000E+00 0. -1.
</event>
<event>
 5    1  0.1046082E-009  0.9118800E+02  0.7561462E-02  0.1125453E+00
         25   -1    0    0    0    0  0.00000000000E+00  0.00000000000E+00  0.99999998245E-14  0.12509000000E+03  0.12509000000E+03 0.  0.
        -11    1    3    3    0    0 -0.26817387213E+02  0.36461136297E+02 -0.38422957939E+02  0.59370955980E+02  0.51100000000E-03 0.  1.
         23    2    1    0    0    0 -0.15650222784E+02  0.25034299377E+02 -0.68114539697E+01  0.94790799950E+02  0.89817894829E+02 0.  0.
         11    1    3    3    0    0  0.11167164429E+02 -0.11426836920E+02  0.31611503970E+02  0.35419843970E+02  0.51100000000E-03 0. -1.
         22    1    1    0    0    0  0.15650222784E+02 -0.25034299377E+02  0.68114539697E+01  0.30299200050E+02  0.00000000000E+00 0.  1.
</event>
<event>
 5    1  0.1046082E-009  0.9118800E+02  0.7561462E-02  0.1125453E+00
         25   -1    0    0    0    0  0.00000000000E+00  0.00000000000E+00  0.99999998245E-14  0.12509000000E+03  0.12509000000E+03 0.  0.
        -11    1    3    3    0    0  0.59878809230E+01  0.51527061859E+02  0.20226243637E+02  0.55677587534E+02  0.51100000000E-03 0.  1.
         23    2    1    0    0    0  0.21813653741E+02  0.20376471227E+02  0.17832475700E+01  0.95186554696E+02  0.90367384347E+02 0.  0.
         11    1    3    3    0    0  0.15825772818E+02 -0.31150590632E+02 -0.18442996067E+02  0.39508967161E+02  0.51100000000E-03 0. -1.
         22    1    1    0    0    0 -0.21813653741E+02 -0.20376471227E+02 -0.17832475700E+01  0.29903445304E+02  0.00000000000E+00 0.  1.
</event>
<event>
 5    1  0.1046082E-009  0.9118800E+02  0.7561462E-02  0.1125453E+00
         25   -1    0    0    0    0  0.00000000000E+00  0.00000000000E+00  0.99999998245E-14  0.12509000000E+03  0.12509000000E+03 0.  0.
        -11    1    3    3    0    0 -0.22138724979E+02  0.23934594929E+02 -0.27637119979E+02  0.42741061979E+02  0.51100000000E-03 0. -1.
         23    2    1    0    0    0 -0.87263079566E+01 -0.25181310541E+02 -0.10059703750E+02  0.96604135248E+02  0.92308799453E+02 0.  0.
         11    1    3    3    0    0  0.13412417022E+02 -0.49115905469E+02  0.17577416230E+02  0.53863073269E+02  0.51100000000E-03 0.  1.
         22    1    1    0    0    0  0.87263079566E+01  0.25181310541E+02  0.10059703750E+02  0.28485864752E+02  0.00000000000E+00 0.  1.
</event>
<event>
 5    1  0.1046082E-009  0.9118800E+02  0.7561462E-02  0.1125453E+00
         25   -1    0    0    0    0  0.00000000000E+00  0.00000000000E+00  0.99999998245E-14  0.12509000000E+03  0.12509000000E+03 0.  0.
        -11    1    3    3    0    0 -0.14467326006E+02 -0.58858998629E+02  0.13090748584E+02  0.62008490871E+02  0.51100000000E-03 0.  1.
         23    2    1    0    0    0 -0.12794167231E+02 -0.27868357919E+02  0.60115695856E+01  0.93841399118E+02  0.88485779260E+02 0.  0.
         11    1    3    3    0    0  0.16731587746E+01  0.30990640710E+02 -0.70791789981E+01  0.31832908247E+02  0.51100000000E-03 0. -1.
         22    1    1    0    0    0  0.12794167231E+02  0.27868357919E+02 -0.60115695856E+01  0.31248600882E+02  0.00000000000E+00 0.  1.
</event>
<event>
 5    1  0.1046082E-009  0.9118800E+02  0.7561462E-02  0.1125453E+00
         25   -1    0    0    0    0  0.00000000000E+00  0.00000000000E+00  0.99999998245E-14  0.12509000000E+03  0.12509000000E+03 0.  0.
        -11    1    3    3    0    0  0.28985143909E+00  0.40256527214E+02 -0.74280539245E+01  0.40937122305E+02  0.51100000000E-03 0. -1.
         23    2    1    0    0    0  0.12024762382E+02 -0.20090627541E+00  0.27123751971E+02  0.95419590588E+02  0.90689387877E+02 0.  0.
         11    1    3    3    0    0  0.11734910943E+02 -0.40457433490E+02  0.34551805895E+02  0.54482468284E+02  0.51100000000E-03 0.  1.
         22    1    1    0    0    0 -0.12024762382E+02  0.20090627541E+00 -0.27123751971E+02  0.29670409412E+02  0.00000000000E+00 0. -1.
</event>
<event>
 5    1  0.1046082E-009  0.9118800E+02  0.7561462E-02  0.1125453E+00
         25   -1    0    0    0    0  0.00000000000E+00  0.00000000000E+00  0.99999998245E-14  0.12509000000E+03  0.12509000000E+03 0.  0.
        -11    1    3    3    0    0 -0.30526041036E+02  0.22830357875E+02  0.19494924020E+02  0.42814909610E+02  0.51100000000E-03 0. -1.
         23    2    1    0    0    0  0.14654606267E+02  0.30561564315E+02  0.11179397315E+02  0.89400426977E+02  0.81967619956E+02 0.  0.
         11    1    3    3    0    0  0.45180647303E+02  0.77312064394E+01 -0.83155267049E+01  0.46585517368E+02  0.51100000000E-03 0.  1.
         22    1    1    0    0    0 -0.14654606267E+02 -0.30561564315E+02 -0.11179397315E+02  0.35689573023E+02  0.00000000000E+00 0. -1.
</event>
<event>
 5    1  0.1046082E-009  0.9118800E+02  0.7561462E-02  0.1125453E+00
         25   -1    0    0    0    0  0.00000000000E+00  0.00000000000E+00  0.99999998245E-14  0.12509000000E+03  0.12509000000E+03 0.  0.
        -11    1    3    3    0    0  0.33129612438E+02  0.28988769640E+02 -0.31603924850E+02  0.54191586540E+02  0.51100000000E-03 0.  1.
         23    2    1    0    0    0  0.25942897968E+02 -0.68752001186E+01 -0.11997626724E+02  0.95691949407E+02  0.91064283903E+02 0.  0.
         11    1    3    3    0    0 -0.71867144703E+01 -0.35863969758E+02  0.19606298126E+02  0.41500362868E+02  0.51100000000E-03 0. -1.
         22    1    1    0    0    0 -0.25942897968E+02  0.68752001186E+01  0.11997626724E+02  0.29398050593E+02  0.00000000000E+00 0.  1.
</event>
<event>
 5    1  0.1046082E-009  0.9118800E+02  0.7561462E-02  0.1125453E+00
         25   -1    0    0    0    0  0.00000000000E+00  0.00000000000E+00  0.99999998245E-14  0.12509000000E+03  0.12509000000E+03 0.  0.
        -11    1    3    3    0    0 -0.20877655713E+02  0.34755542081E+02  0.17964930238E+02  0.44345946062E+02  0.51100000000E-03 0.  1.
         23    2    1    0    0    0 -0.16899042612E+02 -0.17935136473E+02  0.12471579571E+02  0.97471400135E+02  0.93476664392E+02 0.  0.
         11    1    3    3    0    0  0.39786131015E+01 -0.52690678554E+02 -0.54933506671E+01  0.53125454073E+02  0.51100000000E-03 0. -1.
         22    1    1    0    0    0  0.16899042612E+02  0.17935136473E+02 -0.12471579571E+02  0.27618599865E+02  0.00000000000E+00 0. -1.
</event>
<event>
 5    1  0.1046082E-009  0.9118800E+02  0.7561462E-02  0.1125453E+00
         25   -1    0    0    0    0  0.00000000000E+00  0.00000000000E+00  0.99999998245E-14  0.12509000000E+03  0.12509000000E+03 0.  0.
        -11    1    3    3    0    0  0.87945618126E+01  0.68638703898E+01 -0.30964946317E+02  0.32913294196E+02  0.51100000000E-03 0. -1.
         23    2    1    0    0    0 -0.17614545644E+02 -0.72080286752E+01  0.23374289364E+02  0.94947251305E+02  0.90035522054E+02 0.  0.
         11    1    3    3    0    0 -0.26409107457E+02 -0.14071899065E+02  0.54339235680E+02  0.62033957109E+02  0.51100000000E-03 0.  1.
         22    1    1    0    0    0  0.17614545644E+02  0.72080286752E+01 -0.23374289364E+02  0.30142748695E+02  0.00000000000E+00 0.  1.
</event>
<event>
 5    1  0.1046082E-009  0.9118800E+02  0.7561462E-02  0.1125453E+00
         25   -1    0    0    0    0  0.00000000000E+00  0.00000000000E+00  0.99999998245E-14  0.12509000000E+03  0.12509000000E+03 0.  0.
        -11    1    3    3    0    0  0.40833791022E+02 -0.27933163850E+02  0.24630596393E+01  0.49535106691E+02  0.51100000000E-03 0. -1.
         23    2    1    0    0    0 -0.44861208001E+00 -0.28008899060E+02  0.15812984895E+02  0.92922467135E+02  0.87177030965E+02 0.  0.
         11    1    3    3    0    0 -0.41282403102E+02 -0.75735210257E-01  0.13349925255E+02  0.43387360444E+02  0.51100000000E-03 0.  1.
         22    1    1    0    0    0  0.44861208001E+00  0.28008899060E+02 -0.15812984895E+02  0.32167532865E+02  0.00000000000E+00 0. -1.
</event>
<event>
 5    1  0.1046082E-009  0.9118800E+02  0.7561462E-02  0.1125453E+00
         25   -1    0    0    0    0  0.00000000000E+00  0.00000000000E+00  0.99999998245E-14  0.12509000000E+03  0.12509000000E+03 0.  0.
        -11    1    3    3    0    0  0.26096706678E+02 -0.23629379889E+02 -0.18505007872E+02  0.39772113472E+02  0.51100000000E-03 0.  1.
         23    2    1    0    0    0 -0.76023728070E+01  0.20117351104E+02 -0.20975512377E+02  0.95048761557E+02  0.90176444077E+02 0.  0.
         11    1    3    3    0    0 -0.33699079485E+02  0.43746730993E+02 -0.24705045045E+01  0.55276648085E+02  0.51100000000E-03 0. -1.
         22    1    1    0    0    0  0.76023728070E+01 -0.20117351104E+02  0.20975512377E+02  0.30041238443E+02  0.00000000000E+00 0. -1.
</event>
<event>
 5    1  0.1046082E-009  0.9118800E+02  0.7561462E-02  0.1125453E+00
         25   -1    0    0    0    0  0.00000000000E+00  0.00000000000E+00  0.99999998245E-14  0.12509000000E+03  0.12509000000E+03 0.  0.
        -11    1    3    3    0    0 -0.10014910902E+02 -0.31413290408E+02 -0.21124087614E+02  0.39157634408E+02  0.51100000000E-03 0. -1.
         23    2    1    0    0    0  0.18434358225E+02  0.17708518701E+02 -0.12707367042E+02  0.96543645156E+02  0.92226791363E+02 0.  0.
         11    1    3    3    0    0  0.28449269127E+02  0.49121809110E+02  0.84167205718E+01  0.57386010748E+02  0.51100000000E-03 0.  1.
         22    1    1    0    0    0 -0.18434358225E+02 -0.17708518701E+02  0.12707367042E+02  0.28546354844E+02  0.00000000000E+00 0.  1.
</event>
<event>
 5    1  0.1046082E-009  0.9118800E+02  0.7561462E-02  0.1125453E+00
         25   -1    0    0    0    0  0.00000000000E+00  0.00000000000E+00  0.99999998245E-14  0.12509000000E+03  0.12509000000E+03 0.  0.
        -11    1    3    3    0    0 -0.18459353308E+02  0.27942209703E+02  0.47945556910E+02  0.58483256025E+02  0.51100000000E-03 0.  1.
         23    2    1    0    0    0 -0.20306695322E+01  0.21625288141E+02  0.83406812272E+01  0.10182320673E+03  0.99129318361E+02 0.  0.
         11    1    3    3    0    0  0.16428683776E+02 -0.63169215626E+01 -0.39604875683E+02  0.43339950701E+02  0.51100000000E-03 0. -1.
         22    1    1    0    0    0  0.20306695322E+01 -0.21625288141E+02 -0.83406812272E+01  0.23266793274E+02  0.00000000000E+00 0.  1.
</event>
<event>
 5    1  0.1046082E-009  0.9118800E+02  0.7561462E-02  0.1125453E+00
         25   -1    0    0    0    0  0.00000000000E+00  0.00000000000E+00  0.99999998245E-14  0.12509000000E+03  0.12509000000E+03 0.  0.
        -11    1    3    3    0    0  0.60076242859E+01 -0.24493258150E+02  0.23089016668E+02  0.34192308131E+02  0.51100000000E-03 0.  1.
         23    2    1    0    0    0  0.97698914570E+01  0.90932056989E+01 -0.27205327541E+02  0.94787079092E+02  0.89812712615E+02 0.  0.
         11    1    3    3    0    0  0.37622671711E+01  0.33586463849E+02 -0.50294344209E+02  0.60594770961E+02  0.51100000000E-03 0. -1.
         22    1    1    0    0    0 -0.97698914570E+01 -0.90932056989E+01  0.27205327541E+02  0.30302920908E+02  0.00000000000E+00 0. -1.
</event>
<event>
 5    1  0.1046082E-009  0.9118800E+02  0.7561462E-02  0.1125453E+00
         25   -1    0    0    0    0  0.00000000000E+00  0.00000000000E+00  0.99999998245E-14  0.12509000000E+03  0.12509000000E+03 0.  0.
        -11    1    3    3    0    0  0.72987863363E+01 -0.21529483723E+02  0.49569668739E+02  0.54533870306E+02  0.51100000000E-03 0.  1.
         23    2    1    0    0    0  0.58329701095E+01 -0.27649138090E+02  0.92275666727E+01  0.95363810131E+02  0.90612415919E+02 0.  0.
         11    1    3    3    0    0 -0.14658162269E+01 -0.61196543665E+01 -0.40342102066E+02  0.40829939826E+02  0.51100000000E-03 0. -1.
         22    1    1    0    0    0 -0.58329701095E+01  0.27649138090E+02 -0.92275666727E+01  0.29726189869E+02  0.00000000000E+00 0.  1.
</event>
<event>
 5    1  0.1046082E-009  0.9118800E+02  0.7561462E-02  0.1125453E+00
         25   -1    0    0    0    0  0.00000000000E+00  0.00000000000E+00  0.99999998245E-14  0.12509000000E+03  0.12509000000E+03 0.  0.
        -11    1    3    3    0    0  0.22751890340E+02  0.27114270661E+02 -0.14795903017E+02  0.38363406182E+02  0.51100000000E-03 0.  1.
         23    2    1    0    0    0 -0.95042832350E+01 -0.21339327634E+02 -0.16323284124E+02  0.96591791139E+02  0.92292070120E+02 0.  0.
         11    1    3    3    0    0 -0.32256173575E+02 -0.48453598295E+02 -0.15273811069E+01  0.58228384957E+02  0.51100000000E-03 0. -1.
         22    1    1    0    0    0  0.95042832350E+01  0.21339327634E+02  0.16323284124E+02  0.28498208861E+02  0.00000000000E+00 0. -1.
</event>
<event>
 5    1  0.1046082E-009  0.9118800E+02  0.7561462E-02  0.1125453E+00
         25   -1    0    0    0    0  0.00000000000E+00  0.00000000000E+00  0.99999998245E-14  0.12509000000E+03  0.12509000000E+03 0.  0.
        -11    1    3    3    0    0  0.40785501744E+02 -0.32361450412E+02 -0.96929336671E+00  0.52073603247E+02  0.51100000000E-03 0.  1.
         23    2    1    0    0    0  0.26182773198E+02  0.10036887116E+02  0.17191763923E+01  0.96996721750E+02  0.92839279120E+02 0.  0.
         11    1    3    3    0    0 -0.14602728545E+02  0.42398337528E+02  0.26884697590E+01  0.44923118503E+02  0.51100000000E-03 0. -1.
         22    1    1    0    0    0 -0.26182773198E+02 -0.10036887116E+02 -0.17191763923E+01  0.28093278250E+02  0.00000000000E+00 0. -1.
</event>
<event>
 5    1  0.1046082E-009  0.9118800E+02  0.7561462E-02  0.1125453E+00
         25   -1    0    0    0    0  0.00000000000E+00  0.00000000000E+00  0.99999998245E-14  0.12509000000E+03  0.12509000000E+03 0.  0.
        -11    1    3    3    0    0  0.18434676575E+02  0.55516024953E+02  0.42787585249E+01  0.58652997381E+02  0.51100000000E-03 0.  1.
         23    2    1    0    0    0 -0.50665370734E+01  0.26093800566E+02  0.98977281112E+01  0.96725916238E+02  0.92473680712E+02 0.  0.
         11    1    3    3    0    0 -0.23501213648E+02 -0.29422224387E+02  0.56189695863E+01  0.38072918857E+02  0.51100000000E-03 0. -1.
         22    1    1    0    0    0  0.50665370734E+01 -0.26093800566E+02 -0.98977281112E+01  0.28364083762E+02  0.00000000000E+00 0.  1.
</event>
<event>
 5    1  0.1046082E-009  0.9118800E+02  0.7561462E-02  0.1125453E+00
         25   -1    0    0    0    0  0.00000000000E+00  0.00000000000E+00  0.99999998245E-14  0.12509000000E+03  0.12509000000E+03 0.  0.
        -11    1    3    3    0    0 -0.40652531691E+02 -0.21802594817E+02 -0.32067180818E+02  0.56180829110E+02  0.51100000000E-03 0. -1.
         23    2    1    0    0    0 -0.17014099575E+02  0.86164656958E+01 -0.21951912187E+02  0.96010634221E+02  0.91500996548E+02 0.  0.
         11    1    3    3    0    0  0.23638432116E+02  0.30419060513E+02  0.10115268630E+02  0.39829805110E+02  0.51100000000E-03 0.  1.
         22    1    1    0    0    0  0.17014099575E+02 -0.86164656958E+01  0.21951912187E+02  0.29079365779E+02  0.00000000000E+00 0. -1.
</event>
<event>
 5    1  0.1046082E-009  0.9118800E+02  0.7561462E-02  0.1125453E+00
         25   -1    0    0    0    0  0.00000000000E+00  0.00000000000E+00  0.99999998245E-14  0.12509000000E+03  0.12509000000E+03 0.  0.
        -11    1    3    3    0    0  0.17330296376E+02 -0.53729522773E+02  0.11351756908E+02  0.57585268733E+02  0.51100000000E-03 0. -1.
         23    2    1    0    0    0 -0.78780531945E+01 -0.26905976984E+02 -0.25633630699E+01  0.96937448609E+02  0.92759381158E+02 0.  0.
         11    1    3    3    0    0 -0.25208349571E+02  0.26823545788E+02 -0.13915119977E+02  0.39352179876E+02  0.51100000000E-03 0.  1.
         22    1    1    0    0    0  0.78780531945E+01  0.26905976984E+02  0.25633630699E+01  0.28152551391E+02  0.00000000000E+00 0. -1.
</event>
<event>
 5    1  0.1046082E-009  0.9118800E+02  0.7561462E-02  0.1125453E+00
         25   -1    0    0    0    0  0.00000000000E+00  0.00000000000E+00  0.99999998245E-14  0.12509000000E+03  0.12509000000E+03 0.  0.
        -11    1    3    3    0    0 -0.21519658274E+02  0.18381321963E+02 -0.16916783862E+02  0.32971901156E+02  0.51100000000E-03 0. -1.
         23    2    1    0    0    0  0.88694349666E+01 -0.19076917247E+02  0.21778303564E+02  0.94809805906E+02  0.89844360655E+02 0.  0.
         11    1    3    3    0    0  0.30389093241E+02 -0.37458239210E+02  0.38695087426E+02  0.61837904750E+02  0.51100000000E-03 0.  1.
         22    1    1    0    0    0 -0.88694349666E+01  0.19076917247E+02 -0.21778303564E+02  0.30280194094E+02  0.00000000000E+00 0.  1.
</event>
<event>
 5    1  0.1046082E-009  0.9118800E+02  0.7561462E-02  0.1125453E+00
         25   -1    0    0    0    0  0.00000000000E+00  0.00000000000E+00  0.99999998245E-14  0.12509000000E+03  0.12509000000E+03 0.  0.
        -11    1    3    3    0    0  0.45654611037E+02  0.23713997960E+02  0.10147456368E+02  0.52437277572E+02  0.51100000000E-03 0. -1.
         23    2    1    0    0    0  0.19159025053E+02  0.79424053127E+01 -0.20511843012E+02  0.95920054047E+02  0.91377081489E+02 0.  0.
         11    1    3    3    0    0 -0.26495585983E+02 -0.15771592648E+02 -0.30659299380E+02  0.43482776475E+02  0.51100000000E-03 0.  1.
         22    1    1    0    0    0 -0.19159025053E+02 -0.79424053127E+01  0.20511843012E+02  0.29169945953E+02  0.00000000000E+00 0.  1.
</event>
<event>
 5    1  0.1046082E-009  0.9118800E+02  0.7561462E-02  0.1125453E+00
         25   -1    0    0    0    0  0.00000000000E+00  0.00000000000E+00  0.99999998245E-14  0.12509000000E+03  0.12509000000E+03 0.  0.
        -11    1    3    3    0    0  0.70326508874E+01 -0.20182846870E+02 -0.49965081812E+02  0.54344409897E+02  0.51100000000E-03 0.  1.
         23    2    1    0    0    0 -0.16315638280E+02 -0.15165102591E+02 -0.10519686420E+02  0.10045579225E+03  0.97388510643E+02 0.  0.
         11    1    3    3    0    0 -0.23348289167E+02  0.50177442787E+01  0.39445395392E+02  0.46111382354E+02  0.51100000000E-03 0. -1.
         22    1    1    0    0    0  0.16315638280E+02  0.15165102591E+02  0.10519686420E+02  0.24634207750E+02  0.00000000000E+00 0.  1.
</event>
<event>
 5    1  0.1046082E-009  0.9118800E+02  0.7561462E-02  0.1125453E+00
         25   -1    0    0    0    0  0.00000000000E+00  0.00000000000E+00  0.99999998245E-14  0.12509000000E+03  0.12509000000E+03 0.  0.
        -11    1    3    3    0    0  0.25826642844E+02 -0.82618625115E+01 -0.71856311565E+01  0.28051865324E+02  0.51100000000E-03 0.  1.
         23    2    1    0    0    0 -0.28405528592E+02  0.39020139941E+00  0.20983010893E+02  0.89772680483E+02  0.82533757355E+02 0.  0.
         11    1    3    3    0    0 -0.54232171437E+02  0.86520639109E+01  0.28168642050E+02  0.61720815159E+02  0.51100000000E-03 0. -1.
         22    1    1    0    0    0  0.28405528592E+02 -0.39020139941E+00 -0.20983010893E+02  0.35317319517E+02  0.00000000000E+00 0. -1.
</event>
<event>
 5    1  0.1046082E-009  0.9118800E+02  0.7561462E-02  0.1125453E+00
         25   -1    0    0    0    0  0.00000000000E+00  0.00000000000E+00  0.99999998245E-14  0.12509000000E+03  0.12509000000E+03 0.  0.
        -11    1    3    3    0    0 -0.49893397181E+01 -0.14748943305E+02 -0.57595623818E+02  0.59663059951E+02  0.51100000000E-03 0. -1.
         23    2    1    0    0    0  0.52344504611E+01  0.42211172905E+01 -0.28126525216E+02  0.96170824294E+02  0.91719729185E+02 0.  0.
         11    1    3    3    0    0  0.10223790179E+02  0.18970060595E+02  0.29469098603E+02  0.36507764343E+02  0.51100000000E-03 0.  1.
         22    1    1    0    0    0 -0.52344504611E+01 -0.42211172905E+01  0.28126525216E+02  0.28919175706E+02  0.00000000000E+00 0. -1.
</event>
<event>
 5    1  0.1046082E-009  0.9118800E+02  0.7561462E-02  0.1125453E+00
         25   -1    0    0    0    0  0.00000000000E+00  0.00000000000E+00  0.99999998245E-14  0.12509000000E+03  0.12509000000E+03 0.  0.
        -11    1    3    3    0    0  0.59294893473E+01 -0.17869161358E+02 -0.28250104966E+02  0.33948994130E+02  0.51100000000E-03 0.  1.
         23    2    1    0    0    0 -0.14799242341E+02  0.22709016694E+01  0.25810984919E+02  0.95250738770E+02  0.90456186773E+02 0.  0.
         11    1    3    3    0    0 -0.20728731688E+02  0.20140063028E+02  0.54061089885E+02  0.61301744640E+02  0.51100000000E-03 0. -1.
         22    1    1    0    0    0  0.14799242341E+02 -0.22709016694E+01 -0.25810984919E+02  0.29839261230E+02  0.00000000000E+00 0. -1.
</event>
<event>
 5    1  0.1046082E-009  0.9118800E+02  0.7561462E-02  0.1125453E+00
         25   -1    0    0    0    0  0.00000000000E+00  0.00000000000E+00  0.99999998245E-14  0.12509000000E+03  0.12509000000E+03 0.  0.
        -11    1    3    3    0    0  0.41055535799E-01  0.58658127473E+02  0.75233185298E+01  0.59138633110E+02  0.51100000000E-03 0. -1.
         23    2    1    0    0    0 -0.13830176636E+02  0.22710238913E+02  0.66554490370E+01  0.97679714719E+02  0.93755015484E+02 0.  0.
         11    1    3    3    0    0 -0.13871232172E+02 -0.35947888560E+02 -0.86786949277E+00  0.38541081609E+02  0.51100000000E-03 0.  1.
         22    1    1    0    0    0  0.13830176636E+02 -0.22710238913E+02 -0.66554490370E+01  0.27410285281E+02  0.00000000000E+00 0.  1.
</event>
<event>
 5    1  0.1046082E-009  0.9118800E+02  0.7561462E-02  0.1125453E+00
         25   -1    0    0    0    0  0.00000000000E+00  0.00000000000E+00  0.99999998245E-14  0.12509000000E+03  0.12509000000E+03 0.  0.
        -11    1    3    3    0    0  0.74970743250E+01  0.10240309926E+02 -0.42875967308E+02  0.44714859316E+02  0.51100000000E-03 0.  1.
         23    2    1    0    0    0 -0.28762735531E+02 -0.70231353758E-01 -0.10295963855E+02  0.94539930289E+02  0.89467824717E+02 0.  0.
         11    1    3    3    0    0 -0.36259809856E+02 -0.10310541280E+02  0.32580003452E+02  0.49825070973E+02  0.51100000000E-03 0. -1.
         22    1    1    0    0    0  0.28762735531E+02  0.70231353758E-01  0.10295963855E+02  0.30550069711E+02  0.00000000000E+00 0. -1.
</event>
<event>
 5    1  0.1046082E-009  0.9118800E+02  0.7561462E-02  0.1125453E+00
         25   -1    0    0    0    0  0.00000000000E+00  0.00000000000E+00  0.99999998245E-14  0.12509000000E+03  0.12509000000E+03 0.  0.
        -11    1    3    3    0    0 -0.82786293587E+01 -0.39991555667E+02 -0.40290732376E+02  0.57369010314E+02  0.51100000000E-03 0.  1.
         23    2    1    0    0    0 -0.18681805513E+02 -0.13663730391E+02 -0.29334656454E+02  0.87723846134E+02  0.79367775110E+02 0.  0.
         11    1    3    3    0    0 -0.10403176155E+02  0.26327825275E+02  0.10956075922E+02  0.30354835821E+02  0.51100000000E-03 0. -1.
         22    1    1    0    0    0  0.18681805513E+02  0.13663730391E+02  0.29334656454E+02  0.37366153866E+02  0.00000000000E+00 0.  1.
</event>
<event>
 5    1  0.1046082E-009  0.9118800E+02  0.7561462E-02  0.1125453E+00
         25   -1    0    0    0    0  0.00000000000E+00  0.00000000000E+00  0.99999998245E-14  0.12509000000E+03  0.12509000000E+03 0.  0.
        -11    1    3    3    0    0  0.28758243573E+02 -0.25959941491E+02 -0.88767681886E+01  0.39746096027E+02  0.51100000000E-03 0.  1.
         23    2    1    0    0    0 -0.31507927337E+01  0.63976801751E+01  0.26696139858E+02  0.97457741863E+02  0.93458385173E+02 0.  0.
         11    1    3    3    0    0 -0.31909036307E+02  0.32357621666E+02  0.35572908046E+02  0.57711645836E+02  0.51100000000E-03 0. -1.
         22    1    1    0    0    0  0.31507927337E+01 -0.63976801751E+01 -0.26696139858E+02  0.27632258137E+02  0.00000000000E+00 0. -1.
</event>
<event>
 5    1  0.1046082E-009  0.9118800E+02  0.7561462E-02  0.1125453E+00
         25   -1    0    0    0    0  0.00000000000E+00  0.00000000000E+00  0.99999998245E-14  0.12509000000E+03  0.12509000000E+03 0.  0.
        -11    1    3    3    0    0 -0.42089210311E+02  0.21373669646E+02 -0.36984669451E+02  0.59968334589E+02  0.51100000000E-03 0.  1.
         23    2    1    0    0    0 -0.23594498820E+02  0.17377568788E+02 -0.77719236034E+01  0.94773617167E+02  0.89793961060E+02 0.  0.
         11    1    3    3    0    0  0.18494711490E+02 -0.39961008576E+01  0.29212745847E+02  0.34805282578E+02  0.51100000000E-03 0. -1.
         22    1    1    0    0    0  0.23594498820E+02 -0.17377568788E+02  0.77719236034E+01  0.30316382833E+02  0.00000000000E+00 0.  1.
</event>
<event>
 5    1  0.1046082E-009  0.9118800E+02  0.7561462E-02  0.1125453E+00
         25   -1    0    0    0    0  0.00000000000E+00  0.00000000000E+00  0.99999998245E-14  0.12509000000E+03  0.12509000000E+03 0.  0.
        -11    1    3    3    0    0 -0.13394493077E+02 -0.12290473913E+02  0.18050239083E+02  0.25617949274E+02  0.51100000000E-03 0.  1.
         23    2    1    0    0    0  0.84889947472E+01  0.66273378392E+01 -0.36321361920E+02  0.87205623664E+02  0.78546768414E+02 0.  0.
         11    1    3    3    0    0  0.21883487824E+02  0.18917811752E+02 -0.54371601003E+02  0.61587674390E+02  0.51100000000E-03 0. -1.
         22    1    1    0    0    0 -0.84889947472E+01 -0.66273378392E+01  0.36321361920E+02  0.37884376336E+02  0.00000000000E+00 0. -1.
</event>
<event>
 5    1  0.1046082E-009  0.9118800E+02  0.7561462E-02  0.1125453E+00
         25   -1    0    0    0    0  0.00000000000E+00  0.00000000000E+00  0.99999998245E-14  0.12509000000E+03  0.12509000000E+03 0.  0.
        -11    1    3    3    0    0  0.69484041495E+01 -0.45186545388E+02 -0.40914572330E+02  0.61352314004E+02  0.51100000000E-03 0.  1.
         23    2    1    0    0    0  0.68114257756E+01 -0.14472151805E+02 -0.23508127661E+02  0.96656379670E+02  0.92379570067E+02 0.  0.
         11    1    3    3    0    0 -0.13697837387E+00  0.30714393583E+02  0.17406444669E+02  0.35304065666E+02  0.51100000000E-03 0. -1.
         22    1    1    0    0    0 -0.68114257756E+01  0.14472151805E+02  0.23508127661E+02  0.28433620330E+02  0.00000000000E+00 0.  1.
</event>
<event>
 5    1  0.1046082E-009  0.9118800E+02  0.7561462E-02  0.1125453E+00
         25   -1    0    0    0    0  0.00000000000E+00  0.00000000000E+00  0.99999998245E-14  0.12509000000E+03  0.12509000000E+03 0.  0.
        -11    1    3    3    0    0 -0.39038793579E+02 -0.29103576281E+02 -0.14754330321E+02  0.50879620871E+02  0.51100000000E-03 0. -1.
         23    2    1    0    0    0  0.48376344536E+01 -0.28335335149E+02 -0.77501082994E+01  0.95318233110E+02  0.90549475202E+02 0.  0.
         11    1    3    3    0    0  0.43876428033E+02  0.76824113165E+00  0.70042220213E+01  0.44438612239E+02  0.51100000000E-03 0.  1.
         22    1    1    0    0    0 -0.48376344536E+01  0.28335335149E+02  0.77501082994E+01  0.29771766890E+02  0.00000000000E+00 0. -1.
</event>
<event>
 5    1  0.1046082E-009  0.9118800E+02  0.7561462E-02  0.1125453E+00
         25   -1    0    0    0    0  0.00000000000E+00  0.00000000000E+00  0.99999998245E-14  0.12509000000E+03  0.12509000000E+03 0.  0.
        -11    1    3    3    0    0  0.40449223791E+02  0.91353549285E+00 -0.56662961231E+01  0.40854389782E+02  0.51100000000E-03 0.  1.
         23    2    1    0    0    0 -0.63732834391E+01 -0.12434101715E+02 -0.27523282534E+02  0.94223242660E+02  0.89023944805E+02 0.  0.
         11    1    3    3    0    0 -0.46822507230E+02 -0.13347637208E+02 -0.21856986411E+02  0.53368852879E+02  0.51100000000E-03 0. -1.
         22    1    1    0    0    0  0.63732834391E+01  0.12434101715E+02  0.27523282534E+02  0.30866757340E+02  0.00000000000E+00 0. -1.
</event>
<event>
 5    1  0.1046082E-009  0.9118800E+02  0.7561462E-02  0.1125453E+00
         25   -1    0    0    0    0  0.00000000000E+00  0.00000000000E+00  0.99999998245E-14  0.12509000000E+03  0.12509000000E+03 0.  0.
        -11    1    3    3    0    0  0.55331687146E+02  0.12013264205E+02 -0.24834823810E+02  0.61827846422E+02  0.51100000000E-03 0.  1.
         23    2    1    0    0    0  0.23169644681E+02  0.11269022225E+02 -0.13956806566E+02  0.95787854241E+02  0.91195927947E+02 0.  0.
         11    1    3    3    0    0 -0.32162042465E+02 -0.74424197965E+00  0.10878017244E+02  0.33960007819E+02  0.51100000000E-03 0. -1.
         22    1    1    0    0    0 -0.23169644681E+02 -0.11269022225E+02  0.13956806566E+02  0.29302145759E+02  0.00000000000E+00 0.  1.
</event>
<event>
 5    1  0.1046082E-009  0.9118800E+02  0.7561462E-02  0.1125453E+00
         25   -1    0    0    0    0  0.00000000000E+00  0.00000000000E+00  0.99999998245E-14  0.12509000000E+03  0.12509000000E+03 0.  0.
        -11    1    3    3    0    0  0.23916887275E+02  0.37793499230E+01 -0.27208994181E+02  0.36422937105E+02  0.51100000000E-03 0.  1.
         23    2    1    0    0    0  0.72509522953E+01 -0.11720837046E+02  0.26756971522E+02  0.94991995826E+02  0.90097665983E+02 0.  0.
         11    1    3    3    0    0 -0.16665934980E+02 -0.15500186969E+02  0.53965965703E+02  0.58569058720E+02  0.51100000000E-03 0. -1.
         22    1    1    0    0    0 -0.72509522953E+01  0.11720837046E+02 -0.26756971522E+02  0.30098004174E+02  0.00000000000E+00 0.  1.
</event>
<event>
 5    1  0.1046082E-009  0.9118800E+02  0.7561462E-02  0.1125453E+00
         25   -1    0    0    0    0  0.00000000000E+00  0.00000000000E+00  0.99999998245E-14  0.12509000000E+03  0.12509000000E+03 0.  0.
        -11    1    3    3    0    0  0.75789087169E+01 -0.38258744295E+02 -0.14727469934E+02  0.41690163628E+02  0.51100000000E-03 0.  1.
         23    2    1    0    0    0  0.23499041123E+02  0.10726110506E+02  0.80851878486E+01  0.98022960213E+02  0.94211868074E+02 0.  0.
         11    1    3    3    0    0  0.15920132406E+02  0.48984854801E+02  0.22812657782E+02  0.56332796585E+02  0.51100000000E-03 0. -1.
         22    1    1    0    0    0 -0.23499041123E+02 -0.10726110506E+02 -0.80851878486E+01  0.27067039787E+02  0.00000000000E+00 0. -1.
</event>
<event>
 5    1  0.1046082E-009  0.9118800E+02  0.7561462E-02  0.1125453E+00
         25   -1    0    0    0    0  0.00000000000E+00  0.00000000000E+00  0.99999998245E-14  0.12509000000E+03  0.12509000000E+03 0.  0.
        -11    1    3    3    0    0  0.28778517913E+02  0.72991179047E+01  0.56377008084E+01  0.30220256222E+02  0.51100000000E-03 0. -1.
         23    2    1    0    0    0 -0.32812897745E+02  0.17782120337E+01  0.22959209697E+01  0.92148847173E+02  0.86059807609E+02 0.  0.
         11    1    3    3    0    0 -0.61591415658E+02 -0.55209058710E+01 -0.33417798387E+01  0.61928590951E+02  0.51100000000E-03 0.  1.
         22    1    1    0    0    0  0.32812897745E+02 -0.17782120337E+01 -0.22959209697E+01  0.32941152827E+02  0.00000000000E+00 0.  1.
</event>
<event>
 5    1  0.1046082E-009  0.9118800E+02  0.7561462E-02  0.1125453E+00
         25   -1    0    0    0    0  0.00000000000E+00  0.00000000000E+00  0.99999998245E-14  0.12509000000E+03  0.12509000000E+03 0.  0.
        -11    1    3    3    0    0  0.40120544794E+02 -0.21923126981E+02  0.39938035221E+02  0.60706904622E+02  0.51100000000E-03 0.  1.
         23    2    1    0    0    0  0.19389932003E+02 -0.62140518438E+00  0.23300649765E+02  0.94770437224E+02  0.89789531042E+02 0.  0.
         11    1    3    3    0    0 -0.20730612791E+02  0.21301721797E+02 -0.16637385457E+02  0.34063532602E+02  0.51100000000E-03 0. -1.
         22    1    1    0    0    0 -0.19389932003E+02  0.62140518438E+00 -0.23300649765E+02  0.30319562776E+02  0.00000000000E+00 0.  1.
</event>
<event>
 5    1  0.1046082E-009  0.9118800E+02  0.7561462E-02  0.1125453E+00
         25   -1    0    0    0    0  0.00000000000E+00  0.00000000000E+00  0.99999998245E-14  0.12509000000E+03  0.12509000000E+03 0.  0.
        -11    1    3    3    0    0  0.36566111857E+02  0.21545278233E+02  0.13930458217E+02  0.44669197630E+02  0.51100000000E-03 0. -1.
         23    2    1    0    0    0  0.11154842796E+02  0.19808880391E+02 -0.25068216651E+02  0.91248638529E+02  0.84741231329E+02 0.  0.
         11    1    3    3    0    0 -0.25411269061E+02 -0.17363978421E+01 -0.38998674868E+02  0.46579440899E+02  0.51100000000E-03 0.  1.
         22    1    1    0    0    0 -0.11154842796E+02 -0.19808880391E+02  0.25068216651E+02  0.33841361471E+02  0.00000000000E+00 0. -1.
</event>
<event>
 5    1  0.1046082E-009  0.9118800E+02  0.7561462E-02  0.1125453E+00
         25   -1    0    0    0    0  0.00000000000E+00  0.00000000000E+00  0.99999998245E-14  0.12509000000E+03  0.12509000000E+03 0.  0.
        -11    1    3    3    0    0  0.33559376986E+01 -0.28942716549E+02 -0.54371450951E+02  0.61686285655E+02  0.51100000000E-03 0.  1.
         23    2    1    0    0    0  0.46395051410E+01 -0.73232546708E+01 -0.27820947778E+02  0.95949646498E+02  0.91417582887E+02 0.  0.
         11    1    3    3    0    0  0.12835674424E+01  0.21619461879E+02  0.26550503173E+02  0.34263360843E+02  0.51100000000E-03 0. -1.
         22    1    1    0    0    0 -0.46395051410E+01  0.73232546708E+01  0.27820947778E+02  0.29140353502E+02  0.00000000000E+00 0.  1.
</event>
<event>
 5    1  0.1046082E-009  0.9118800E+02  0.7561462E-02  0.1125453E+00
         25   -1    0    0    0    0  0.00000000000E+00  0.00000000000E+00  0.99999998245E-14  0.12509000000E+03  0.12509000000E+03 0.  0.
        -11    1    3    3    0    0 -0.14851887837E+02  0.59043653338E+02 -0.76875910044E+01  0.61366363976E+02  0.51100000000E-03 0. -1.
         23    2    1    0    0    0  0.78289890864E+00  0.27993920136E+02  0.49674718941E+00  0.97080729159E+02  0.92952400297E+02 0.  0.
         11    1    3    3    0    0  0.15634786745E+02 -0.31049733202E+02  0.81843381938E+01  0.35714365183E+02  0.51100000000E-03 0.  1.
         22    1    1    0    0    0 -0.78289890864E+00 -0.27993920136E+02 -0.49674718941E+00  0.28009270841E+02  0.00000000000E+00 0. -1.
</event>
<event>
 5    1  0.1046082E-009  0.9118800E+02  0.7561462E-02  0.1125453E+00
         25   -1    0    0    0    0  0.00000000000E+00  0.00000000000E+00  0.99999998245E-14  0.12509000000E+03  0.12509000000E+03 0.  0.
        -11    1    3    3    0    0 -0.25142757580E+02 -0.23410893333E+02 -0.80100429128E+00  0.34363786076E+02  0.51100000000E-03 0. -1.
         23    2    1    0    0    0  0.18540605266E+02  0.16653661242E+02 -0.15896704072E+02  0.95529829555E+02  0.90841315810E+02 0.  0.
         11    1    3    3    0    0  0.43683362846E+02  0.40064554574E+02 -0.15095699781E+02  0.61166043479E+02  0.51100000000E-03 0.  1.
         22    1    1    0    0    0 -0.18540605266E+02 -0.16653661242E+02  0.15896704072E+02  0.29560170445E+02  0.00000000000E+00 0.  1.
</event>
<event>
 5    1  0.1046082E-009  0.9118800E+02  0.7561462E-02  0.1125453E+00
         25   -1    0    0    0    0  0.00000000000E+00  0.00000000000E+00  0.99999998245E-14  0.12509000000E+03  0.12509000000E+03 0.  0.
        -11    1    3    3    0    0 -0.37040233086E+02 -0.11888256084E+02  0.48315419819E+02  0.62029745222E+02  0.51100000000E-03 0.  1.
         23    2    1    0    0    0 -0.14809684027E+02 -0.12631297689E+01  0.25304327241E+02  0.95743258871E+02  0.91134737638E+02 0.  0.
         11    1    3    3    0    0  0.22230549059E+02  0.10625126316E+02 -0.23011092577E+02  0.33713513649E+02  0.51100000000E-03 0. -1.
         22    1    1    0    0    0  0.14809684027E+02  0.12631297689E+01 -0.25304327241E+02  0.29346741129E+02  0.00000000000E+00 0.  1.
</event>
<event>
 5    1  0.1046082E-009  0.9118800E+02  0.7561462E-02  0.1125453E+00
         25   -1    0    0    0    0  0.00000000000E+00  0.00000000000E+00  0.99999998245E-14  0.12509000000E+03  0.12509000000E+03 0.  0.
        -11    1    3    3    0    0 -0.32193710191E+02  0.31698267610E+02 -0.22696142691E+01  0.45236780329E+02  0.51100000000E-03 0.  1.
         23    2    1    0    0    0  0.84516861235E+01  0.95208361815E+01 -0.25163259815E+02  0.96889521911E+02  0.92694727421E+02 0.  0.
         11    1    3    3    0    0  0.40645396314E+02 -0.22177431428E+02 -0.22893645546E+02  0.51652741582E+02  0.51100000000E-03 0. -1.
         22    1    1    0    0    0 -0.84516861235E+01 -0.95208361815E+01  0.25163259815E+02  0.28200478089E+02  0.00000000000E+00 0. -1.
</event>
<event>
 5    1  0.1046082E-009  0.9118800E+02  0.7561462E-02  0.1125453E+00
         25   -1    0    0    0    0  0.00000000000E+00  0.00000000000E+00  0.99999998245E-14  0.12509000000E+03  0.12509000000E+03 0.  0.
        -11    1    3    3    0    0 -0.30454205780E+02 -0.26221110500E+02 -0.33914320830E+02  0.52585040108E+02  0.51100000000E-03 0. -1.
         23    2    1    0    0    0 -0.49613484899E+01  0.69083158375E+01 -0.29228334994E+02  0.94649313854E+02  0.89620629544E+02 0.  0.
         11    1    3    3    0    0  0.25492857290E+02  0.33129426337E+02  0.46859858362E+01  0.42064273746E+02  0.51100000000E-03 0.  1.
         22    1    1    0    0    0  0.49613484899E+01 -0.69083158375E+01  0.29228334994E+02  0.30440686146E+02  0.00000000000E+00 0. -1.
</event>
<event>
 5    1  0.1046082E-009  0.9118800E+02  0.7561462E-02  0.1125453E+00
         25   -1    0    0    0    0  0.00000000000E+00  0.00000000000E+00  0.99999998245E-14  0.12509000000E+03  0.12509000000E+03 0.  0.
        -11    1    3    3    0    0 -0.12078057954E+02  0.29654465788E+02 -0.20652355471E+02  0.38102317671E+02  0.51100000000E-03 0. -1.
         23    2    1    0    0    0  0.30514163493E+02 -0.14048957099E+01 -0.49355739145E+00  0.94539525298E+02  0.89467258475E+02 0.  0.
         11    1    3    3    0    0  0.42592221447E+02 -0.31059361498E+02  0.20158798080E+02  0.56437207627E+02  0.51100000000E-03 0.  1.
         22    1    1    0    0    0 -0.30514163493E+02  0.14048957099E+01  0.49355739145E+00  0.30550474702E+02  0.00000000000E+00 0.  1.
</event>
<event>
 5    1  0.1046082E-009  0.9118800E+02  0.7561462E-02  0.1125453E+00
         25   -1    0    0    0    0  0.00000000000E+00  0.00000000000E+00  0.99999998245E-14  0.12509000000E+03  0.12509000000E+03 0.  0.
        -11    1    3    3    0    0 -0.14742876889E+02  0.18917507134E+02 -0.41854012814E+02  0.48238810972E+02  0.51100000000E-03 0. -1.
         23    2    1    0    0    0 -0.23214815360E+02  0.14278466841E+02  0.61045031753E+01  0.97160316390E+02  0.93059442587E+02 0.  0.
         11    1    3    3    0    0 -0.84719384715E+01 -0.46390402929E+01  0.47958515989E+02  0.48921505419E+02  0.51100000000E-03 0.  1.
         22    1    1    0    0    0  0.23214815360E+02 -0.14278466841E+02 -0.61045031753E+01  0.27929683610E+02  0.00000000000E+00 0. -1.
</event>
<event>
 5    1  0.1046082E-009  0.9118800E+02  0.7561462E-02  0.1125453E+00
         25   -1    0    0    0    0  0.00000000000E+00  0.00000000000E+00  0.99999998245E-14  0.12509000000E+03  0.12509000000E+03 0.  0.
        -11    1    3    3    0    0 -0.95496835753E+01  0.42615874515E+02  0.32698188605E+02  0.54557132946E+02  0.51100000000E-03 0.  1.
         23    2    1    0    0    0 -0.15297654170E+02  0.23892172131E+02 -0.42769990742E+01  0.96399464395E+02  0.92031026846E+02 0.  0.
         11    1    3    3    0    0 -0.57479705946E+01 -0.18723702384E+02 -0.36975187679E+02  0.41842331449E+02  0.51100000000E-03 0. -1.
         22    1    1    0    0    0  0.15297654170E+02 -0.23892172131E+02  0.42769990742E+01  0.28690535605E+02  0.00000000000E+00 0.  1.
</event>
<event>
 5    1  0.1046082E-009  0.9118800E+02  0.7561462E-02  0.1125453E+00
         25   -1    0    0    0    0  0.00000000000E+00  0.00000000000E+00  0.99999998245E-14  0.12509000000E+03  0.12509000000E+03 0.  0.
        -11    1    3    3    0    0  0.13879008848E+02  0.12641701366E+02 -0.54744488788E+02  0.57873988570E+02  0.51100000000E-03 0.  1.
         23    2    1    0    0    0 -0.58249123455E+01 -0.62495086993E+01 -0.26896598101E+02  0.96869210638E+02  0.92667313641E+02 0.  0.
         11    1    3    3    0    0 -0.19703921194E+02 -0.18891210065E+02  0.27847890687E+02  0.38995222068E+02  0.51100000000E-03 0. -1.
         22    1    1    0    0    0  0.58249123455E+01  0.62495086993E+01  0.26896598101E+02  0.28220789362E+02  0.00000000000E+00 0.  1.
</event>
<event>
 5    1  0.1046082E-009  0.9118800E+02  0.7561462E-02  0.1125453E+00
         25   -1    0    0    0    0  0.00000000000E+00  0.00000000000E+00  0.99999998245E-14  0.12509000000E+03  0.12509000000E+03 0.  0.
        -11    1    3    3    0    0 -0.73797047834E+01 -0.34953394099E+02 -0.49331601986E+01  0.36062943190E+02  0.51100000000E-03 0. -1.
         23    2    1    0    0    0  0.23896484460E+02  0.16172606476E+02 -0.35993782413E+01  0.96011645619E+02  0.91502379210E+02 0.  0.
         11    1    3    3    0    0  0.31276189243E+02  0.51126000575E+02  0.13337819572E+01  0.59948702429E+02  0.51100000000E-03 0.  1.
         22    1    1    0    0    0 -0.23896484460E+02 -0.16172606476E+02  0.35993782413E+01  0.29078354381E+02  0.00000000000E+00 0.  1.
</event>
<event>
 5    1  0.1046082E-009  0.9118800E+02  0.7561462E-02  0.1125453E+00
         25   -1    0    0    0    0  0.00000000000E+00  0.00000000000E+00  0.99999998245E-14  0.12509000000E+03  0.12509000000E+03 0.  0.
        -11    1    3    3    0    0  0.42799304675E+02  0.10174928813E+02 -0.38442629310E+02  0.58422131128E+02  0.51100000000E-03 0.  1.
         23    2    1    0    0    0  0.77063335945E+01  0.10619318186E+02 -0.26544176236E+02  0.95480022151E+02  0.90772704276E+02 0.  0.
         11    1    3    3    0    0 -0.35092971081E+02  0.44438937319E+00  0.11898453074E+02  0.37057891022E+02  0.51100000000E-03 0. -1.
         22    1    1    0    0    0 -0.77063335945E+01 -0.10619318186E+02  0.26544176236E+02  0.29609977849E+02  0.00000000000E+00 0.  1.
</event>
<event>
 5    1  0.1046082E-009  0.9118800E+02  0.7561462E-02  0.1125453E+00
         25   -1    0    0    0    0  0.00000000000E+00  0.00000000000E+00  0.99999998245E-14  0.12509000000E+03  0.12509000000E+03 0.  0.
        -11    1    3    3    0    0 -0.21919816686E+02 -0.42109629783E+02  0.31542579719E+02  0.56996786046E+02  0.51100000000E-03 0. -1.
         23    2    1    0    0    0 -0.76672458506E+01 -0.87597510668E+01  0.29561842646E+02  0.93318590867E+02  0.87743586450E+02 0.  0.
         11    1    3    3    0    0  0.14252570835E+02  0.33349878716E+02 -0.19807370734E+01  0.36321804821E+02  0.51100000000E-03 0.  1.
         22    1    1    0    0    0  0.76672458506E+01  0.87597510668E+01 -0.29561842646E+02  0.31771409133E+02  0.00000000000E+00 0. -1.
</event>
<event>
 5    1  0.1046082E-009  0.9118800E+02  0.7561462E-02  0.1125453E+00
         25   -1    0    0    0    0  0.00000000000E+00  0.00000000000E+00  0.99999998245E-14  0.12509000000E+03  0.12509000000E+03 0.  0.
        -11    1    3    3    0    0  0.86784479678E+01  0.30077886522E+02  0.20970451772E+02  0.37679630632E+02  0.51100000000E-03 0.  1.
         23    2    1    0    0    0  0.19850843931E+02 -0.16062564358E+02 -0.13364640961E+02  0.96268556481E+02  0.91852922438E+02 0.  0.
         11    1    3    3    0    0  0.11172395963E+02 -0.46140450880E+02 -0.34335092732E+02  0.58588925849E+02  0.51100000000E-03 0. -1.
         22    1    1    0    0    0 -0.19850843931E+02  0.16062564358E+02  0.13364640961E+02  0.28821443519E+02  0.00000000000E+00 0. -1.
</event>
<event>
 5    1  0.1046082E-009  0.9118800E+02  0.7561462E-02  0.1125453E+00
         25   -1    0    0    0    0  0.00000000000E+00  0.00000000000E+00  0.99999998245E-14  0.12509000000E+03  0.12509000000E+03 0.  0.
        -11    1    3    3    0    0 -0.46870620865E+02  0.23634019301E+02 -0.30784074610E+01  0.52582302739E+02  0.51100000000E-03 0.  1.
         23    2    1    0    0    0 -0.86303420129E+01  0.32122522799E+02 -0.20006223868E+01  0.91768208869E+02  0.85504750716E+02 0.  0.
         11    1    3    3    0    0  0.38240278852E+02  0.84885034976E+01  0.10777850742E+01  0.39185906130E+02  0.51100000000E-03 0. -1.
         22    1    1    0    0    0  0.86303420129E+01 -0.32122522799E+02  0.20006223868E+01  0.33321791131E+02  0.00000000000E+00 0.  1.
</event>
<event>
 5    1  0.1046082E-009  0.9118800E+02  0.7561462E-02  0.1125453E+00
         25   -1    0    0    0    0  0.00000000000E+00  0.00000000000E+00  0.99999998245E-14  0.12509000000E+03  0.12509000000E+03 0.  0.
        -11    1    3    3    0    0  0.41630273976E+01 -0.20374830726E+02  0.22683155354E+02  0.30773203624E+02  0.51100000000E-03 0. -1.
         23    2    1    0    0    0 -0.27527767313E+00  0.29574782222E+02 -0.13467798561E+02  0.92591921297E+02  0.86701434649E+02 0.  0.
         11    1    3    3    0    0 -0.44383050707E+01  0.49949612947E+02 -0.36150953916E+02  0.61818717673E+02  0.51100000000E-03 0.  1.
         22    1    1    0    0    0  0.27527767313E+00 -0.29574782222E+02  0.13467798561E+02  0.32498078703E+02  0.00000000000E+00 0.  1.
</event>
<event>
 5    1  0.1046082E-009  0.9118800E+02  0.7561462E-02  0.1125453E+00
         25   -1    0    0    0    0  0.00000000000E+00  0.00000000000E+00  0.99999998245E-14  0.12509000000E+03  0.12509000000E+03 0.  0.
        -11    1    3    3    0    0 -0.25865530810E+02  0.50757905942E+02 -0.11835184097E+02  0.58184725509E+02  0.51100000000E-03 0. -1.
         23    2    1    0    0    0 -0.24331789184E+02  0.12268218469E+02 -0.65326714773E+01  0.97068205876E+02  0.92935545655E+02 0.  0.
         11    1    3    3    0    0  0.15337416259E+01 -0.38489687473E+02  0.53025126198E+01  0.38883480368E+02  0.51100000000E-03 0.  1.
         22    1    1    0    0    0  0.24331789184E+02 -0.12268218469E+02  0.65326714773E+01  0.28021794124E+02  0.00000000000E+00 0. -1.
</event>
<event>
 5    1  0.1046082E-009  0.9118800E+02  0.7561462E-02  0.1125453E+00
         25   -1    0    0    0    0  0.00000000000E+00  0.00000000000E+00  0.99999998245E-14  0.12509000000E+03  0.12509000000E+03 0.  0.
        -11    1    3    3    0    0 -0.30690193220E+01 -0.79039051002E+01 -0.35047408506E+02  0.36058444762E+02  0.51100000000E-03 0.  1.
         23    2    1    0    0    0 -0.72370034004E+01  0.23751975973E+02  0.15480764293E+02  0.95829366993E+02  0.91252851651E+02 0.  0.
         11    1    3    3    0    0 -0.41679840784E+01  0.31655881074E+02  0.50528172798E+02  0.59770922232E+02  0.51100000000E-03 0. -1.
         22    1    1    0    0    0  0.72370034004E+01 -0.23751975973E+02 -0.15480764293E+02  0.29260633007E+02  0.00000000000E+00 0. -1.
</event>
<event>
 5    1  0.1046082E-009  0.9118800E+02  0.7561462E-02  0.1125453E+00
         25   -1    0    0    0    0  0.00000000000E+00  0.00000000000E+00  0.99999998245E-14  0.12509000000E+03  0.12509000000E+03 0.  0.
        -11    1    3    3    0    0 -0.67116289770E+01  0.81418124037E+01 -0.31240441976E+02  0.32974236729E+02  0.51100000000E-03 0. -1.
         23    2    1    0    0    0  0.14029542906E+02  0.21119021045E+01  0.26724561753E+02  0.94832928008E+02  0.89876547714E+02 0.  0.
         11    1    3    3    0    0  0.20741171883E+02 -0.60299102991E+01  0.57965003728E+02  0.61858691279E+02  0.51100000000E-03 0.  1.
         22    1    1    0    0    0 -0.14029542906E+02 -0.21119021045E+01 -0.26724561753E+02  0.30257071992E+02  0.00000000000E+00 0.  1.
</event>
<event>
 5    1  0.1046082E-009  0.9118800E+02  0.7561462E-02  0.1125453E+00
         25   -1    0    0    0    0  0.00000000000E+00  0.00000000000E+00  0.99999998245E-14  0.12509000000E+03  0.12509000000E+03 0.  0.
        -11    1    3    3    0    0 -0.17270015038E+02 -0.10858133744E+02 -0.30151395439E+02  0.36404108766E+02  0.51100000000E-03 0. -1.
         23    2    1    0    0    0  0.26621664548E+02 -0.18184055379E+02  0.41442476451E+01  0.92585420601E+02  0.86692055150E+02 0.  0.
         11    1    3    3    0    0  0.43891679586E+02 -0.73259216346E+01  0.34295643084E+02  0.56181311835E+02  0.51100000000E-03 0.  1.
         22    1    1    0    0    0 -0.26621664548E+02  0.18184055379E+02 -0.41442476451E+01  0.32504579399E+02  0.00000000000E+00 0.  1.
</event>
<event>
 5    1  0.1046082E-009  0.9118800E+02  0.7561462E-02  0.1125453E+00
         25   -1    0    0    0    0  0.00000000000E+00  0.00000000000E+00  0.99999998245E-14  0.12509000000E+03  0.12509000000E+03 0.  0.
        -11    1    3    3    0    0 -0.45648342460E+02  0.22814674707E+02  0.15662597856E+02  0.53381621587E+02  0.51100000000E-03 0.  1.
         23    2    1    0    0    0 -0.26411640303E+02 -0.12509302781E+02  0.22585114196E+01  0.95778598235E+02  0.91183230950E+02 0.  0.
         11    1    3    3    0    0  0.19236702157E+02 -0.35323977489E+02 -0.13404086437E+02  0.42396976649E+02  0.51100000000E-03 0. -1.
         22    1    1    0    0    0  0.26411640303E+02  0.12509302781E+02 -0.22585114196E+01  0.29311401765E+02  0.00000000000E+00 0. -1.
</event>
<event>
 5    1  0.1046082E-009  0.9118800E+02  0.7561462E-02  0.1125453E+00
         25   -1    0    0    0    0  0.00000000000E+00  0.00000000000E+00  0.99999998245E-14  0.12509000000E+03  0.12509000000E+03 0.  0.
        -11    1    3    3    0    0  0.29876464975E+02 -0.44309479375E+02 -0.14487482572E+02  0.55369849860E+02  0.51100000000E-03 0.  1.
         23    2    1    0    0    0  0.17932300373E+02 -0.47670857664E+01 -0.20866923658E+02  0.97166515148E+02  0.93067774550E+02 0.  0.
         11    1    3    3    0    0 -0.11944164602E+02  0.39542393609E+02 -0.63794410855E+01  0.41796665288E+02  0.51100000000E-03 0. -1.
         22    1    1    0    0    0 -0.17932300373E+02  0.47670857664E+01  0.20866923658E+02  0.27923484852E+02  0.00000000000E+00 0.  1.
</event>
<event>
 5    1  0.1046082E-009  0.9118800E+02  0.7561462E-02  0.1125453E+00
         25   -1    0    0    0    0  0.00000000000E+00  0.00000000000E+00  0.99999998245E-14  0.12509000000E+03  0.12509000000E+03 0.  0.
        -11    1    3    3    0    0 -0.23319155269E+02 -0.64575531883E+01 -0.29818684290E+02  0.38401001663E+02  0.51100000000E-03 0.  1.
         23    2    1    0    0    0  0.26978189580E+02 -0.87045019094E+01 -0.34683376900E+00  0.96740196470E+02  0.92492995697E+02 0.  0.
         11    1    3    3    0    0  0.50297344849E+02 -0.22469487211E+01  0.29471850521E+02  0.58339194808E+02  0.51100000000E-03 0. -1.
         22    1    1    0    0    0 -0.26978189580E+02  0.87045019094E+01  0.34683376900E+00  0.28349803530E+02  0.00000000000E+00 0. -1.
</event>
<event>
 5    1  0.1046082E-009  0.9118800E+02  0.7561462E-02  0.1125453E+00
         25   -1    0    0    0    0  0.00000000000E+00  0.00000000000E+00  0.99999998245E-14  0.12509000000E+03  0.12509000000E+03 0.  0.
        -11    1    3    3    0    0  0.20126702108E+02 -0.22267367207E+01 -0.29112539944E+02  0.35462409343E+02  0.51100000000E-03 0.  1.
         23    2    1    0    0    0  0.22984265297E+01 -0.11316948578E+02  0.27369045507E+02  0.95384432481E+02  0.90640880502E+02 0.  0.
         11    1    3    3    0    0 -0.17828275578E+02 -0.90902118576E+01  0.56481585451E+02  0.59922023138E+02  0.51100000000E-03 0. -1.
         22    1    1    0    0    0 -0.22984265297E+01  0.11316948578E+02 -0.27369045507E+02  0.29705567519E+02  0.00000000000E+00 0. -1.
</event>
<event>
 5    1  0.1046082E-009  0.9118800E+02  0.7561462E-02  0.1125453E+00
         25   -1    0    0    0    0  0.00000000000E+00  0.00000000000E+00  0.99999998245E-14  0.12509000000E+03  0.12509000000E+03 0.  0.
        -11    1    3    3    0    0  0.28576973549E+02 -0.27156393993E+02 -0.63276476795E+01  0.39926836555E+02  0.51100000000E-03 0. -1.
         23    2    1    0    0    0  0.17019014380E+02  0.51682457100E+01 -0.35763431034E+02  0.85147784069E+02  0.75198168317E+02 0.  0.
         11    1    3    3    0    0 -0.11557959169E+02  0.32324639703E+02 -0.29435783355E+02  0.45220947513E+02  0.51100000000E-03 0.  1.
         22    1    1    0    0    0 -0.17019014380E+02 -0.51682457100E+01  0.35763431034E+02  0.39942215931E+02  0.00000000000E+00 0.  1.
</event>
<event>
 5    1  0.1046082E-009  0.9118800E+02  0.7561462E-02  0.1125453E+00
         25   -1    0    0    0    0  0.00000000000E+00  0.00000000000E+00  0.99999998245E-14  0.12509000000E+03  0.12509000000E+03 0.  0.
        -11    1    3    3    0    0 -0.66677786809E+01  0.49528370996E+02 -0.73045132633E+01  0.50506184971E+02  0.51100000000E-03 0.  1.
         23    2    1    0    0    0  0.52041398203E+01  0.19150835230E+02  0.22780325838E+02  0.94877737481E+02  0.89938891826E+02 0.  0.
         11    1    3    3    0    0  0.11871918501E+02 -0.30377535766E+02  0.30084839101E+02  0.44371552510E+02  0.51100000000E-03 0. -1.
         22    1    1    0    0    0 -0.52041398203E+01 -0.19150835230E+02 -0.22780325838E+02  0.30212262519E+02  0.00000000000E+00 0.  1.
</event>
<event>
 5    1  0.1046082E-009  0.9118800E+02  0.7561462E-02  0.1125453E+00
         25   -1    0    0    0    0  0.00000000000E+00  0.00000000000E+00  0.99999998245E-14  0.12509000000E+03  0.12509000000E+03 0.  0.
        -11    1    3    3    0    0 -0.19414695652E+02  0.34765154785E+02 -0.52198341646E+01  0.40159594912E+02  0.51100000000E-03 0. -1.
         23    2    1    0    0    0 -0.24962184984E+02 -0.18380549396E+02  0.17212054517E+01  0.94042974000E+02  0.88770282951E+02 0.  0.
         11    1    3    3    0    0 -0.55474893312E+01 -0.53145704181E+02  0.69410396163E+01  0.53883379088E+02  0.51100000000E-03 0.  1.
         22    1    1    0    0    0  0.24962184984E+02  0.18380549396E+02 -0.17212054517E+01  0.31047026000E+02  0.00000000000E+00 0.  1.
</event>
<event>
 5    1  0.1046082E-009  0.9118800E+02  0.7561462E-02  0.1125453E+00
         25   -1    0    0    0    0  0.00000000000E+00  0.00000000000E+00  0.99999998245E-14  0.12509000000E+03  0.12509000000E+03 0.  0.
        -11    1    3    3    0    0 -0.56751541296E+01  0.12068984789E+02  0.20412775502E+02  0.24383379015E+02  0.51100000000E-03 0. -1.
         23    2    1    0    0    0  0.61086061346E+01 -0.11779505991E+02 -0.35983230284E+02  0.86738146173E+02  0.77798723059E+02 0.  0.
         11    1    3    3    0    0  0.11783760264E+02 -0.23848490780E+02 -0.56396005786E+02  0.62354767158E+02  0.51100000000E-03 0.  1.
         22    1    1    0    0    0 -0.61086061346E+01  0.11779505991E+02  0.35983230284E+02  0.38351853827E+02  0.00000000000E+00 0.  1.
</event>
<event>
 5    1  0.1046082E-009  0.9118800E+02  0.7561462E-02  0.1125453E+00
         25   -1    0    0    0    0  0.00000000000E+00  0.00000000000E+00  0.99999998245E-14  0.12509000000E+03  0.12509000000E+03 0.  0.
        -11    1    3    3    0    0 -0.52270602020E+02  0.22132271693E+02 -0.15644204514E+02  0.58879490665E+02  0.51100000000E-03 0.  1.
         23    2    1    0    0    0 -0.32394356163E+02  0.12729108641E+01  0.19027776887E+01  0.92614852946E+02  0.86734513372E+02 0.  0.
         11    1    3    3    0    0  0.19876245857E+02 -0.20859360829E+02  0.17546982203E+02  0.33735362281E+02  0.51100000000E-03 0. -1.
         22    1    1    0    0    0  0.32394356163E+02 -0.12729108641E+01 -0.19027776887E+01  0.32475147054E+02  0.00000000000E+00 0.  1.
</event>
<event>
 5    1  0.1046082E-009  0.9118800E+02  0.7561462E-02  0.1125453E+00
         25   -1    0    0    0    0  0.00000000000E+00  0.00000000000E+00  0.99999998245E-14  0.12509000000E+03  0.12509000000E+03 0.  0.
        -11    1    3    3    0    0 -0.13088726637E+02  0.26724308691E+02  0.48971004295E+02  0.57303252106E+02  0.51100000000E-03 0.  1.
         23    2    1    0    0    0  0.10249800782E+02  0.20088148152E+02  0.25236842615E+02  0.91244906746E+02  0.84735722512E+02 0.  0.
         11    1    3    3    0    0  0.23338527418E+02 -0.66361605391E+01 -0.23734161680E+02  0.33941654640E+02  0.51100000000E-03 0. -1.
         22    1    1    0    0    0 -0.10249800782E+02 -0.20088148152E+02 -0.25236842615E+02  0.33845093254E+02  0.00000000000E+00 0.  1.
</event>
<event>
 5    1  0.1046082E-009  0.9118800E+02  0.7561462E-02  0.1125453E+00
         25   -1    0    0    0    0  0.00000000000E+00  0.00000000000E+00  0.99999998245E-14  0.12509000000E+03  0.12509000000E+03 0.  0.
        -11    1    3    3    0    0  0.44381761210E+02  0.16259064873E+02 -0.24834938458E+02  0.53393558480E+02  0.51100000000E-03 0.  1.
         23    2    1    0    0    0  0.27117936257E+02 -0.11555200529E+02  0.17440312748E+01  0.95561255171E+02  0.90884579103E+02 0.  0.
         11    1    3    3    0    0 -0.17263824954E+02 -0.27814265402E+02  0.26578969733E+02  0.42167696691E+02  0.51100000000E-03 0. -1.
         22    1    1    0    0    0 -0.27117936257E+02  0.11555200529E+02 -0.17440312748E+01  0.29528744829E+02  0.00000000000E+00 0.  1.
</event>
<event>
 5    1  0.1046082E-009  0.9118800E+02  0.7561462E-02  0.1125453E+00
         25   -1    0    0    0    0  0.00000000000E+00  0.00000000000E+00  0.99999998245E-14  0.12509000000E+03  0.12509000000E+03 0.  0.
        -11    1    3    3    0    0  0.52050220699E+01  0.59259986344E+02 -0.11744164487E+02  0.60636322745E+02  0.51100000000E-03 0.  1.
         23    2    1    0    0    0  0.13002200449E+02  0.24451831840E+02 -0.57030478272E+01  0.96815027828E+02  0.92594144318E+02 0.  0.
         11    1    3    3    0    0  0.77971783792E+01 -0.34808154505E+02  0.60411166594E+01  0.36178705083E+02  0.51100000000E-03 0. -1.
         22    1    1    0    0    0 -0.13002200449E+02 -0.24451831840E+02  0.57030478272E+01  0.28274972172E+02  0.00000000000E+00 0.  1.
</event>
<event>
 5    1  0.1046082E-009  0.9118800E+02  0.7561462E-02  0.1125453E+00
         25   -1    0    0    0    0  0.00000000000E+00  0.00000000000E+00  0.99999998245E-14  0.12509000000E+03  0.12509000000E+03 0.  0.
        -11    1    3    3    0    0 -0.18562206546E+02  0.17476818302E+02 -0.42703757703E+02  0.49735355755E+02  0.51100000000E-03 0.  1.
         23    2    1    0    0    0  0.18914753298E+02  0.14157606402E+02 -0.10598422738E+02  0.99195362025E+02  0.95755874866E+02 0.  0.
         11    1    3    3    0    0  0.37476959843E+02 -0.33192119004E+01  0.32105334965E+02  0.49460006270E+02  0.51100000000E-03 0. -1.
         22    1    1    0    0    0 -0.18914753298E+02 -0.14157606402E+02  0.10598422738E+02  0.25894637975E+02  0.00000000000E+00 0.  1.
</event>
<event>
 5    1  0.1046082E-009  0.9118800E+02  0.7561462E-02  0.1125453E+00
         25   -1    0    0    0    0  0.00000000000E+00  0.00000000000E+00  0.99999998245E-14  0.12509000000E+03  0.12509000000E+03 0.  0.
        -11    1    3    3    0    0  0.24179377216E+02  0.20727220808E+02 -0.22570470944E+02  0.39034422294E+02  0.51100000000E-03 0.  1.
         23    2    1    0    0    0  0.36256500247E+01  0.54327875489E+01  0.28328877409E+02  0.96017920372E+02  0.91510956823E+02 0.  0.
         11    1    3    3    0    0 -0.20553727191E+02 -0.15294433259E+02  0.50899348353E+02  0.56983498078E+02  0.51100000000E-03 0. -1.
         22    1    1    0    0    0 -0.36256500247E+01 -0.54327875489E+01 -0.28328877409E+02  0.29072079628E+02  0.00000000000E+00 0. -1.
</event>
<event>
 5    1  0.1046082E-009  0.9118800E+02  0.7561462E-02  0.1125453E+00
         25   -1    0    0    0    0  0.00000000000E+00  0.00000000000E+00  0.99999998245E-14  0.12509000000E+03  0.12509000000E+03 0.  0.
        -11    1    3    3    0    0  0.53045347601E+02  0.28690999178E+02 -0.91773087587E+01  0.61001683028E+02  0.51100000000E-03 0.  1.
         23    2    1    0    0    0  0.22426363693E+02  0.12258274379E+02 -0.13778023980E+02  0.96054831255E+02  0.91561397890E+02 0.  0.
         11    1    3    3    0    0 -0.30618983907E+02 -0.16432724800E+02 -0.46007152211E+01  0.35053148228E+02  0.51100000000E-03 0. -1.
         22    1    1    0    0    0 -0.22426363693E+02 -0.12258274379E+02  0.13778023980E+02  0.29035168745E+02  0.00000000000E+00 0.  1.
</event>
<event>
 5    1  0.1046082E-009  0.9118800E+02  0.7561462E-02  0.1125453E+00
         25   -1    0    0    0    0  0.00000000000E+00  0.00000000000E+00  0.99999998245E-14  0.12509000000E+03  0.12509000000E+03 0.  0.
        -11    1    3    3    0    0  0.18078747504E+02  0.42783097015E+00  0.33791875172E+02  0.38326426635E+02  0.51100000000E-03 0. -1.
         23    2    1    0    0    0 -0.22039777756E+01 -0.23453410437E+02 -0.15613020771E+02  0.96828959737E+02  0.92612963709E+02 0.  0.
         11    1    3    3    0    0 -0.20282725280E+02 -0.23881241408E+02 -0.49404895943E+02  0.58502533102E+02  0.51100000000E-03 0.  1.
         22    1    1    0    0    0  0.22039777756E+01  0.23453410437E+02  0.15613020771E+02  0.28261040263E+02  0.00000000000E+00 0.  1.
</event>
<event>
 5    1  0.1046082E-009  0.9118800E+02  0.7561462E-02  0.1125453E+00
         25   -1    0    0    0    0  0.00000000000E+00  0.00000000000E+00  0.99999998245E-14  0.12509000000E+03  0.12509000000E+03 0.  0.
        -11    1    3    3    0    0  0.26060787359E+01  0.36417309505E+02 -0.19735411166E+02  0.41502994255E+02  0.51100000000E-03 0.  1.
         23    2    1    0    0    0  0.79284944003E+01 -0.16058907506E+02 -0.24809153192E+02  0.94491901761E+02  0.89400648111E+02 0.  0.
         11    1    3    3    0    0  0.53224156643E+01 -0.52476217011E+02 -0.50737420261E+01  0.52988907506E+02  0.51100000000E-03 0. -1.
         22    1    1    0    0    0 -0.79284944003E+01  0.16058907506E+02  0.24809153192E+02  0.30598098239E+02  0.00000000000E+00 0. -1.
</event>
<event>
 5    1  0.1046082E-009  0.9118800E+02  0.7561462E-02  0.1125453E+00
         25   -1    0    0    0    0  0.00000000000E+00  0.00000000000E+00  0.99999998245E-14  0.12509000000E+03  0.12509000000E+03 0.  0.
        -11    1    3    3    0    0 -0.10692100014E+02  0.56624669801E+02  0.24308629650E+02  0.62542655113E+02  0.51100000000E-03 0. -1.
         23    2    1    0    0    0 -0.52248654567E+01  0.26089377422E+02  0.10958297872E+02  0.96314331014E+02  0.91915239396E+02 0.  0.
         11    1    3    3    0    0  0.54672345571E+01 -0.30535292379E+02 -0.13350331779E+02  0.33771675902E+02  0.51100000000E-03 0.  1.
         22    1    1    0    0    0  0.52248654567E+01 -0.26089377422E+02 -0.10958297872E+02  0.28775668986E+02  0.00000000000E+00 0. -1.
</event>
<event>
 5    1  0.1046082E-009  0.9118800E+02  0.7561462E-02  0.1125453E+00
         25   -1    0    0    0    0  0.00000000000E+00  0.00000000000E+00  0.99999998245E-14  0.12509000000E+03  0.12509000000E+03 0.  0.
        -11    1    3    3    0    0  0.30980987457E+02 -0.12108539592E+02 -0.16646511832E+02  0.37196030316E+02  0.51100000000E-03 0.  1.
         23    2    1    0    0    0 -0.22105854807E+02 -0.22858761940E+02 -0.24131298513E+01  0.93199327228E+02  0.87573395423E+02 0.  0.
         11    1    3    3    0    0 -0.53086842264E+02 -0.10750222348E+02  0.14233381981E+02  0.56003296912E+02  0.51100000000E-03 0. -1.
         22    1    1    0    0    0  0.22105854807E+02  0.22858761940E+02  0.24131298513E+01  0.31890672772E+02  0.00000000000E+00 0. -1.
</event>
<event>
 5    1  0.1046082E-009  0.9118800E+02  0.7561462E-02  0.1125453E+00
         25   -1    0    0    0    0  0.00000000000E+00  0.00000000000E+00  0.99999998245E-14  0.12509000000E+03  0.12509000000E+03 0.  0.
        -11    1    3    3    0    0 -0.16041596280E+02 -0.29328341811E+02 -0.81470720470E+01  0.34407255453E+02  0.51100000000E-03 0. -1.
         23    2    1    0    0    0  0.13160595828E+02  0.24196249928E+02 -0.10962671964E+02  0.95444764806E+02  0.90724104620E+02 0.  0.
         11    1    3    3    0    0  0.29202192108E+02  0.53524591739E+02 -0.28155999169E+01  0.61037509353E+02  0.51100000000E-03 0.  1.
         22    1    1    0    0    0 -0.13160595828E+02 -0.24196249928E+02  0.10962671964E+02  0.29645235194E+02  0.00000000000E+00 0.  1.
</event>
<event>
 5    1  0.1046082E-009  0.9118800E+02  0.7561462E-02  0.1125453E+00
         25   -1    0    0    0    0  0.00000000000E+00  0.00000000000E+00  0.99999998245E-14  0.12509000000E+03  0.12509000000E+03 0.  0.
        -11    1    3    3    0    0 -0.22278150123E+02 -0.18746553600E+02 -0.20686259351E+02  0.35716530780E+02  0.51100000000E-03 0.  1.
         23    2    1    0    0    0  0.26804723531E+02  0.56409432850E+01  0.65607964090E+01  0.96923397538E+02  0.92740430752E+02 0.  0.
         11    1    3    3    0    0  0.49082873654E+02  0.24387496885E+02  0.27247055760E+02  0.61206866758E+02  0.51100000000E-03 0. -1.
         22    1    1    0    0    0 -0.26804723531E+02 -0.56409432850E+01 -0.65607964090E+01  0.28166602462E+02  0.00000000000E+00 0. -1.
</event>
<event>
 5    1  0.1046082E-009  0.9118800E+02  0.7561462E-02  0.1125453E+00
         25   -1    0    0    0    0  0.00000000000E+00  0.00000000000E+00  0.99999998245E-14  0.12509000000E+03  0.12509000000E+03 0.  0.
        -11    1    3    3    0    0  0.42262144543E+01  0.23388784588E+02 -0.27701782658E+02  0.36500478021E+02  0.51100000000E-03 0.  1.
         23    2    1    0    0    0  0.52822492045E+01  0.99975191353E+00  0.28018763675E+02  0.96560142334E+02  0.92249164273E+02 0.  0.
         11    1    3    3    0    0  0.10560347502E+01 -0.22389032674E+02  0.55720546333E+02  0.60059664313E+02  0.51100000000E-03 0. -1.
         22    1    1    0    0    0 -0.52822492045E+01 -0.99975191353E+00 -0.28018763675E+02  0.28529857666E+02  0.00000000000E+00 0. -1.
</event>
<event>
 5    1  0.1046082E-009  0.9118800E+02  0.7561462E-02  0.1125453E+00
         25   -1    0    0    0    0  0.00000000000E+00  0.00000000000E+00  0.99999998245E-14  0.12509000000E+03  0.12509000000E+03 0.  0.
        -11    1    3    3    0    0 -0.44558938198E+01  0.22510085997E+02  0.25556905175E+02  0.34346970226E+02  0.51100000000E-03 0.  1.
         23    2    1    0    0    0  0.18496733130E+02 -0.16486688141E+02 -0.15844561007E+02  0.95679285357E+02  0.91046886331E+02 0.  0.
         11    1    3    3    0    0  0.22952626950E+02 -0.38996774137E+02 -0.41401466182E+02  0.61332315131E+02  0.51100000000E-03 0. -1.
         22    1    1    0    0    0 -0.18496733130E+02  0.16486688141E+02  0.15844561007E+02  0.29410714643E+02  0.00000000000E+00 0. -1.
</event>
<event>
 5    1  0.1046082E-009  0.9118800E+02  0.7561462E-02  0.1125453E+00
         25   -1    0    0    0    0  0.00000000000E+00  0.00000000000E+00  0.99999998245E-14  0.12509000000E+03  0.12509000000E+03 0.  0.
        -11    1    3    3    0    0  0.14982356993E+02  0.72110696204E+01  0.39832707707E+02  0.43163817598E+02  0.51100000000E-03 0.  1.
         23    2    1    0    0    0  0.68015636732E+01  0.26617259514E+02 -0.88668450586E+01  0.96222012302E+02  0.91789514313E+02 0.  0.
         11    1    3    3    0    0 -0.81807933195E+01  0.19406189893E+02 -0.48699552765E+02  0.53058194704E+02  0.51100000000E-03 0. -1.
         22    1    1    0    0    0 -0.68015636732E+01 -0.26617259514E+02  0.88668450586E+01  0.28867987698E+02  0.00000000000E+00 0. -1.
</event>
<event>
 5    1  0.1046082E-009  0.9118800E+02  0.7561462E-02  0.1125453E+00
         25   -1    0    0    0    0  0.00000000000E+00  0.00000000000E+00  0.99999998245E-14  0.12509000000E+03  0.12509000000E+03 0.  0.
        -11    1    3    3    0    0  0.35823592252E+02 -0.30171173320E+02  0.76836540545E+01  0.47462279773E+02  0.51100000000E-03 0. -1.
         23    2    1    0    0    0  0.23316526004E+02  0.62431493838E+01 -0.19053920837E+02  0.94337939933E+02  0.89184963489E+02 0.  0.
         11    1    3    3    0    0 -0.12507066248E+02  0.36414322704E+02 -0.26737574891E+02  0.46875660160E+02  0.51100000000E-03 0.  1.
         22    1    1    0    0    0 -0.23316526004E+02 -0.62431493838E+01  0.19053920837E+02  0.30752060067E+02  0.00000000000E+00 0. -1.
</event>
<event>
 5    1  0.1046082E-009  0.9118800E+02  0.7561462E-02  0.1125453E+00
         25   -1    0    0    0    0  0.00000000000E+00  0.00000000000E+00  0.99999998245E-14  0.12509000000E+03  0.12509000000E+03 0.  0.
        -11    1    3    3    0    0  0.51969143552E+02  0.85580264587E+01 -0.83982690787E+01  0.53334441238E+02  0.51100000000E-03 0. -1.
         23    2    1    0    0    0  0.22866132107E+02 -0.99031375345E+01  0.15924809150E+02  0.95517518247E+02  0.90824361352E+02 0.  0.
         11    1    3    3    0    0 -0.29103011445E+02 -0.18461163993E+02  0.24323078229E+02  0.42183077009E+02  0.51100000000E-03 0.  1.
         22    1    1    0    0    0 -0.22866132107E+02  0.99031375345E+01 -0.15924809150E+02  0.29572481753E+02  0.00000000000E+00 0. -1.
</event>
<event>
 5    1  0.1046082E-009  0.9118800E+02  0.7561462E-02  0.1125453E+00
         25   -1    0    0    0    0  0.00000000000E+00  0.00000000000E+00  0.99999998245E-14  0.12509000000E+03  0.12509000000E+03 0.  0.
        -11    1    3    3    0    0 -0.34247116256E+02  0.29381010245E+02  0.37704235067E+01  0.45280512680E+02  0.51100000000E-03 0. -1.
         23    2    1    0    0    0 -0.75852863826E+00  0.93294351577E+01 -0.27973629632E+02  0.95591903776E+02  0.90926752865E+02 0.  0.
         11    1    3    3    0    0  0.33488587617E+02 -0.20051575088E+02 -0.31744053139E+02  0.50311391096E+02  0.51100000000E-03 0.  1.
         22    1    1    0    0    0  0.75852863826E+00 -0.93294351577E+01  0.27973629632E+02  0.29498096224E+02  0.00000000000E+00 0.  1.
</event>
<event>
 5    1  0.1046082E-009  0.9118800E+02  0.7561462E-02  0.1125453E+00
         25   -1    0    0    0    0  0.00000000000E+00  0.00000000000E+00  0.99999998245E-14  0.12509000000E+03  0.12509000000E+03 0.  0.
        -11    1    3    3    0    0 -0.77424061859E+01 -0.85305606210E+01 -0.38142059599E+02  0.39843845557E+02  0.51100000000E-03 0. -1.
         23    2    1    0    0    0  0.14389909811E+02 -0.21554648119E+02  0.12266739294E+02  0.96416924602E+02  0.92054755971E+02 0.  0.
         11    1    3    3    0    0  0.22132315997E+02 -0.13024087498E+02  0.50408798893E+02  0.56573079045E+02  0.51100000000E-03 0.  1.
         22    1    1    0    0    0 -0.14389909811E+02  0.21554648119E+02 -0.12266739294E+02  0.28673075398E+02  0.00000000000E+00 0.  1.
</event>
<event>
 5    1  0.1046082E-009  0.9118800E+02  0.7561462E-02  0.1125453E+00
         25   -1    0    0    0    0  0.00000000000E+00  0.00000000000E+00  0.99999998245E-14  0.12509000000E+03  0.12509000000E+03 0.  0.
        -11    1    3    3    0    0  0.43743617535E+02 -0.25269835055E+02  0.67518742434E+01  0.50967209506E+02  0.51100000000E-03 0. -1.
         23    2    1    0    0    0  0.48285604940E+01 -0.28041411609E+02 -0.11945871976E+02  0.94229999697E+02  0.89033438797E+02 0.  0.
         11    1    3    3    0    0 -0.38915057041E+02 -0.27715765537E+01 -0.18697746220E+02  0.43262790191E+02  0.51100000000E-03 0.  1.
         22    1    1    0    0    0 -0.48285604940E+01  0.28041411609E+02  0.11945871976E+02  0.30860000303E+02  0.00000000000E+00 0. -1.
</event>
<event>
 5    1  0.1046082E-009  0.9118800E+02  0.7561462E-02  0.1125453E+00
         25   -1    0    0    0    0  0.00000000000E+00  0.00000000000E+00  0.99999998245E-14  0.12509000000E+03  0.12509000000E+03 0.  0.
        -11    1    3    3    0    0  0.22336408970E+02 -0.25794477311E+02  0.10443697673E+02  0.35683904590E+02  0.51100000000E-03 0. -1.
         23    2    1    0    0    0 -0.29554251217E+02 -0.45973885782E+00 -0.41441401451E+01  0.95243073486E+02  0.90445585988E+02 0.  0.
         11    1    3    3    0    0 -0.51890660187E+02  0.25334738453E+02 -0.14587837818E+02  0.59559168896E+02  0.51100000000E-03 0.  1.
         22    1    1    0    0    0  0.29554251217E+02  0.45973885782E+00  0.41441401451E+01  0.29846926514E+02  0.00000000000E+00 0.  1.
</event>
<event>
 5    1  0.1046082E-009  0.9118800E+02  0.7561462E-02  0.1125453E+00
         25   -1    0    0    0    0  0.00000000000E+00  0.00000000000E+00  0.99999998245E-14  0.12509000000E+03  0.12509000000E+03 0.  0.
        -11    1    3    3    0    0 -0.31482408423E+02  0.31014641408E+01  0.16314633560E+02  0.35593937523E+02  0.51100000000E-03 0.  1.
         23    2    1    0    0    0  0.20627321502E+02  0.88751539203E+01 -0.16302645376E+02  0.97340567650E+02  0.93301420754E+02 0.  0.
         11    1    3    3    0    0  0.52109729926E+02  0.57736897795E+01 -0.32617278936E+02  0.61746630127E+02  0.51100000000E-03 0. -1.
         22    1    1    0    0    0 -0.20627321502E+02 -0.88751539203E+01  0.16302645376E+02  0.27749432350E+02  0.00000000000E+00 0. -1.
</event>
<event>
 5    1  0.1046082E-009  0.9118800E+02  0.7561462E-02  0.1125453E+00
         25   -1    0    0    0    0  0.00000000000E+00  0.00000000000E+00  0.99999998245E-14  0.12509000000E+03  0.12509000000E+03 0.  0.
        -11    1    3    3    0    0 -0.51860161078E-01 -0.17379827727E+02 -0.34318154568E+02  0.38468127515E+02  0.51100000000E-03 0.  1.
         23    2    1    0    0    0  0.21632676417E+02 -0.76714817117E+01  0.17995353890E+02  0.95923973835E+02  0.91382447297E+02 0.  0.
         11    1    3    3    0    0  0.21684536578E+02  0.97083460155E+01  0.52313508458E+02  0.57455846320E+02  0.51100000000E-03 0. -1.
         22    1    1    0    0    0 -0.21632676417E+02  0.76714817117E+01 -0.17995353890E+02  0.29166026165E+02  0.00000000000E+00 0. -1.
</event>
<event>
 5    1  0.1046082E-009  0.9118800E+02  0.7561462E-02  0.1125453E+00
         25   -1    0    0    0    0  0.00000000000E+00  0.00000000000E+00  0.99999998245E-14  0.12509000000E+03  0.12509000000E+03 0.  0.
        -11    1    3    3    0    0 -0.20596598181E+02 -0.26611147537E+02  0.16971102066E+02  0.37688079488E+02  0.51100000000E-03 0.  1.
         23    2    1    0    0    0 -0.28968218288E+01  0.28026737687E+02  0.78477610700E+01  0.95841462329E+02  0.91269430509E+02 0.  0.
         11    1    3    3    0    0  0.17699776352E+02  0.54637885224E+02 -0.91233409965E+01  0.58153382841E+02  0.51100000000E-03 0. -1.
         22    1    1    0    0    0  0.28968218288E+01 -0.28026737687E+02 -0.78477610700E+01  0.29248537671E+02  0.00000000000E+00 0. -1.
</event>
<event>
 5    1  0.1046082E-009  0.9118800E+02  0.7561462E-02  0.1125453E+00
         25   -1    0    0    0    0  0.00000000000E+00  0.00000000000E+00  0.99999998245E-14  0.12509000000E+03  0.12509000000E+03 0.  0.
        -11    1    3    3    0    0  0.29508610827E+02  0.46199363501E+01  0.47372890664E+02  0.56002613287E+02  0.51100000000E-03 0. -1.
         23    2    1    0    0    0  0.29952076279E+02 -0.35184650473E+01  0.11461280638E+02  0.92827522979E+02  0.87040689328E+02 0.  0.
         11    1    3    3    0    0  0.44346545143E+00 -0.81384013975E+01 -0.35911610026E+02  0.36824909692E+02  0.51100000000E-03 0.  1.
         22    1    1    0    0    0 -0.29952076279E+02  0.35184650473E+01 -0.11461280638E+02  0.32262477021E+02  0.00000000000E+00 0. -1.
</event>
<event>
 5    1  0.1046082E-009  0.9118800E+02  0.7561462E-02  0.1125453E+00
         25   -1    0    0    0    0  0.00000000000E+00  0.00000000000E+00  0.99999998245E-14  0.12509000000E+03  0.12509000000E+03 0.  0.
        -11    1    3    3    0    0  0.21841655646E+02  0.86121408466E+01 -0.46831415932E+02  0.52387101559E+02  0.51100000000E-03 0.  1.
         23    2    1    0    0    0  0.16994619146E+02 -0.19181437383E+02 -0.13271915708E+02  0.96230194620E+02  0.91800664431E+02 0.  0.
         11    1    3    3    0    0 -0.48470365003E+01 -0.27793578230E+02  0.33559500223E+02  0.43843093061E+02  0.51100000000E-03 0. -1.
         22    1    1    0    0    0 -0.16994619146E+02  0.19181437383E+02  0.13271915708E+02  0.28859805380E+02  0.00000000000E+00 0.  1.
</event>
<event>
 5    1  0.1046082E-009  0.9118800E+02  0.7561462E-02  0.1125453E+00
         25   -1    0    0    0    0  0.00000000000E+00  0.00000000000E+00  0.99999998245E-14  0.12509000000E+03  0.12509000000E+03 0.  0.
        -11    1    3    3    0    0 -0.14393439198E+02  0.22051741276E+01  0.57175748176E+02  0.59000848000E+02  0.51100000000E-03 0.  1.
         23    2    1    0    0    0 -0.27559248915E+00  0.14436609823E+02  0.23584566020E+02  0.97436367169E+02  0.93429771691E+02 0.  0.
         11    1    3    3    0    0  0.14117846709E+02  0.12231435696E+02 -0.33591182156E+02  0.38435519169E+02  0.51100000000E-03 0. -1.
         22    1    1    0    0    0  0.27559248915E+00 -0.14436609823E+02 -0.23584566020E+02  0.27653632831E+02  0.00000000000E+00 0.  1.
</event>
<event>
 5    1  0.1046082E-009  0.9118800E+02  0.7561462E-02  0.1125453E+00
         25   -1    0    0    0    0  0.00000000000E+00  0.00000000000E+00  0.99999998245E-14  0.12509000000E+03  0.12509000000E+03 0.  0.
        -11    1    3    3    0    0  0.52253521948E+01 -0.58408405619E+02  0.18469310166E+02  0.61481392070E+02  0.51100000000E-03 0. -1.
         23    2    1    0    0    0 -0.19591915433E+01 -0.26672934597E+02  0.12009287868E+01  0.98318259274E+02  0.94603139510E+02 0.  0.
         11    1    3    3    0    0 -0.71845437381E+01  0.31735471022E+02 -0.17268381379E+02  0.36836867204E+02  0.51100000000E-03 0.  1.
         22    1    1    0    0    0  0.19591915433E+01  0.26672934597E+02 -0.12009287868E+01  0.26771740726E+02  0.00000000000E+00 0. -1.
</event>
<event>
 5    1  0.1046082E-009  0.9118800E+02  0.7561462E-02  0.1125453E+00
         25   -1    0    0    0    0  0.00000000000E+00  0.00000000000E+00  0.99999998245E-14  0.12509000000E+03  0.12509000000E+03 0.  0.
        -11    1    3    3    0    0  0.46321827408E+02  0.53391855493E+01 -0.27304028401E+02  0.54034512712E+02  0.51100000000E-03 0.  1.
         23    2    1    0    0    0  0.15800702835E+02  0.21377973406E+02  0.76723216710E+00  0.98495477965E+02  0.94837179299E+02 0.  0.
         11    1    3    3    0    0 -0.30521124573E+02  0.16038787857E+02  0.28071260569E+02  0.44460965254E+02  0.51100000000E-03 0. -1.
         22    1    1    0    0    0 -0.15800702835E+02 -0.21377973406E+02 -0.76723216710E+00  0.26594522035E+02  0.00000000000E+00 0.  1.
</event>
<event>
 5    1  0.1046082E-009  0.9118800E+02  0.7561462E-02  0.1125453E+00
         25   -1    0    0    0    0  0.00000000000E+00  0.00000000000E+00  0.99999998245E-14  0.12509000000E+03  0.12509000000E+03 0.  0.
        -11    1    3    3    0    0  0.32186791154E+02  0.19050348038E+02 -0.34204396021E+02  0.50683784316E+02  0.51100000000E-03 0.  1.
         23    2    1    0    0    0  0.10078494727E+02 -0.18188392055E+02 -0.19942057484E+02  0.96278902864E+02  0.91867011590E+02 0.  0.
         11    1    3    3    0    0 -0.22108296427E+02 -0.37238740093E+02  0.14262338536E+02  0.45595118548E+02  0.51100000000E-03 0. -1.
         22    1    1    0    0    0 -0.10078494727E+02  0.18188392055E+02  0.19942057484E+02  0.28811097136E+02  0.00000000000E+00 0.  1.
</event>
<event>
 5    1  0.1046082E-009  0.9118800E+02  0.7561462E-02  0.1125453E+00
         25   -1    0    0    0    0  0.00000000000E+00  0.00000000000E+00  0.99999998245E-14  0.12509000000E+03  0.12509000000E+03 0.  0.
        -11    1    3    3    0    0  0.37857434701E+02  0.45528743836E+02  0.15603812657E+02  0.61233412833E+02  0.51100000000E-03 0. -1.
         23    2    1    0    0    0  0.28265288748E+02  0.21432992393E+02  0.13047920367E+02  0.87293863467E+02  0.78687169616E+02 0.  0.
         11    1    3    3    0    0 -0.95921459524E+01 -0.24095751444E+02 -0.25558922900E+01  0.26060450634E+02  0.51100000000E-03 0.  1.
         22    1    1    0    0    0 -0.28265288748E+02 -0.21432992393E+02 -0.13047920367E+02  0.37796136533E+02  0.00000000000E+00 0. -1.
</event>
<event>
 5    1  0.1046082E-009  0.9118800E+02  0.7561462E-02  0.1125453E+00
         25   -1    0    0    0    0  0.00000000000E+00  0.00000000000E+00  0.99999998245E-14  0.12509000000E+03  0.12509000000E+03 0.  0.
        -11    1    3    3    0    0  0.37804072056E+02 -0.15785194655E+02 -0.25664518717E+02  0.48342401218E+02  0.51100000000E-03 0.  1.
         23    2    1    0    0    0  0.63519953454E+01 -0.30937170264E+02  0.27948280941E+01  0.93384047674E+02  0.87836854151E+02 0.  0.
         11    1    3    3    0    0 -0.31452076710E+02 -0.15151975609E+02  0.28459346811E+02  0.45041646456E+02  0.51100000000E-03 0. -1.
         22    1    1    0    0    0 -0.63519953454E+01  0.30937170264E+02 -0.27948280941E+01  0.31705952326E+02  0.00000000000E+00 0.  1.
</event>
<event>
 5    1  0.1046082E-009  0.9118800E+02  0.7561462E-02  0.1125453E+00
         25   -1    0    0    0    0  0.00000000000E+00  0.00000000000E+00  0.99999998245E-14  0.12509000000E+03  0.12509000000E+03 0.  0.
        -11    1    3    3    0    0 -0.17250651130E+02  0.77779657367E+01  0.32600460156E+02  0.37694452086E+02  0.51100000000E-03 0.  1.
         23    2    1    0    0    0 -0.30832106293E+01 -0.20858589181E+02 -0.17885644408E+02  0.97440710565E+02  0.93435586738E+02 0.  0.
         11    1    3    3    0    0  0.14167440501E+02 -0.28636554918E+02 -0.50486104564E+02  0.59746258479E+02  0.51100000000E-03 0. -1.
         22    1    1    0    0    0  0.30832106293E+01  0.20858589181E+02  0.17885644408E+02  0.27649289435E+02  0.00000000000E+00 0. -1.
</event>
<event>
 5    1  0.1046082E-009  0.9118800E+02  0.7561462E-02  0.1125453E+00
         25   -1    0    0    0    0  0.00000000000E+00  0.00000000000E+00  0.99999998245E-14  0.12509000000E+03  0.12509000000E+03 0.  0.
        -11    1    3    3    0    0 -0.18188458548E+02  0.12796819397E+00 -0.34001550868E+02  0.38560885128E+02  0.51100000000E-03 0. -1.
         23    2    1    0    0    0 -0.16123039948E+02 -0.29782473083E+02  0.81203573385E+01  0.90263453754E+02  0.83274262292E+02 0.  0.
         11    1    3    3    0    0  0.20654185996E+01 -0.29910441277E+02  0.42121908206E+02  0.51702568626E+02  0.51100000000E-03 0.  1.
         22    1    1    0    0    0  0.16123039948E+02  0.29782473083E+02 -0.81203573385E+01  0.34826546246E+02  0.00000000000E+00 0. -1.
</event>
<event>
 5    1  0.1046082E-009  0.9118800E+02  0.7561462E-02  0.1125453E+00
         25   -1    0    0    0    0  0.00000000000E+00  0.00000000000E+00  0.99999998245E-14  0.12509000000E+03  0.12509000000E+03 0.  0.
        -11    1    3    3    0    0 -0.96565592045E+01 -0.28002793914E+02 -0.21424953917E+02  0.36557273603E+02  0.51100000000E-03 0. -1.
         23    2    1    0    0    0  0.20590306346E+02 -0.31231672117E+01  0.21837489936E+02  0.94914001996E+02  0.89989315585E+02 0.  0.
         11    1    3    3    0    0  0.30246865550E+02  0.24879626703E+02  0.43262443852E+02  0.58356728393E+02  0.51100000000E-03 0.  1.
         22    1    1    0    0    0 -0.20590306346E+02  0.31231672117E+01 -0.21837489936E+02  0.30175998004E+02  0.00000000000E+00 0.  1.
</event>
<event>
 5    1  0.1046082E-009  0.9118800E+02  0.7561462E-02  0.1125453E+00
         25   -1    0    0    0    0  0.00000000000E+00  0.00000000000E+00  0.99999998245E-14  0.12509000000E+03  0.12509000000E+03 0.  0.
        -11    1    3    3    0    0 -0.58818025013E+01 -0.36835014136E+01 -0.37461258063E+02  0.38098682907E+02  0.51100000000E-03 0.  1.
         23    2    1    0    0    0 -0.58769542714E+01  0.22661081557E+02  0.15335740215E+02  0.97103429350E+02  0.92982943891E+02 0.  0.
         11    1    3    3    0    0  0.48482298813E-02  0.26344582970E+02  0.52796998278E+02  0.59004746443E+02  0.51100000000E-03 0. -1.
         22    1    1    0    0    0  0.58769542714E+01 -0.22661081557E+02 -0.15335740215E+02  0.27986570650E+02  0.00000000000E+00 0. -1.
</event>
<event>
 5    1  0.1046082E-009  0.9118800E+02  0.7561462E-02  0.1125453E+00
         25   -1    0    0    0    0  0.00000000000E+00  0.00000000000E+00  0.99999998245E-14  0.12509000000E+03  0.12509000000E+03 0.  0.
        -11    1    3    3    0    0  0.63299972736E+01  0.10306054606E+02 -0.45112042438E+02  0.46705245960E+02  0.51100000000E-03 0.  1.
         23    2    1    0    0    0  0.25264216379E+02  0.15067649479E+02 -0.20470471679E+00  0.95673056003E+02  0.91038327373E+02 0.  0.
         11    1    3    3    0    0  0.18934219106E+02  0.47615948737E+01  0.44907337721E+02  0.48967810043E+02  0.51100000000E-03 0. -1.
         22    1    1    0    0    0 -0.25264216379E+02 -0.15067649479E+02  0.20470471679E+00  0.29416943997E+02  0.00000000000E+00 0. -1.
</event>
<event>
 5    1  0.1046082E-009  0.9118800E+02  0.7561462E-02  0.1125453E+00
         25   -1    0    0    0    0  0.00000000000E+00  0.00000000000E+00  0.99999998245E-14  0.12509000000E+03  0.12509000000E+03 0.  0.
        -11    1    3    3    0    0  0.21413051098E+02  0.20544379548E-01 -0.43174443520E+02  0.48192859978E+02  0.51100000000E-03 0. -1.
         23    2    1    0    0    0 -0.20348025742E+02  0.62409116821E+01 -0.16794980180E+02  0.97977964122E+02  0.94152105467E+02 0.  0.
         11    1    3    3    0    0 -0.41761076840E+02  0.62203673025E+01  0.26379463340E+02  0.49785104143E+02  0.51100000000E-03 0.  1.
         22    1    1    0    0    0  0.20348025742E+02 -0.62409116821E+01  0.16794980180E+02  0.27112035878E+02  0.00000000000E+00 0.  1.
</event>
<event>
 5    1  0.1046082E-009  0.9118800E+02  0.7561462E-02  0.1125453E+00
         25   -1    0    0    0    0  0.00000000000E+00  0.00000000000E+00  0.99999998245E-14  0.12509000000E+03  0.12509000000E+03 0.  0.
        -11    1    3    3    0    0 -0.11750532288E+02  0.25625269913E+02  0.24764762333E+02  0.37523631499E+02  0.51100000000E-03 0. -1.
         23    2    1    0    0    0 -0.90122295148E+01  0.21690625065E+01 -0.28141457100E+02  0.95461184285E+02  0.90746740903E+02 0.  0.
         11    1    3    3    0    0  0.27383027736E+01 -0.23456207407E+02 -0.52906219432E+02  0.57937552786E+02  0.51100000000E-03 0.  1.
         22    1    1    0    0    0  0.90122295148E+01 -0.21690625065E+01  0.28141457100E+02  0.29628815715E+02  0.00000000000E+00 0.  1.
</event>
<event>
 5    1  0.1046082E-009  0.9118800E+02  0.7561462E-02  0.1125453E+00
         25   -1    0    0    0    0  0.00000000000E+00  0.00000000000E+00  0.99999998245E-14  0.12509000000E+03  0.12509000000E+03 0.  0.
        -11    1    3    3    0    0 -0.24493907544E+02  0.39802623970E+02  0.23731006648E+02  0.52415275049E+02  0.51100000000E-03 0.  1.
         23    2    1    0    0    0  0.26656934112E+01  0.18490905630E+02  0.32110178489E+02  0.87940530623E+02  0.79708555697E+02 0.  0.
         11    1    3    3    0    0  0.27159600955E+02 -0.21311718340E+02  0.83791718407E+01  0.35525255574E+02  0.51100000000E-03 0. -1.
         22    1    1    0    0    0 -0.26656934112E+01 -0.18490905630E+02 -0.32110178489E+02  0.37149469377E+02  0.00000000000E+00 0.  1.
</event>
<event>
 5    1  0.1046082E-009  0.9118800E+02  0.7561462E-02  0.1125453E+00
         25   -1    0    0    0    0  0.00000000000E+00  0.00000000000E+00  0.99999998245E-14  0.12509000000E+03  0.12509000000E+03 0.  0.
        -11    1    3    3    0    0  0.11416927284E+02  0.46332045023E+02  0.30753526819E+02  0.56769569636E+02  0.51100000000E-03 0.  1.
         23    2    1    0    0    0  0.11714843495E+02  0.33285579278E+02  0.40956230031E+00  0.89800694435E+02  0.82576205009E+02 0.  0.
         11    1    3    3    0    0  0.29791621018E+00 -0.13046465745E+02 -0.30343964518E+02  0.33031124799E+02  0.51100000000E-03 0. -1.
         22    1    1    0    0    0 -0.11714843495E+02 -0.33285579278E+02 -0.40956230031E+00  0.35289305565E+02  0.00000000000E+00 0.  1.
</event>
<event>
 5    1  0.1046082E-009  0.9118800E+02  0.7561462E-02  0.1125453E+00
         25   -1    0    0    0    0  0.00000000000E+00  0.00000000000E+00  0.99999998245E-14  0.12509000000E+03  0.12509000000E+03 0.  0.
        -11    1    3    3    0    0  0.49742193763E+02 -0.20948696715E+02  0.30080489654E+02  0.61789720767E+02  0.51100000000E-03 0.  1.
         23    2    1    0    0    0  0.23598027563E+02 -0.29235950750E+01  0.15281966470E+02  0.96824246654E+02  0.92606597648E+02 0.  0.
         11    1    3    3    0    0 -0.26144166200E+02  0.18025101639E+02 -0.14798523184E+02  0.35034525887E+02  0.51100000000E-03 0. -1.
         22    1    1    0    0    0 -0.23598027563E+02  0.29235950750E+01 -0.15281966470E+02  0.28265753346E+02  0.00000000000E+00 0.  1.
</event>
<event>
 5    1  0.1046082E-009  0.9118800E+02  0.7561462E-02  0.1125453E+00
         25   -1    0    0    0    0  0.00000000000E+00  0.00000000000E+00  0.99999998245E-14  0.12509000000E+03  0.12509000000E+03 0.  0.
        -11    1    3    3    0    0 -0.16528920475E+02 -0.22992542855E+01 -0.29128688796E+02  0.33570408004E+02  0.51100000000E-03 0. -1.
         23    2    1    0    0    0  0.87132173955E+01  0.10679360556E+02  0.26048471503E+02  0.95619815628E+02  0.90965143730E+02 0.  0.
         11    1    3    3    0    0  0.25242137870E+02  0.12978614842E+02  0.55177160299E+02  0.62049407624E+02  0.51100000000E-03 0.  1.
         22    1    1    0    0    0 -0.87132173955E+01 -0.10679360556E+02 -0.26048471503E+02  0.29470184372E+02  0.00000000000E+00 0.  1.
</event>
<event>
 5    1  0.1046082E-009  0.9118800E+02  0.7561462E-02  0.1125453E+00
         25   -1    0    0    0    0  0.00000000000E+00  0.00000000000E+00  0.99999998245E-14  0.12509000000E+03  0.12509000000E+03 0.  0.
        -11    1    3    3    0    0 -0.23646428088E+02 -0.13629394305E+02 -0.42170810236E+02  0.50232371899E+02  0.51100000000E-03 0.  1.
         23    2    1    0    0    0 -0.30470272134E+01  0.21119482633E+02 -0.12430359589E+02  0.10039524831E+03  0.97310714324E+02 0.  0.
         11    1    3    3    0    0  0.20599400874E+02  0.34748876938E+02  0.29740450647E+02  0.50162876410E+02  0.51100000000E-03 0. -1.
         22    1    1    0    0    0  0.30470272134E+01 -0.21119482633E+02  0.12430359589E+02  0.24694751690E+02  0.00000000000E+00 0.  1.
</event>
<event>
 5    1  0.1046082E-009  0.9118800E+02  0.7561462E-02  0.1125453E+00
         25   -1    0    0    0    0  0.00000000000E+00  0.00000000000E+00  0.99999998245E-14  0.12509000000E+03  0.12509000000E+03 0.  0.
        -11    1    3    3    0    0 -0.27629730495E+02 -0.69157321763E+01  0.38153923079E+02  0.47612511017E+02  0.51100000000E-03 0.  1.
         23    2    1    0    0    0 -0.25311658924E+02 -0.57493416967E+01 -0.11046110477E+02  0.96880931173E+02  0.92683133638E+02 0.  0.
         11    1    3    3    0    0  0.23180715718E+01  0.11663904796E+01 -0.49200033556E+02  0.49268420156E+02  0.51100000000E-03 0. -1.
         22    1    1    0    0    0  0.25311658924E+02  0.57493416967E+01  0.11046110477E+02  0.28209068827E+02  0.00000000000E+00 0. -1.
</event>
<event>
 5    1  0.1046082E-009  0.9118800E+02  0.7561462E-02  0.1125453E+00
         25   -1    0    0    0    0  0.00000000000E+00  0.00000000000E+00  0.99999998245E-14  0.12509000000E+03  0.12509000000E+03 0.  0.
        -11    1    3    3    0    0  0.24592980595E+02  0.38881029802E+02 -0.28817030406E+02  0.54286005699E+02  0.51100000000E-03 0.  1.
         23    2    1    0    0    0 -0.10170107512E+02  0.24526585117E+02 -0.75807528806E+01  0.97477461570E+02  0.93484775422E+02 0.  0.
         11    1    3    3    0    0 -0.34763088106E+02 -0.14354444685E+02  0.21236277525E+02  0.43191455872E+02  0.51100000000E-03 0. -1.
         22    1    1    0    0    0  0.10170107512E+02 -0.24526585117E+02  0.75807528806E+01  0.27612538430E+02  0.00000000000E+00 0.  1.
</event>
<event>
 5    1  0.1046082E-009  0.9118800E+02  0.7561462E-02  0.1125453E+00
         25   -1    0    0    0    0  0.00000000000E+00  0.00000000000E+00  0.99999998245E-14  0.12509000000E+03  0.12509000000E+03 0.  0.
        -11    1    3    3    0    0  0.22395902782E+02 -0.35145364286E+02  0.80661913049E+01  0.42448045122E+02  0.51100000000E-03 0.  1.
         23    2    1    0    0    0 -0.24079929910E+02 -0.99618957171E+01  0.13772069909E+02  0.95615395671E+02  0.90959065458E+02 0.  0.
         11    1    3    3    0    0 -0.46475832692E+02  0.25183468569E+02  0.57058786044E+01  0.53167350550E+02  0.51100000000E-03 0. -1.
         22    1    1    0    0    0  0.24079929910E+02  0.99618957171E+01 -0.13772069909E+02  0.29474604329E+02  0.00000000000E+00 0. -1.
</event>
<event>
 5    1  0.1046082E-009  0.9118800E+02  0.7561462E-02  0.1125453E+00
         25   -1    0    0    0    0  0.00000000000E+00  0.00000000000E+00  0.99999998245E-14  0.12509000000E+03  0.12509000000E+03 0.  0.
        -11    1    3    3    0    0 -0.11374909445E+02  0.22493443337E+02  0.56439262827E+02  0.61812085766E+02  0.51100000000E-03 0.  1.
         23    2    1    0    0    0 -0.15617927805E+01  0.55009499751E+01  0.28915749279E+02  0.95614243798E+02  0.90957481349E+02 0.  0.
         11    1    3    3    0    0  0.98131166644E+01 -0.16992493362E+02 -0.27523513548E+02  0.33802158032E+02  0.51100000000E-03 0. -1.
         22    1    1    0    0    0  0.15617927805E+01 -0.55009499751E+01 -0.28915749279E+02  0.29475756202E+02  0.00000000000E+00 0.  1.
</event>
<event>
 5    1  0.1046082E-009  0.9118800E+02  0.7561462E-02  0.1125453E+00
         25   -1    0    0    0    0  0.00000000000E+00  0.00000000000E+00  0.99999998245E-14  0.12509000000E+03  0.12509000000E+03 0.  0.
        -11    1    3    3    0    0  0.42061836453E+02 -0.14533654887E+02 -0.11260540423E+02  0.45904520268E+02  0.51100000000E-03 0.  1.
         23    2    1    0    0    0  0.85520986209E+01 -0.54611358776E+01  0.26209391413E+02  0.96984936504E+02  0.92823398529E+02 0.  0.
         11    1    3    3    0    0 -0.33509737832E+02  0.90725190091E+01  0.37469931836E+02  0.51080416236E+02  0.51100000000E-03 0. -1.
         22    1    1    0    0    0 -0.85520986209E+01  0.54611358776E+01 -0.26209391413E+02  0.28105063496E+02  0.00000000000E+00 0.  1.
</event>
<event>
 5    1  0.1046082E-009  0.9118800E+02  0.7561462E-02  0.1125453E+00
         25   -1    0    0    0    0  0.00000000000E+00  0.00000000000E+00  0.99999998245E-14  0.12509000000E+03  0.12509000000E+03 0.  0.
        -11    1    3    3    0    0 -0.35456286886E+02 -0.16469890485E+01  0.47547531551E+01  0.35811569786E+02  0.51100000000E-03 0.  1.
         23    2    1    0    0    0  0.21312073272E+02  0.18460670335E+02 -0.37960270458E+01  0.96639856983E+02  0.92357194197E+02 0.  0.
         11    1    3    3    0    0  0.56768360159E+02  0.20107659384E+02 -0.85507802009E+01  0.60828287197E+02  0.51100000000E-03 0. -1.
         22    1    1    0    0    0 -0.21312073272E+02 -0.18460670335E+02  0.37960270458E+01  0.28450143017E+02  0.00000000000E+00 0. -1.
</event>
<event>
 5    1  0.1046082E-009  0.9118800E+02  0.7561462E-02  0.1125453E+00
         25   -1    0    0    0    0  0.00000000000E+00  0.00000000000E+00  0.99999998245E-14  0.12509000000E+03  0.12509000000E+03 0.  0.
        -11    1    3    3    0    0  0.50302050469E+02  0.32656451757E+01 -0.25599420823E+02  0.56535750340E+02  0.51100000000E-03 0.  1.
         23    2    1    0    0    0  0.28479952716E+02  0.26724528519E+01  0.68794886935E+01  0.95669308716E+02  0.91033178318E+02 0.  0.
         11    1    3    3    0    0 -0.21822097753E+02 -0.59319232373E+00  0.32478909517E+02  0.39133558376E+02  0.51100000000E-03 0. -1.
         22    1    1    0    0    0 -0.28479952716E+02 -0.26724528519E+01 -0.68794886935E+01  0.29420691284E+02  0.00000000000E+00 0.  1.
</event>
<event>
 5    1  0.1046082E-009  0.9118800E+02  0.7561462E-02  0.1125453E+00
         25   -1    0    0    0    0  0.00000000000E+00  0.00000000000E+00  0.99999998245E-14  0.12509000000E+03  0.12509000000E+03 0.  0.
        -11    1    3    3    0    0  0.51571494546E+02 -0.26091806885E+02  0.96267399292E+00  0.57804222836E+02  0.51100000000E-03 0. -1.
         23    2    1    0    0    0  0.28781113253E+02 -0.39969695558E+01 -0.13929456570E+02  0.92866437099E+02  0.87096596567E+02 0.  0.
         11    1    3    3    0    0 -0.22790381293E+02  0.22094837329E+02 -0.14892130562E+02  0.35062214263E+02  0.51100000000E-03 0.  1.
         22    1    1    0    0    0 -0.28781113253E+02  0.39969695558E+01  0.13929456570E+02  0.32223562901E+02  0.00000000000E+00 0. -1.
</event>
<event>
 5    1  0.1046082E-009  0.9118800E+02  0.7561462E-02  0.1125453E+00
         25   -1    0    0    0    0  0.00000000000E+00  0.00000000000E+00  0.99999998245E-14  0.12509000000E+03  0.12509000000E+03 0.  0.
        -11    1    3    3    0    0 -0.21973123399E+02  0.24243484939E+02 -0.10105223385E+02  0.34244419309E+02  0.51100000000E-03 0. -1.
         23    2    1    0    0    0 -0.24467673500E+02 -0.37975193505E+01 -0.41719370836E+02  0.76576145250E+02  0.59247885351E+02 0.  0.
         11    1    3    3    0    0 -0.24945501007E+01 -0.28041004289E+02 -0.31614147452E+02  0.42331725941E+02  0.51100000000E-03 0.  1.
         22    1    1    0    0    0  0.24467673500E+02  0.37975193505E+01  0.41719370836E+02  0.48513854750E+02  0.00000000000E+00 0.  1.
</event>
<event>
 5    1  0.1046082E-009  0.9118800E+02  0.7561462E-02  0.1125453E+00
         25   -1    0    0    0    0  0.00000000000E+00  0.00000000000E+00  0.99999998245E-14  0.12509000000E+03  0.12509000000E+03 0.  0.
        -11    1    3    3    0    0  0.43156550541E+02  0.62981753464E+01 -0.34684435284E+01  0.43751399613E+02  0.51100000000E-03 0.  1.
         23    2    1    0    0    0  0.61965875610E+01 -0.29050771189E+02  0.26923376254E+01  0.95263942836E+02  0.90474444562E+02 0.  0.
         11    1    3    3    0    0 -0.36959962980E+02 -0.35348946535E+02  0.61607811537E+01  0.51512543223E+02  0.51100000000E-03 0. -1.
         22    1    1    0    0    0 -0.61965875610E+01  0.29050771189E+02 -0.26923376254E+01  0.29826057164E+02  0.00000000000E+00 0.  1.
</event>
<event>
 5    1  0.1046082E-009  0.9118800E+02  0.7561462E-02  0.1125453E+00
         25   -1    0    0    0    0  0.00000000000E+00  0.00000000000E+00  0.99999998245E-14  0.12509000000E+03  0.12509000000E+03 0.  0.
        -11    1    3    3    0    0 -0.14026760367E+02 -0.43911301818E+02 -0.39548583476E+00  0.46098902840E+02  0.51100000000E-03 0. -1.
         23    2    1    0    0    0  0.65010306476E+01 -0.34085645178E+01 -0.25893695308E+02  0.98175967076E+02  0.94414804681E+02 0.  0.
         11    1    3    3    0    0  0.20527791015E+02  0.40502737301E+02 -0.25498209473E+02  0.52077064235E+02  0.51100000000E-03 0.  1.
         22    1    1    0    0    0 -0.65010306476E+01  0.34085645178E+01  0.25893695308E+02  0.26914032924E+02  0.00000000000E+00 0. -1.
</event>
<event>
 5    1  0.1046082E-009  0.9118800E+02  0.7561462E-02  0.1125453E+00
         25   -1    0    0    0    0  0.00000000000E+00  0.00000000000E+00  0.99999998245E-14  0.12509000000E+03  0.12509000000E+03 0.  0.
        -11    1    3    3    0    0 -0.93277776362E+01 -0.11613108493E+02  0.30164880966E+02  0.33642113020E+02  0.51100000000E-03 0.  1.
         23    2    1    0    0    0 -0.58771966144E+01  0.28297638946E+02 -0.13750654772E+02  0.93084089349E+02  0.87408634432E+02 0.  0.
         11    1    3    3    0    0  0.34505810218E+01  0.39910747438E+02 -0.43915535738E+02  0.59441976329E+02  0.51100000000E-03 0. -1.
         22    1    1    0    0    0  0.58771966144E+01 -0.28297638946E+02  0.13750654772E+02  0.32005910651E+02  0.00000000000E+00 0. -1.
</event>
<event>
 5    1  0.1046082E-009  0.9118800E+02  0.7561462E-02  0.1125453E+00
         25   -1    0    0    0    0  0.00000000000E+00  0.00000000000E+00  0.99999998245E-14  0.12509000000E+03  0.12509000000E+03 0.  0.
        -11    1    3    3    0    0 -0.23407718944E+02 -0.30980093718E+02  0.40564210260E+02  0.56152850927E+02  0.51100000000E-03 0. -1.
         23    2    1    0    0    0 -0.26915420149E+02 -0.19684344450E+02  0.80002258968E+01  0.90798355644E+02  0.84073922920E+02 0.  0.
         11    1    3    3    0    0 -0.35077012047E+01  0.11295749268E+02 -0.32563984363E+02  0.34645504717E+02  0.51100000000E-03 0.  1.
         22    1    1    0    0    0  0.26915420149E+02  0.19684344450E+02 -0.80002258968E+01  0.34291644356E+02  0.00000000000E+00 0. -1.
</event>
<event>
 5    1  0.1046082E-009  0.9118800E+02  0.7561462E-02  0.1125453E+00
         25   -1    0    0    0    0  0.00000000000E+00  0.00000000000E+00  0.99999998245E-14  0.12509000000E+03  0.12509000000E+03 0.  0.
        -11    1    3    3    0    0 -0.86212798758E+01  0.34534391558E+02  0.15286534695E+02  0.38737950517E+02  0.51100000000E-03 0.  1.
         23    2    1    0    0    0  0.31372391634E+02 -0.96257134294E+00  0.79338813581E+01  0.92715627823E+02  0.86879731058E+02 0.  0.
         11    1    3    3    0    0  0.39993671510E+02 -0.35496962901E+02 -0.73526533365E+01  0.53977677307E+02  0.51100000000E-03 0. -1.
         22    1    1    0    0    0 -0.31372391634E+02  0.96257134294E+00 -0.79338813581E+01  0.32374372177E+02  0.00000000000E+00 0. -1.
</event>
<event>
 5    1  0.1046082E-009  0.9118800E+02  0.7561462E-02  0.1125453E+00
         25   -1    0    0    0    0  0.00000000000E+00  0.00000000000E+00  0.99999998245E-14  0.12509000000E+03  0.12509000000E+03 0.  0.
        -11    1    3    3    0    0  0.78275805751E+01  0.33716260761E+01  0.33390042919E+02  0.34460612972E+02  0.51100000000E-03 0.  1.
         23    2    1    0    0    0 -0.37284461498E+01  0.65209520759E+01 -0.27533433892E+02  0.96550306439E+02  0.92235825822E+02 0.  0.
         11    1    3    3    0    0 -0.11556026725E+02  0.31493259999E+01 -0.60923476810E+02  0.62089693467E+02  0.51100000000E-03 0. -1.
         22    1    1    0    0    0  0.37284461498E+01 -0.65209520759E+01  0.27533433892E+02  0.28539693561E+02  0.00000000000E+00 0. -1.
</event>
<event>
 5    1  0.1046082E-009  0.9118800E+02  0.7561462E-02  0.1125453E+00
         25   -1    0    0    0    0  0.00000000000E+00  0.00000000000E+00  0.99999998245E-14  0.12509000000E+03  0.12509000000E+03 0.  0.
        -11    1    3    3    0    0  0.29696255189E+02 -0.51025543478E+02 -0.12376902744E+02  0.60321317801E+02  0.51100000000E-03 0.  1.
         23    2    1    0    0    0  0.27454233690E+01 -0.27901345399E+02 -0.45172219457E+01  0.96692328992E+02  0.92428235769E+02 0.  0.
         11    1    3    3    0    0 -0.26950831820E+02  0.23124198079E+02  0.78596807983E+01  0.36371011191E+02  0.51100000000E-03 0. -1.
         22    1    1    0    0    0 -0.27454233690E+01  0.27901345399E+02  0.45172219457E+01  0.28397671008E+02  0.00000000000E+00 0.  1.
</event>
<event>
 5    1  0.1046082E-009  0.9118800E+02  0.7561462E-02  0.1125453E+00
         25   -1    0    0    0    0  0.00000000000E+00  0.00000000000E+00  0.99999998245E-14  0.12509000000E+03  0.12509000000E+03 0.  0.
        -11    1    3    3    0    0 -0.35013136640E+02 -0.32066107282E+02 -0.20770834735E+02  0.51822606548E+02  0.51100000000E-03 0.  1.
         23    2    1    0    0    0  0.13985659895E+01 -0.83663092779E+01 -0.27971557019E+02  0.95860577839E+02  0.91295625655E+02 0.  0.
         11    1    3    3    0    0  0.36411702629E+02  0.23699798004E+02 -0.72007222842E+01  0.44037971291E+02  0.51100000000E-03 0. -1.
         22    1    1    0    0    0 -0.13985659895E+01  0.83663092779E+01  0.27971557019E+02  0.29229422161E+02  0.00000000000E+00 0.  1.
</event>
<event>
 5    1  0.1046082E-009  0.9118800E+02  0.7561462E-02  0.1125453E+00
         25   -1    0    0    0    0  0.00000000000E+00  0.00000000000E+00  0.99999998245E-14  0.12509000000E+03  0.12509000000E+03 0.  0.
        -11    1    3    3    0    0  0.24669266627E+02  0.11330288841E+02 -0.32666768506E+02  0.42474297240E+02  0.51100000000E-03 0.  1.
         23    2    1    0    0    0  0.20064196022E+02 -0.80511244433E+01  0.18026529296E+02  0.96941317522E+02  0.92764598407E+02 0.  0.
         11    1    3    3    0    0 -0.46050706049E+01 -0.19381413284E+02  0.50693297801E+02  0.54467020282E+02  0.51100000000E-03 0. -1.
         22    1    1    0    0    0 -0.20064196022E+02  0.80511244433E+01 -0.18026529296E+02  0.28148682478E+02  0.00000000000E+00 0. -1.
</event>
<event>
 5    1  0.1046082E-009  0.9118800E+02  0.7561462E-02  0.1125453E+00
         25   -1    0    0    0    0  0.00000000000E+00  0.00000000000E+00  0.99999998245E-14  0.12509000000E+03  0.12509000000E+03 0.  0.
        -11    1    3    3    0    0 -0.41250494574E+01  0.34741160164E+02 -0.36858724488E+00  0.34987141915E+02  0.51100000000E-03 0. -1.
         23    2    1    0    0    0  0.24127583034E+02 -0.17887886397E+02  0.35344703901E+01  0.94847493097E+02  0.89896817091E+02 0.  0.
         11    1    3    3    0    0  0.28252632491E+02 -0.52629046561E+02  0.39030576350E+01  0.59860351183E+02  0.51100000000E-03 0.  1.
         22    1    1    0    0    0 -0.24127583034E+02  0.17887886397E+02 -0.35344703901E+01  0.30242506903E+02  0.00000000000E+00 0.  1.
</event>
<event>
 5    1  0.1046082E-009  0.9118800E+02  0.7561462E-02  0.1125453E+00
         25   -1    0    0    0    0  0.00000000000E+00  0.00000000000E+00  0.99999998245E-14  0.12509000000E+03  0.12509000000E+03 0.  0.
        -11    1    3    3    0    0 -0.51384706209E+02 -0.16901076744E+02  0.25047115486E+02  0.59610338212E+02  0.51100000000E-03 0.  1.
         23    2    1    0    0    0 -0.22700197266E+02  0.40949447161E+01  0.17956174698E+02  0.95858309355E+02  0.91292517407E+02 0.  0.
         11    1    3    3    0    0  0.28684508943E+02  0.20996021461E+02 -0.70909407876E+01  0.36247971143E+02  0.51100000000E-03 0. -1.
         22    1    1    0    0    0  0.22700197266E+02 -0.40949447161E+01 -0.17956174698E+02  0.29231690645E+02  0.00000000000E+00 0.  1.
</event>
<event>
 5    1  0.1046082E-009  0.9118800E+02  0.7561462E-02  0.1125453E+00
         25   -1    0    0    0    0  0.00000000000E+00  0.00000000000E+00  0.99999998245E-14  0.12509000000E+03  0.12509000000E+03 0.  0.
        -11    1    3    3    0    0  0.17790197783E+02 -0.16474687255E+02 -0.26046696669E+02  0.35585627224E+02  0.51100000000E-03 0.  1.
         23    2    1    0    0    0  0.39286654468E+01  0.83290643000E+01  0.27437073529E+02  0.96148667478E+02  0.91689506104E+02 0.  0.
         11    1    3    3    0    0 -0.13861532336E+02  0.24803751555E+02  0.53483770198E+02  0.60563040254E+02  0.51100000000E-03 0. -1.
         22    1    1    0    0    0 -0.39286654468E+01 -0.83290643000E+01 -0.27437073529E+02  0.28941332522E+02  0.00000000000E+00 0. -1.
</event>
<event>
 5    1  0.1046082E-009  0.9118800E+02  0.7561462E-02  0.1125453E+00
         25   -1    0    0    0    0  0.00000000000E+00  0.00000000000E+00  0.99999998245E-14  0.12509000000E+03  0.12509000000E+03 0.  0.
        -11    1    3    3    0    0  0.30960271658E+02 -0.19231330900E+02  0.10295048041E+02  0.37873084424E+02  0.51100000000E-03 0. -1.
         23    2    1    0    0    0 -0.23720292791E+02 -0.15690573145E+02 -0.78361161176E+01  0.95589981499E+02  0.90924108307E+02 0.  0.
         11    1    3    3    0    0 -0.54680564450E+02  0.35407577549E+01 -0.18131164158E+02  0.57716897075E+02  0.51100000000E-03 0.  1.
         22    1    1    0    0    0  0.23720292791E+02  0.15690573145E+02  0.78361161176E+01  0.29500018501E+02  0.00000000000E+00 0.  1.
</event>
<event>
 5    1  0.1046082E-009  0.9118800E+02  0.7561462E-02  0.1125453E+00
         25   -1    0    0    0    0  0.00000000000E+00  0.00000000000E+00  0.99999998245E-14  0.12509000000E+03  0.12509000000E+03 0.  0.
        -11    1    3    3    0    0 -0.12084684658E+02  0.25623516798E+02  0.55428835418E+02  0.62249176801E+02  0.51100000000E-03 0.  1.
         23    2    1    0    0    0 -0.28905093934E+01  0.15082132506E+02  0.24807042302E+02  0.95914408948E+02  0.91369353345E+02 0.  0.
         11    1    3    3    0    0  0.91941752641E+01 -0.10541384293E+02 -0.30621793116E+02  0.33665232147E+02  0.51100000000E-03 0. -1.
         22    1    1    0    0    0  0.28905093934E+01 -0.15082132506E+02 -0.24807042302E+02  0.29175591052E+02  0.00000000000E+00 0.  1.
</event>
<event>
 5    1  0.1046082E-009  0.9118800E+02  0.7561462E-02  0.1125453E+00
         25   -1    0    0    0    0  0.00000000000E+00  0.00000000000E+00  0.99999998245E-14  0.12509000000E+03  0.12509000000E+03 0.  0.
        -11    1    3    3    0    0 -0.73788551804E+01 -0.36433336843E+02 -0.24546421039E+01  0.37254003885E+02  0.51100000000E-03 0.  1.
         23    2    1    0    0    0 -0.17308446066E+00  0.16474646932E+02  0.23313119379E+02  0.96542749958E+02  0.92225577171E+02 0.  0.
         11    1    3    3    0    0  0.72057707197E+01  0.52907983775E+02  0.25767761483E+02  0.59288746073E+02  0.51100000000E-03 0. -1.
         22    1    1    0    0    0  0.17308446066E+00 -0.16474646932E+02 -0.23313119379E+02  0.28547250042E+02  0.00000000000E+00 0. -1.
</event>
<event>
 5    1  0.1046082E-009  0.9118800E+02  0.7561462E-02  0.1125453E+00
         25   -1    0    0    0    0  0.00000000000E+00  0.00000000000E+00  0.99999998245E-14  0.12509000000E+03  0.12509000000E+03 0.  0.
        -11    1    3    3    0    0 -0.10111856874E+01  0.45025166906E+02 -0.21813555362E+02  0.50041176537E+02  0.51100000000E-03 0.  1.
         23    2    1    0    0    0  0.25416357364E+02  0.91126037247E+01 -0.11087634683E+02  0.95901536334E+02  0.91351728282E+02 0.  0.
         11    1    3    3    0    0  0.26427543052E+02 -0.35912563182E+02  0.10725920679E+02  0.45860359797E+02  0.51100000000E-03 0. -1.
         22    1    1    0    0    0 -0.25416357364E+02 -0.91126037247E+01  0.11087634683E+02  0.29188463666E+02  0.00000000000E+00 0.  1.
</event>
<event>
 5    1  0.1046082E-009  0.9118800E+02  0.7561462E-02  0.1125453E+00
         25   -1    0    0    0    0  0.00000000000E+00  0.00000000000E+00  0.99999998245E-14  0.12509000000E+03  0.12509000000E+03 0.  0.
        -11    1    3    3    0    0  0.35741940370E+02 -0.94334765987E+01  0.29604335682E+01  0.37084241253E+02  0.51100000000E-03 0. -1.
         23    2    1    0    0    0 -0.15428147942E+02  0.10929854658E+02  0.22663017656E+02  0.95575565548E+02  0.90904273215E+02 0.  0.
         11    1    3    3    0    0 -0.51170088312E+02  0.20363331256E+02  0.19702584088E+02  0.58491324294E+02  0.51100000000E-03 0.  1.
         22    1    1    0    0    0  0.15428147942E+02 -0.10929854658E+02 -0.22663017656E+02  0.29514434452E+02  0.00000000000E+00 0.  1.
</event>
<event>
 5    1  0.1046082E-009  0.9118800E+02  0.7561462E-02  0.1125453E+00
         25   -1    0    0    0    0  0.00000000000E+00  0.00000000000E+00  0.99999998245E-14  0.12509000000E+03  0.12509000000E+03 0.  0.
        -11    1    3    3    0    0  0.20028790416E+02  0.45722322183E+02 -0.11797355248E+01  0.49930701653E+02  0.51100000000E-03 0. -1.
         23    2    1    0    0    0  0.17487011016E+02  0.71816026613E+01  0.22860585017E+02  0.95425588352E+02  0.90697660356E+02 0.  0.
         11    1    3    3    0    0 -0.25417793994E+01 -0.38540719522E+02  0.24040320542E+02  0.45494886700E+02  0.51100000000E-03 0.  1.
         22    1    1    0    0    0 -0.17487011016E+02 -0.71816026613E+01 -0.22860585017E+02  0.29664411648E+02  0.00000000000E+00 0. -1.
</event>
<event>
 5    1  0.1046082E-009  0.9118800E+02  0.7561462E-02  0.1125453E+00
         25   -1    0    0    0    0  0.00000000000E+00  0.00000000000E+00  0.99999998245E-14  0.12509000000E+03  0.12509000000E+03 0.  0.
        -11    1    3    3    0    0  0.45599977771E+02 -0.23258399799E+02 -0.32558070802E+02  0.60665798507E+02  0.51100000000E-03 0.  1.
         23    2    1    0    0    0  0.27529663182E+02 -0.17601037160E+02 -0.84151146008E+01  0.91348437829E+02  0.84888421331E+02 0.  0.
         11    1    3    3    0    0 -0.18070314589E+02  0.56573626392E+01  0.24142956201E+02  0.30682639322E+02  0.51100000000E-03 0. -1.
         22    1    1    0    0    0 -0.27529663182E+02  0.17601037160E+02  0.84151146008E+01  0.33741562171E+02  0.00000000000E+00 0.  1.
</event>
<event>
 5    1  0.1046082E-009  0.9118800E+02  0.7561462E-02  0.1125453E+00
         25   -1    0    0    0    0  0.00000000000E+00  0.00000000000E+00  0.99999998245E-14  0.12509000000E+03  0.12509000000E+03 0.  0.
        -11    1    3    3    0    0 -0.13092651441E+02  0.34019653477E+01 -0.38179626012E+02  0.40505243274E+02  0.51100000000E-03 0. -1.
         23    2    1    0    0    0  0.17067110350E+02  0.20817022944E+02  0.67359272961E+01  0.97340992513E+02  0.93301990370E+02 0.  0.
         11    1    3    3    0    0  0.30159761790E+02  0.17415057597E+02  0.44915553308E+02  0.56835749239E+02  0.51100000000E-03 0.  1.
         22    1    1    0    0    0 -0.17067110350E+02 -0.20817022944E+02 -0.67359272961E+01  0.27749007487E+02  0.00000000000E+00 0.  1.
</event>
<event>
 5    1  0.1046082E-009  0.9118800E+02  0.7561462E-02  0.1125453E+00
         25   -1    0    0    0    0  0.00000000000E+00  0.00000000000E+00  0.99999998245E-14  0.12509000000E+03  0.12509000000E+03 0.  0.
        -11    1    3    3    0    0  0.49712551271E+02  0.13483711037E+02 -0.23613157158E+02  0.56663298602E+02  0.51100000000E-03 0. -1.
         23    2    1    0    0    0  0.11103285222E+02  0.20706186751E+02 -0.15975410879E+02  0.96677980268E+02  0.92408814533E+02 0.  0.
         11    1    3    3    0    0 -0.38609266050E+02  0.72224757140E+01  0.76377462788E+01  0.40014681666E+02  0.51100000000E-03 0.  1.
         22    1    1    0    0    0 -0.11103285222E+02 -0.20706186751E+02  0.15975410879E+02  0.28412019732E+02  0.00000000000E+00 0. -1.
</event>
<event>
 5    1  0.1046082E-009  0.9118800E+02  0.7561462E-02  0.1125453E+00
         25   -1    0    0    0    0  0.00000000000E+00  0.00000000000E+00  0.99999998245E-14  0.12509000000E+03  0.12509000000E+03 0.  0.
        -11    1    3    3    0    0  0.33394346311E+02  0.61662334603E+01 -0.35780540966E+02  0.49330030537E+02  0.51100000000E-03 0.  1.
         23    2    1    0    0    0 -0.12972515954E+02  0.26692809526E+01 -0.24596026744E+02  0.97154793493E+02  0.93052018442E+02 0.  0.
         11    1    3    3    0    0 -0.46366862265E+02 -0.34969525077E+01  0.11184514222E+02  0.47824762956E+02  0.51100000000E-03 0. -1.
         22    1    1    0    0    0  0.12972515954E+02 -0.26692809526E+01  0.24596026744E+02  0.27935206507E+02  0.00000000000E+00 0. -1.
</event>
<event>
 5    1  0.1046082E-009  0.9118800E+02  0.7561462E-02  0.1125453E+00
         25   -1    0    0    0    0  0.00000000000E+00  0.00000000000E+00  0.99999998245E-14  0.12509000000E+03  0.12509000000E+03 0.  0.
        -11    1    3    3    0    0  0.23098622786E+02  0.44829555161E+02 -0.31222425481E+01  0.50527059971E+02  0.51100000000E-03 0. -1.
         23    2    1    0    0    0 -0.14866664581E+02  0.29679145150E+02  0.25613089740E+01  0.91796912485E+02  0.85546732641E+02 0.  0.
         11    1    3    3    0    0 -0.37965287367E+02 -0.15150410011E+02  0.56835515221E+01  0.41269852514E+02  0.51100000000E-03 0.  1.
         22    1    1    0    0    0  0.14866664581E+02 -0.29679145150E+02 -0.25613089740E+01  0.33293087515E+02  0.00000000000E+00 0. -1.
</event>
<event>
 5    1  0.1046082E-009  0.9118800E+02  0.7561462E-02  0.1125453E+00
         25   -1    0    0    0    0  0.00000000000E+00  0.00000000000E+00  0.99999998245E-14  0.12509000000E+03  0.12509000000E+03 0.  0.
        -11    1    3    3    0    0  0.14382816039E+01  0.57678565812E+02  0.78816212765E+01  0.58232341206E+02  0.51100000000E-03 0.  1.
         23    2    1    0    0    0 -0.52783540818E+01  0.27432881504E+02 -0.11611444335E+02  0.94836906787E+02  0.89882085200E+02 0.  0.
         11    1    3    3    0    0 -0.67166356857E+01 -0.30245684308E+02 -0.19493065611E+02  0.36604565581E+02  0.51100000000E-03 0. -1.
         22    1    1    0    0    0  0.52783540818E+01 -0.27432881504E+02  0.11611444335E+02  0.30253093213E+02  0.00000000000E+00 0.  1.
</event>
<event>
 5    1  0.1046082E-009  0.9118800E+02  0.7561462E-02  0.1125453E+00
         25   -1    0    0    0    0  0.00000000000E+00  0.00000000000E+00  0.99999998245E-14  0.12509000000E+03  0.12509000000E+03 0.  0.
        -11    1    3    3    0    0 -0.34104275630E+02  0.11177458937E+02  0.22725093786E+01  0.35961110990E+02  0.51100000000E-03 0. -1.
         23    2    1    0    0    0  0.24727449041E+02  0.16766123649E+02 -0.14896521772E+01  0.95177315368E+02  0.90354594010E+02 0.  0.
         11    1    3    3    0    0  0.58831724671E+02  0.55886647124E+01 -0.37621615559E+01  0.59216204377E+02  0.51100000000E-03 0.  1.
         22    1    1    0    0    0 -0.24727449041E+02 -0.16766123649E+02  0.14896521772E+01  0.29912684632E+02  0.00000000000E+00 0.  1.
</event>
<event>
 5    1  0.1046082E-009  0.9118800E+02  0.7561462E-02  0.1125453E+00
         25   -1    0    0    0    0  0.00000000000E+00  0.00000000000E+00  0.99999998245E-14  0.12509000000E+03  0.12509000000E+03 0.  0.
        -11    1    3    3    0    0  0.15177030023E+02 -0.10972911072E+02 -0.43977289144E+02  0.47799047883E+02  0.51100000000E-03 0. -1.
         23    2    1    0    0    0  0.15709598028E+02 -0.24625531351E+02  0.20470746195E+01  0.95808627440E+02  0.91224417307E+02 0.  0.
         11    1    3    3    0    0  0.53256800449E+00 -0.13652620278E+02  0.46024363764E+02  0.48009579558E+02  0.51100000000E-03 0.  1.
         22    1    1    0    0    0 -0.15709598028E+02  0.24625531351E+02 -0.20470746195E+01  0.29281372560E+02  0.00000000000E+00 0. -1.
</event>
<event>
 5    1  0.1046082E-009  0.9118800E+02  0.7561462E-02  0.1125453E+00
         25   -1    0    0    0    0  0.00000000000E+00  0.00000000000E+00  0.99999998245E-14  0.12509000000E+03  0.12509000000E+03 0.  0.
        -11    1    3    3    0    0  0.20907045708E+02  0.17999752830E+02  0.54731299431E+02  0.61291196756E+02  0.51100000000E-03 0. -1.
         23    2    1    0    0    0  0.49979479572E+01  0.15720418224E+02  0.24058784543E+02  0.95919190161E+02  0.91375898872E+02 0.  0.
         11    1    3    3    0    0 -0.15909097751E+02 -0.22793346059E+01 -0.30672514887E+02  0.34627993405E+02  0.51100000000E-03 0.  1.
         22    1    1    0    0    0 -0.49979479572E+01 -0.15720418224E+02 -0.24058784543E+02  0.29170809839E+02  0.00000000000E+00 0. -1.
</event>
<event>
 5    1  0.1046082E-009  0.9118800E+02  0.7561462E-02  0.1125453E+00
         25   -1    0    0    0    0  0.00000000000E+00  0.00000000000E+00  0.99999998245E-14  0.12509000000E+03  0.12509000000E+03 0.  0.
        -11    1    3    3    0    0 -0.80472087838E+01  0.34207963959E+02  0.11582786759E+02  0.37001396146E+02  0.51100000000E-03 0.  1.
         23    2    1    0    0    0 -0.19665901160E+02 -0.19505399758E+02 -0.94197011546E+01  0.95833563819E+02  0.91258604506E+02 0.  0.
         11    1    3    3    0    0 -0.11618692377E+02 -0.53713363716E+02 -0.21002487913E+02  0.58832167673E+02  0.51100000000E-03 0. -1.
         22    1    1    0    0    0  0.19665901160E+02  0.19505399758E+02  0.94197011546E+01  0.29256436181E+02  0.00000000000E+00 0. -1.
</event>
<event>
 5    1  0.1046082E-009  0.9118800E+02  0.7561462E-02  0.1125453E+00
         25   -1    0    0    0    0  0.00000000000E+00  0.00000000000E+00  0.99999998245E-14  0.12509000000E+03  0.12509000000E+03 0.  0.
        -11    1    3    3    0    0 -0.49867629307E+02 -0.11341914550E+02  0.46782567891E+01  0.51354703438E+02  0.51100000000E-03 0. -1.
         23    2    1    0    0    0 -0.18605062935E+02  0.21362474403E+02  0.10703016046E+01  0.96741292359E+02  0.92494477794E+02 0.  0.
         11    1    3    3    0    0  0.31262566373E+02  0.32704388953E+02 -0.36079551845E+01  0.45386588920E+02  0.51100000000E-03 0.  1.
         22    1    1    0    0    0  0.18605062935E+02 -0.21362474403E+02 -0.10703016046E+01  0.28348707641E+02  0.00000000000E+00 0.  1.
</event>
<event>
 5    1  0.1046082E-009  0.9118800E+02  0.7561462E-02  0.1125453E+00
         25   -1    0    0    0    0  0.00000000000E+00  0.00000000000E+00  0.99999998245E-14  0.12509000000E+03  0.12509000000E+03 0.  0.
        -11    1    3    3    0    0  0.23575958570E+01 -0.27138255765E+02 -0.18855441620E+02  0.33129607048E+02  0.51100000000E-03 0.  1.
         23    2    1    0    0    0  0.74150943300E+01  0.21349451393E+02  0.19562693880E+02  0.95198835912E+02  0.90384382879E+02 0.  0.
         11    1    3    3    0    0  0.50574984730E+01  0.48487707158E+02  0.38418135500E+02  0.62069228864E+02  0.51100000000E-03 0. -1.
         22    1    1    0    0    0 -0.74150943300E+01 -0.21349451393E+02 -0.19562693880E+02  0.29891164088E+02  0.00000000000E+00 0. -1.
</event>
<event>
 5    1  0.1046082E-009  0.9118800E+02  0.7561462E-02  0.1125453E+00
         25   -1    0    0    0    0  0.00000000000E+00  0.00000000000E+00  0.99999998245E-14  0.12509000000E+03  0.12509000000E+03 0.  0.
        -11    1    3    3    0    0 -0.38362704429E+02  0.25490579471E+01  0.12778317117E+02  0.40515184513E+02  0.51100000000E-03 0. -1.
         23    2    1    0    0    0 -0.34601502754E+00 -0.20494921063E+02 -0.20540956841E+02  0.96071171221E+02  0.91583718619E+02 0.  0.
         11    1    3    3    0    0  0.38016689402E+02 -0.23043979010E+02 -0.33319273958E+02  0.55555986707E+02  0.51100000000E-03 0.  1.
         22    1    1    0    0    0  0.34601502754E+00  0.20494921063E+02  0.20540956841E+02  0.29018828779E+02  0.00000000000E+00 0.  1.
</event>
<event>
 5    1  0.1046082E-009  0.9118800E+02  0.7561462E-02  0.1125453E+00
         25   -1    0    0    0    0  0.00000000000E+00  0.00000000000E+00  0.99999998245E-14  0.12509000000E+03  0.12509000000E+03 0.  0.
        -11    1    3    3    0    0  0.49587015562E+02  0.23853546629E+02 -0.29650267740E+02  0.62506017122E+02  0.51100000000E-03 0.  1.
         23    2    1    0    0    0  0.23490675507E+02  0.12108327715E+02 -0.12670033889E+02  0.95782096722E+02  0.91188030234E+02 0.  0.
         11    1    3    3    0    0 -0.26096340055E+02 -0.11745218914E+02  0.16980233852E+02  0.33276079600E+02  0.51100000000E-03 0. -1.
         22    1    1    0    0    0 -0.23490675507E+02 -0.12108327715E+02  0.12670033889E+02  0.29307903278E+02  0.00000000000E+00 0.  1.
</event>
<event>
 5    1  0.1046082E-009  0.9118800E+02  0.7561462E-02  0.1125453E+00
         25   -1    0    0    0    0  0.00000000000E+00  0.00000000000E+00  0.99999998245E-14  0.12509000000E+03  0.12509000000E+03 0.  0.
        -11    1    3    3    0    0  0.32936919121E+02 -0.31153475890E+01 -0.26439753122E+02  0.42350992635E+02  0.51100000000E-03 0. -1.
         23    2    1    0    0    0 -0.99125621405E+00 -0.30429255260E+02  0.23368549072E+01  0.94555051900E+02  0.89488964596E+02 0.  0.
         11    1    3    3    0    0 -0.33928175335E+02 -0.27313907672E+02  0.28776608029E+02  0.52204059265E+02  0.51100000000E-03 0.  1.
         22    1    1    0    0    0  0.99125621405E+00  0.30429255260E+02 -0.23368549072E+01  0.30534948100E+02  0.00000000000E+00 0.  1.
</event>
<event>
 5    1  0.1046082E-009  0.9118800E+02  0.7561462E-02  0.1125453E+00
         25   -1    0    0    0    0  0.00000000000E+00  0.00000000000E+00  0.99999998245E-14  0.12509000000E+03  0.12509000000E+03 0.  0.
        -11    1    3    3    0    0  0.37428541061E+02 -0.34738630494E+02 -0.23418847692E+02  0.56179271640E+02  0.51100000000E-03 0. -1.
         23    2    1    0    0    0  0.62095657827E+01 -0.32817784415E+02 -0.99018719750E+01  0.90253054816E+02  0.83258640115E+02 0.  0.
         11    1    3    3    0    0 -0.31218975279E+02  0.19208460788E+01  0.13516975717E+02  0.34073783176E+02  0.51100000000E-03 0.  1.
         22    1    1    0    0    0 -0.62095657827E+01  0.32817784415E+02  0.99018719750E+01  0.34836945184E+02  0.00000000000E+00 0. -1.
</event>
<event>
 5    1  0.1046082E-009  0.9118800E+02  0.7561462E-02  0.1125453E+00
         25   -1    0    0    0    0  0.00000000000E+00  0.00000000000E+00  0.99999998245E-14  0.12509000000E+03  0.12509000000E+03 0.  0.
        -11    1    3    3    0    0  0.38845368929E+02  0.20045914776E+02 -0.31191733658E+02  0.53700331799E+02  0.51100000000E-03 0. -1.
         23    2    1    0    0    0 -0.37651060753E+01  0.17559290279E+02 -0.20761531299E+02  0.97639209834E+02  0.93700957392E+02 0.  0.
         11    1    3    3    0    0 -0.42610475004E+02 -0.24866244963E+01  0.10430202360E+02  0.43938878035E+02  0.51100000000E-03 0.  1.
         22    1    1    0    0    0  0.37651060753E+01 -0.17559290279E+02  0.20761531299E+02  0.27450790166E+02  0.00000000000E+00 0. -1.
</event>
<event>
 5    1  0.1046082E-009  0.9118800E+02  0.7561462E-02  0.1125453E+00
         25   -1    0    0    0    0  0.00000000000E+00  0.00000000000E+00  0.99999998245E-14  0.12509000000E+03  0.12509000000E+03 0.  0.
        -11    1    3    3    0    0 -0.18696556663E+02  0.13306371880E+02  0.29067372610E+02  0.37034212755E+02  0.51100000000E-03 0. -1.
         23    2    1    0    0    0  0.27220434903E+02 -0.15742800017E+01 -0.65831901482E+01  0.97040600249E+02  0.92898381420E+02 0.  0.
         11    1    3    3    0    0  0.45916991566E+02 -0.14880651882E+02 -0.35650562758E+02  0.60006387494E+02  0.51100000000E-03 0.  1.
         22    1    1    0    0    0 -0.27220434903E+02  0.15742800017E+01  0.65831901482E+01  0.28049399751E+02  0.00000000000E+00 0.  1.
</event>
<event>
 5    1  0.1046082E-009  0.9118800E+02  0.7561462E-02  0.1125453E+00
         25   -1    0    0    0    0  0.00000000000E+00  0.00000000000E+00  0.99999998245E-14  0.12509000000E+03  0.12509000000E+03 0.  0.
        -11    1    3    3    0    0 -0.25939805939E+02  0.37020028118E+02  0.19818110800E+02  0.49357000820E+02  0.51100000000E-03 0.  1.
         23    2    1    0    0    0 -0.64907555891E+00  0.28771834018E+02 -0.14569558791E+02  0.92833035245E+02  0.87048610888E+02 0.  0.
         11    1    3    3    0    0  0.25290730380E+02 -0.82481941000E+01 -0.34387669592E+02  0.43476034425E+02  0.51100000000E-03 0. -1.
         22    1    1    0    0    0  0.64907555891E+00 -0.28771834018E+02  0.14569558791E+02  0.32256964755E+02  0.00000000000E+00 0.  1.
</event>
<event>
 5    1  0.1046082E-009  0.9118800E+02  0.7561462E-02  0.1125453E+00
         25   -1    0    0    0    0  0.00000000000E+00  0.00000000000E+00  0.99999998245E-14  0.12509000000E+03  0.12509000000E+03 0.  0.
        -11    1    3    3    0    0 -0.11167899393E+02 -0.10401167527E+02  0.33549986818E+02  0.36857941865E+02  0.51100000000E-03 0.  1.
         23    2    1    0    0    0 -0.21689425626E+02 -0.54550103694E+01 -0.22063494989E+02  0.93673664548E+02  0.88248338775E+02 0.  0.
         11    1    3    3    0    0 -0.10521526234E+02  0.49461571578E+01 -0.55613481807E+02  0.56815722682E+02  0.51100000000E-03 0. -1.
         22    1    1    0    0    0  0.21689425626E+02  0.54550103694E+01  0.22063494989E+02  0.31416335452E+02  0.00000000000E+00 0. -1.
</event>
<event>
 5    1  0.1046082E-009  0.9118800E+02  0.7561462E-02  0.1125453E+00
         25   -1    0    0    0    0  0.00000000000E+00  0.00000000000E+00  0.99999998245E-14  0.12509000000E+03  0.12509000000E+03 0.  0.
        -11    1    3    3    0    0 -0.20721197033E+02  0.31252276819E+02  0.31642234113E+02  0.49064282251E+02  0.51100000000E-03 0. -1.
         23    2    1    0    0    0  0.16351038043E+02  0.31603108991E+01  0.23503467663E+02  0.96284497015E+02  0.91874628506E+02 0.  0.
         11    1    3    3    0    0  0.37072235076E+02 -0.28091965920E+02 -0.81387664502E+01  0.47220214764E+02  0.51100000000E-03 0.  1.
         22    1    1    0    0    0 -0.16351038043E+02 -0.31603108991E+01 -0.23503467663E+02  0.28805502985E+02  0.00000000000E+00 0. -1.
</event>
<event>
 5    1  0.1046082E-009  0.9118800E+02  0.7561462E-02  0.1125453E+00
         25   -1    0    0    0    0  0.00000000000E+00  0.00000000000E+00  0.99999998245E-14  0.12509000000E+03  0.12509000000E+03 0.  0.
        -11    1    3    3    0    0 -0.30816533465E+02  0.21214695246E+02  0.55038002350E+01  0.37815523882E+02  0.51100000000E-03 0. -1.
         23    2    1    0    0    0 -0.16480878988E+02 -0.21060489202E+02  0.26760257521E+02  0.87257805241E+02  0.78629826499E+02 0.  0.
         11    1    3    3    0    0  0.14335654477E+02 -0.42275184448E+02  0.21256457286E+02  0.49442281359E+02  0.51100000000E-03 0.  1.
         22    1    1    0    0    0  0.16480878988E+02  0.21060489202E+02 -0.26760257521E+02  0.37832194759E+02  0.00000000000E+00 0.  1.
</event>
<event>
 5    1  0.1046082E-009  0.9118800E+02  0.7561462E-02  0.1125453E+00
         25   -1    0    0    0    0  0.00000000000E+00  0.00000000000E+00  0.99999998245E-14  0.12509000000E+03  0.12509000000E+03 0.  0.
        -11    1    3    3    0    0 -0.28909329596E+02  0.74199208967E+01 -0.19887506424E+02  0.35865268378E+02  0.51100000000E-03 0. -1.
         23    2    1    0    0    0  0.18442285520E+02  0.22520750600E+02  0.10529811367E+02  0.94135532953E+02  0.88900616050E+02 0.  0.
         11    1    3    3    0    0  0.47351615115E+02  0.15100829703E+02  0.30417317791E+02  0.58270264575E+02  0.51100000000E-03 0.  1.
         22    1    1    0    0    0 -0.18442285520E+02 -0.22520750600E+02 -0.10529811367E+02  0.30954467047E+02  0.00000000000E+00 0.  1.
</event>
<event>
 5    1  0.1046082E-009  0.9118800E+02  0.7561462E-02  0.1125453E+00
         25   -1    0    0    0    0  0.00000000000E+00  0.00000000000E+00  0.99999998245E-14  0.12509000000E+03  0.12509000000E+03 0.  0.
        -11    1    3    3    0    0  0.19633614101E+02  0.27809419616E+02  0.41027707377E+02  0.53311494022E+02  0.51100000000E-03 0. -1.
         23    2    1    0    0    0  0.27411164358E+02  0.11417485671E+02  0.32518881077E+01  0.95218513817E+02  0.90411612566E+02 0.  0.
         11    1    3    3    0    0  0.77775502571E+01 -0.16391933945E+02 -0.37775819269E+02  0.41907019796E+02  0.51100000000E-03 0.  1.
         22    1    1    0    0    0 -0.27411164358E+02 -0.11417485671E+02 -0.32518881077E+01  0.29871486183E+02  0.00000000000E+00 0. -1.
</event>
<event>
 5    1  0.1046082E-009  0.9118800E+02  0.7561462E-02  0.1125453E+00
         25   -1    0    0    0    0  0.00000000000E+00  0.00000000000E+00  0.99999998245E-14  0.12509000000E+03  0.12509000000E+03 0.  0.
        -11    1    3    3    0    0 -0.64998185469E+01  0.44370742450E+02 -0.29081345012E+02  0.53448433604E+02  0.51100000000E-03 0.  1.
         23    2    1    0    0    0 -0.19644324908E+02  0.52882767232E+01 -0.21713678286E+02  0.95335181962E+02  0.90572886248E+02 0.  0.
         11    1    3    3    0    0 -0.13144506361E+02 -0.39082465727E+02  0.73676667262E+01  0.41886748358E+02  0.51100000000E-03 0. -1.
         22    1    1    0    0    0  0.19644324908E+02 -0.52882767232E+01  0.21713678286E+02  0.29754818038E+02  0.00000000000E+00 0.  1.
</event>
<event>
 5    1  0.1046082E-009  0.9118800E+02  0.7561462E-02  0.1125453E+00
         25   -1    0    0    0    0  0.00000000000E+00  0.00000000000E+00  0.99999998245E-14  0.12509000000E+03  0.12509000000E+03 0.  0.
        -11    1    3    3    0    0  0.32688057250E+01 -0.31452798098E+02 -0.28106404546E+02  0.42307606596E+02  0.51100000000E-03 0. -1.
         23    2    1    0    0    0 -0.23696922566E+01 -0.15891722609E+02  0.23566964885E+02  0.96566954532E+02  0.92258401162E+02 0.  0.
         11    1    3    3    0    0 -0.56384979816E+01  0.15561075489E+02  0.51673369431E+02  0.54259347937E+02  0.51100000000E-03 0.  1.
         22    1    1    0    0    0  0.23696922566E+01  0.15891722609E+02 -0.23566964885E+02  0.28523045468E+02  0.00000000000E+00 0.  1.
</event>
<event>
 5    1  0.1046082E-009  0.9118800E+02  0.7561462E-02  0.1125453E+00
         25   -1    0    0    0    0  0.00000000000E+00  0.00000000000E+00  0.99999998245E-14  0.12509000000E+03  0.12509000000E+03 0.  0.
        -11    1    3    3    0    0  0.17702455678E+02 -0.18952656162E+02  0.24965601826E+02  0.35998074774E+02  0.51100000000E-03 0.  1.
         23    2    1    0    0    0 -0.49228954428E+00 -0.10043247978E+02 -0.29401220729E+02  0.94016845038E+02  0.88733455875E+02 0.  0.
         11    1    3    3    0    0 -0.18194745223E+02  0.89094081834E+01 -0.54366822555E+02  0.58018770264E+02  0.51100000000E-03 0. -1.
         22    1    1    0    0    0  0.49228954428E+00  0.10043247978E+02  0.29401220729E+02  0.31073154962E+02  0.00000000000E+00 0.  1.
</event>
<event>
 5    1  0.1046082E-009  0.9118800E+02  0.7561462E-02  0.1125453E+00
         25   -1    0    0    0    0  0.00000000000E+00  0.00000000000E+00  0.99999998245E-14  0.12509000000E+03  0.12509000000E+03 0.  0.
        -11    1    3    3    0    0  0.19656298678E+02  0.34320691048E+02  0.16817143208E+02  0.42977857295E+02  0.51100000000E-03 0. -1.
         23    2    1    0    0    0  0.24817150682E+02 -0.73455442278E+01 -0.14562071303E+02  0.95393166690E+02  0.90652933447E+02 0.  0.
         11    1    3    3    0    0  0.51608520040E+01 -0.41666235276E+02 -0.31379214511E+02  0.52415309396E+02  0.51100000000E-03 0.  1.
         22    1    1    0    0    0 -0.24817150682E+02  0.73455442278E+01  0.14562071303E+02  0.29696833310E+02  0.00000000000E+00 0.  1.
</event>
<event>
 5    1  0.1046082E-009  0.9118800E+02  0.7561462E-02  0.1125453E+00
         25   -1    0    0    0    0  0.00000000000E+00  0.00000000000E+00  0.99999998245E-14  0.12509000000E+03  0.12509000000E+03 0.  0.
        -11    1    3    3    0    0  0.46707790671E+02 -0.24499320965E+02 -0.14241499434E+02  0.54631993772E+02  0.51100000000E-03 0. -1.
         23    2    1    0    0    0  0.15054008422E+02 -0.17073750314E+02  0.14561471982E+02  0.98068294176E+02  0.94272041120E+02 0.  0.
         11    1    3    3    0    0 -0.31653782249E+02  0.74255706509E+01  0.28802971415E+02  0.43436300404E+02  0.51100000000E-03 0.  1.
         22    1    1    0    0    0 -0.15054008422E+02  0.17073750314E+02 -0.14561471982E+02  0.27021705824E+02  0.00000000000E+00 0. -1.
</event>
<event>
 5    1  0.1046082E-009  0.9118800E+02  0.7561462E-02  0.1125453E+00
         25   -1    0    0    0    0  0.00000000000E+00  0.00000000000E+00  0.99999998245E-14  0.12509000000E+03  0.12509000000E+03 0.  0.
        -11    1    3    3    0    0 -0.86357174047E+01 -0.29055372259E+02  0.26830675447E+02  0.40480556041E+02  0.51100000000E-03 0.  1.
         23    2    1    0    0    0 -0.52743467919E+01 -0.13869236596E+02 -0.25781365887E+02  0.95343516429E+02  0.90584396229E+02 0.  0.
         11    1    3    3    0    0  0.33613706128E+01  0.15186135663E+02 -0.52612041335E+02  0.54862960387E+02  0.51100000000E-03 0. -1.
         22    1    1    0    0    0  0.52743467919E+01  0.13869236596E+02  0.25781365887E+02  0.29746483571E+02  0.00000000000E+00 0. -1.
</event>
<event>
 5    1  0.1046082E-009  0.9118800E+02  0.7561462E-02  0.1125453E+00
         25   -1    0    0    0    0  0.00000000000E+00  0.00000000000E+00  0.99999998245E-14  0.12509000000E+03  0.12509000000E+03 0.  0.
        -11    1    3    3    0    0 -0.48101600969E+02  0.16103983525E+02  0.25753710105E+02  0.56888978594E+02  0.51100000000E-03 0. -1.
         23    2    1    0    0    0 -0.27957544684E+02 -0.32663002885E+01 -0.27515201628E+01  0.96808135041E+02  0.92584832044E+02 0.  0.
         11    1    3    3    0    0  0.20144056285E+02 -0.19370283813E+02 -0.28505230267E+02  0.39919156447E+02  0.51100000000E-03 0.  1.
         22    1    1    0    0    0  0.27957544684E+02  0.32663002885E+01  0.27515201628E+01  0.28281864959E+02  0.00000000000E+00 0. -1.
</event>
<event>
 5    1  0.1046082E-009  0.9118800E+02  0.7561462E-02  0.1125453E+00
         25   -1    0    0    0    0  0.00000000000E+00  0.00000000000E+00  0.99999998245E-14  0.12509000000E+03  0.12509000000E+03 0.  0.
        -11    1    3    3    0    0 -0.25114241683E+02 -0.22094814587E+01 -0.55500391820E+02  0.60958185964E+02  0.51100000000E-03 0.  1.
         23    2    1    0    0    0 -0.91717696053E+01  0.85002486472E+01 -0.27113153569E+02  0.95232024830E+02  0.90430303948E+02 0.  0.
         11    1    3    3    0    0  0.15942472078E+02  0.10709730106E+02  0.28387238250E+02  0.34273838866E+02  0.51100000000E-03 0. -1.
         22    1    1    0    0    0  0.91717696053E+01 -0.85002486472E+01  0.27113153569E+02  0.29857975170E+02  0.00000000000E+00 0.  1.
</event>
<event>
 5    1  0.1046082E-009  0.9118800E+02  0.7561462E-02  0.1125453E+00
         25   -1    0    0    0    0  0.00000000000E+00  0.00000000000E+00  0.99999998245E-14  0.12509000000E+03  0.12509000000E+03 0.  0.
        -11    1    3    3    0    0 -0.44105511471E+00  0.39745702187E+02 -0.42957959265E+02  0.58526076551E+02  0.51100000000E-03 0.  1.
         23    2    1    0    0    0 -0.84920178992E+01  0.10003959516E+02 -0.30729297461E+02  0.91676181056E+02  0.85370011576E+02 0.  0.
         11    1    3    3    0    0 -0.80509627845E+01 -0.29741742671E+02  0.12228661804E+02  0.33150104505E+02  0.51100000000E-03 0. -1.
         22    1    1    0    0    0  0.84920178992E+01 -0.10003959516E+02  0.30729297461E+02  0.33413818944E+02  0.00000000000E+00 0.  1.
</event>
<event>
 5    1  0.1046082E-009  0.9118800E+02  0.7561462E-02  0.1125453E+00
         25   -1    0    0    0    0  0.00000000000E+00  0.00000000000E+00  0.99999998245E-14  0.12509000000E+03  0.12509000000E+03 0.  0.
        -11    1    3    3    0    0 -0.15994032792E+01  0.13480902850E+02  0.35379770177E+02  0.37894867338E+02  0.51100000000E-03 0.  1.
         23    2    1    0    0    0  0.23436872974E+02 -0.19444465290E+02 -0.32156897088E+01  0.94467869024E+02  0.89367015014E+02 0.  0.
         11    1    3    3    0    0  0.25036276253E+02 -0.32925368140E+02 -0.38595459886E+02  0.56573001687E+02  0.51100000000E-03 0. -1.
         22    1    1    0    0    0 -0.23436872974E+02  0.19444465290E+02  0.32156897088E+01  0.30622130976E+02  0.00000000000E+00 0. -1.
</event>
<event>
 5    1  0.1046082E-009  0.9118800E+02  0.7561462E-02  0.1125453E+00
         25   -1    0    0    0    0  0.00000000000E+00  0.00000000000E+00  0.99999998245E-14  0.12509000000E+03  0.12509000000E+03 0.  0.
        -11    1    3    3    0    0 -0.31486779803E+02  0.47181271153E+02 -0.18861335703E+02  0.59776580989E+02  0.51100000000E-03 0.  1.
         23    2    1    0    0    0 -0.12605353557E+02  0.25625780477E+02  0.37602050294E+01  0.96285231207E+02  0.91875628126E+02 0.  0.
         11    1    3    3    0    0  0.18881426246E+02 -0.21555490677E+02  0.22621540733E+02  0.36508650218E+02  0.51100000000E-03 0. -1.
         22    1    1    0    0    0  0.12605353557E+02 -0.25625780477E+02 -0.37602050294E+01  0.28804768793E+02  0.00000000000E+00 0.  1.
</event>
<event>
 5    1  0.1046082E-009  0.9118800E+02  0.7561462E-02  0.1125453E+00
         25   -1    0    0    0    0  0.00000000000E+00  0.00000000000E+00  0.99999998245E-14  0.12509000000E+03  0.12509000000E+03 0.  0.
        -11    1    3    3    0    0  0.37899889837E+02  0.62461634956E+01 -0.50128266270E+01  0.38736864085E+02  0.51100000000E-03 0.  1.
         23    2    1    0    0    0 -0.43806956561E+01 -0.23896994238E+02  0.17311606585E+02  0.95257994526E+02  0.90466220052E+02 0.  0.
         11    1    3    3    0    0 -0.42280585493E+02 -0.30143157734E+02  0.22324433212E+02  0.56521130441E+02  0.51100000000E-03 0. -1.
         22    1    1    0    0    0  0.43806956561E+01  0.23896994238E+02 -0.17311606585E+02  0.29832005474E+02  0.00000000000E+00 0. -1.
</event>
<event>
 5    1  0.1046082E-009  0.9118800E+02  0.7561462E-02  0.1125453E+00
         25   -1    0    0    0    0  0.00000000000E+00  0.00000000000E+00  0.99999998245E-14  0.12509000000E+03  0.12509000000E+03 0.  0.
        -11    1    3    3    0    0  0.14408361301E+02  0.84353085077E+01  0.34448764791E+02  0.38281492929E+02  0.51100000000E-03 0.  1.
         23    2    1    0    0    0 -0.85264300206E+01 -0.26929590371E+02 -0.54509148780E+01  0.96321695923E+02  0.91925261958E+02 0.  0.
         11    1    3    3    0    0 -0.22934791321E+02 -0.35364898879E+02 -0.39899679669E+02  0.58040202994E+02  0.51100000000E-03 0. -1.
         22    1    1    0    0    0  0.85264300206E+01  0.26929590371E+02  0.54509148780E+01  0.28768304077E+02  0.00000000000E+00 0. -1.
</event>
<event>
 5    1  0.1046082E-009  0.9118800E+02  0.7561462E-02  0.1125453E+00
         25   -1    0    0    0    0  0.00000000000E+00  0.00000000000E+00  0.99999998245E-14  0.12509000000E+03  0.12509000000E+03 0.  0.
        -11    1    3    3    0    0  0.48536921402E+01  0.20118943912E+02  0.57700429208E+02  0.61299834931E+02  0.51100000000E-03 0.  1.
         23    2    1    0    0    0  0.37673075505E+01  0.19248928231E+02  0.28733204957E+02  0.90300476989E+02  0.83329857994E+02 0.  0.
         11    1    3    3    0    0 -0.10863845897E+01 -0.87001568050E+00 -0.28967224251E+02  0.29000642059E+02  0.51100000000E-03 0. -1.
         22    1    1    0    0    0 -0.37673075505E+01 -0.19248928231E+02 -0.28733204957E+02  0.34789523011E+02  0.00000000000E+00 0.  1.
</event>
<event>
 5    1  0.1046082E-009  0.9118800E+02  0.7561462E-02  0.1125453E+00
         25   -1    0    0    0    0  0.00000000000E+00  0.00000000000E+00  0.99999998245E-14  0.12509000000E+03  0.12509000000E+03 0.  0.
        -11    1    3    3    0    0  0.23190782890E+02 -0.24957979798E+02  0.45786427432E+02  0.57071096922E+02  0.51100000000E-03 0. -1.
         23    2    1    0    0    0  0.27278934292E+02 -0.14711144922E+02  0.13328524256E+02  0.91352667565E+02  0.84894653962E+02 0.  0.
         11    1    3    3    0    0  0.40881514015E+01  0.10246834877E+02 -0.32457903176E+02  0.34281570642E+02  0.51100000000E-03 0.  1.
         22    1    1    0    0    0 -0.27278934292E+02  0.14711144922E+02 -0.13328524256E+02  0.33737332435E+02  0.00000000000E+00 0. -1.
</event>
<event>
 5    1  0.1046082E-009  0.9118800E+02  0.7561462E-02  0.1125453E+00
         25   -1    0    0    0    0  0.00000000000E+00  0.00000000000E+00  0.99999998245E-14  0.12509000000E+03  0.12509000000E+03 0.  0.
        -11    1    3    3    0    0 -0.76887621702E+01  0.25413253626E+02 -0.31480603828E+02  0.41182264887E+02  0.51100000000E-03 0.  1.
         23    2    1    0    0    0  0.17593884842E+02  0.18934704137E+02  0.15518686185E+02  0.94942074275E+02  0.90028329109E+02 0.  0.
         11    1    3    3    0    0  0.25282647012E+02 -0.64785494888E+01  0.46999290013E+02  0.53759809388E+02  0.51100000000E-03 0. -1.
         22    1    1    0    0    0 -0.17593884842E+02 -0.18934704137E+02 -0.15518686185E+02  0.30147925725E+02  0.00000000000E+00 0.  1.
</event>
<event>
 5    1  0.1046082E-009  0.9118800E+02  0.7561462E-02  0.1125453E+00
         25   -1    0    0    0    0  0.00000000000E+00  0.00000000000E+00  0.99999998245E-14  0.12509000000E+03  0.12509000000E+03 0.  0.
        -11    1    3    3    0    0 -0.22433890921E+02 -0.34277652654E+02  0.16303929925E+02  0.44091439810E+02  0.51100000000E-03 0.  1.
         23    2    1    0    0    0  0.23507885281E+02 -0.16266687449E+02 -0.12728948453E+01  0.96474513770E+02  0.92132978650E+02 0.  0.
         11    1    3    3    0    0  0.45941776201E+02  0.18010965205E+02 -0.17576824770E+02  0.52383073959E+02  0.51100000000E-03 0. -1.
         22    1    1    0    0    0 -0.23507885281E+02  0.16266687449E+02  0.12728948453E+01  0.28615486230E+02  0.00000000000E+00 0. -1.
</event>
<event>
 5    1  0.1046082E-009  0.9118800E+02  0.7561462E-02  0.1125453E+00
         25   -1    0    0    0    0  0.00000000000E+00  0.00000000000E+00  0.99999998245E-14  0.12509000000E+03  0.12509000000E+03 0.  0.
        -11    1    3    3    0    0 -0.12692003212E+02 -0.14103291104E+02 -0.42111571189E+02  0.46188463860E+02  0.51100000000E-03 0.  1.
         23    2    1    0    0    0  0.24896451837E+02 -0.12051742023E+02 -0.99693218984E+01  0.95688211297E+02  0.91059148921E+02 0.  0.
         11    1    3    3    0    0  0.37588455049E+02  0.20515490801E+01  0.32142249290E+02  0.49499747437E+02  0.51100000000E-03 0. -1.
         22    1    1    0    0    0 -0.24896451837E+02  0.12051742023E+02  0.99693218984E+01  0.29401788703E+02  0.00000000000E+00 0.  1.
</event>
<event>
 5    1  0.1046082E-009  0.9118800E+02  0.7561462E-02  0.1125453E+00
         25   -1    0    0    0    0  0.00000000000E+00  0.00000000000E+00  0.99999998245E-14  0.12509000000E+03  0.12509000000E+03 0.  0.
        -11    1    3    3    0    0 -0.13686739476E+02  0.38033924238E+02  0.13922301560E+02  0.42752037512E+02  0.51100000000E-03 0.  1.
         23    2    1    0    0    0  0.16833528630E+02  0.13566867798E+02 -0.20823812572E+02  0.95072359219E+02  0.90209172092E+02 0.  0.
         11    1    3    3    0    0  0.30520268106E+02 -0.24467056440E+02 -0.34746114132E+02  0.52320321708E+02  0.51100000000E-03 0. -1.
         22    1    1    0    0    0 -0.16833528630E+02 -0.13566867798E+02  0.20823812572E+02  0.30017640781E+02  0.00000000000E+00 0. -1.
</event>
<event>
 5    1  0.1046082E-009  0.9118800E+02  0.7561462E-02  0.1125453E+00
         25   -1    0    0    0    0  0.00000000000E+00  0.00000000000E+00  0.99999998245E-14  0.12509000000E+03  0.12509000000E+03 0.  0.
        -11    1    3    3    0    0  0.10929945704E+02  0.85381740381E+01 -0.50518278205E+02  0.52387599315E+02  0.51100000000E-03 0. -1.
         23    2    1    0    0    0  0.23016303819E+01 -0.21155070693E+02 -0.18609113765E+02  0.96821048241E+02  0.92602277234E+02 0.  0.
         11    1    3    3    0    0 -0.86283153221E+01 -0.29693244731E+02  0.31909164440E+02  0.44433448926E+02  0.51100000000E-03 0.  1.
         22    1    1    0    0    0 -0.23016303819E+01  0.21155070693E+02  0.18609113765E+02  0.28268951759E+02  0.00000000000E+00 0.  1.
</event>
<event>
 5    1  0.1046082E-009  0.9118800E+02  0.7561462E-02  0.1125453E+00
         25   -1    0    0    0    0  0.00000000000E+00  0.00000000000E+00  0.99999998245E-14  0.12509000000E+03  0.12509000000E+03 0.  0.
        -11    1    3    3    0    0 -0.11758536080E+02 -0.37097526528E+02 -0.39044009097E+02  0.55126439137E+02  0.51100000000E-03 0. -1.
         23    2    1    0    0    0 -0.21682798782E+02 -0.18840115834E+02 -0.39901774063E+02  0.75924511077E+02  0.57855735076E+02 0.  0.
         11    1    3    3    0    0 -0.99242627020E+01  0.18257410694E+02 -0.85776496592E+00  0.20798071940E+02  0.51100000000E-03 0.  1.
         22    1    1    0    0    0  0.21682798782E+02  0.18840115834E+02  0.39901774063E+02  0.49165488923E+02  0.00000000000E+00 0. -1.
</event>
<event>
 5    1  0.1046082E-009  0.9118800E+02  0.7561462E-02  0.1125453E+00
         25   -1    0    0    0    0  0.00000000000E+00  0.00000000000E+00  0.99999998245E-14  0.12509000000E+03  0.12509000000E+03 0.  0.
        -11    1    3    3    0    0  0.17789381004E+01 -0.51431141104E+02  0.26592397268E+02  0.57926526642E+02  0.51100000000E-03 0. -1.
         23    2    1    0    0    0 -0.37445738258E+01 -0.18505359900E+02  0.27973695564E+02  0.91340958211E+02  0.84877398789E+02 0.  0.
         11    1    3    3    0    0 -0.55235119262E+01  0.32925781204E+02  0.13812982955E+01  0.33414431570E+02  0.51100000000E-03 0.  1.
         22    1    1    0    0    0  0.37445738258E+01  0.18505359900E+02 -0.27973695564E+02  0.33749041789E+02  0.00000000000E+00 0. -1.
</event>
<event>
 5    1  0.1046082E-009  0.9118800E+02  0.7561462E-02  0.1125453E+00
         25   -1    0    0    0    0  0.00000000000E+00  0.00000000000E+00  0.99999998245E-14  0.12509000000E+03  0.12509000000E+03 0.  0.
        -11    1    3    3    0    0  0.10732005614E+02  0.12529131233E+01  0.56100328954E+02  0.57131363058E+02  0.51100000000E-03 0. -1.
         23    2    1    0    0    0 -0.43870950493E+01 -0.15258380207E+02  0.25605472705E+02  0.94961856978E+02  0.90055812021E+02 0.  0.
         11    1    3    3    0    0 -0.15119100664E+02 -0.16511293330E+02 -0.30494856249E+02  0.37830493920E+02  0.51100000000E-03 0.  1.
         22    1    1    0    0    0  0.43870950493E+01  0.15258380207E+02 -0.25605472705E+02  0.30128143022E+02  0.00000000000E+00 0. -1.
</event>
<event>
 5    1  0.1046082E-009  0.9118800E+02  0.7561462E-02  0.1125453E+00
         25   -1    0    0    0    0  0.00000000000E+00  0.00000000000E+00  0.99999998245E-14  0.12509000000E+03  0.12509000000E+03 0.  0.
        -11    1    3    3    0    0 -0.16511418317E+02  0.46305366636E+01  0.39734144256E+02  0.43276679917E+02  0.51100000000E-03 0. -1.
         23    2    1    0    0    0 -0.16467304303E+02 -0.25529007697E+02 -0.18592859692E+01  0.94653848973E+02  0.89626959316E+02 0.  0.
         11    1    3    3    0    0  0.44114014314E-01 -0.30159544361E+02 -0.41593430225E+02  0.51377169056E+02  0.51100000000E-03 0.  1.
         22    1    1    0    0    0  0.16467304303E+02  0.25529007697E+02  0.18592859692E+01  0.30436151027E+02  0.00000000000E+00 0. -1.
</event>
<event>
 5    1  0.1046082E-009  0.9118800E+02  0.7561462E-02  0.1125453E+00
         25   -1    0    0    0    0  0.00000000000E+00  0.00000000000E+00  0.99999998245E-14  0.12509000000E+03  0.12509000000E+03 0.  0.
        -11    1    3    3    0    0  0.50815622162E+02 -0.18329813575E+02 -0.34276183700E+01  0.54129087277E+02  0.51100000000E-03 0.  1.
         23    2    1    0    0    0  0.22399349507E+02 -0.26613380385E+01  0.20628268997E+02  0.94523039727E+02  0.89444205955E+02 0.  0.
         11    1    3    3    0    0 -0.28416272655E+02  0.15668475537E+02  0.24055887367E+02  0.40393952450E+02  0.51100000000E-03 0. -1.
         22    1    1    0    0    0 -0.22399349507E+02  0.26613380385E+01 -0.20628268997E+02  0.30566960273E+02  0.00000000000E+00 0.  1.
</event>
<event>
 5    1  0.1046082E-009  0.9118800E+02  0.7561462E-02  0.1125453E+00
         25   -1    0    0    0    0  0.00000000000E+00  0.00000000000E+00  0.99999998245E-14  0.12509000000E+03  0.12509000000E+03 0.  0.
        -11    1    3    3    0    0 -0.39181154587E+02 -0.72526914266E+01 -0.40102190259E+01  0.40048049448E+02  0.51100000000E-03 0.  1.
         23    2    1    0    0    0  0.10628804265E+02 -0.12758506897E+02  0.22801141898E+02  0.96882854626E+02  0.92685729593E+02 0.  0.
         11    1    3    3    0    0  0.49809958852E+02 -0.55058154701E+01  0.26811360923E+02  0.56834805178E+02  0.51100000000E-03 0. -1.
         22    1    1    0    0    0 -0.10628804265E+02  0.12758506897E+02 -0.22801141898E+02  0.28207145374E+02  0.00000000000E+00 0.  1.
</event>
<event>
 5    1  0.1046082E-009  0.9118800E+02  0.7561462E-02  0.1125453E+00
         25   -1    0    0    0    0  0.00000000000E+00  0.00000000000E+00  0.99999998245E-14  0.12509000000E+03  0.12509000000E+03 0.  0.
        -11    1    3    3    0    0 -0.32764581868E+02 -0.91313996631E+01 -0.18478351925E+02  0.38708523286E+02  0.51100000000E-03 0. -1.
         23    2    1    0    0    0 -0.15726868802E+02  0.57907984040E+00  0.30115591414E+02  0.91110321043E+02  0.84536808661E+02 0.  0.
         11    1    3    3    0    0  0.17037713066E+02  0.97104795035E+01  0.48593943339E+02  0.52401797758E+02  0.51100000000E-03 0.  1.
         22    1    1    0    0    0  0.15726868802E+02 -0.57907984040E+00 -0.30115591414E+02  0.33979678957E+02  0.00000000000E+00 0.  1.
</event>
<event>
 5    1  0.1046082E-009  0.9118800E+02  0.7561462E-02  0.1125453E+00
         25   -1    0    0    0    0  0.00000000000E+00  0.00000000000E+00  0.99999998245E-14  0.12509000000E+03  0.12509000000E+03 0.  0.
        -11    1    3    3    0    0  0.29939953035E+02  0.35147728017E+01 -0.49211683028E+02  0.57710866934E+02  0.51100000000E-03 0.  1.
         23    2    1    0    0    0  0.38392893415E+01 -0.11084712250E+02 -0.29001754834E+02  0.93805614570E+02  0.88435177124E+02 0.  0.
         11    1    3    3    0    0 -0.26100663693E+02 -0.14599485052E+02  0.20209928194E+02  0.36094747636E+02  0.51100000000E-03 0. -1.
         22    1    1    0    0    0 -0.38392893415E+01  0.11084712250E+02  0.29001754834E+02  0.31284385430E+02  0.00000000000E+00 0.  1.
</event>
<event>
 5    1  0.1046082E-009  0.9118800E+02  0.7561462E-02  0.1125453E+00
         25   -1    0    0    0    0  0.00000000000E+00  0.00000000000E+00  0.99999998245E-14  0.12509000000E+03  0.12509000000E+03 0.  0.
        -11    1    3    3    0    0 -0.33824769410E+02 -0.32464417422E+02 -0.36182305280E+02  0.59221724391E+02  0.51100000000E-03 0.  1.
         23    2    1    0    0    0 -0.13002744843E+02 -0.21231398225E+02 -0.29445737379E+01  0.10001981535E+03  0.96826903821E+02 0.  0.
         11    1    3    3    0    0  0.20822024568E+02  0.11233019197E+02  0.33237731542E+02  0.40798090956E+02  0.51100000000E-03 0. -1.
         22    1    1    0    0    0  0.13002744843E+02  0.21231398225E+02  0.29445737379E+01  0.25070184653E+02  0.00000000000E+00 0.  1.
</event>
<event>
 5    1  0.1046082E-009  0.9118800E+02  0.7561462E-02  0.1125453E+00
         25   -1    0    0    0    0  0.00000000000E+00  0.00000000000E+00  0.99999998245E-14  0.12509000000E+03  0.12509000000E+03 0.  0.
        -11    1    3    3    0    0 -0.23677663504E+02 -0.18615004957E+02  0.23116585034E+02  0.37967442137E+02  0.51100000000E-03 0.  1.
         23    2    1    0    0    0  0.18603237224E+02 -0.19966690225E+02 -0.14155130321E+02  0.94347246900E+02  0.89198016399E+02 0.  0.
         11    1    3    3    0    0  0.42280900728E+02 -0.13516852676E+01 -0.37271715355E+02  0.56379804763E+02  0.51100000000E-03 0. -1.
         22    1    1    0    0    0 -0.18603237224E+02  0.19966690225E+02  0.14155130321E+02  0.30742753100E+02  0.00000000000E+00 0. -1.
</event>
<event>
 5    1  0.1046082E-009  0.9118800E+02  0.7561462E-02  0.1125453E+00
         25   -1    0    0    0    0  0.00000000000E+00  0.00000000000E+00  0.99999998245E-14  0.12509000000E+03  0.12509000000E+03 0.  0.
        -11    1    3    3    0    0  0.20526227672E+01 -0.58839777250E+02 -0.10926011099E+02  0.59880801313E+02  0.51100000000E-03 0. -1.
         23    2    1    0    0    0 -0.64750445168E+01 -0.20087729701E+02  0.61918404178E+01  0.10309495570E+03  0.10072133794E+03 0.  0.
         11    1    3    3    0    0 -0.85276672840E+01  0.38752047549E+02  0.17117851517E+02  0.43214154387E+02  0.51100000000E-03 0.  1.
         22    1    1    0    0    0  0.64750445168E+01  0.20087729701E+02 -0.61918404178E+01  0.21995044300E+02  0.00000000000E+00 0. -1.
</event>
<event>
 5    1  0.1046082E-009  0.9118800E+02  0.7561462E-02  0.1125453E+00
         25   -1    0    0    0    0  0.00000000000E+00  0.00000000000E+00  0.99999998245E-14  0.12509000000E+03  0.12509000000E+03 0.  0.
        -11    1    3    3    0    0 -0.53081406327E+02  0.24255095536E+02  0.21277493223E+02  0.62118250741E+02  0.51100000000E-03 0.  1.
         23    2    1    0    0    0 -0.23815444259E+02  0.10326806816E+02  0.14927996253E+02  0.95145661697E+02  0.90310760950E+02 0.  0.
         11    1    3    3    0    0  0.29265962067E+02 -0.13928288720E+02 -0.63494969700E+01  0.33027410956E+02  0.51100000000E-03 0. -1.
         22    1    1    0    0    0  0.23815444259E+02 -0.10326806816E+02 -0.14927996253E+02  0.29944338303E+02  0.00000000000E+00 0.  1.
</event>
<event>
 5    1  0.1046082E-009  0.9118800E+02  0.7561462E-02  0.1125453E+00
         25   -1    0    0    0    0  0.00000000000E+00  0.00000000000E+00  0.99999998245E-14  0.12509000000E+03  0.12509000000E+03 0.  0.
        -11    1    3    3    0    0  0.16991072101E+02  0.24045846255E+02 -0.43095664097E+02  0.52193251647E+02  0.51100000000E-03 0.  1.
         23    2    1    0    0    0 -0.34308353692E+01 -0.10286244470E+02 -0.28285864632E+02  0.94796971188E+02  0.89826489144E+02 0.  0.
         11    1    3    3    0    0 -0.20421907470E+02 -0.34332090725E+02  0.14809799465E+02  0.42603719541E+02  0.51100000000E-03 0. -1.
         22    1    1    0    0    0  0.34308353692E+01  0.10286244470E+02  0.28285864632E+02  0.30293028812E+02  0.00000000000E+00 0.  1.
</event>
<event>
 5    1  0.1046082E-009  0.9118800E+02  0.7561462E-02  0.1125453E+00
         25   -1    0    0    0    0  0.00000000000E+00  0.00000000000E+00  0.99999998245E-14  0.12509000000E+03  0.12509000000E+03 0.  0.
        -11    1    3    3    0    0 -0.34408941391E+02  0.41441067706E+01 -0.30344800098E+01  0.34790184504E+02  0.51100000000E-03 0.  1.
         23    2    1    0    0    0  0.25170439565E+02  0.10877509892E+02  0.95481272367E+01  0.96054883622E+02  0.91561469432E+02 0.  0.
         11    1    3    3    0    0  0.59579380956E+02  0.67334031216E+01  0.12582607246E+02  0.61264699119E+02  0.51100000000E-03 0. -1.
         22    1    1    0    0    0 -0.25170439565E+02 -0.10877509892E+02 -0.95481272367E+01  0.29035116378E+02  0.00000000000E+00 0. -1.
</event>
<event>
 5    1  0.1046082E-009  0.9118800E+02  0.7561462E-02  0.1125453E+00
         25   -1    0    0    0    0  0.00000000000E+00  0.00000000000E+00  0.99999998245E-14  0.12509000000E+03  0.12509000000E+03 0.  0.
        -11    1    3    3    0    0 -0.37304485877E+02 -0.30117395115E+02 -0.36820613423E+01  0.48085753931E+02  0.51100000000E-03 0.  1.
         23    2    1    0    0    0  0.74207746870E+01 -0.24547092790E+02  0.13241182537E+02  0.96229012901E+02  0.91799054175E+02 0.  0.
         11    1    3    3    0    0  0.44725260564E+02  0.55703023258E+01  0.16923243879E+02  0.48143258970E+02  0.51100000000E-03 0. -1.
         22    1    1    0    0    0 -0.74207746870E+01  0.24547092790E+02 -0.13241182537E+02  0.28860987099E+02  0.00000000000E+00 0.  1.
</event>
<event>
 5    1  0.1046082E-009  0.9118800E+02  0.7561462E-02  0.1125453E+00
         25   -1    0    0    0    0  0.00000000000E+00  0.00000000000E+00  0.99999998245E-14  0.12509000000E+03  0.12509000000E+03 0.  0.
        -11    1    3    3    0    0 -0.14521631349E+02 -0.48629899636E+02 -0.10085177075E+02  0.51744136987E+02  0.51100000000E-03 0.  1.
         23    2    1    0    0    0 -0.13202449120E+02 -0.17125695029E+02  0.20225185650E+02  0.95481686512E+02  0.90774997833E+02 0.  0.
         11    1    3    3    0    0  0.13191822292E+01  0.31504204606E+02  0.30310362726E+02  0.43737549525E+02  0.51100000000E-03 0. -1.
         22    1    1    0    0    0  0.13202449120E+02  0.17125695029E+02 -0.20225185650E+02  0.29608313488E+02  0.00000000000E+00 0.  1.
</event>
<event>
 5    1  0.1046082E-009  0.9118800E+02  0.7561462E-02  0.1125453E+00
         25   -1    0    0    0    0  0.00000000000E+00  0.00000000000E+00  0.99999998245E-14  0.12509000000E+03  0.12509000000E+03 0.  0.
        -11    1    3    3    0    0 -0.58617656265E+01  0.41026820136E+02  0.33080145518E+02  0.53026939328E+02  0.51100000000E-03 0. -1.
         23    2    1    0    0    0 -0.23678248181E+02  0.12880296472E+02  0.28950644357E+01  0.97980170192E+02  0.94155036395E+02 0.  0.
         11    1    3    3    0    0 -0.17816482554E+02 -0.28146523663E+02 -0.30185081082E+02  0.44953230864E+02  0.51100000000E-03 0.  1.
         22    1    1    0    0    0  0.23678248181E+02 -0.12880296472E+02 -0.28950644357E+01  0.27109829808E+02  0.00000000000E+00 0. -1.
</event>
<event>
 5    1  0.1046082E-009  0.9118800E+02  0.7561462E-02  0.1125453E+00
         25   -1    0    0    0    0  0.00000000000E+00  0.00000000000E+00  0.99999998245E-14  0.12509000000E+03  0.12509000000E+03 0.  0.
        -11    1    3    3    0    0 -0.57810086603E+02  0.18172253679E+02  0.58909439077E+01  0.60884646153E+02  0.51100000000E-03 0.  1.
         23    2    1    0    0    0 -0.32790367104E+02  0.64646824026E+01 -0.63021826212E+01  0.91079445768E+02  0.84491109842E+02 0.  0.
         11    1    3    3    0    0  0.25019719499E+02 -0.11707571277E+02 -0.12193126529E+02  0.30194799615E+02  0.51100000000E-03 0. -1.
         22    1    1    0    0    0  0.32790367104E+02 -0.64646824026E+01  0.63021826212E+01  0.34010554232E+02  0.00000000000E+00 0.  1.
</event>
<event>
 5    1  0.1046082E-009  0.9118800E+02  0.7561462E-02  0.1125453E+00
         25   -1    0    0    0    0  0.00000000000E+00  0.00000000000E+00  0.99999998245E-14  0.12509000000E+03  0.12509000000E+03 0.  0.
        -11    1    3    3    0    0 -0.21059564158E+02 -0.51343781043E+01 -0.34211550255E+02  0.40500583356E+02  0.51100000000E-03 0.  1.
         23    2    1    0    0    0  0.27061985923E+02 -0.29027246179E+01 -0.34565743590E+01  0.97654169439E+02  0.93720926213E+02 0.  0.
         11    1    3    3    0    0  0.48121550081E+02  0.22316534864E+01  0.30754975896E+02  0.57153586083E+02  0.51100000000E-03 0. -1.
         22    1    1    0    0    0 -0.27061985923E+02  0.29027246179E+01  0.34565743590E+01  0.27435830561E+02  0.00000000000E+00 0. -1.
</event>
<event>
 5    1  0.1046082E-009  0.9118800E+02  0.7561462E-02  0.1125453E+00
         25   -1    0    0    0    0  0.00000000000E+00  0.00000000000E+00  0.99999998245E-14  0.12509000000E+03  0.12509000000E+03 0.  0.
        -11    1    3    3    0    0  0.66794745537E+01 -0.18839909917E+02  0.22087095123E+02  0.29789215452E+02  0.51100000000E-03 0.  1.
         23    2    1    0    0    0 -0.29743368319E+01  0.30743700733E+02 -0.13295215177E+02  0.91462859756E+02  0.85056864237E+02 0.  0.
         11    1    3    3    0    0 -0.96538113856E+01  0.49583610650E+02 -0.35382310300E+02  0.61673644305E+02  0.51100000000E-03 0. -1.
         22    1    1    0    0    0  0.29743368319E+01 -0.30743700733E+02  0.13295215177E+02  0.33627140244E+02  0.00000000000E+00 0. -1.
</event>
<event>
 5    1  0.1046082E-009  0.9118800E+02  0.7561462E-02  0.1125453E+00
         25   -1    0    0    0    0  0.00000000000E+00  0.00000000000E+00  0.99999998245E-14  0.12509000000E+03  0.12509000000E+03 0.  0.
        -11    1    3    3    0    0  0.28870089619E+02 -0.29816948288E+02 -0.20557805716E+02  0.46315827273E+02  0.51100000000E-03 0.  1.
         23    2    1    0    0    0  0.94993313188E+01  0.17401676255E+02 -0.19378138958E+02  0.97366942783E+02  0.93336775418E+02 0.  0.
         11    1    3    3    0    0 -0.19370758301E+02  0.47218624543E+02  0.11796667585E+01  0.51051115510E+02  0.51100000000E-03 0. -1.
         22    1    1    0    0    0 -0.94993313188E+01 -0.17401676255E+02  0.19378138958E+02  0.27723057217E+02  0.00000000000E+00 0.  1.
</event>
<event>
 5    1  0.1046082E-009  0.9118800E+02  0.7561462E-02  0.1125453E+00
         25   -1    0    0    0    0  0.00000000000E+00  0.00000000000E+00  0.99999998245E-14  0.12509000000E+03  0.12509000000E+03 0.  0.
        -11    1    3    3    0    0  0.32506072017E+02  0.21180578381E+02  0.12930731343E+02  0.40895787459E+02  0.51100000000E-03 0.  1.
         23    2    1    0    0    0 -0.93126998997E+01 -0.60147996308E+01  0.29592789106E+02  0.93488775955E+02  0.87985873119E+02 0.  0.
         11    1    3    3    0    0 -0.41818771917E+02 -0.27195378012E+02  0.16662057763E+02  0.52592988497E+02  0.51100000000E-03 0. -1.
         22    1    1    0    0    0  0.93126998997E+01  0.60147996308E+01 -0.29592789106E+02  0.31601224045E+02  0.00000000000E+00 0. -1.
</event>
<event>
 5    1  0.1046082E-009  0.9118800E+02  0.7561462E-02  0.1125453E+00
         25   -1    0    0    0    0  0.00000000000E+00  0.00000000000E+00  0.99999998245E-14  0.12509000000E+03  0.12509000000E+03 0.  0.
        -11    1    3    3    0    0  0.42774263529E+02  0.45108230603E+02 -0.48906787098E+01  0.62356305432E+02  0.51100000000E-03 0. -1.
         23    2    1    0    0    0  0.17364695511E+02  0.23290049170E+02 -0.23709377513E+01  0.95942437729E+02  0.91407718333E+02 0.  0.
         11    1    3    3    0    0 -0.25409568019E+02 -0.21818181432E+02  0.25197409585E+01  0.33586132297E+02  0.51100000000E-03 0.  1.
         22    1    1    0    0    0 -0.17364695511E+02 -0.23290049170E+02  0.23709377513E+01  0.29147562271E+02  0.00000000000E+00 0. -1.
</event>
<event>
 5    1  0.1046082E-009  0.9118800E+02  0.7561462E-02  0.1125453E+00
         25   -1    0    0    0    0  0.00000000000E+00  0.00000000000E+00  0.99999998245E-14  0.12509000000E+03  0.12509000000E+03 0.  0.
        -11    1    3    3    0    0  0.70263815688E+00 -0.58862391995E+02 -0.18401463359E+02  0.61675673858E+02  0.51100000000E-03 0.  1.
         23    2    1    0    0    0  0.47506711846E+01 -0.24740189409E+02 -0.13862415050E+02  0.96335654247E+02  0.91944254195E+02 0.  0.
         11    1    3    3    0    0  0.40480330277E+01  0.34122202586E+02  0.45390483088E+01  0.34659980389E+02  0.51100000000E-03 0. -1.
         22    1    1    0    0    0 -0.47506711846E+01  0.24740189409E+02  0.13862415050E+02  0.28754345753E+02  0.00000000000E+00 0.  1.
</event>
<event>
 5    1  0.1046082E-009  0.9118800E+02  0.7561462E-02  0.1125453E+00
         25   -1    0    0    0    0  0.00000000000E+00  0.00000000000E+00  0.99999998245E-14  0.12509000000E+03  0.12509000000E+03 0.  0.
        -11    1    3    3    0    0  0.12879592067E+02  0.47953906821E+02 -0.35272812831E+02  0.60906751649E+02  0.51100000000E-03 0.  1.
         23    2    1    0    0    0 -0.29740218338E+01  0.26411004257E+02 -0.14210929019E+02  0.94951379339E+02  0.90041257116E+02 0.  0.
         11    1    3    3    0    0 -0.15853613901E+02 -0.21542902563E+02  0.21061883811E+02  0.34044627690E+02  0.51100000000E-03 0. -1.
         22    1    1    0    0    0  0.29740218338E+01 -0.26411004257E+02  0.14210929019E+02  0.30138620661E+02  0.00000000000E+00 0.  1.
</event>
<event>
 5    1  0.1046082E-009  0.9118800E+02  0.7561462E-02  0.1125453E+00
         25   -1    0    0    0    0  0.00000000000E+00  0.00000000000E+00  0.99999998245E-14  0.12509000000E+03  0.12509000000E+03 0.  0.
        -11    1    3    3    0    0  0.45636204930E+01 -0.39809466401E+02  0.62959083848E+01  0.40561788789E+02  0.51100000000E-03 0.  1.
         23    2    1    0    0    0  0.16699857232E+02  0.55103867922E+01 -0.23198687115E+02  0.95979371734E+02  0.91458247963E+02 0.  0.
         11    1    3    3    0    0  0.12136236738E+02  0.45319853193E+02 -0.29494595500E+02  0.55417582946E+02  0.51100000000E-03 0. -1.
         22    1    1    0    0    0 -0.16699857232E+02 -0.55103867922E+01  0.23198687115E+02  0.29110628266E+02  0.00000000000E+00 0. -1.
</event>
<event>
 5    1  0.1046082E-009  0.9118800E+02  0.7561462E-02  0.1125453E+00
         25   -1    0    0    0    0  0.00000000000E+00  0.00000000000E+00  0.99999998245E-14  0.12509000000E+03  0.12509000000E+03 0.  0.
        -11    1    3    3    0    0 -0.33648570647E+02 -0.91107804557E+01  0.62267424817E+01  0.35411932301E+02  0.51100000000E-03 0.  1.
         23    2    1    0    0    0  0.20958360447E+02 -0.21330957627E+02 -0.98026466468E+01  0.93620101570E+02  0.88172381791E+02 0.  0.
         11    1    3    3    0    0  0.54606931094E+02 -0.12220177171E+02 -0.16029389128E+02  0.58208169269E+02  0.51100000000E-03 0. -1.
         22    1    1    0    0    0 -0.20958360447E+02  0.21330957627E+02  0.98026466468E+01  0.31469898430E+02  0.00000000000E+00 0. -1.
</event>
<event>
 5    1  0.1046082E-009  0.9118800E+02  0.7561462E-02  0.1125453E+00
         25   -1    0    0    0    0  0.00000000000E+00  0.00000000000E+00  0.99999998245E-14  0.12509000000E+03  0.12509000000E+03 0.  0.
        -11    1    3    3    0    0  0.15432522009E+02 -0.21063859273E+02 -0.24714138715E+02  0.35953269055E+02  0.51100000000E-03 0.  1.
         23    2    1    0    0    0 -0.22394612434E+02  0.12574275326E+02  0.10209534796E+02  0.97451880187E+02  0.93450539245E+02 0.  0.
         11    1    3    3    0    0 -0.37827134443E+02  0.33638134599E+02  0.34923673511E+02  0.61498611133E+02  0.51100000000E-03 0. -1.
         22    1    1    0    0    0  0.22394612434E+02 -0.12574275326E+02 -0.10209534796E+02  0.27638119813E+02  0.00000000000E+00 0. -1.
</event>
<event>
 5    1  0.1046082E-009  0.9118800E+02  0.7561462E-02  0.1125453E+00
         25   -1    0    0    0    0  0.00000000000E+00  0.00000000000E+00  0.99999998245E-14  0.12509000000E+03  0.12509000000E+03 0.  0.
        -11    1    3    3    0    0 -0.25891900440E+02  0.55200469479E+01  0.23004376962E+02  0.35072250945E+02  0.51100000000E-03 0.  1.
         23    2    1    0    0    0  0.19541439625E+02 -0.19965679728E+02 -0.84219997475E+01  0.95910789775E+02  0.91364398350E+02 0.  0.
         11    1    3    3    0    0  0.45433340065E+02 -0.25485726676E+02 -0.31426376709E+02  0.60838538830E+02  0.51100000000E-03 0. -1.
         22    1    1    0    0    0 -0.19541439625E+02  0.19965679728E+02  0.84219997475E+01  0.29179210225E+02  0.00000000000E+00 0. -1.
</event>
<event>
 5    1  0.1046082E-009  0.9118800E+02  0.7561462E-02  0.1125453E+00
         25   -1    0    0    0    0  0.00000000000E+00  0.00000000000E+00  0.99999998245E-14  0.12509000000E+03  0.12509000000E+03 0.  0.
        -11    1    3    3    0    0 -0.37685271443E+02  0.10353045985E+00  0.21259199416E+02  0.43268278939E+02  0.51100000000E-03 0.  1.
         23    2    1    0    0    0 -0.99214546969E+01 -0.19608313044E+02 -0.19030957360E+02  0.96019421372E+02  0.91513008577E+02 0.  0.
         11    1    3    3    0    0  0.27763816746E+02 -0.19711843504E+02 -0.40290156776E+02  0.52751142433E+02  0.51100000000E-03 0. -1.
         22    1    1    0    0    0  0.99214546969E+01  0.19608313044E+02  0.19030957360E+02  0.29070578628E+02  0.00000000000E+00 0. -1.
</event>
<event>
 5    1  0.1046082E-009  0.9118800E+02  0.7561462E-02  0.1125453E+00
         25   -1    0    0    0    0  0.00000000000E+00  0.00000000000E+00  0.99999998245E-14  0.12509000000E+03  0.12509000000E+03 0.  0.
        -11    1    3    3    0    0 -0.41237278267E+02  0.11223864210E+02  0.21533580461E+02  0.47855859979E+02  0.51100000000E-03 0.  1.
         23    2    1    0    0    0 -0.15659741569E+02 -0.21457994436E+02 -0.62524371154E+01  0.97799598737E+02  0.93914831161E+02 0.  0.
         11    1    3    3    0    0  0.25577536697E+02 -0.32681858646E+02 -0.27786017576E+02  0.49943738757E+02  0.51100000000E-03 0. -1.
         22    1    1    0    0    0  0.15659741569E+02  0.21457994436E+02  0.62524371154E+01  0.27290401263E+02  0.00000000000E+00 0. -1.
</event>
<event>
 5    1  0.1046082E-009  0.9118800E+02  0.7561462E-02  0.1125453E+00
         25   -1    0    0    0    0  0.00000000000E+00  0.00000000000E+00  0.99999998245E-14  0.12509000000E+03  0.12509000000E+03 0.  0.
        -11    1    3    3    0    0 -0.31159183229E+02 -0.12845036593E+02  0.24805566682E+01  0.33794124138E+02  0.51100000000E-03 0.  1.
         23    2    1    0    0    0  0.26116233584E+02 -0.57502372737E+01 -0.15421661302E+02  0.94220103295E+02  0.89019533487E+02 0.  0.
         11    1    3    3    0    0  0.57275416813E+02  0.70947993196E+01 -0.17902217970E+02  0.60425979156E+02  0.51100000000E-03 0. -1.
         22    1    1    0    0    0 -0.26116233584E+02  0.57502372737E+01  0.15421661302E+02  0.30869896705E+02  0.00000000000E+00 0. -1.
</event>
<event>
 5    1  0.1046082E-009  0.9118800E+02  0.7561462E-02  0.1125453E+00
         25   -1    0    0    0    0  0.00000000000E+00  0.00000000000E+00  0.99999998245E-14  0.12509000000E+03  0.12509000000E+03 0.  0.
        -11    1    3    3    0    0 -0.14619715534E+02  0.16681953793E+02 -0.24039001658E+02  0.32709284089E+02  0.51100000000E-03 0.  1.
         23    2    1    0    0    0  0.53808024246E+00 -0.17871029028E+01  0.31690491988E+02  0.93344597978E+02  0.87780655170E+02 0.  0.
         11    1    3    3    0    0  0.15157795777E+02 -0.18469056696E+02  0.55729493646E+02  0.60635313888E+02  0.51100000000E-03 0. -1.
         22    1    1    0    0    0 -0.53808024246E+00  0.17871029028E+01 -0.31690491988E+02  0.31745402022E+02  0.00000000000E+00 0. -1.
</event>
<event>
 5    1  0.1046082E-009  0.9118800E+02  0.7561462E-02  0.1125453E+00
         25   -1    0    0    0    0  0.00000000000E+00  0.00000000000E+00  0.99999998245E-14  0.12509000000E+03  0.12509000000E+03 0.  0.
        -11    1    3    3    0    0 -0.59968997477E+01 -0.42482924632E+02 -0.42832177914E+02  0.60624723975E+02  0.51100000000E-03 0.  1.
         23    2    1    0    0    0 -0.10958537996E+02 -0.27558874608E+02 -0.16895009866E+02  0.90957574317E+02  0.84310484772E+02 0.  0.
         11    1    3    3    0    0 -0.49616382483E+01  0.14924050025E+02  0.25937168048E+02  0.30332850342E+02  0.51100000000E-03 0. -1.
         22    1    1    0    0    0  0.10958537996E+02  0.27558874608E+02  0.16895009866E+02  0.34132425683E+02  0.00000000000E+00 0.  1.
</event>
<event>
 5    1  0.1046082E-009  0.9118800E+02  0.7561462E-02  0.1125453E+00
         25   -1    0    0    0    0  0.00000000000E+00  0.00000000000E+00  0.99999998245E-14  0.12509000000E+03  0.12509000000E+03 0.  0.
        -11    1    3    3    0    0 -0.45719716700E+02 -0.24036270161E+01  0.15851780071E+01  0.45810290411E+02  0.51100000000E-03 0.  1.
         23    2    1    0    0    0 -0.79439971165E+01  0.91296509038E+01 -0.27621862875E+02  0.94933327032E+02  0.90016174419E+02 0.  0.
         11    1    3    3    0    0  0.37775719583E+02  0.11533277920E+02 -0.29207040882E+02  0.49123036622E+02  0.51100000000E-03 0. -1.
         22    1    1    0    0    0  0.79439971165E+01 -0.91296509038E+01  0.27621862875E+02  0.30156672968E+02  0.00000000000E+00 0. -1.
</event>
<event>
 5    1  0.1046082E-009  0.9118800E+02  0.7561462E-02  0.1125453E+00
         25   -1    0    0    0    0  0.00000000000E+00  0.00000000000E+00  0.99999998245E-14  0.12509000000E+03  0.12509000000E+03 0.  0.
        -11    1    3    3    0    0  0.59262173959E+02 -0.12781159303E+02  0.12976914840E+02  0.61998093636E+02  0.51100000000E-03 0. -1.
         23    2    1    0    0    0  0.23758160685E+02 -0.77982253076E+01  0.10606203324E+02  0.97928371440E+02  0.94086193817E+02 0.  0.
         11    1    3    3    0    0 -0.35504013274E+02  0.49829339953E+01 -0.23707115166E+01  0.35930277805E+02  0.51100000000E-03 0.  1.
         22    1    1    0    0    0 -0.23758160685E+02  0.77982253076E+01 -0.10606203324E+02  0.27161628560E+02  0.00000000000E+00 0. -1.
</event>
<event>
 5    1  0.1046082E-009  0.9118800E+02  0.7561462E-02  0.1125453E+00
         25   -1    0    0    0    0  0.00000000000E+00  0.00000000000E+00  0.99999998245E-14  0.12509000000E+03  0.12509000000E+03 0.  0.
        -11    1    3    3    0    0 -0.15227131497E+01  0.25851922154E+02 -0.22389051960E+02  0.34233173711E+02  0.51100000000E-03 0.  1.
         23    2    1    0    0    0 -0.13213777599E+02 -0.17415438732E+02  0.19659723495E+02  0.95689215103E+02  0.91060527862E+02 0.  0.
         11    1    3    3    0    0 -0.11691064449E+02 -0.43267360886E+02  0.42048775455E+02  0.61456041392E+02  0.51100000000E-03 0. -1.
         22    1    1    0    0    0  0.13213777599E+02  0.17415438732E+02 -0.19659723495E+02  0.29400784897E+02  0.00000000000E+00 0. -1.
</event>
<event>
 5    1  0.1046082E-009  0.9118800E+02  0.7561462E-02  0.1125453E+00
         25   -1    0    0    0    0  0.00000000000E+00  0.00000000000E+00  0.99999998245E-14  0.12509000000E+03  0.12509000000E+03 0.  0.
        -11    1    3    3    0    0 -0.26033038486E+02  0.15521473856E+02  0.21687643702E+02  0.37269144517E+02  0.51100000000E-03 0.  1.
         23    2    1    0    0    0  0.23169394458E+02  0.16712997554E+02 -0.88404783707E+01  0.95185164528E+02  0.90365460003E+02 0.  0.
         11    1    3    3    0    0  0.49202432944E+02  0.11915236978E+01 -0.30528122072E+02  0.57916020011E+02  0.51100000000E-03 0. -1.
         22    1    1    0    0    0 -0.23169394458E+02 -0.16712997554E+02  0.88404783707E+01  0.29904835472E+02  0.00000000000E+00 0. -1.
</event>
<event>
 5    1  0.1046082E-009  0.9118800E+02  0.7561462E-02  0.1125453E+00
         25   -1    0    0    0    0  0.00000000000E+00  0.00000000000E+00  0.99999998245E-14  0.12509000000E+03  0.12509000000E+03 0.  0.
        -11    1    3    3    0    0  0.16983395693E+02 -0.35257009853E+02  0.30825022219E+01  0.39255500165E+02  0.51100000000E-03 0. -1.
         23    2    1    0    0    0 -0.13746670818E+02  0.82480573933E+01  0.23789746682E+02  0.96402834637E+02  0.92035607618E+02 0.  0.
         11    1    3    3    0    0 -0.30730066511E+02  0.43505067246E+02  0.20707244460E+02  0.57147334472E+02  0.51100000000E-03 0.  1.
         22    1    1    0    0    0  0.13746670818E+02 -0.82480573933E+01 -0.23789746682E+02  0.28687165363E+02  0.00000000000E+00 0.  1.
</event>
<event>
 5    1  0.1046082E-009  0.9118800E+02  0.7561462E-02  0.1125453E+00
         25   -1    0    0    0    0  0.00000000000E+00  0.00000000000E+00  0.99999998245E-14  0.12509000000E+03  0.12509000000E+03 0.  0.
        -11    1    3    3    0    0 -0.40529422128E+02  0.47140959497E+02 -0.64224638833E+01  0.62499217299E+02  0.51100000000E-03 0. -1.
         23    2    1    0    0    0 -0.20743703037E+02  0.24138261626E+02 -0.49884051571E+01  0.92874459092E+02  0.87108117162E+02 0.  0.
         11    1    3    3    0    0  0.19785719090E+02 -0.23002697872E+02  0.14340587263E+01  0.30375241793E+02  0.51100000000E-03 0.  1.
         22    1    1    0    0    0  0.20743703037E+02 -0.24138261626E+02  0.49884051571E+01  0.32215540908E+02  0.00000000000E+00 0. -1.
</event>
<event>
 5    1  0.1046082E-009  0.9118800E+02  0.7561462E-02  0.1125453E+00
         25   -1    0    0    0    0  0.00000000000E+00  0.00000000000E+00  0.99999998245E-14  0.12509000000E+03  0.12509000000E+03 0.  0.
        -11    1    3    3    0    0 -0.49474221874E+02 -0.21365082625E+02 -0.15703957920E+01  0.53913185111E+02  0.51100000000E-03 0. -1.
         23    2    1    0    0    0 -0.19274830665E+02  0.23342013080E+01 -0.20619639528E+02  0.96767974522E+02  0.92530555850E+02 0.  0.
         11    1    3    3    0    0  0.30199391209E+02  0.23699283933E+02 -0.19049243736E+02  0.42854789411E+02  0.51100000000E-03 0.  1.
         22    1    1    0    0    0  0.19274830665E+02 -0.23342013080E+01  0.20619639528E+02  0.28322025478E+02  0.00000000000E+00 0. -1.
</event>
<event>
 5    1  0.1046082E-009  0.9118800E+02  0.7561462E-02  0.1125453E+00
         25   -1    0    0    0    0  0.00000000000E+00  0.00000000000E+00  0.99999998245E-14  0.12509000000E+03  0.12509000000E+03 0.  0.
        -11    1    3    3    0    0  0.29820011342E+02 -0.30620988988E+02  0.33053987408E+02  0.54031880653E+02  0.51100000000E-03 0. -1.
         23    2    1    0    0    0  0.28903421762E+02 -0.48372959482E+01  0.22753808540E+00  0.95783703830E+02  0.91190234807E+02 0.  0.
         11    1    3    3    0    0 -0.91658957970E+00  0.25783693040E+02 -0.32826449323E+02  0.41751823177E+02  0.51100000000E-03 0.  1.
         22    1    1    0    0    0 -0.28903421762E+02  0.48372959482E+01 -0.22753808540E+00  0.29306296170E+02  0.00000000000E+00 0. -1.
</event>
<event>
 5    1  0.1046082E-009  0.9118800E+02  0.7561462E-02  0.1125453E+00
         25   -1    0    0    0    0  0.00000000000E+00  0.00000000000E+00  0.99999998245E-14  0.12509000000E+03  0.12509000000E+03 0.  0.
        -11    1    3    3    0    0 -0.10757770928E+02 -0.15137686456E+02  0.52411722821E+02  0.55604567042E+02  0.51100000000E-03 0.  1.
         23    2    1    0    0    0  0.82177724664E+01  0.94300546360E+01  0.25495645064E+02  0.96691309326E+02  0.92426855768E+02 0.  0.
         11    1    3    3    0    0  0.18975543395E+02  0.24567741092E+02 -0.26916077757E+02  0.41086742285E+02  0.51100000000E-03 0. -1.
         22    1    1    0    0    0 -0.82177724664E+01 -0.94300546360E+01 -0.25495645064E+02  0.28398690674E+02  0.00000000000E+00 0.  1.
</event>
<event>
 5    1  0.1046082E-009  0.9118800E+02  0.7561462E-02  0.1125453E+00
         25   -1    0    0    0    0  0.00000000000E+00  0.00000000000E+00  0.99999998245E-14  0.12509000000E+03  0.12509000000E+03 0.  0.
        -11    1    3    3    0    0  0.44368252725E+02  0.34893544118E+02 -0.21234481906E+02  0.60307582384E+02  0.51100000000E-03 0.  1.
         23    2    1    0    0    0  0.23092756155E+02  0.17918440016E+02  0.15738847516E+01  0.95818461047E+02  0.91237900484E+02 0.  0.
         11    1    3    3    0    0 -0.21275496569E+02 -0.16975104102E+02  0.22808366658E+02  0.35510878663E+02  0.51100000000E-03 0. -1.
         22    1    1    0    0    0 -0.23092756155E+02 -0.17918440016E+02 -0.15738847516E+01  0.29271538953E+02  0.00000000000E+00 0.  1.
</event>
<event>
 5    1  0.1046082E-009  0.9118800E+02  0.7561462E-02  0.1125453E+00
         25   -1    0    0    0    0  0.00000000000E+00  0.00000000000E+00  0.99999998245E-14  0.12509000000E+03  0.12509000000E+03 0.  0.
        -11    1    3    3    0    0 -0.29138208485E+02 -0.14247442907E+02 -0.15156695983E+02  0.35801539862E+02  0.51100000000E-03 0.  1.
         23    2    1    0    0    0 -0.10442101788E+01  0.12221522903E+02  0.28492554432E+02  0.94069335032E+02  0.88807421640E+02 0.  0.
         11    1    3    3    0    0  0.28093998306E+02  0.26468965810E+02  0.43649250415E+02  0.58267795170E+02  0.51100000000E-03 0. -1.
         22    1    1    0    0    0  0.10442101788E+01 -0.12221522903E+02 -0.28492554432E+02  0.31020664968E+02  0.00000000000E+00 0. -1.
</event>
<event>
 5    1  0.1046082E-009  0.9118800E+02  0.7561462E-02  0.1125453E+00
         25   -1    0    0    0    0  0.00000000000E+00  0.00000000000E+00  0.99999998245E-14  0.12509000000E+03  0.12509000000E+03 0.  0.
        -11    1    3    3    0    0 -0.35177070673E+02  0.23765641703E+02 -0.36984665677E+02  0.56303619086E+02  0.51100000000E-03 0.  1.
         23    2    1    0    0    0 -0.16637606045E+02  0.23360626962E+02 -0.14646961250E+01  0.96372859444E+02  0.91994857876E+02 0.  0.
         11    1    3    3    0    0  0.18539464629E+02 -0.40501474028E+00  0.35519969552E+02  0.40069240358E+02  0.51100000000E-03 0. -1.
         22    1    1    0    0    0  0.16637606045E+02 -0.23360626962E+02  0.14646961250E+01  0.28717140556E+02  0.00000000000E+00 0.  1.
</event>
<event>
 5    1  0.1046082E-009  0.9118800E+02  0.7561462E-02  0.1125453E+00
         25   -1    0    0    0    0  0.00000000000E+00  0.00000000000E+00  0.99999998245E-14  0.12509000000E+03  0.12509000000E+03 0.  0.
        -11    1    3    3    0    0 -0.22451676344E+02 -0.51584568978E+01  0.52518764533E+02  0.57349002402E+02  0.51100000000E-03 0. -1.
         23    2    1    0    0    0 -0.24449501552E+02 -0.42586179934E+01  0.12730202440E+02  0.97197850432E+02  0.93109881973E+02 0.  0.
         11    1    3    3    0    0 -0.19978252079E+01  0.89983890440E+00 -0.39788562093E+02  0.39848848030E+02  0.51100000000E-03 0.  1.
         22    1    1    0    0    0  0.24449501552E+02  0.42586179934E+01 -0.12730202440E+02  0.27892149568E+02  0.00000000000E+00 0. -1.
</event>
<event>
 5    1  0.1046082E-009  0.9118800E+02  0.7561462E-02  0.1125453E+00
         25   -1    0    0    0    0  0.00000000000E+00  0.00000000000E+00  0.99999998245E-14  0.12509000000E+03  0.12509000000E+03 0.  0.
        -11    1    3    3    0    0  0.26442198390E+02 -0.18639744180E+02 -0.12852874066E+02  0.34811295448E+02  0.51100000000E-03 0. -1.
         23    2    1    0    0    0 -0.17572310780E+02  0.22671010975E+02 -0.76739304151E+01  0.95397407442E+02  0.90658784979E+02 0.  0.
         11    1    3    3    0    0 -0.44014509170E+02  0.41310755155E+02  0.51789436505E+01  0.60586111994E+02  0.51100000000E-03 0.  1.
         22    1    1    0    0    0  0.17572310780E+02 -0.22671010975E+02  0.76739304151E+01  0.29692592558E+02  0.00000000000E+00 0.  1.
</event>
<event>
 5    1  0.1046082E-009  0.9118800E+02  0.7561462E-02  0.1125453E+00
         25   -1    0    0    0    0  0.00000000000E+00  0.00000000000E+00  0.99999998245E-14  0.12509000000E+03  0.12509000000E+03 0.  0.
        -11    1    3    3    0    0 -0.41388857825E+02 -0.41710248192E+02  0.16528769098E+02  0.61040827030E+02  0.51100000000E-03 0.  1.
         23    2    1    0    0    0 -0.19254653191E+02 -0.20954351491E+02 -0.19459273908E+01  0.96566095125E+02  0.92257235913E+02 0.  0.
         11    1    3    3    0    0  0.22134204634E+02  0.20755896701E+02 -0.18474696489E+02  0.35525268095E+02  0.51100000000E-03 0. -1.
         22    1    1    0    0    0  0.19254653191E+02  0.20954351491E+02  0.19459273908E+01  0.28523904875E+02  0.00000000000E+00 0.  1.
</event>
<event>
 5    1  0.1046082E-009  0.9118800E+02  0.7561462E-02  0.1125453E+00
         25   -1    0    0    0    0  0.00000000000E+00  0.00000000000E+00  0.99999998245E-14  0.12509000000E+03  0.12509000000E+03 0.  0.
        -11    1    3    3    0    0 -0.32381542172E+02  0.27255005975E+00 -0.30005558421E+02  0.44147164047E+02  0.51100000000E-03 0.  1.
         23    2    1    0    0    0  0.10605604223E+02  0.23703992603E+02 -0.13563628550E+02  0.95792728358E+02  0.91202613343E+02 0.  0.
         11    1    3    3    0    0  0.42987146395E+02  0.23431442543E+02  0.16441929872E+02  0.51645564311E+02  0.51100000000E-03 0. -1.
         22    1    1    0    0    0 -0.10605604223E+02 -0.23703992603E+02  0.13563628550E+02  0.29297271642E+02  0.00000000000E+00 0. -1.
</event>
<event>
 5    1  0.1046082E-009  0.9118800E+02  0.7561462E-02  0.1125453E+00
         25   -1    0    0    0    0  0.00000000000E+00  0.00000000000E+00  0.99999998245E-14  0.12509000000E+03  0.12509000000E+03 0.  0.
        -11    1    3    3    0    0 -0.44446837295E+02  0.12352623824E+02  0.28797085151E+02  0.54381805544E+02  0.51100000000E-03 0. -1.
         23    2    1    0    0    0 -0.27820081437E+02  0.93067738134E+01 -0.78353666359E+01  0.94726107952E+02  0.89727752605E+02 0.  0.
         11    1    3    3    0    0  0.16626755858E+02 -0.30458500107E+01 -0.36632451786E+02  0.40344302408E+02  0.51100000000E-03 0.  1.
         22    1    1    0    0    0  0.27820081437E+02 -0.93067738134E+01  0.78353666359E+01  0.30363892048E+02  0.00000000000E+00 0. -1.
</event>
<event>
 5    1  0.1046082E-009  0.9118800E+02  0.7561462E-02  0.1125453E+00
         25   -1    0    0    0    0  0.00000000000E+00  0.00000000000E+00  0.99999998245E-14  0.12509000000E+03  0.12509000000E+03 0.  0.
        -11    1    3    3    0    0  0.38402357805E+02  0.46342517523E+01  0.40898404251E+02  0.56292955553E+02  0.51100000000E-03 0.  1.
         23    2    1    0    0    0  0.20657762634E+02 -0.10871501374E+02  0.21458327200E+01  0.10164778813E+03  0.98907712213E+02 0.  0.
         11    1    3    3    0    0 -0.17744595171E+02 -0.15505753126E+02 -0.38752571531E+02  0.45354832580E+02  0.51100000000E-03 0. -1.
         22    1    1    0    0    0 -0.20657762634E+02  0.10871501374E+02 -0.21458327200E+01  0.23442211867E+02  0.00000000000E+00 0. -1.
</event>
<event>
 5    1  0.1046082E-009  0.9118800E+02  0.7561462E-02  0.1125453E+00
         25   -1    0    0    0    0  0.00000000000E+00  0.00000000000E+00  0.99999998245E-14  0.12509000000E+03  0.12509000000E+03 0.  0.
        -11    1    3    3    0    0  0.31293761276E+02 -0.45050901747E+02  0.16983422879E+02  0.57422294415E+02  0.51100000000E-03 0. -1.
         23    2    1    0    0    0  0.24288292483E+02 -0.63561868561E+01  0.12628913835E+02  0.96986410768E+02  0.92825385245E+02 0.  0.
         11    1    3    3    0    0 -0.70054687933E+01  0.38694714891E+02 -0.43545090443E+01  0.39564116352E+02  0.51100000000E-03 0.  1.
         22    1    1    0    0    0 -0.24288292483E+02  0.63561868561E+01 -0.12628913835E+02  0.28103589232E+02  0.00000000000E+00 0. -1.
</event>
<event>
 5    1  0.1046082E-009  0.9118800E+02  0.7561462E-02  0.1125453E+00
         25   -1    0    0    0    0  0.00000000000E+00  0.00000000000E+00  0.99999998245E-14  0.12509000000E+03  0.12509000000E+03 0.  0.
        -11    1    3    3    0    0 -0.65584913855E+01  0.30082479396E+02 -0.39138807458E+02  0.49797747192E+02  0.51100000000E-03 0. -1.
         23    2    1    0    0    0  0.72083929695E+01 -0.11725188639E+02 -0.25897279326E+02  0.95762367052E+02  0.91160961431E+02 0.  0.
         11    1    3    3    0    0  0.13766884355E+02 -0.41807668035E+02  0.13241528131E+02  0.45964619860E+02  0.51100000000E-03 0.  1.
         22    1    1    0    0    0 -0.72083929695E+01  0.11725188639E+02  0.25897279326E+02  0.29327632948E+02  0.00000000000E+00 0. -1.
</event>
<event>
 5    1  0.1046082E-009  0.9118800E+02  0.7561462E-02  0.1125453E+00
         25   -1    0    0    0    0  0.00000000000E+00  0.00000000000E+00  0.99999998245E-14  0.12509000000E+03  0.12509000000E+03 0.  0.
        -11    1    3    3    0    0 -0.91470376653E+01  0.33278041902E+01  0.59379733686E+02  0.60172214116E+02  0.51100000000E-03 0.  1.
         23    2    1    0    0    0  0.40178904984E+01  0.10419104146E+02  0.28446893071E+02  0.94529782385E+02  0.89453635237E+02 0.  0.
         11    1    3    3    0    0  0.13164928164E+02  0.70912999562E+01 -0.30932840614E+02  0.34357568269E+02  0.51100000000E-03 0. -1.
         22    1    1    0    0    0 -0.40178904984E+01 -0.10419104146E+02 -0.28446893071E+02  0.30560217615E+02  0.00000000000E+00 0.  1.
</event>
<event>
 5    1  0.1046082E-009  0.9118800E+02  0.7561462E-02  0.1125453E+00
         25   -1    0    0    0    0  0.00000000000E+00  0.00000000000E+00  0.99999998245E-14  0.12509000000E+03  0.12509000000E+03 0.  0.
        -11    1    3    3    0    0 -0.77256368765E+01  0.14426129241E+02 -0.41852690197E+02  0.44938250377E+02  0.51100000000E-03 0. -1.
         23    2    1    0    0    0 -0.24740381960E+02  0.11127790555E+02  0.72502420747E+01  0.97010109824E+02  0.92857316221E+02 0.  0.
         11    1    3    3    0    0 -0.17014745083E+02 -0.32983386851E+01  0.49102932271E+02  0.52071859447E+02  0.51100000000E-03 0.  1.
         22    1    1    0    0    0  0.24740381960E+02 -0.11127790555E+02 -0.72502420747E+01  0.28079890176E+02  0.00000000000E+00 0. -1.
</event>
<event>
 5    1  0.1046082E-009  0.9118800E+02  0.7561462E-02  0.1125453E+00
         25   -1    0    0    0    0  0.00000000000E+00  0.00000000000E+00  0.99999998245E-14  0.12509000000E+03  0.12509000000E+03 0.  0.
        -11    1    3    3    0    0  0.23955150029E+02  0.12645069942E+01 -0.39332592256E+02  0.46070608903E+02  0.51100000000E-03 0. -1.
         23    2    1    0    0    0  0.73162032327E+01 -0.30113509608E+01  0.17736228370E+02  0.10566916425E+03  0.10386916488E+03 0.  0.
         11    1    3    3    0    0 -0.16638946796E+02 -0.42758579549E+01  0.57068820626E+02  0.59598555349E+02  0.51100000000E-03 0.  1.
         22    1    1    0    0    0 -0.73162032327E+01  0.30113509608E+01 -0.17736228370E+02  0.19420835748E+02  0.00000000000E+00 0.  1.
</event>
<event>
 5    1  0.1046082E-009  0.9118800E+02  0.7561462E-02  0.1125453E+00
         25   -1    0    0    0    0  0.00000000000E+00  0.00000000000E+00  0.99999998245E-14  0.12509000000E+03  0.12509000000E+03 0.  0.
        -11    1    3    3    0    0  0.41671482216E+02 -0.84859842685E+01  0.13288043202E+02  0.44554421234E+02  0.51100000000E-03 0. -1.
         23    2    1    0    0    0 -0.18139077861E+02 -0.64002803813E+01  0.65059939862E+01  0.10478439259E+03  0.10279810912E+03 0.  0.
         11    1    3    3    0    0 -0.59810560077E+02  0.20857038872E+01 -0.67820492157E+01  0.60229971354E+02  0.51100000000E-03 0.  1.
         22    1    1    0    0    0  0.18139077861E+02  0.64002803813E+01 -0.65059939862E+01  0.20305607412E+02  0.00000000000E+00 0.  1.
</event>
<event>
 5    1  0.1046082E-009  0.9118800E+02  0.7561462E-02  0.1125453E+00
         25   -1    0    0    0    0  0.00000000000E+00  0.00000000000E+00  0.99999998245E-14  0.12509000000E+03  0.12509000000E+03 0.  0.
        -11    1    3    3    0    0  0.55682989215E+02  0.15214562322E+00 -0.20819795139E+02  0.59448148046E+02  0.51100000000E-03 0.  1.
         23    2    1    0    0    0  0.24063823127E+02  0.13826113690E+02 -0.10603785570E+02  0.95380249552E+02  0.90635107617E+02 0.  0.
         11    1    3    3    0    0 -0.31619166088E+02  0.13673968067E+02  0.10216009569E+02  0.35932101505E+02  0.51100000000E-03 0. -1.
         22    1    1    0    0    0 -0.24063823127E+02 -0.13826113690E+02  0.10603785570E+02  0.29709750448E+02  0.00000000000E+00 0.  1.
</event>
<event>
 5    1  0.1046082E-009  0.9118800E+02  0.7561462E-02  0.1125453E+00
         25   -1    0    0    0    0  0.00000000000E+00  0.00000000000E+00  0.99999998245E-14  0.12509000000E+03  0.12509000000E+03 0.  0.
        -11    1    3    3    0    0  0.31297122133E+02 -0.13925504467E+02  0.44564637478E+02  0.56208864446E+02  0.51100000000E-03 0. -1.
         23    2    1    0    0    0 -0.45643458735E+01 -0.12527797871E+02  0.24166239421E+02  0.97489527169E+02  0.93500918750E+02 0.  0.
         11    1    3    3    0    0 -0.35861468006E+02  0.13977065956E+01 -0.20398398057E+02  0.41280662723E+02  0.51100000000E-03 0.  1.
         22    1    1    0    0    0  0.45643458735E+01  0.12527797871E+02 -0.24166239421E+02  0.27600472831E+02  0.00000000000E+00 0. -1.
</event>
<event>
 5    1  0.1046082E-009  0.9118800E+02  0.7561462E-02  0.1125453E+00
         25   -1    0    0    0    0  0.00000000000E+00  0.00000000000E+00  0.99999998245E-14  0.12509000000E+03  0.12509000000E+03 0.  0.
        -11    1    3    3    0    0  0.53844041052E+02 -0.26795486828E+02  0.10242851609E+02  0.61008973771E+02  0.51100000000E-03 0.  1.
         23    2    1    0    0    0  0.25881556628E+02 -0.78502404601E+01 -0.41569270039E+01  0.97726497102E+02  0.93817412802E+02 0.  0.
         11    1    3    3    0    0 -0.27962484425E+02  0.18945246368E+02 -0.14399778613E+02  0.36717523331E+02  0.51100000000E-03 0. -1.
         22    1    1    0    0    0 -0.25881556628E+02  0.78502404601E+01  0.41569270039E+01  0.27363502898E+02  0.00000000000E+00 0.  1.
</event>
<event>
 5    1  0.1046082E-009  0.9118800E+02  0.7561462E-02  0.1125453E+00
         25   -1    0    0    0    0  0.00000000000E+00  0.00000000000E+00  0.99999998245E-14  0.12509000000E+03  0.12509000000E+03 0.  0.
        -11    1    3    3    0    0  0.34710476471E+02  0.80413766465E+01  0.20529685011E+02  0.41121148843E+02  0.51100000000E-03 0.  1.
         23    2    1    0    0    0 -0.19593638404E+02  0.16233345037E+02  0.12883917242E+02  0.96569349928E+02  0.92261648940E+02 0.  0.
         11    1    3    3    0    0 -0.54304114876E+02  0.81919683905E+01 -0.76457677695E+01  0.55448201085E+02  0.51100000000E-03 0. -1.
         22    1    1    0    0    0  0.19593638404E+02 -0.16233345037E+02 -0.12883917242E+02  0.28520650072E+02  0.00000000000E+00 0.  1.
</event>
<event>
 5    1  0.1046082E-009  0.9118800E+02  0.7561462E-02  0.1125453E+00
         25   -1    0    0    0    0  0.00000000000E+00  0.00000000000E+00  0.99999998245E-14  0.12509000000E+03  0.12509000000E+03 0.  0.
        -11    1    3    3    0    0 -0.23834928397E+02  0.20620038534E+02  0.19376474407E+02  0.36996453364E+02  0.51100000000E-03 0.  1.
         23    2    1    0    0    0  0.22237640902E+02  0.86658149717E+01 -0.16047789887E+02  0.96329948152E+02  0.91936490736E+02 0.  0.
         11    1    3    3    0    0  0.46072569299E+02 -0.11954223563E+02 -0.35424264294E+02  0.59333494788E+02  0.51100000000E-03 0. -1.
         22    1    1    0    0    0 -0.22237640902E+02 -0.86658149717E+01  0.16047789887E+02  0.28760051848E+02  0.00000000000E+00 0. -1.
</event>
<event>
 5    1  0.1046082E-009  0.9118800E+02  0.7561462E-02  0.1125453E+00
         25   -1    0    0    0    0  0.00000000000E+00  0.00000000000E+00  0.99999998245E-14  0.12509000000E+03  0.12509000000E+03 0.  0.
        -11    1    3    3    0    0  0.17346013718E+02 -0.37201242045E+02  0.99525519029E+01  0.42235883929E+02  0.51100000000E-03 0. -1.
         23    2    1    0    0    0 -0.26475190873E+02 -0.12328169898E+02 -0.63637469495E+01  0.95199921712E+02  0.90385885591E+02 0.  0.
         11    1    3    3    0    0 -0.43821204591E+02  0.24873072147E+02 -0.16316298852E+02  0.52964037784E+02  0.51100000000E-03 0.  1.
         22    1    1    0    0    0  0.26475190873E+02  0.12328169898E+02  0.63637469495E+01  0.29890078288E+02  0.00000000000E+00 0.  1.
</event>
<event>
 5    1  0.1046082E-009  0.9118800E+02  0.7561462E-02  0.1125453E+00
         25   -1    0    0    0    0  0.00000000000E+00  0.00000000000E+00  0.99999998245E-14  0.12509000000E+03  0.12509000000E+03 0.  0.
        -11    1    3    3    0    0 -0.16350572999E+02  0.47719925200E+02 -0.10519879996E+02  0.51528636445E+02  0.51100000000E-03 0.  1.
         23    2    1    0    0    0  0.13350007004E+02  0.18939492912E+02 -0.20587339602E+02  0.94093780381E+02  0.88841847548E+02 0.  0.
         11    1    3    3    0    0  0.29700580003E+02 -0.28780432287E+02 -0.10067459606E+02  0.42565143937E+02  0.51100000000E-03 0. -1.
         22    1    1    0    0    0 -0.13350007004E+02 -0.18939492912E+02  0.20587339602E+02  0.30996219619E+02  0.00000000000E+00 0.  1.
</event>
<event>
 5    1  0.1046082E-009  0.9118800E+02  0.7561462E-02  0.1125453E+00
         25   -1    0    0    0    0  0.00000000000E+00  0.00000000000E+00  0.99999998245E-14  0.12509000000E+03  0.12509000000E+03 0.  0.
        -11    1    3    3    0    0  0.14342065489E+02  0.22635959505E+02 -0.21121618558E+02  0.34120437805E+02  0.51100000000E-03 0.  1.
         23    2    1    0    0    0  0.34990810110E+01 -0.22544094455E+02  0.18915889855E+02  0.95454031116E+02  0.90736880068E+02 0.  0.
         11    1    3    3    0    0 -0.10842984478E+02 -0.45180053961E+02  0.40037508412E+02  0.61333593311E+02  0.51100000000E-03 0. -1.
         22    1    1    0    0    0 -0.34990810110E+01  0.22544094455E+02 -0.18915889855E+02  0.29635968884E+02  0.00000000000E+00 0. -1.
</event>
<event>
 5    1  0.1046082E-009  0.9118800E+02  0.7561462E-02  0.1125453E+00
         25   -1    0    0    0    0  0.00000000000E+00  0.00000000000E+00  0.99999998245E-14  0.12509000000E+03  0.12509000000E+03 0.  0.
        -11    1    3    3    0    0 -0.22745490814E+02 -0.14726694444E+02  0.31270440766E+02  0.41377208069E+02  0.51100000000E-03 0.  1.
         23    2    1    0    0    0  0.23785534043E+02 -0.17137420550E+02  0.36363250728E+01  0.95549084766E+02  0.90867826687E+02 0.  0.
         11    1    3    3    0    0  0.46531024857E+02 -0.24107261061E+01 -0.27634115693E+02  0.54171876698E+02  0.51100000000E-03 0. -1.
         22    1    1    0    0    0 -0.23785534043E+02  0.17137420550E+02 -0.36363250728E+01  0.29540915234E+02  0.00000000000E+00 0. -1.
</event>
<event>
 5    1  0.1046082E-009  0.9118800E+02  0.7561462E-02  0.1125453E+00
         25   -1    0    0    0    0  0.00000000000E+00  0.00000000000E+00  0.99999998245E-14  0.12509000000E+03  0.12509000000E+03 0.  0.
        -11    1    3    3    0    0 -0.22563864117E+01 -0.46155371748E+02 -0.25122476418E+02  0.52597988959E+02  0.51100000000E-03 0. -1.
         23    2    1    0    0    0  0.20731369514E+02 -0.20710443184E+02  0.10989323717E+01  0.95765610984E+02  0.91165412607E+02 0.  0.
         11    1    3    3    0    0  0.22987755926E+02  0.25444928564E+02  0.26221408790E+02  0.43167622025E+02  0.51100000000E-03 0.  1.
         22    1    1    0    0    0 -0.20731369514E+02  0.20710443184E+02 -0.10989323717E+01  0.29324389016E+02  0.00000000000E+00 0. -1.
</event>
<event>
 5    1  0.1046082E-009  0.9118800E+02  0.7561462E-02  0.1125453E+00
         25   -1    0    0    0    0  0.00000000000E+00  0.00000000000E+00  0.99999998245E-14  0.12509000000E+03  0.12509000000E+03 0.  0.
        -11    1    3    3    0    0  0.18086989935E+02  0.33089362162E+01 -0.56962073557E+02  0.59856211774E+02  0.51100000000E-03 0.  1.
         23    2    1    0    0    0  0.71010767227E+01 -0.11375529469E+02 -0.25755804854E+02  0.96052275485E+02  0.91557906162E+02 0.  0.
         11    1    3    3    0    0 -0.10985913212E+02 -0.14684465685E+02  0.31206268703E+02  0.36196063711E+02  0.51100000000E-03 0. -1.
         22    1    1    0    0    0 -0.71010767227E+01  0.11375529469E+02  0.25755804854E+02  0.29037724515E+02  0.00000000000E+00 0.  1.
</event>
<event>
 5    1  0.1046082E-009  0.9118800E+02  0.7561462E-02  0.1125453E+00
         25   -1    0    0    0    0  0.00000000000E+00  0.00000000000E+00  0.99999998245E-14  0.12509000000E+03  0.12509000000E+03 0.  0.
        -11    1    3    3    0    0 -0.18027731056E+02  0.24148062783E+02  0.32627041461E+02  0.44414545567E+02  0.51100000000E-03 0.  1.
         23    2    1    0    0    0  0.91694602946E+01 -0.17504971999E+02  0.22433358696E+02  0.95194203821E+02  0.90377971940E+02 0.  0.
         11    1    3    3    0    0  0.27197191351E+02 -0.41653034781E+02 -0.10193682765E+02  0.50779658254E+02  0.51100000000E-03 0. -1.
         22    1    1    0    0    0 -0.91694602946E+01  0.17504971999E+02 -0.22433358696E+02  0.29895796179E+02  0.00000000000E+00 0. -1.
</event>
<event>
 5    1  0.1046082E-009  0.9118800E+02  0.7561462E-02  0.1125453E+00
         25   -1    0    0    0    0  0.00000000000E+00  0.00000000000E+00  0.99999998245E-14  0.12509000000E+03  0.12509000000E+03 0.  0.
        -11    1    3    3    0    0  0.27899109664E+02  0.14251525683E+02 -0.13719154013E+02  0.34200606595E+02  0.51100000000E-03 0.  1.
         23    2    1    0    0    0 -0.20820034650E+02 -0.20950158999E+02 -0.16386905343E+01  0.95508446431E+02  0.90811866119E+02 0.  0.
         11    1    3    3    0    0 -0.48719144314E+02 -0.35201684682E+02  0.12080463479E+02  0.61307839836E+02  0.51100000000E-03 0. -1.
         22    1    1    0    0    0  0.20820034650E+02  0.20950158999E+02  0.16386905343E+01  0.29581553569E+02  0.00000000000E+00 0. -1.
</event>
<event>
 5    1  0.1046082E-009  0.9118800E+02  0.7561462E-02  0.1125453E+00
         25   -1    0    0    0    0  0.00000000000E+00  0.00000000000E+00  0.99999998245E-14  0.12509000000E+03  0.12509000000E+03 0.  0.
        -11    1    3    3    0    0  0.28641196779E+02  0.26244707465E+02  0.24509270534E+01  0.38924412219E+02  0.51100000000E-03 0. -1.
         23    2    1    0    0    0 -0.13008989456E+01 -0.17811202945E+02  0.22958578556E+02  0.96003446101E+02  0.91491169221E+02 0.  0.
         11    1    3    3    0    0 -0.29942095725E+02 -0.44055910411E+02  0.20507651503E+02  0.57079033882E+02  0.51100000000E-03 0.  1.
         22    1    1    0    0    0  0.13008989456E+01  0.17811202945E+02 -0.22958578556E+02  0.29086553899E+02  0.00000000000E+00 0.  1.
</event>
<event>
 5    1  0.1046082E-009  0.9118800E+02  0.7561462E-02  0.1125453E+00
         25   -1    0    0    0    0  0.00000000000E+00  0.00000000000E+00  0.99999998245E-14  0.12509000000E+03  0.12509000000E+03 0.  0.
        -11    1    3    3    0    0  0.45107644476E+02  0.33290337750E+02  0.25926345393E+02  0.61766670328E+02  0.51100000000E-03 0.  1.
         23    2    1    0    0    0  0.21606149748E+02  0.11191530706E+02  0.17528215791E+02  0.95101428589E+02  0.90249472599E+02 0.  0.
         11    1    3    3    0    0 -0.23501494728E+02 -0.22098807045E+02 -0.83981296019E+01  0.33334758261E+02  0.51100000000E-03 0. -1.
         22    1    1    0    0    0 -0.21606149748E+02 -0.11191530706E+02 -0.17528215791E+02  0.29988571411E+02  0.00000000000E+00 0.  1.
</event>
<event>
 5    1  0.1046082E-009  0.9118800E+02  0.7561462E-02  0.1125453E+00
         25   -1    0    0    0    0  0.00000000000E+00  0.00000000000E+00  0.99999998245E-14  0.12509000000E+03  0.12509000000E+03 0.  0.
        -11    1    3    3    0    0  0.36626586974E+02 -0.28969836799E+02  0.40336201204E+02  0.61707110168E+02  0.51100000000E-03 0. -1.
         23    2    1    0    0    0  0.15225958707E+02 -0.19673290216E+02  0.15524756525E+02  0.95766183201E+02  0.91166197756E+02 0.  0.
         11    1    3    3    0    0 -0.21400628266E+02  0.92965465826E+01 -0.24811444679E+02  0.34059073033E+02  0.51100000000E-03 0.  1.
         22    1    1    0    0    0 -0.15225958707E+02  0.19673290216E+02 -0.15524756525E+02  0.29323816799E+02  0.00000000000E+00 0. -1.
</event>
<event>
 5    1  0.1046082E-009  0.9118800E+02  0.7561462E-02  0.1125453E+00
         25   -1    0    0    0    0  0.00000000000E+00  0.00000000000E+00  0.99999998245E-14  0.12509000000E+03  0.12509000000E+03 0.  0.
        -11    1    3    3    0    0 -0.39084217851E+02  0.13764641905E+02 -0.21507253949E+02  0.46686223069E+02  0.51100000000E-03 0.  1.
         23    2    1    0    0    0  0.32001166042E+01  0.29807739039E+02 -0.58486214741E+01  0.94545795541E+02  0.89476024881E+02 0.  0.
         11    1    3    3    0    0  0.42284334455E+02  0.16043097134E+02  0.15658632474E+02  0.47859572472E+02  0.51100000000E-03 0. -1.
         22    1    1    0    0    0 -0.32001166042E+01 -0.29807739039E+02  0.58486214741E+01  0.30544204459E+02  0.00000000000E+00 0. -1.
</event>
<event>
 5    1  0.1046082E-009  0.9118800E+02  0.7561462E-02  0.1125453E+00
         25   -1    0    0    0    0  0.00000000000E+00  0.00000000000E+00  0.99999998245E-14  0.12509000000E+03  0.12509000000E+03 0.  0.
        -11    1    3    3    0    0  0.32031115678E+02  0.43338722854E+02 -0.95294061046E+01  0.54727021216E+02  0.51100000000E-03 0. -1.
         23    2    1    0    0    0  0.30317656199E+02  0.60437557764E+01  0.28117701657E+01  0.94048200556E+02  0.88777647609E+02 0.  0.
         11    1    3    3    0    0 -0.17134594795E+01 -0.37294967077E+02  0.12341176270E+02  0.39321179340E+02  0.51100000000E-03 0.  1.
         22    1    1    0    0    0 -0.30317656199E+02 -0.60437557764E+01 -0.28117701657E+01  0.31041799444E+02  0.00000000000E+00 0. -1.
</event>
<event>
 5    1  0.1046082E-009  0.9118800E+02  0.7561462E-02  0.1125453E+00
         25   -1    0    0    0    0  0.00000000000E+00  0.00000000000E+00  0.99999998245E-14  0.12509000000E+03  0.12509000000E+03 0.  0.
        -11    1    3    3    0    0 -0.37706278014E+02 -0.62559062517E+00  0.17094571627E+02  0.41405061825E+02  0.51100000000E-03 0.  1.
         23    2    1    0    0    0  0.47590870863E+01 -0.27478143388E+02 -0.57797287034E+01  0.96610138030E+02  0.92316933617E+02 0.  0.
         11    1    3    3    0    0  0.42465365101E+02 -0.26852552762E+02 -0.22874300331E+02  0.55205076206E+02  0.51100000000E-03 0. -1.
         22    1    1    0    0    0 -0.47590870863E+01  0.27478143388E+02  0.57797287034E+01  0.28479861970E+02  0.00000000000E+00 0. -1.
</event>
<event>
 5    1  0.1046082E-009  0.9118800E+02  0.7561462E-02  0.1125453E+00
         25   -1    0    0    0    0  0.00000000000E+00  0.00000000000E+00  0.99999998245E-14  0.12509000000E+03  0.12509000000E+03 0.  0.
        -11    1    3    3    0    0  0.23381622282E+02 -0.33487522398E+01 -0.23569473498E+02  0.33368165717E+02  0.51100000000E-03 0. -1.
         23    2    1    0    0    0 -0.18857864101E+02  0.95362538662E+01  0.20422793988E+02  0.95702082576E+02  0.91078202216E+02 0.  0.
         11    1    3    3    0    0 -0.42239486383E+02  0.12885006106E+02  0.43992267485E+02  0.62333916859E+02  0.51100000000E-03 0.  1.
         22    1    1    0    0    0  0.18857864101E+02 -0.95362538662E+01 -0.20422793988E+02  0.29387917424E+02  0.00000000000E+00 0.  1.
</event>
<event>
 5    1  0.1046082E-009  0.9118800E+02  0.7561462E-02  0.1125453E+00
         25   -1    0    0    0    0  0.00000000000E+00  0.00000000000E+00  0.99999998245E-14  0.12509000000E+03  0.12509000000E+03 0.  0.
        -11    1    3    3    0    0  0.16312722061E+02 -0.21139403196E+02  0.49634921810E+02  0.56361376242E+02  0.51100000000E-03 0. -1.
         23    2    1    0    0    0  0.89472839361E+01  0.90451420103E+01  0.28329692747E+02  0.94034566096E+02  0.88758434224E+02 0.  0.
         11    1    3    3    0    0 -0.73654381250E+01  0.30184545206E+02 -0.21305229063E+02  0.37673189854E+02  0.51100000000E-03 0.  1.
         22    1    1    0    0    0 -0.89472839361E+01 -0.90451420103E+01 -0.28329692747E+02  0.31055433904E+02  0.00000000000E+00 0.  1.
</event>
<event>
 5    1  0.1046082E-009  0.9118800E+02  0.7561462E-02  0.1125453E+00
         25   -1    0    0    0    0  0.00000000000E+00  0.00000000000E+00  0.99999998245E-14  0.12509000000E+03  0.12509000000E+03 0.  0.
        -11    1    3    3    0    0  0.24240951946E+02  0.19374269686E+02  0.25018136090E+02  0.39860923356E+02  0.51100000000E-03 0.  1.
         23    2    1    0    0    0  0.22032640179E+01 -0.28419712811E+02  0.51090603060E+01  0.96130770974E+02  0.91665087041E+02 0.  0.
         11    1    3    3    0    0 -0.22037687928E+02 -0.47793982497E+02 -0.19909075784E+02  0.56269847618E+02  0.51100000000E-03 0. -1.
         22    1    1    0    0    0 -0.22032640179E+01  0.28419712811E+02 -0.51090603060E+01  0.28959229026E+02  0.00000000000E+00 0. -1.
</event>
<event>
 5    1  0.1046082E-009  0.9118800E+02  0.7561462E-02  0.1125453E+00
         25   -1    0    0    0    0  0.00000000000E+00  0.00000000000E+00  0.99999998245E-14  0.12509000000E+03  0.12509000000E+03 0.  0.
        -11    1    3    3    0    0  0.51423049280E+02  0.13142898815E+02  0.66193329515E+01  0.53487207400E+02  0.51100000000E-03 0.  1.
         23    2    1    0    0    0  0.20484973743E+02  0.65595820721E+01 -0.20666787627E+02  0.95260846860E+02  0.90470163963E+02 0.  0.
         11    1    3    3    0    0 -0.30938075537E+02 -0.65833167424E+01 -0.27286120578E+02  0.41773639460E+02  0.51100000000E-03 0. -1.
         22    1    1    0    0    0 -0.20484973743E+02 -0.65595820721E+01  0.20666787627E+02  0.29829153140E+02  0.00000000000E+00 0.  1.
</event>
<event>
 5    1  0.1046082E-009  0.9118800E+02  0.7561462E-02  0.1125453E+00
         25   -1    0    0    0    0  0.00000000000E+00  0.00000000000E+00  0.99999998245E-14  0.12509000000E+03  0.12509000000E+03 0.  0.
        -11    1    3    3    0    0  0.52064910406E+02 -0.83583691408E+01 -0.19094693096E+02  0.56082301441E+02  0.51100000000E-03 0.  1.
         23    2    1    0    0    0  0.23332060070E+02  0.16228348051E+02 -0.65611283138E+01  0.95921648790E+02  0.91379264575E+02 0.  0.
         11    1    3    3    0    0 -0.28732850336E+02  0.24586717192E+02  0.12533564782E+02  0.39839347348E+02  0.51100000000E-03 0. -1.
         22    1    1    0    0    0 -0.23332060070E+02 -0.16228348051E+02  0.65611283138E+01  0.29168351210E+02  0.00000000000E+00 0.  1.
</event>
<event>
 5    1  0.1046082E-009  0.9118800E+02  0.7561462E-02  0.1125453E+00
         25   -1    0    0    0    0  0.00000000000E+00  0.00000000000E+00  0.99999998245E-14  0.12509000000E+03  0.12509000000E+03 0.  0.
        -11    1    3    3    0    0 -0.35514092653E+02 -0.17706597291E+02  0.59306293319E+00  0.39687858200E+02  0.51100000000E-03 0.  1.
         23    2    1    0    0    0  0.15171433382E+02 -0.22229239961E+02 -0.16680873301E+02  0.93426724203E+02  0.87897609531E+02 0.  0.
         11    1    3    3    0    0  0.50685526034E+02 -0.45226426700E+01 -0.17273936234E+02  0.53738866004E+02  0.51100000000E-03 0. -1.
         22    1    1    0    0    0 -0.15171433382E+02  0.22229239961E+02  0.16680873301E+02  0.31663275797E+02  0.00000000000E+00 0. -1.
</event>
<event>
 5    1  0.1046082E-009  0.9118800E+02  0.7561462E-02  0.1125453E+00
         25   -1    0    0    0    0  0.00000000000E+00  0.00000000000E+00  0.99999998245E-14  0.12509000000E+03  0.12509000000E+03 0.  0.
        -11    1    3    3    0    0 -0.16646396346E+02  0.41385926580E+02 -0.34048480885E+02  0.56117702029E+02  0.51100000000E-03 0.  1.
         23    2    1    0    0    0  0.10345244163E+02  0.23266107078E+02 -0.62991911809E+01  0.98859948057E+02  0.95316702130E+02 0.  0.
         11    1    3    3    0    0  0.26991640509E+02 -0.18119819502E+02  0.27749289704E+02  0.42742246028E+02  0.51100000000E-03 0. -1.
         22    1    1    0    0    0 -0.10345244163E+02 -0.23266107078E+02  0.62991911809E+01  0.26230051943E+02  0.00000000000E+00 0.  1.
</event>
<event>
 5    1  0.1046082E-009  0.9118800E+02  0.7561462E-02  0.1125453E+00
         25   -1    0    0    0    0  0.00000000000E+00  0.00000000000E+00  0.99999998245E-14  0.12509000000E+03  0.12509000000E+03 0.  0.
        -11    1    3    3    0    0 -0.49467045757E+02 -0.13158865530E+02 -0.46155064098E+01  0.51395011991E+02  0.51100000000E-03 0.  1.
         23    2    1    0    0    0 -0.61425006190E+01 -0.26996416888E+02  0.18925619920E+01  0.97338988675E+02  0.93299303785E+02 0.  0.
         11    1    3    3    0    0  0.43324545138E+02 -0.13837551358E+02  0.65080684018E+01  0.45943976684E+02  0.51100000000E-03 0. -1.
         22    1    1    0    0    0  0.61425006190E+01  0.26996416888E+02 -0.18925619920E+01  0.27751011325E+02  0.00000000000E+00 0.  1.
</event>
<event>
 5    1  0.1046082E-009  0.9118800E+02  0.7561462E-02  0.1125453E+00
         25   -1    0    0    0    0  0.00000000000E+00  0.00000000000E+00  0.99999998245E-14  0.12509000000E+03  0.12509000000E+03 0.  0.
        -11    1    3    3    0    0  0.26382654697E+02  0.56614031916E+01  0.35798022535E+02  0.44828499558E+02  0.51100000000E-03 0. -1.
         23    2    1    0    0    0 -0.18278264167E+02  0.17822987337E+02  0.11836477699E+02  0.96950063559E+02  0.92776391400E+02 0.  0.
         11    1    3    3    0    0 -0.44660918865E+02  0.12161584145E+02 -0.23961544836E+02  0.52121564001E+02  0.51100000000E-03 0.  1.
         22    1    1    0    0    0  0.18278264167E+02 -0.17822987337E+02 -0.11836477699E+02  0.28139936441E+02  0.00000000000E+00 0.  1.
</event>
<event>
 5    1  0.1046082E-009  0.9118800E+02  0.7561462E-02  0.1125453E+00
         25   -1    0    0    0    0  0.00000000000E+00  0.00000000000E+00  0.99999998245E-14  0.12509000000E+03  0.12509000000E+03 0.  0.
        -11    1    3    3    0    0 -0.33628454729E+02 -0.76659209951E+01 -0.31403204161E+01  0.34633811872E+02  0.51100000000E-03 0.  1.
         23    2    1    0    0    0  0.21058856397E+02  0.14546347786E+02  0.13759361096E+02  0.96031581522E+02  0.91529628893E+02 0.  0.
         11    1    3    3    0    0  0.54687311126E+02  0.22212268781E+02  0.16899681512E+02  0.61397769651E+02  0.51100000000E-03 0. -1.
         22    1    1    0    0    0 -0.21058856397E+02 -0.14546347786E+02 -0.13759361096E+02  0.29058418478E+02  0.00000000000E+00 0. -1.
</event>
<event>
 5    1  0.1046082E-009  0.9118800E+02  0.7561462E-02  0.1125453E+00
         25   -1    0    0    0    0  0.00000000000E+00  0.00000000000E+00  0.99999998245E-14  0.12509000000E+03  0.12509000000E+03 0.  0.
        -11    1    3    3    0    0 -0.97360674469E+01  0.38943516976E+02  0.43506132425E+02  0.59196047864E+02  0.51100000000E-03 0.  1.
         23    2    1    0    0    0 -0.18165171853E+02  0.13913948433E+02  0.17277019432E+02  0.96418292170E+02  0.92056614292E+02 0.  0.
         11    1    3    3    0    0 -0.84291044060E+01 -0.25029568543E+02 -0.26229112993E+02  0.37222244306E+02  0.51100000000E-03 0. -1.
         22    1    1    0    0    0  0.18165171853E+02 -0.13913948433E+02 -0.17277019432E+02  0.28671707830E+02  0.00000000000E+00 0.  1.
</event>
<event>
 5    1  0.1046082E-009  0.9118800E+02  0.7561462E-02  0.1125453E+00
         25   -1    0    0    0    0  0.00000000000E+00  0.00000000000E+00  0.99999998245E-14  0.12509000000E+03  0.12509000000E+03 0.  0.
        -11    1    3    3    0    0  0.23878254602E+02  0.23521178211E+02  0.10243741558E+02  0.35047840285E+02  0.51100000000E-03 0.  1.
         23    2    1    0    0    0 -0.22730507033E+02 -0.43600420815E+01 -0.17536554366E+02  0.96051806944E+02  0.91557266021E+02 0.  0.
         11    1    3    3    0    0 -0.46608761635E+02 -0.27881220293E+02 -0.27780295924E+02  0.61003966659E+02  0.51100000000E-03 0. -1.
         22    1    1    0    0    0  0.22730507033E+02  0.43600420815E+01  0.17536554366E+02  0.29038193056E+02  0.00000000000E+00 0. -1.
</event>
<event>
 5    1  0.1046082E-009  0.9118800E+02  0.7561462E-02  0.1125453E+00
         25   -1    0    0    0    0  0.00000000000E+00  0.00000000000E+00  0.99999998245E-14  0.12509000000E+03  0.12509000000E+03 0.  0.
        -11    1    3    3    0    0  0.41524492157E+02 -0.59735021068E+01 -0.41573395730E+02  0.59061945523E+02  0.51100000000E-03 0. -1.
         23    2    1    0    0    0  0.29985314500E+02  0.42137022169E+00 -0.96769451841E+01  0.93579051004E+02  0.88114124181E+02 0.  0.
         11    1    3    3    0    0 -0.11539177656E+02  0.63948723284E+01  0.31896450545E+02  0.34517105480E+02  0.51100000000E-03 0.  1.
         22    1    1    0    0    0 -0.29985314500E+02 -0.42137022169E+00  0.96769451841E+01  0.31510948996E+02  0.00000000000E+00 0. -1.
</event>
<event>
 5    1  0.1046082E-009  0.9118800E+02  0.7561462E-02  0.1125453E+00
         25   -1    0    0    0    0  0.00000000000E+00  0.00000000000E+00  0.99999998245E-14  0.12509000000E+03  0.12509000000E+03 0.  0.
        -11    1    3    3    0    0 -0.14316945602E+02 -0.12770354919E+01 -0.56436427327E+02  0.58238098189E+02  0.51100000000E-03 0.  1.
         23    2    1    0    0    0  0.92107418122E+01 -0.45152330523E+01 -0.27897374926E+02  0.95366463501E+02  0.90616078809E+02 0.  0.
         11    1    3    3    0    0  0.23527687414E+02 -0.32381975604E+01  0.28539052401E+02  0.37128365312E+02  0.51100000000E-03 0. -1.
         22    1    1    0    0    0 -0.92107418122E+01  0.45152330523E+01  0.27897374926E+02  0.29723536499E+02  0.00000000000E+00 0.  1.
</event>
<event>
 5    1  0.1046082E-009  0.9118800E+02  0.7561462E-02  0.1125453E+00
         25   -1    0    0    0    0  0.00000000000E+00  0.00000000000E+00  0.99999998245E-14  0.12509000000E+03  0.12509000000E+03 0.  0.
        -11    1    3    3    0    0  0.18282151497E+02 -0.21843483089E+02 -0.52489062044E+02  0.59719983685E+02  0.51100000000E-03 0.  1.
         23    2    1    0    0    0  0.17537984647E+02 -0.45907650709E+00 -0.24741810587E+02  0.94759341454E+02  0.89774071674E+02 0.  0.
         11    1    3    3    0    0 -0.74416685010E+00  0.21384406582E+02  0.27747251457E+02  0.35039357769E+02  0.51100000000E-03 0. -1.
         22    1    1    0    0    0 -0.17537984647E+02  0.45907650709E+00  0.24741810587E+02  0.30330658546E+02  0.00000000000E+00 0.  1.
</event>
<event>
 5    1  0.1046082E-009  0.9118800E+02  0.7561462E-02  0.1125453E+00
         25   -1    0    0    0    0  0.00000000000E+00  0.00000000000E+00  0.99999998245E-14  0.12509000000E+03  0.12509000000E+03 0.  0.
        -11    1    3    3    0    0 -0.56663902562E+02  0.90426921124E+01 -0.98281717428E+01  0.58216501907E+02  0.51100000000E-03 0. -1.
         23    2    1    0    0    0 -0.23673274101E+02  0.18448523208E+02 -0.12396510834E+02  0.92617775005E+02  0.86738727514E+02 0.  0.
         11    1    3    3    0    0  0.32990628461E+02  0.94058310961E+01 -0.25683390910E+01  0.34401273098E+02  0.51100000000E-03 0.  1.
         22    1    1    0    0    0  0.23673274101E+02 -0.18448523208E+02  0.12396510834E+02  0.32472224995E+02  0.00000000000E+00 0. -1.
</event>
<event>
 5    1  0.1046082E-009  0.9118800E+02  0.7561462E-02  0.1125453E+00
         25   -1    0    0    0    0  0.00000000000E+00  0.00000000000E+00  0.99999998245E-14  0.12509000000E+03  0.12509000000E+03 0.  0.
        -11    1    3    3    0    0 -0.41720168298E+02 -0.73384489605E+01  0.19898934068E+02  0.46801633019E+02  0.51100000000E-03 0.  1.
         23    2    1    0    0    0 -0.15098805471E+02  0.16840911815E+02 -0.15819547335E+02  0.97488400131E+02  0.93499410933E+02 0.  0.
         11    1    3    3    0    0  0.26621362827E+02  0.24179360775E+02 -0.35718481404E+02  0.50686767112E+02  0.51100000000E-03 0. -1.
         22    1    1    0    0    0  0.15098805471E+02 -0.16840911815E+02  0.15819547335E+02  0.27601599869E+02  0.00000000000E+00 0. -1.
</event>
<event>
 5    1  0.1046082E-009  0.9118800E+02  0.7561462E-02  0.1125453E+00
         25   -1    0    0    0    0  0.00000000000E+00  0.00000000000E+00  0.99999998245E-14  0.12509000000E+03  0.12509000000E+03 0.  0.
        -11    1    3    3    0    0  0.13871751536E+02 -0.79790899152E+01 -0.29844593592E+02  0.33864304710E+02  0.51100000000E-03 0. -1.
         23    2    1    0    0    0  0.55641871064E+01  0.35496958370E+01  0.29486754446E+02  0.94873626849E+02  0.89933174441E+02 0.  0.
         11    1    3    3    0    0 -0.83075644297E+01  0.11528785752E+02  0.59331348037E+02  0.61009322139E+02  0.51100000000E-03 0.  1.
         22    1    1    0    0    0 -0.55641871064E+01 -0.35496958370E+01 -0.29486754446E+02  0.30216373151E+02  0.00000000000E+00 0.  1.
</event>
<event>
 5    1  0.1046082E-009  0.9118800E+02  0.7561462E-02  0.1125453E+00
         25   -1    0    0    0    0  0.00000000000E+00  0.00000000000E+00  0.99999998245E-14  0.12509000000E+03  0.12509000000E+03 0.  0.
        -11    1    3    3    0    0  0.29785326325E+02 -0.34113126249E+02 -0.23336159615E+02  0.50945533588E+02  0.51100000000E-03 0.  1.
         23    2    1    0    0    0  0.25850087868E+02 -0.31511697585E+01  0.10529854515E+02  0.97000237634E+02  0.92844016239E+02 0.  0.
         11    1    3    3    0    0 -0.39352384570E+01  0.30961956490E+02  0.33866014131E+02  0.46054704046E+02  0.51100000000E-03 0. -1.
         22    1    1    0    0    0 -0.25850087868E+02  0.31511697585E+01 -0.10529854515E+02  0.28089762366E+02  0.00000000000E+00 0.  1.
</event>
<event>
 5    1  0.1046082E-009  0.9118800E+02  0.7561462E-02  0.1125453E+00
         25   -1    0    0    0    0  0.00000000000E+00  0.00000000000E+00  0.99999998245E-14  0.12509000000E+03  0.12509000000E+03 0.  0.
        -11    1    3    3    0    0  0.14051871974E+02 -0.44966910378E+02 -0.33770246938E+02  0.57964710932E+02  0.51100000000E-03 0. -1.
         23    2    1    0    0    0  0.10452330102E+02 -0.88901618394E+01 -0.26937721564E+02  0.94858774006E+02  0.89912512926E+02 0.  0.
         11    1    3    3    0    0 -0.35995418723E+01  0.36076748539E+02  0.68325253742E+01  0.36894063074E+02  0.51100000000E-03 0.  1.
         22    1    1    0    0    0 -0.10452330102E+02  0.88901618394E+01  0.26937721564E+02  0.30231225994E+02  0.00000000000E+00 0. -1.
</event>
<event>
 5    1  0.1046082E-009  0.9118800E+02  0.7561462E-02  0.1125453E+00
         25   -1    0    0    0    0  0.00000000000E+00  0.00000000000E+00  0.99999998245E-14  0.12509000000E+03  0.12509000000E+03 0.  0.
        -11    1    3    3    0    0  0.28855542627E+02 -0.27836194113E+02  0.14702388957E+01  0.40120538951E+02  0.51100000000E-03 0. -1.
         23    2    1    0    0    0  0.60234088563E+01  0.16188435098E+02  0.24752372825E+02  0.94906778740E+02  0.89979274309E+02 0.  0.
         11    1    3    3    0    0 -0.22832133771E+02  0.44024629211E+02  0.23282133930E+02  0.54786239789E+02  0.51100000000E-03 0.  1.
         22    1    1    0    0    0 -0.60234088563E+01 -0.16188435098E+02 -0.24752372825E+02  0.30183221260E+02  0.00000000000E+00 0.  1.
</event>
<event>
 5    1  0.1046082E-009  0.9118800E+02  0.7561462E-02  0.1125453E+00
         25   -1    0    0    0    0  0.00000000000E+00  0.00000000000E+00  0.99999998245E-14  0.12509000000E+03  0.12509000000E+03 0.  0.
        -11    1    3    3    0    0 -0.28439058378E+02 -0.28693754261E+02 -0.30537271133E+01  0.40514649505E+02  0.51100000000E-03 0.  1.
         23    2    1    0    0    0  0.12556477905E+02 -0.67600884934E+01  0.26068031883E+02  0.95376262099E+02  0.90629604169E+02 0.  0.
         11    1    3    3    0    0  0.40995536282E+02  0.21933665767E+02  0.29121758996E+02  0.54861612594E+02  0.51100000000E-03 0. -1.
         22    1    1    0    0    0 -0.12556477905E+02  0.67600884934E+01 -0.26068031883E+02  0.29713737901E+02  0.00000000000E+00 0. -1.
</event>
<event>
 5    1  0.1046082E-009  0.9118800E+02  0.7561462E-02  0.1125453E+00
         25   -1    0    0    0    0  0.00000000000E+00  0.00000000000E+00  0.99999998245E-14  0.12509000000E+03  0.12509000000E+03 0.  0.
        -11    1    3    3    0    0  0.39620215569E+02 -0.41291624942E+02 -0.21316367349E+02  0.61066744545E+02  0.51100000000E-03 0.  1.
         23    2    1    0    0    0  0.24695672513E+02 -0.16113162890E+02 -0.33440331157E+01  0.95413530926E+02  0.90681029257E+02 0.  0.
         11    1    3    3    0    0 -0.14924543057E+02  0.25178462051E+02  0.17972334233E+02  0.34346786382E+02  0.51100000000E-03 0. -1.
         22    1    1    0    0    0 -0.24695672513E+02  0.16113162890E+02  0.33440331157E+01  0.29676469074E+02  0.00000000000E+00 0.  1.
</event>
<event>
 5    1  0.1046082E-009  0.9118800E+02  0.7561462E-02  0.1125453E+00
         25   -1    0    0    0    0  0.00000000000E+00  0.00000000000E+00  0.99999998245E-14  0.12509000000E+03  0.12509000000E+03 0.  0.
        -11    1    3    3    0    0  0.53820826166E+01  0.12608575483E+02  0.48801324771E+02  0.50690356959E+02  0.51100000000E-03 0.  1.
         23    2    1    0    0    0  0.25316543731E+02 -0.64778921213E+01  0.12975856933E+02  0.95913582537E+02  0.91368221933E+02 0.  0.
         11    1    3    3    0    0  0.19934461115E+02 -0.19086467605E+02 -0.35825467838E+02  0.45223225578E+02  0.51100000000E-03 0. -1.
         22    1    1    0    0    0 -0.25316543731E+02  0.64778921213E+01 -0.12975856933E+02  0.29176417463E+02  0.00000000000E+00 0.  1.
</event>
<event>
 5    1  0.1046082E-009  0.9118800E+02  0.7561462E-02  0.1125453E+00
         25   -1    0    0    0    0  0.00000000000E+00  0.00000000000E+00  0.99999998245E-14  0.12509000000E+03  0.12509000000E+03 0.  0.
        -11    1    3    3    0    0 -0.29237902649E+02  0.31773754574E+02 -0.41358005100E+02  0.59790559599E+02  0.51100000000E-03 0.  1.
         23    2    1    0    0    0 -0.43452278358E+01  0.88482494505E+01 -0.26623212707E+02  0.96700424833E+02  0.92439191823E+02 0.  0.
         11    1    3    3    0    0  0.24892674813E+02 -0.22925505124E+02  0.14734792393E+02  0.36909865235E+02  0.51100000000E-03 0. -1.
         22    1    1    0    0    0  0.43452278358E+01 -0.88482494505E+01  0.26623212707E+02  0.28389575167E+02  0.00000000000E+00 0.  1.
</event>
<event>
 5    1  0.1046082E-009  0.9118800E+02  0.7561462E-02  0.1125453E+00
         25   -1    0    0    0    0  0.00000000000E+00  0.00000000000E+00  0.99999998245E-14  0.12509000000E+03  0.12509000000E+03 0.  0.
        -11    1    3    3    0    0  0.23753498247E+02  0.37344441359E+02  0.10832367118E+02  0.45565076067E+02  0.51100000000E-03 0. -1.
         23    2    1    0    0    0  0.30014545071E+02 -0.63322245285E+01 -0.77647738522E+01  0.93447280517E+02  0.87926859035E+02 0.  0.
         11    1    3    3    0    0  0.62610468245E+01 -0.43676665888E+02 -0.18597140971E+02  0.47882204449E+02  0.51100000000E-03 0.  1.
         22    1    1    0    0    0 -0.30014545071E+02  0.63322245285E+01  0.77647738522E+01  0.31642719483E+02  0.00000000000E+00 0.  1.
</event>
<event>
 5    1  0.1046082E-009  0.9118800E+02  0.7561462E-02  0.1125453E+00
         25   -1    0    0    0    0  0.00000000000E+00  0.00000000000E+00  0.99999998245E-14  0.12509000000E+03  0.12509000000E+03 0.  0.
        -11    1    3    3    0    0  0.32227719466E+02  0.36974911069E+02 -0.21970741147E+02  0.53744612915E+02  0.51100000000E-03 0. -1.
         23    2    1    0    0    0 -0.30230112025E+01  0.11269849741E+02 -0.25024463220E+02  0.97478917635E+02  0.93486723731E+02 0.  0.
         11    1    3    3    0    0 -0.35250730669E+02 -0.25705061329E+02 -0.30537220732E+01  0.43734304720E+02  0.51100000000E-03 0.  1.
         22    1    1    0    0    0  0.30230112025E+01 -0.11269849741E+02  0.25024463220E+02  0.27611082365E+02  0.00000000000E+00 0. -1.
</event>
<event>
 5    1  0.1046082E-009  0.9118800E+02  0.7561462E-02  0.1125453E+00
         25   -1    0    0    0    0  0.00000000000E+00  0.00000000000E+00  0.99999998245E-14  0.12509000000E+03  0.12509000000E+03 0.  0.
        -11    1    3    3    0    0 -0.90566235250E+01 -0.60811158770E+01  0.31950262645E+02  0.33761245287E+02  0.51100000000E-03 0. -1.
         23    2    1    0    0    0 -0.14972433652E+02  0.42225123776E+01 -0.27017429274E+02  0.93913969708E+02  0.88588310975E+02 0.  0.
         11    1    3    3    0    0 -0.59158101268E+01  0.10303628255E+02 -0.58967691919E+02  0.60152724420E+02  0.51100000000E-03 0.  1.
         22    1    1    0    0    0  0.14972433652E+02 -0.42225123776E+01  0.27017429274E+02  0.31176030292E+02  0.00000000000E+00 0.  1.
</event>
<event>
 5    1  0.1046082E-009  0.9118800E+02  0.7561462E-02  0.1125453E+00
         25   -1    0    0    0    0  0.00000000000E+00  0.00000000000E+00  0.99999998245E-14  0.12509000000E+03  0.12509000000E+03 0.  0.
        -11    1    3    3    0    0 -0.26788992107E-01 -0.27909430567E+02  0.11958361833E+02  0.30363455834E+02  0.51100000000E-03 0.  1.
         23    2    1    0    0    0 -0.17825466544E+02  0.18490745915E+02  0.32093839774E+02  0.83984410435E+02  0.73237365482E+02 0.  0.
         11    1    3    3    0    0 -0.17798677552E+02  0.46400176482E+02  0.20135477941E+02  0.53620954601E+02  0.51100000000E-03 0. -1.
         22    1    1    0    0    0  0.17825466544E+02 -0.18490745915E+02 -0.32093839774E+02  0.41105589565E+02  0.00000000000E+00 0. -1.
</event>
<event>
 5    1  0.1046082E-009  0.9118800E+02  0.7561462E-02  0.1125453E+00
         25   -1    0    0    0    0  0.00000000000E+00  0.00000000000E+00  0.99999998245E-14  0.12509000000E+03  0.12509000000E+03 0.  0.
        -11    1    3    3    0    0  0.21728800003E+02 -0.48674313977E+02 -0.16198838927E+02  0.55711147660E+02  0.51100000000E-03 0.  1.
         23    2    1    0    0    0  0.14723445201E+02 -0.24695550828E+02  0.12481982536E+02  0.93745942232E+02  0.88350731336E+02 0.  0.
         11    1    3    3    0    0 -0.70053548023E+01  0.23978763149E+02  0.28680821464E+02  0.38034794572E+02  0.51100000000E-03 0. -1.
         22    1    1    0    0    0 -0.14723445201E+02  0.24695550828E+02 -0.12481982536E+02  0.31344057768E+02  0.00000000000E+00 0.  1.
</event>
<event>
 5    1  0.1046082E-009  0.9118800E+02  0.7561462E-02  0.1125453E+00
         25   -1    0    0    0    0  0.00000000000E+00  0.00000000000E+00  0.99999998245E-14  0.12509000000E+03  0.12509000000E+03 0.  0.
        -11    1    3    3    0    0 -0.22897699618E+02  0.20272464113E+02  0.28204526484E+02  0.41602557175E+02  0.51100000000E-03 0.  1.
         23    2    1    0    0    0 -0.46080316065E+01  0.44422291785E+02  0.42414510209E+01  0.80228392032E+02  0.66513389769E+02 0.  0.
         11    1    3    3    0    0  0.18289668012E+02  0.24149827672E+02 -0.23963075463E+02  0.38625834858E+02  0.51100000000E-03 0. -1.
         22    1    1    0    0    0  0.46080316065E+01 -0.44422291785E+02 -0.42414510209E+01  0.44861607968E+02  0.00000000000E+00 0.  1.
</event>
<event>
 5    1  0.1046082E-009  0.9118800E+02  0.7561462E-02  0.1125453E+00
         25   -1    0    0    0    0  0.00000000000E+00  0.00000000000E+00  0.99999998245E-14  0.12509000000E+03  0.12509000000E+03 0.  0.
        -11    1    3    3    0    0 -0.29937403379E+02  0.30824070802E+00  0.26454584150E+02  0.39952323540E+02  0.51100000000E-03 0. -1.
         23    2    1    0    0    0 -0.38489061099E+02 -0.14138459381E+02 -0.12378229178E+02  0.82258651487E+02  0.70227924139E+02 0.  0.
         11    1    3    3    0    0 -0.85516577195E+01 -0.14446700089E+02 -0.38832813327E+02  0.42306327947E+02  0.51100000000E-03 0.  1.
         22    1    1    0    0    0  0.38489061099E+02  0.14138459381E+02  0.12378229178E+02  0.42831348513E+02  0.00000000000E+00 0. -1.
</event>
<event>
 5    1  0.1046082E-009  0.9118800E+02  0.7561462E-02  0.1125453E+00
         25   -1    0    0    0    0  0.00000000000E+00  0.00000000000E+00  0.99999998245E-14  0.12509000000E+03  0.12509000000E+03 0.  0.
        -11    1    3    3    0    0  0.11957408237E+02 -0.46806409757E+02 -0.14325197241E+02  0.50388797191E+02  0.51100000000E-03 0.  1.
         23    2    1    0    0    0 -0.16760150783E+02 -0.23333004412E+02  0.99159033328E+01  0.94698275994E+02  0.89688943512E+02 0.  0.
         11    1    3    3    0    0 -0.28717559020E+02  0.23473405345E+02  0.24241100574E+02  0.44309478804E+02  0.51100000000E-03 0. -1.
         22    1    1    0    0    0  0.16760150783E+02  0.23333004412E+02 -0.99159033328E+01  0.30391724006E+02  0.00000000000E+00 0.  1.
</event>
<event>
 5    1  0.1046082E-009  0.9118800E+02  0.7561462E-02  0.1125453E+00
         25   -1    0    0    0    0  0.00000000000E+00  0.00000000000E+00  0.99999998245E-14  0.12509000000E+03  0.12509000000E+03 0.  0.
        -11    1    3    3    0    0 -0.30522732801E+02  0.31831715932E+02 -0.35650591755E+02  0.56708553583E+02  0.51100000000E-03 0. -1.
         23    2    1    0    0    0 -0.19807834177E+02  0.22776269159E+02 -0.12354155064E+00  0.94905169470E+02  0.89977037060E+02 0.  0.
         11    1    3    3    0    0  0.10714898623E+02 -0.90554467734E+01  0.35527050204E+02  0.38196615887E+02  0.51100000000E-03 0.  1.
         22    1    1    0    0    0  0.19807834177E+02 -0.22776269159E+02  0.12354155064E+00  0.30184830530E+02  0.00000000000E+00 0. -1.
</event>
<event>
 5    1  0.1046082E-009  0.9118800E+02  0.7561462E-02  0.1125453E+00
         25   -1    0    0    0    0  0.00000000000E+00  0.00000000000E+00  0.99999998245E-14  0.12509000000E+03  0.12509000000E+03 0.  0.
        -11    1    3    3    0    0 -0.25628317580E+02  0.48770571426E+02 -0.18803634976E+01  0.55126355461E+02  0.51100000000E-03 0.  1.
         23    2    1    0    0    0 -0.26765396070E+02  0.88914999695E+01  0.70709058287E+01  0.96013499046E+02  0.91504912936E+02 0.  0.
         11    1    3    3    0    0 -0.11370784904E+01 -0.39879071457E+02  0.89512693263E+01  0.40887143585E+02  0.51100000000E-03 0. -1.
         22    1    1    0    0    0  0.26765396070E+02 -0.88914999695E+01 -0.70709058287E+01  0.29076500954E+02  0.00000000000E+00 0.  1.
</event>
<event>
 5    1  0.1046082E-009  0.9118800E+02  0.7561462E-02  0.1125453E+00
         25   -1    0    0    0    0  0.00000000000E+00  0.00000000000E+00  0.99999998245E-14  0.12509000000E+03  0.12509000000E+03 0.  0.
        -11    1    3    3    0    0 -0.49720878725E+02 -0.16713921148E+02  0.28451543414E+02  0.59674209372E+02  0.51100000000E-03 0.  1.
         23    2    1    0    0    0 -0.29935821861E+02 -0.14993382118E+01  0.35900244761E+01  0.94902424388E+02  0.89973220646E+02 0.  0.
         11    1    3    3    0    0  0.19785056863E+02  0.15214582936E+02 -0.24861518938E+02  0.35228215016E+02  0.51100000000E-03 0. -1.
         22    1    1    0    0    0  0.29935821861E+02  0.14993382118E+01 -0.35900244761E+01  0.30187575612E+02  0.00000000000E+00 0.  1.
</event>
<event>
 5    1  0.1046082E-009  0.9118800E+02  0.7561462E-02  0.1125453E+00
         25   -1    0    0    0    0  0.00000000000E+00  0.00000000000E+00  0.99999998245E-14  0.12509000000E+03  0.12509000000E+03 0.  0.
        -11    1    3    3    0    0  0.36683660779E+02  0.29606619475E+02  0.15304260361E+02  0.49562720570E+02  0.51100000000E-03 0. -1.
         23    2    1    0    0    0  0.19190813260E+02  0.55304558867E+01 -0.20734754739E+02  0.96301055768E+02  0.91897170969E+02 0.  0.
         11    1    3    3    0    0 -0.17492847519E+02 -0.24076163588E+02 -0.36039015100E+02  0.46738335198E+02  0.51100000000E-03 0.  1.
         22    1    1    0    0    0 -0.19190813260E+02 -0.55304558867E+01  0.20734754739E+02  0.28788944232E+02  0.00000000000E+00 0. -1.
</event>
<event>
 5    1  0.1046082E-009  0.9118800E+02  0.7561462E-02  0.1125453E+00
         25   -1    0    0    0    0  0.00000000000E+00  0.00000000000E+00  0.99999998245E-14  0.12509000000E+03  0.12509000000E+03 0.  0.
        -11    1    3    3    0    0 -0.49351922195E+02  0.17724285712E+02  0.45919341089E+01  0.52638848653E+02  0.51100000000E-03 0.  1.
         23    2    1    0    0    0 -0.15459339334E+02 -0.35379777814E+01  0.23378638656E+02  0.96839881331E+02  0.92627714057E+02 0.  0.
         11    1    3    3    0    0  0.33892582861E+02 -0.21262263494E+02  0.18786704547E+02  0.44201032679E+02  0.51100000000E-03 0. -1.
         22    1    1    0    0    0  0.15459339334E+02  0.35379777814E+01 -0.23378638656E+02  0.28250118669E+02  0.00000000000E+00 0.  1.
</event>
<event>
 5    1  0.1046082E-009  0.9118800E+02  0.7561462E-02  0.1125453E+00
         25   -1    0    0    0    0  0.00000000000E+00  0.00000000000E+00  0.99999998245E-14  0.12509000000E+03  0.12509000000E+03 0.  0.
        -11    1    3    3    0    0 -0.25531144139E+02  0.23065485106E+02 -0.23227042881E+02  0.41513268306E+02  0.51100000000E-03 0.  1.
         23    2    1    0    0    0  0.10109142427E+02 -0.18745298570E+02 -0.18887171838E+02  0.96624121494E+02  0.92335879350E+02 0.  0.
         11    1    3    3    0    0  0.35640286566E+02 -0.41810783676E+02  0.43398710431E+01  0.55110853188E+02  0.51100000000E-03 0. -1.
         22    1    1    0    0    0 -0.10109142427E+02  0.18745298570E+02  0.18887171838E+02  0.28465878506E+02  0.00000000000E+00 0. -1.
</event>
<event>
 5    1  0.1046082E-009  0.9118800E+02  0.7561462E-02  0.1125453E+00
         25   -1    0    0    0    0  0.00000000000E+00  0.00000000000E+00  0.99999998245E-14  0.12509000000E+03  0.12509000000E+03 0.  0.
        -11    1    3    3    0    0  0.75655795407E+01 -0.51346763220E+01 -0.52171312143E+02  0.52966486628E+02  0.51100000000E-03 0.  1.
         23    2    1    0    0    0  0.83466550968E+01  0.21367786512E+02 -0.19999646917E+02  0.94655893663E+02  0.89629812990E+02 0.  0.
         11    1    3    3    0    0  0.78107555613E+00  0.26502462834E+02  0.32171665226E+02  0.41689407036E+02  0.51100000000E-03 0. -1.
         22    1    1    0    0    0 -0.83466550968E+01 -0.21367786512E+02  0.19999646917E+02  0.30434106337E+02  0.00000000000E+00 0.  1.
</event>
<event>
 5    1  0.1046082E-009  0.9118800E+02  0.7561462E-02  0.1125453E+00
         25   -1    0    0    0    0  0.00000000000E+00  0.00000000000E+00  0.99999998245E-14  0.12509000000E+03  0.12509000000E+03 0.  0.
        -11    1    3    3    0    0 -0.35740747095E+02 -0.46655205100E+01 -0.71181701134E+01  0.36740120176E+02  0.51100000000E-03 0. -1.
         23    2    1    0    0    0  0.23231407401E+02  0.12796489334E+02 -0.33196860367E+01  0.98360451847E+02  0.94658912644E+02 0.  0.
         11    1    3    3    0    0  0.58972154496E+02  0.17462009844E+02  0.37984840768E+01  0.61620331671E+02  0.51100000000E-03 0.  1.
         22    1    1    0    0    0 -0.23231407401E+02 -0.12796489334E+02  0.33196860367E+01  0.26729548153E+02  0.00000000000E+00 0.  1.
</event>
<event>
 5    1  0.1046082E-009  0.9118800E+02  0.7561462E-02  0.1125453E+00
         25   -1    0    0    0    0  0.00000000000E+00  0.00000000000E+00  0.99999998245E-14  0.12509000000E+03  0.12509000000E+03 0.  0.
        -11    1    3    3    0    0 -0.28474715436E+02  0.31995832870E+02 -0.40851522729E+02  0.59189438667E+02  0.51100000000E-03 0.  1.
         23    2    1    0    0    0 -0.29772778493E+00  0.21571267285E+02 -0.19047596565E+02  0.96311203135E+02  0.91910982479E+02 0.  0.
         11    1    3    3    0    0  0.28176987651E+02 -0.10424565585E+02  0.21803926164E+02  0.37121764467E+02  0.51100000000E-03 0. -1.
         22    1    1    0    0    0  0.29772778493E+00 -0.21571267285E+02  0.19047596565E+02  0.28778796865E+02  0.00000000000E+00 0.  1.
</event>
<event>
 5    1  0.1046082E-009  0.9118800E+02  0.7561462E-02  0.1125453E+00
         25   -1    0    0    0    0  0.00000000000E+00  0.00000000000E+00  0.99999998245E-14  0.12509000000E+03  0.12509000000E+03 0.  0.
        -11    1    3    3    0    0 -0.23324468716E+02 -0.48451323162E+02 -0.38451764336E+01  0.53910545713E+02  0.51100000000E-03 0. -1.
         23    2    1    0    0    0 -0.39044337145E+01 -0.37630366074E+02  0.16285064162E+02  0.83901501990E+02  0.73095620033E+02 0.  0.
         11    1    3    3    0    0  0.19420035001E+02  0.10820957087E+02  0.20130240596E+02  0.29990956278E+02  0.51100000000E-03 0.  1.
         22    1    1    0    0    0  0.39044337145E+01  0.37630366074E+02 -0.16285064162E+02  0.41188498010E+02  0.00000000000E+00 0. -1.
</event>
<event>
 5    1  0.1046082E-009  0.9118800E+02  0.7561462E-02  0.1125453E+00
         25   -1    0    0    0    0  0.00000000000E+00  0.00000000000E+00  0.99999998245E-14  0.12509000000E+03  0.12509000000E+03 0.  0.
        -11    1    3    3    0    0 -0.24301078217E+02  0.17385011114E+02  0.26476282359E+02  0.39922105928E+02  0.51100000000E-03 0.  1.
         23    2    1    0    0    0  0.87606991757E+01 -0.25233105058E+02  0.53603071566E+01  0.97846792888E+02  0.93977670458E+02 0.  0.
         11    1    3    3    0    0  0.33061777393E+02 -0.42618116172E+02 -0.21115975202E+02  0.57924686960E+02  0.51100000000E-03 0. -1.
         22    1    1    0    0    0 -0.87606991757E+01  0.25233105058E+02 -0.53603071566E+01  0.27243207112E+02  0.00000000000E+00 0. -1.
</event>
<event>
 5    1  0.1046082E-009  0.9118800E+02  0.7561462E-02  0.1125453E+00
         25   -1    0    0    0    0  0.00000000000E+00  0.00000000000E+00  0.99999998245E-14  0.12509000000E+03  0.12509000000E+03 0.  0.
        -11    1    3    3    0    0 -0.24562180552E+02  0.12900280683E+02 -0.12191867144E+02  0.30304448186E+02  0.51100000000E-03 0.  1.
         23    2    1    0    0    0  0.32739507126E+02  0.72331560917E+01 -0.15853295353E+02  0.88001985124E+02  0.79804940563E+02 0.  0.
         11    1    3    3    0    0  0.57301687678E+02 -0.56671245917E+01 -0.36614282094E+01  0.57697536937E+02  0.51100000000E-03 0. -1.
         22    1    1    0    0    0 -0.32739507126E+02 -0.72331560917E+01  0.15853295353E+02  0.37088014876E+02  0.00000000000E+00 0. -1.
</event>
<event>
 5    1  0.1046082E-009  0.9118800E+02  0.7561462E-02  0.1125453E+00
         25   -1    0    0    0    0  0.00000000000E+00  0.00000000000E+00  0.99999998245E-14  0.12509000000E+03  0.12509000000E+03 0.  0.
        -11    1    3    3    0    0 -0.24521045723E+02 -0.53034041008E+02 -0.97103859160E+00  0.58436581909E+02  0.51100000000E-03 0. -1.
         23    2    1    0    0    0 -0.16483465634E+02 -0.21379909352E+02 -0.15254211183E+02  0.94081999064E+02  0.88825257815E+02 0.  0.
         11    1    3    3    0    0  0.80375800891E+01  0.31654131656E+02 -0.14283172592E+02  0.35645417155E+02  0.51100000000E-03 0.  1.
         22    1    1    0    0    0  0.16483465634E+02  0.21379909352E+02  0.15254211183E+02  0.31008000936E+02  0.00000000000E+00 0. -1.
</event>
<event>
 5    1  0.1046082E-009  0.9118800E+02  0.7561462E-02  0.1125453E+00
         25   -1    0    0    0    0  0.00000000000E+00  0.00000000000E+00  0.99999998245E-14  0.12509000000E+03  0.12509000000E+03 0.  0.
        -11    1    3    3    0    0  0.53542563354E+02  0.13487078643E+02  0.64872375330E+00  0.55218911830E+02  0.51100000000E-03 0. -1.
         23    2    1    0    0    0  0.19001843740E+02  0.73125010251E+01  0.21047827653E+02  0.95805980711E+02  0.91220787951E+02 0.  0.
         11    1    3    3    0    0 -0.34540719614E+02 -0.61745776184E+01  0.20399103900E+02  0.40587068882E+02  0.51100000000E-03 0.  1.
         22    1    1    0    0    0 -0.19001843740E+02 -0.73125010251E+01 -0.21047827653E+02  0.29284019289E+02  0.00000000000E+00 0. -1.
</event>
<event>
 5    1  0.1046082E-009  0.9118800E+02  0.7561462E-02  0.1125453E+00
         25   -1    0    0    0    0  0.00000000000E+00  0.00000000000E+00  0.99999998245E-14  0.12509000000E+03  0.12509000000E+03 0.  0.
        -11    1    3    3    0    0  0.21389527145E+02 -0.53848584405E+02  0.51374648099E+01  0.58168509168E+02  0.51100000000E-03 0. -1.
         23    2    1    0    0    0 -0.36365481564E+01 -0.27977458219E+02 -0.67601715448E+01  0.96078578625E+02  0.91593835493E+02 0.  0.
         11    1    3    3    0    0 -0.25026075302E+02  0.25871126186E+02 -0.11897636355E+02  0.37910069457E+02  0.51100000000E-03 0.  1.
         22    1    1    0    0    0  0.36365481564E+01  0.27977458219E+02  0.67601715448E+01  0.29011421375E+02  0.00000000000E+00 0. -1.
</event>
<event>
 5    1  0.1046082E-009  0.9118800E+02  0.7561462E-02  0.1125453E+00
         25   -1    0    0    0    0  0.00000000000E+00  0.00000000000E+00  0.99999998245E-14  0.12509000000E+03  0.12509000000E+03 0.  0.
        -11    1    3    3    0    0 -0.34960416166E+02  0.50348653932E+02  0.11192023963E+02  0.62309542222E+02  0.51100000000E-03 0.  1.
         23    2    1    0    0    0 -0.18888762528E+02  0.23090907895E+02  0.23479681799E+01  0.95165288944E+02  0.90337942681E+02 0.  0.
         11    1    3    3    0    0  0.16071653638E+02 -0.27257746037E+02 -0.88440557831E+01  0.32855746722E+02  0.51100000000E-03 0. -1.
         22    1    1    0    0    0  0.18888762528E+02 -0.23090907895E+02 -0.23479681799E+01  0.29924711056E+02  0.00000000000E+00 0.  1.
</event>
<event>
 5    1  0.1046082E-009  0.9118800E+02  0.7561462E-02  0.1125453E+00
         25   -1    0    0    0    0  0.00000000000E+00  0.00000000000E+00  0.99999998245E-14  0.12509000000E+03  0.12509000000E+03 0.  0.
        -11    1    3    3    0    0  0.40119661730E+01 -0.34866014918E+02  0.37310690571E+02  0.51223261317E+02  0.51100000000E-03 0.  1.
         23    2    1    0    0    0 -0.54060224933E+01  0.82961252715E+01  0.26636918712E+02  0.96672114573E+02  0.92400874042E+02 0.  0.
         11    1    3    3    0    0 -0.94179886663E+01  0.43162140190E+02 -0.10673771859E+02  0.45448853255E+02  0.51100000000E-03 0. -1.
         22    1    1    0    0    0  0.54060224933E+01 -0.82961252715E+01 -0.26636918712E+02  0.28417885427E+02  0.00000000000E+00 0.  1.
</event>
<event>
 5    1  0.1046082E-009  0.9118800E+02  0.7561462E-02  0.1125453E+00
         25   -1    0    0    0    0  0.00000000000E+00  0.00000000000E+00  0.99999998245E-14  0.12509000000E+03  0.12509000000E+03 0.  0.
        -11    1    3    3    0    0  0.10159409334E+01 -0.22847596978E+02 -0.19305128687E+02  0.29928795792E+02  0.51100000000E-03 0.  1.
         23    2    1    0    0    0 -0.20780710137E+02  0.12285733177E+02  0.24867410785E+02  0.90432168668E+02  0.83527312044E+02 0.  0.
         11    1    3    3    0    0 -0.21796651071E+02  0.35133330155E+02  0.44172539472E+02  0.60503372876E+02  0.51100000000E-03 0. -1.
         22    1    1    0    0    0  0.20780710137E+02 -0.12285733177E+02 -0.24867410785E+02  0.34657831332E+02  0.00000000000E+00 0. -1.
</event>
<event>
 5    1  0.1046082E-009  0.9118800E+02  0.7561462E-02  0.1125453E+00
         25   -1    0    0    0    0  0.00000000000E+00  0.00000000000E+00  0.99999998245E-14  0.12509000000E+03  0.12509000000E+03 0.  0.
        -11    1    3    3    0    0  0.47526515806E+02  0.36667074202E+02 -0.11699595489E+02  0.61156557866E+02  0.51100000000E-03 0.  1.
         23    2    1    0    0    0  0.17307640173E+02  0.23981991370E+02 -0.15143859058E+01  0.95476089702E+02  0.90767284975E+02 0.  0.
         11    1    3    3    0    0 -0.30218875633E+02 -0.12685082831E+02  0.10185209583E+02  0.34319531836E+02  0.51100000000E-03 0. -1.
         22    1    1    0    0    0 -0.17307640173E+02 -0.23981991370E+02  0.15143859058E+01  0.29613910298E+02  0.00000000000E+00 0.  1.
</event>
<event>
 5    1  0.1046082E-009  0.9118800E+02  0.7561462E-02  0.1125453E+00
         25   -1    0    0    0    0  0.00000000000E+00  0.00000000000E+00  0.99999998245E-14  0.12509000000E+03  0.12509000000E+03 0.  0.
        -11    1    3    3    0    0  0.21284533789E+02 -0.45879928889E+02 -0.34682639876E+02  0.61326052886E+02  0.51100000000E-03 0. -1.
         23    2    1    0    0    0  0.59939743040E+01 -0.22095165825E+02 -0.64007946173E+01  0.10131828882E+03  0.98490108115E+02 0.  0.
         11    1    3    3    0    0 -0.15290559485E+02  0.23784763065E+02  0.28281845258E+02  0.39992235932E+02  0.51100000000E-03 0.  1.
         22    1    1    0    0    0 -0.59939743040E+01  0.22095165825E+02  0.64007946173E+01  0.23771711182E+02  0.00000000000E+00 0. -1.
</event>
<event>
 5    1  0.1046082E-009  0.9118800E+02  0.7561462E-02  0.1125453E+00
         25   -1    0    0    0    0  0.00000000000E+00  0.00000000000E+00  0.99999998245E-14  0.12509000000E+03  0.12509000000E+03 0.  0.
        -11    1    3    3    0    0 -0.33107877374E+02 -0.51522998054E-01 -0.50016665078E+02  0.59981672072E+02  0.51100000000E-03 0.  1.
         23    2    1    0    0    0 -0.77085804029E+01  0.79125856130E+01 -0.29500070056E+02  0.93589438795E+02  0.88128869832E+02 0.  0.
         11    1    3    3    0    0  0.25399296971E+02  0.79641086110E+01  0.20516595022E+02  0.33607766723E+02  0.51100000000E-03 0. -1.
         22    1    1    0    0    0  0.77085804029E+01 -0.79125856130E+01  0.29500070056E+02  0.31500561205E+02  0.00000000000E+00 0.  1.
</event>
<event>
 5    1  0.1046082E-009  0.9118800E+02  0.7561462E-02  0.1125453E+00
         25   -1    0    0    0    0  0.00000000000E+00  0.00000000000E+00  0.99999998245E-14  0.12509000000E+03  0.12509000000E+03 0.  0.
        -11    1    3    3    0    0  0.26047557867E+02  0.10148138106E+02  0.45997057552E+02  0.53825544879E+02  0.51100000000E-03 0.  1.
         23    2    1    0    0    0  0.27554412395E+02  0.88660421176E+01  0.39999206533E+01  0.95869258899E+02  0.91307519359E+02 0.  0.
         11    1    3    3    0    0  0.15068545274E+01 -0.12820959886E+01 -0.41997136898E+02  0.42043714020E+02  0.51100000000E-03 0. -1.
         22    1    1    0    0    0 -0.27554412395E+02 -0.88660421176E+01 -0.39999206533E+01  0.29220741101E+02  0.00000000000E+00 0.  1.
</event>
<event>
 5    1  0.1046082E-009  0.9118800E+02  0.7561462E-02  0.1125453E+00
         25   -1    0    0    0    0  0.00000000000E+00  0.00000000000E+00  0.99999998245E-14  0.12509000000E+03  0.12509000000E+03 0.  0.
        -11    1    3    3    0    0 -0.96471926118E+01 -0.29317148437E+02  0.20413689779E+02  0.37003813971E+02  0.51100000000E-03 0.  1.
         23    2    1    0    0    0  0.24304553919E+02  0.13427228112E+02 -0.44177661172E+01  0.96973839995E+02  0.92808443527E+02 0.  0.
         11    1    3    3    0    0  0.33951746531E+02  0.42744376549E+02 -0.24831455896E+02  0.59970026023E+02  0.51100000000E-03 0. -1.
         22    1    1    0    0    0 -0.24304553919E+02 -0.13427228112E+02  0.44177661172E+01  0.28116160005E+02  0.00000000000E+00 0. -1.
</event>
<event>
 5    1  0.1046082E-009  0.9118800E+02  0.7561462E-02  0.1125453E+00
         25   -1    0    0    0    0  0.00000000000E+00  0.00000000000E+00  0.99999998245E-14  0.12509000000E+03  0.12509000000E+03 0.  0.
        -11    1    3    3    0    0 -0.27153905365E+02  0.29387829333E+00 -0.19918328839E+02  0.33677303411E+02  0.51100000000E-03 0.  1.
         23    2    1    0    0    0  0.54049993548E+01  0.69178366545E+01  0.30105762642E+02  0.93730353538E+02  0.88328657570E+02 0.  0.
         11    1    3    3    0    0  0.32558904720E+02  0.66239583611E+01  0.50024091480E+02  0.60053050127E+02  0.51100000000E-03 0. -1.
         22    1    1    0    0    0 -0.54049993548E+01 -0.69178366545E+01 -0.30105762642E+02  0.31359646462E+02  0.00000000000E+00 0. -1.
</event>
<event>
 5    1  0.1046082E-009  0.9118800E+02  0.7561462E-02  0.1125453E+00
         25   -1    0    0    0    0  0.00000000000E+00  0.00000000000E+00  0.99999998245E-14  0.12509000000E+03  0.12509000000E+03 0.  0.
        -11    1    3    3    0    0  0.52354754661E+02  0.11958399241E+02  0.69129437144E+01  0.54146213525E+02  0.51100000000E-03 0.  1.
         23    2    1    0    0    0  0.18559572181E+02  0.20740360685E+02 -0.13031365909E+02  0.94358309869E+02  0.89213529596E+02 0.  0.
         11    1    3    3    0    0 -0.33795182481E+02  0.87819614442E+01 -0.19944309624E+02  0.40212096344E+02  0.51100000000E-03 0. -1.
         22    1    1    0    0    0 -0.18559572181E+02 -0.20740360685E+02  0.13031365909E+02  0.30731690131E+02  0.00000000000E+00 0.  1.
</event>
<event>
 5    1  0.1046082E-009  0.9118800E+02  0.7561462E-02  0.1125453E+00
         25   -1    0    0    0    0  0.00000000000E+00  0.00000000000E+00  0.99999998245E-14  0.12509000000E+03  0.12509000000E+03 0.  0.
        -11    1    3    3    0    0  0.55313026213E+01 -0.40268474534E+02  0.46856158694E+01  0.40915771364E+02  0.51100000000E-03 0.  1.
         23    2    1    0    0    0 -0.22953923519E+02  0.39535792026E+01  0.18549346020E+02  0.95314311407E+02  0.90544057385E+02 0.  0.
         11    1    3    3    0    0 -0.28485226140E+02  0.44222053736E+02  0.13863730150E+02  0.54398540043E+02  0.51100000000E-03 0. -1.
         22    1    1    0    0    0  0.22953923519E+02 -0.39535792026E+01 -0.18549346020E+02  0.29775688593E+02  0.00000000000E+00 0. -1.
</event>
<event>
 5    1  0.1046082E-009  0.9118800E+02  0.7561462E-02  0.1125453E+00
         25   -1    0    0    0    0  0.00000000000E+00  0.00000000000E+00  0.99999998245E-14  0.12509000000E+03  0.12509000000E+03 0.  0.
        -11    1    3    3    0    0 -0.79119762312E+01 -0.17777148000E+02  0.15498136818E+02  0.24876064882E+02  0.51100000000E-03 0. -1.
         23    2    1    0    0    0  0.18594424265E+02  0.13291299197E+02 -0.30879475783E+02  0.86671862711E+02  0.77692074969E+02 0.  0.
         11    1    3    3    0    0  0.26506400496E+02  0.31068447197E+02 -0.46377612601E+02  0.61795797829E+02  0.51100000000E-03 0.  1.
         22    1    1    0    0    0 -0.18594424265E+02 -0.13291299197E+02  0.30879475783E+02  0.38418137289E+02  0.00000000000E+00 0.  1.
</event>
<event>
 5    1  0.1046082E-009  0.9118800E+02  0.7561462E-02  0.1125453E+00
         25   -1    0    0    0    0  0.00000000000E+00  0.00000000000E+00  0.99999998245E-14  0.12509000000E+03  0.12509000000E+03 0.  0.
        -11    1    3    3    0    0  0.20174205889E+02  0.21011810825E+02 -0.23711533605E+02  0.37559707182E+02  0.51100000000E-03 0.  1.
         23    2    1    0    0    0 -0.77552406760E+01 -0.25013718062E+02  0.47770801463E+01  0.98469512702E+02  0.94802924996E+02 0.  0.
         11    1    3    3    0    0 -0.27929446565E+02 -0.46025528887E+02  0.28488613751E+02  0.60909805520E+02  0.51100000000E-03 0. -1.
         22    1    1    0    0    0  0.77552406760E+01  0.25013718062E+02 -0.47770801463E+01  0.26620487298E+02  0.00000000000E+00 0. -1.
</event>
<event>
 5    1  0.1046082E-009  0.9118800E+02  0.7561462E-02  0.1125453E+00
         25   -1    0    0    0    0  0.00000000000E+00  0.00000000000E+00  0.99999998245E-14  0.12509000000E+03  0.12509000000E+03 0.  0.
        -11    1    3    3    0    0  0.20526575014E+00  0.24979944878E+02  0.22969532880E+02  0.33935810306E+02  0.51100000000E-03 0.  1.
         23    2    1    0    0    0  0.11391543602E+02 -0.12532307410E+02 -0.24401248194E+02  0.95387358567E+02  0.90644918591E+02 0.  0.
         11    1    3    3    0    0  0.11186277852E+02 -0.37512252288E+02 -0.47370781074E+02  0.61451548261E+02  0.51100000000E-03 0. -1.
         22    1    1    0    0    0 -0.11391543602E+02  0.12532307410E+02  0.24401248194E+02  0.29702641433E+02  0.00000000000E+00 0. -1.
</event>
<event>
 5    1  0.1046082E-009  0.9118800E+02  0.7561462E-02  0.1125453E+00
         25   -1    0    0    0    0  0.00000000000E+00  0.00000000000E+00  0.99999998245E-14  0.12509000000E+03  0.12509000000E+03 0.  0.
        -11    1    3    3    0    0 -0.40841305538E+01  0.63569412912E+01 -0.43761430029E+02  0.44408935851E+02  0.51100000000E-03 0.  1.
         23    2    1    0    0    0  0.27449135290E+02  0.19299630204E+02 -0.19110566592E+02  0.86474659659E+02  0.77373911970E+02 0.  0.
         11    1    3    3    0    0  0.31533265844E+02  0.12942688913E+02  0.24650863437E+02  0.42065723808E+02  0.51100000000E-03 0. -1.
         22    1    1    0    0    0 -0.27449135290E+02 -0.19299630204E+02  0.19110566592E+02  0.38615340341E+02  0.00000000000E+00 0.  1.
</event>
<event>
 5    1  0.1046082E-009  0.9118800E+02  0.7561462E-02  0.1125453E+00
         25   -1    0    0    0    0  0.00000000000E+00  0.00000000000E+00  0.99999998245E-14  0.12509000000E+03  0.12509000000E+03 0.  0.
        -11    1    3    3    0    0 -0.46416408436E+02  0.17510236521E+01 -0.32519163564E+02  0.56701367312E+02  0.51100000000E-03 0.  1.
         23    2    1    0    0    0 -0.23966975373E+02  0.14714705673E+02 -0.17833381841E+01  0.96909887036E+02  0.92722205748E+02 0.  0.
         11    1    3    3    0    0  0.22449433063E+02  0.12963682020E+02  0.30735825380E+02  0.40208519724E+02  0.51100000000E-03 0. -1.
         22    1    1    0    0    0  0.23966975373E+02 -0.14714705673E+02  0.17833381841E+01  0.28180112964E+02  0.00000000000E+00 0.  1.
</event>
<event>
 5    1  0.1046082E-009  0.9118800E+02  0.7561462E-02  0.1125453E+00
         25   -1    0    0    0    0  0.00000000000E+00  0.00000000000E+00  0.99999998245E-14  0.12509000000E+03  0.12509000000E+03 0.  0.
        -11    1    3    3    0    0 -0.48983172482E+01 -0.21750621297E+02 -0.52176231238E+02  0.56740128173E+02  0.51100000000E-03 0.  1.
         23    2    1    0    0    0 -0.30277818265E+01  0.85087942062E+01 -0.28459377116E+02  0.95231949369E+02  0.90430199564E+02 0.  0.
         11    1    3    3    0    0  0.18705354218E+01  0.30259415503E+02  0.23716854121E+02  0.38491821196E+02  0.51100000000E-03 0. -1.
         22    1    1    0    0    0  0.30277818265E+01 -0.85087942062E+01  0.28459377116E+02  0.29858050631E+02  0.00000000000E+00 0.  1.
</event>
<event>
 5    1  0.1046082E-009  0.9118800E+02  0.7561462E-02  0.1125453E+00
         25   -1    0    0    0    0  0.00000000000E+00  0.00000000000E+00  0.99999998245E-14  0.12509000000E+03  0.12509000000E+03 0.  0.
        -11    1    3    3    0    0 -0.22769765123E+02  0.31078848974E+02 -0.10283251601E+02  0.39876087083E+02  0.51100000000E-03 0.  1.
         23    2    1    0    0    0 -0.81160423654E+01 -0.93907138444E+01  0.26070711252E+02  0.96215484673E+02  0.91780618081E+02 0.  0.
         11    1    3    3    0    0  0.14653722757E+02 -0.40469562819E+02  0.36353962853E+02  0.56339397590E+02  0.51100000000E-03 0. -1.
         22    1    1    0    0    0  0.81160423654E+01  0.93907138444E+01 -0.26070711252E+02  0.28874515327E+02  0.00000000000E+00 0. -1.
</event>
<event>
 5    1  0.1046082E-009  0.9118800E+02  0.7561462E-02  0.1125453E+00
         25   -1    0    0    0    0  0.00000000000E+00  0.00000000000E+00  0.99999998245E-14  0.12509000000E+03  0.12509000000E+03 0.  0.
        -11    1    3    3    0    0  0.12910754910E+02  0.18220633145E+02 -0.29037262823E+02  0.36631157463E+02  0.51100000000E-03 0.  1.
         23    2    1    0    0    0  0.14815444891E+02 -0.62724137321E+01  0.24639655028E+02  0.95662917555E+02  0.91024395707E+02 0.  0.
         11    1    3    3    0    0  0.19046899806E+01 -0.24493046877E+02  0.53676917852E+02  0.59031760092E+02  0.51100000000E-03 0. -1.
         22    1    1    0    0    0 -0.14815444891E+02  0.62724137321E+01 -0.24639655028E+02  0.29427082445E+02  0.00000000000E+00 0. -1.
</event>
<event>
 5    1  0.1046082E-009  0.9118800E+02  0.7561462E-02  0.1125453E+00
         25   -1    0    0    0    0  0.00000000000E+00  0.00000000000E+00  0.99999998245E-14  0.12509000000E+03  0.12509000000E+03 0.  0.
        -11    1    3    3    0    0  0.13901095515E+02  0.17765529237E+02  0.33498125951E+02  0.40385380128E+02  0.51100000000E-03 0.  1.
         23    2    1    0    0    0 -0.21449720433E+02  0.31673206247E+02  0.83706716749E+01  0.85931978537E+02  0.76491530841E+02 0.  0.
         11    1    3    3    0    0 -0.35350815948E+02  0.13907677010E+02 -0.25127454276E+02  0.45546598409E+02  0.51100000000E-03 0. -1.
         22    1    1    0    0    0  0.21449720433E+02 -0.31673206247E+02 -0.83706716749E+01  0.39158021463E+02  0.00000000000E+00 0. -1.
</event>
<event>
 5    1  0.1046082E-009  0.9118800E+02  0.7561462E-02  0.1125453E+00
         25   -1    0    0    0    0  0.00000000000E+00  0.00000000000E+00  0.99999998245E-14  0.12509000000E+03  0.12509000000E+03 0.  0.
        -11    1    3    3    0    0 -0.41708530562E+02 -0.22516832341E+02 -0.17233953698E+02  0.50434298058E+02  0.51100000000E-03 0. -1.
         23    2    1    0    0    0  0.64575968732E+01 -0.21491385829E+02 -0.13826840803E+02  0.98731666426E+02  0.95148201278E+02 0.  0.
         11    1    3    3    0    0  0.48166127435E+02  0.10254465119E+01  0.34071128948E+01  0.48297368367E+02  0.51100000000E-03 0.  1.
         22    1    1    0    0    0 -0.64575968732E+01  0.21491385829E+02  0.13826840803E+02  0.26358333574E+02  0.00000000000E+00 0. -1.
</event>
<event>
 5    1  0.1046082E-009  0.9118800E+02  0.7561462E-02  0.1125453E+00
         25   -1    0    0    0    0  0.00000000000E+00  0.00000000000E+00  0.99999998245E-14  0.12509000000E+03  0.12509000000E+03 0.  0.
        -11    1    3    3    0    0 -0.88709763214E+01  0.15911486004E+02  0.28966292826E+02  0.34218645913E+02  0.51100000000E-03 0.  1.
         23    2    1    0    0    0 -0.50997047937E+01 -0.24611047600E+02 -0.16333565013E+02  0.95115077164E+02  0.90268388182E+02 0.  0.
         11    1    3    3    0    0  0.37712715277E+01 -0.40522533604E+02 -0.45299857840E+02  0.60896431251E+02  0.51100000000E-03 0. -1.
         22    1    1    0    0    0  0.50997047937E+01  0.24611047600E+02  0.16333565013E+02  0.29974922836E+02  0.00000000000E+00 0. -1.
</event>
<event>
 5    1  0.1046082E-009  0.9118800E+02  0.7561462E-02  0.1125453E+00
         25   -1    0    0    0    0  0.00000000000E+00  0.00000000000E+00  0.99999998245E-14  0.12509000000E+03  0.12509000000E+03 0.  0.
        -11    1    3    3    0    0  0.36794134399E+02  0.16875740401E+02 -0.22404294565E+02  0.46266092935E+02  0.51100000000E-03 0. -1.
         23    2    1    0    0    0 -0.10240947402E+02  0.25639382866E+02 -0.10340569901E+02  0.95608101430E+02  0.90949033616E+02 0.  0.
         11    1    3    3    0    0 -0.47035081801E+02  0.87636424645E+01  0.12063724664E+02  0.49342008495E+02  0.51100000000E-03 0.  1.
         22    1    1    0    0    0  0.10240947402E+02 -0.25639382866E+02  0.10340569901E+02  0.29481898570E+02  0.00000000000E+00 0.  1.
</event>
<event>
 5    1  0.1046082E-009  0.9118800E+02  0.7561462E-02  0.1125453E+00
         25   -1    0    0    0    0  0.00000000000E+00  0.00000000000E+00  0.99999998245E-14  0.12509000000E+03  0.12509000000E+03 0.  0.
        -11    1    3    3    0    0 -0.30244840715E+02  0.25411803265E+02  0.62315731870E+01  0.39991782153E+02  0.51100000000E-03 0. -1.
         23    2    1    0    0    0  0.51742793981E+01 -0.83071301384E+01  0.29399055130E+02  0.94104745104E+02  0.88857284620E+02 0.  0.
         11    1    3    3    0    0  0.35419120114E+02 -0.33718933404E+02  0.23167481943E+02  0.54112962951E+02  0.51100000000E-03 0.  1.
         22    1    1    0    0    0 -0.51742793981E+01  0.83071301384E+01 -0.29399055130E+02  0.30985254896E+02  0.00000000000E+00 0.  1.
</event>
<event>
 5    1  0.1046082E-009  0.9118800E+02  0.7561462E-02  0.1125453E+00
         25   -1    0    0    0    0  0.00000000000E+00  0.00000000000E+00  0.99999998245E-14  0.12509000000E+03  0.12509000000E+03 0.  0.
        -11    1    3    3    0    0 -0.22495670844E+02  0.24413475258E+02  0.17802714021E+02  0.37669743929E+02  0.51100000000E-03 0. -1.
         23    2    1    0    0    0  0.13678838404E+02  0.74149971225E+01 -0.24626344954E+02  0.95960124130E+02  0.91431918688E+02 0.  0.
         11    1    3    3    0    0  0.36174509248E+02 -0.16998478135E+02 -0.42429058975E+02  0.58290380201E+02  0.51100000000E-03 0.  1.
         22    1    1    0    0    0 -0.13678838404E+02 -0.74149971225E+01  0.24626344954E+02  0.29129875870E+02  0.00000000000E+00 0.  1.
</event>
<event>
 5    1  0.1046082E-009  0.9118800E+02  0.7561462E-02  0.1125453E+00
         25   -1    0    0    0    0  0.00000000000E+00  0.00000000000E+00  0.99999998245E-14  0.12509000000E+03  0.12509000000E+03 0.  0.
        -11    1    3    3    0    0 -0.21869108073E+02  0.31509688280E+02  0.24203079049E+02  0.45353140786E+02  0.51100000000E-03 0.  1.
         23    2    1    0    0    0  0.15872149973E+01 -0.12393280696E+02  0.27136007777E+02  0.95215670285E+02  0.90407678279E+02 0.  0.
         11    1    3    3    0    0  0.23456323070E+02 -0.43902968976E+02  0.29329287282E+01  0.49862529499E+02  0.51100000000E-03 0. -1.
         22    1    1    0    0    0 -0.15872149973E+01  0.12393280696E+02 -0.27136007777E+02  0.29874329715E+02  0.00000000000E+00 0.  1.
</event>
<event>
 5    1  0.1046082E-009  0.9118800E+02  0.7561462E-02  0.1125453E+00
         25   -1    0    0    0    0  0.00000000000E+00  0.00000000000E+00  0.99999998245E-14  0.12509000000E+03  0.12509000000E+03 0.  0.
        -11    1    3    3    0    0 -0.42420802220E+02  0.28991450677E+01 -0.81823787910E+01  0.43299894066E+02  0.51100000000E-03 0.  1.
         23    2    1    0    0    0  0.72743214814E+00 -0.20638786166E+02  0.16830095970E+02  0.98449039388E+02  0.94775907140E+02 0.  0.
         11    1    3    3    0    0  0.43148234369E+02 -0.23537931234E+02  0.25012474761E+02  0.55149145323E+02  0.51100000000E-03 0. -1.
         22    1    1    0    0    0 -0.72743214814E+00  0.20638786166E+02 -0.16830095970E+02  0.26640960612E+02  0.00000000000E+00 0. -1.
</event>
<event>
 5    1  0.1046082E-009  0.9118800E+02  0.7561462E-02  0.1125453E+00
         25   -1    0    0    0    0  0.00000000000E+00  0.00000000000E+00  0.99999998245E-14  0.12509000000E+03  0.12509000000E+03 0.  0.
        -11    1    3    3    0    0 -0.20574607850E+02  0.39740516917E+02  0.16363205375E+02  0.47648480179E+02  0.51100000000E-03 0. -1.
         23    2    1    0    0    0 -0.11872349368E+02  0.16110760140E+02 -0.23140859819E+02  0.94495741307E+02  0.89406020268E+02 0.  0.
         11    1    3    3    0    0  0.87022584823E+01 -0.23629756777E+02 -0.39504065194E+02  0.46847261127E+02  0.51100000000E-03 0.  1.
         22    1    1    0    0    0  0.11872349368E+02 -0.16110760140E+02  0.23140859819E+02  0.30594258693E+02  0.00000000000E+00 0.  1.
</event>
<event>
 5    1  0.1046082E-009  0.9118800E+02  0.7561462E-02  0.1125453E+00
         25   -1    0    0    0    0  0.00000000000E+00  0.00000000000E+00  0.99999998245E-14  0.12509000000E+03  0.12509000000E+03 0.  0.
        -11    1    3    3    0    0  0.25528451206E+02 -0.16167445364E+02 -0.25450237562E+02  0.39506995618E+02  0.51100000000E-03 0.  1.
         23    2    1    0    0    0  0.86270214384E+01  0.32914801664E+01  0.26243290178E+02  0.97269690513E+02  0.93206346739E+02 0.  0.
         11    1    3    3    0    0 -0.16901429768E+02  0.19458925531E+02  0.51693527740E+02  0.57762694894E+02  0.51100000000E-03 0. -1.
         22    1    1    0    0    0 -0.86270214384E+01 -0.32914801664E+01 -0.26243290178E+02  0.27820309487E+02  0.00000000000E+00 0.  1.
</event>
<event>
 5    1  0.1046082E-009  0.9118800E+02  0.7561462E-02  0.1125453E+00
         25   -1    0    0    0    0  0.00000000000E+00  0.00000000000E+00  0.99999998245E-14  0.12509000000E+03  0.12509000000E+03 0.  0.
        -11    1    3    3    0    0  0.33064882239E+01 -0.55004065280E+01  0.33744229624E+02  0.34349095614E+02  0.51100000000E-03 0. -1.
         23    2    1    0    0    0 -0.32509417064E+01  0.94251320656E+01 -0.26508627088E+02  0.96768470265E+02  0.92531226032E+02 0.  0.
         11    1    3    3    0    0 -0.65574299303E+01  0.14925538594E+02 -0.60252856712E+02  0.62419374651E+02  0.51100000000E-03 0.  1.
         22    1    1    0    0    0  0.32509417064E+01 -0.94251320656E+01  0.26508627088E+02  0.28321529735E+02  0.00000000000E+00 0.  1.
</event>
<event>
 5    1  0.1046082E-009  0.9118800E+02  0.7561462E-02  0.1125453E+00
         25   -1    0    0    0    0  0.00000000000E+00  0.00000000000E+00  0.99999998245E-14  0.12509000000E+03  0.12509000000E+03 0.  0.
        -11    1    3    3    0    0 -0.48727173363E+02 -0.28353360522E+02  0.14164843554E+02  0.58128248469E+02  0.51100000000E-03 0.  1.
         23    2    1    0    0    0 -0.30853348077E+02 -0.44277203924E+01 -0.48685181549E+01  0.93542634587E+02  0.88062410943E+02 0.  0.
         11    1    3    3    0    0  0.17873825286E+02  0.23925640130E+02 -0.19033361708E+02  0.35414386119E+02  0.51100000000E-03 0. -1.
         22    1    1    0    0    0  0.30853348077E+02  0.44277203924E+01  0.48685181549E+01  0.31547365413E+02  0.00000000000E+00 0.  1.
</event>
<event>
 5    1  0.1046082E-009  0.9118800E+02  0.7561462E-02  0.1125453E+00
         25   -1    0    0    0    0  0.00000000000E+00  0.00000000000E+00  0.99999998245E-14  0.12509000000E+03  0.12509000000E+03 0.  0.
        -11    1    3    3    0    0  0.85321454068E+01  0.36096715158E+02 -0.13214849588E+02  0.39375152068E+02  0.51100000000E-03 0. -1.
         23    2    1    0    0    0 -0.21653734459E+02  0.22556597901E+01  0.19953608962E+02  0.95558343634E+02  0.90880571688E+02 0.  0.
         11    1    3    3    0    0 -0.30185879866E+02 -0.33841055368E+02  0.33168458550E+02  0.56183191566E+02  0.51100000000E-03 0.  1.
         22    1    1    0    0    0  0.21653734459E+02 -0.22556597901E+01 -0.19953608962E+02  0.29531656366E+02  0.00000000000E+00 0.  1.
</event>
<event>
 5    1  0.1046082E-009  0.9118800E+02  0.7561462E-02  0.1125453E+00
         25   -1    0    0    0    0  0.00000000000E+00  0.00000000000E+00  0.99999998245E-14  0.12509000000E+03  0.12509000000E+03 0.  0.
        -11    1    3    3    0    0  0.25871902493E+02  0.35901728939E+02  0.43430741714E+02  0.62004183774E+02  0.51100000000E-03 0.  1.
         23    2    1    0    0    0  0.10349393287E+02  0.22052405343E+02  0.18335756523E+02  0.94600354379E+02  0.89552267188E+02 0.  0.
         11    1    3    3    0    0 -0.15522509206E+02 -0.13849323596E+02 -0.25094985191E+02  0.32596170605E+02  0.51100000000E-03 0. -1.
         22    1    1    0    0    0 -0.10349393287E+02 -0.22052405343E+02 -0.18335756523E+02  0.30489645621E+02  0.00000000000E+00 0.  1.
</event>
<event>
 5    1  0.1046082E-009  0.9118800E+02  0.7561462E-02  0.1125453E+00
         25   -1    0    0    0    0  0.00000000000E+00  0.00000000000E+00  0.99999998245E-14  0.12509000000E+03  0.12509000000E+03 0.  0.
        -11    1    3    3    0    0  0.46454611629E+02  0.26922868817E+02 -0.16038724208E+02  0.56036706554E+02  0.51100000000E-03 0.  1.
         23    2    1    0    0    0  0.13462621823E+02  0.88376172839E+01 -0.25590422610E+02  0.94854004978E+02  0.89905877814E+02 0.  0.
         11    1    3    3    0    0 -0.32991989806E+02 -0.18085251533E+02 -0.95516984014E+01  0.38817298424E+02  0.51100000000E-03 0. -1.
         22    1    1    0    0    0 -0.13462621823E+02 -0.88376172839E+01  0.25590422610E+02  0.30235995022E+02  0.00000000000E+00 0.  1.
</event>
<event>
 5    1  0.1046082E-009  0.9118800E+02  0.7561462E-02  0.1125453E+00
         25   -1    0    0    0    0  0.00000000000E+00  0.00000000000E+00  0.99999998245E-14  0.12509000000E+03  0.12509000000E+03 0.  0.
        -11    1    3    3    0    0  0.30177192783E+02 -0.94266980459E+01  0.16085262355E+02  0.35471978597E+02  0.51100000000E-03 0. -1.
         23    2    1    0    0    0 -0.10918480746E+02  0.19631532770E+02 -0.18038415578E+02  0.96280370755E+02  0.91869010311E+02 0.  0.
         11    1    3    3    0    0 -0.41095673529E+02  0.29058230815E+02 -0.34123677932E+02  0.60808392158E+02  0.51100000000E-03 0.  1.
         22    1    1    0    0    0  0.10918480746E+02 -0.19631532770E+02  0.18038415578E+02  0.28809629245E+02  0.00000000000E+00 0.  1.
</event>
<event>
 5    1  0.1046082E-009  0.9118800E+02  0.7561462E-02  0.1125453E+00
         25   -1    0    0    0    0  0.00000000000E+00  0.00000000000E+00  0.99999998245E-14  0.12509000000E+03  0.12509000000E+03 0.  0.
        -11    1    3    3    0    0 -0.23030191246E+02  0.26807147296E+02 -0.17222283297E+02  0.39314372654E+02  0.51100000000E-03 0.  1.
         23    2    1    0    0    0  0.15171956590E+02 -0.14622578539E+02 -0.20404008212E+02  0.95758589857E+02  0.91155778261E+02 0.  0.
         11    1    3    3    0    0  0.38202147835E+02 -0.41429725835E+02 -0.31817249147E+01  0.56444217203E+02  0.51100000000E-03 0. -1.
         22    1    1    0    0    0 -0.15171956590E+02  0.14622578539E+02  0.20404008212E+02  0.29331410143E+02  0.00000000000E+00 0. -1.
</event>
<event>
 5    1  0.1046082E-009  0.9118800E+02  0.7561462E-02  0.1125453E+00
         25   -1    0    0    0    0  0.00000000000E+00  0.00000000000E+00  0.99999998245E-14  0.12509000000E+03  0.12509000000E+03 0.  0.
        -11    1    3    3    0    0 -0.19839166577E+02  0.57866012494E+02  0.12588969708E+01  0.61185396577E+02  0.51100000000E-03 0. -1.
         23    2    1    0    0    0 -0.10914066908E+02  0.26121902275E+02  0.95954474609E+01  0.95197806255E+02  0.90382957845E+02 0.  0.
         11    1    3    3    0    0  0.89250996692E+01 -0.31744110220E+02  0.83365504901E+01  0.34012409678E+02  0.51100000000E-03 0.  1.
         22    1    1    0    0    0  0.10914066908E+02 -0.26121902275E+02 -0.95954474609E+01  0.29892193745E+02  0.00000000000E+00 0. -1.
</event>
<event>
 5    1  0.1046082E-009  0.9118800E+02  0.7561462E-02  0.1125453E+00
         25   -1    0    0    0    0  0.00000000000E+00  0.00000000000E+00  0.99999998245E-14  0.12509000000E+03  0.12509000000E+03 0.  0.
        -11    1    3    3    0    0 -0.66124221378E+01  0.38258370856E+02  0.40343566944E+02  0.55991342734E+02  0.51100000000E-03 0. -1.
         23    2    1    0    0    0 -0.21953745790E+02  0.14072763189E+02  0.11663212840E+02  0.96523583498E+02  0.92199577112E+02 0.  0.
         11    1    3    3    0    0 -0.15341323653E+02 -0.24185607667E+02 -0.28680354103E+02  0.40532240765E+02  0.51100000000E-03 0.  1.
         22    1    1    0    0    0  0.21953745790E+02 -0.14072763189E+02 -0.11663212840E+02  0.28566416502E+02  0.00000000000E+00 0. -1.
</event>
<event>
 5    1  0.1046082E-009  0.9118800E+02  0.7561462E-02  0.1125453E+00
         25   -1    0    0    0    0  0.00000000000E+00  0.00000000000E+00  0.99999998245E-14  0.12509000000E+03  0.12509000000E+03 0.  0.
        -11    1    3    3    0    0  0.67898701587E+01  0.38480511024E+02  0.11317855418E+02  0.40681026498E+02  0.51100000000E-03 0.  1.
         23    2    1    0    0    0  0.23793595447E+02 -0.14031511736E+02  0.94031442964E+01  0.95910595815E+02  0.91364132793E+02 0.  0.
         11    1    3    3    0    0  0.17003725289E+02 -0.52512022760E+02 -0.19147111220E+01  0.55229569317E+02  0.51100000000E-03 0. -1.
         22    1    1    0    0    0 -0.23793595447E+02  0.14031511736E+02 -0.94031442964E+01  0.29179404185E+02  0.00000000000E+00 0. -1.
</event>
<event>
 5    1  0.1046082E-009  0.9118800E+02  0.7561462E-02  0.1125453E+00
         25   -1    0    0    0    0  0.00000000000E+00  0.00000000000E+00  0.99999998245E-14  0.12509000000E+03  0.12509000000E+03 0.  0.
        -11    1    3    3    0    0  0.86135229294E+01 -0.10196602114E+00 -0.53136647991E+02  0.53830349565E+02  0.51100000000E-03 0.  1.
         23    2    1    0    0    0 -0.15975012685E+02 -0.12120219489E+02 -0.20711367480E+02  0.96261862813E+02  0.91843806207E+02 0.  0.
         11    1    3    3    0    0 -0.24588535614E+02 -0.12018253468E+02  0.32425280511E+02  0.42431513248E+02  0.51100000000E-03 0. -1.
         22    1    1    0    0    0  0.15975012685E+02  0.12120219489E+02  0.20711367480E+02  0.28828137187E+02  0.00000000000E+00 0.  1.
</event>
<event>
 5    1  0.1046082E-009  0.9118800E+02  0.7561462E-02  0.1125453E+00
         25   -1    0    0    0    0  0.00000000000E+00  0.00000000000E+00  0.99999998245E-14  0.12509000000E+03  0.12509000000E+03 0.  0.
        -11    1    3    3    0    0  0.34108475435E+02  0.77994106649E+01 -0.19862788861E+02  0.40233683460E+02  0.51100000000E-03 0.  1.
         23    2    1    0    0    0 -0.20514342881E+02  0.16900593897E+02 -0.11044252854E+02  0.96307299310E+02  0.91905669256E+02 0.  0.
         11    1    3    3    0    0 -0.54622818315E+02  0.91011832323E+01  0.88185360067E+01  0.56073615850E+02  0.51100000000E-03 0. -1.
         22    1    1    0    0    0  0.20514342881E+02 -0.16900593897E+02  0.11044252854E+02  0.28782700690E+02  0.00000000000E+00 0. -1.
</event>
<event>
 5    1  0.1046082E-009  0.9118800E+02  0.7561462E-02  0.1125453E+00
         25   -1    0    0    0    0  0.00000000000E+00  0.00000000000E+00  0.99999998245E-14  0.12509000000E+03  0.12509000000E+03 0.  0.
        -11    1    3    3    0    0  0.26846076887E+02 -0.17847792570E+02 -0.43433141143E+02  0.54089678254E+02  0.51100000000E-03 0.  1.
         23    2    1    0    0    0 -0.81290309992E+01 -0.30306478668E+00 -0.27626608494E+02  0.96290651220E+02  0.91883007255E+02 0.  0.
         11    1    3    3    0    0 -0.34975107886E+02  0.17544727784E+02  0.15806532648E+02  0.42200972966E+02  0.51100000000E-03 0. -1.
         22    1    1    0    0    0  0.81290309992E+01  0.30306478668E+00  0.27626608494E+02  0.28799348780E+02  0.00000000000E+00 0.  1.
</event>
<event>
 5    1  0.1046082E-009  0.9118800E+02  0.7561462E-02  0.1125453E+00
         25   -1    0    0    0    0  0.00000000000E+00  0.00000000000E+00  0.99999998245E-14  0.12509000000E+03  0.12509000000E+03 0.  0.
        -11    1    3    3    0    0  0.17916942209E+02  0.22156452872E+02 -0.32822254744E+02  0.43465223210E+02  0.51100000000E-03 0. -1.
         23    2    1    0    0    0 -0.18281992893E+02  0.22446338433E+02  0.48791802524E+01  0.95732279156E+02  0.91119665821E+02 0.  0.
         11    1    3    3    0    0 -0.36198935102E+02  0.28988556180E+00  0.37701434997E+02  0.52267055946E+02  0.51100000000E-03 0.  1.
         22    1    1    0    0    0  0.18281992893E+02 -0.22446338433E+02 -0.48791802524E+01  0.29357720844E+02  0.00000000000E+00 0.  1.
</event>
<event>
 5    1  0.1046082E-009  0.9118800E+02  0.7561462E-02  0.1125453E+00
         25   -1    0    0    0    0  0.00000000000E+00  0.00000000000E+00  0.99999998245E-14  0.12509000000E+03  0.12509000000E+03 0.  0.
        -11    1    3    3    0    0 -0.17083074641E+02 -0.36692108422E+02 -0.10790012545E+02  0.41887547441E+02  0.51100000000E-03 0.  1.
         23    2    1    0    0    0  0.26494087470E+02 -0.54222332825E+01  0.45341042172E+01  0.97669289110E+02  0.93741104376E+02 0.  0.
         11    1    3    3    0    0  0.43577162111E+02  0.31269875139E+02  0.15324116763E+02  0.55781741670E+02  0.51100000000E-03 0. -1.
         22    1    1    0    0    0 -0.26494087470E+02  0.54222332825E+01 -0.45341042172E+01  0.27420710890E+02  0.00000000000E+00 0. -1.
</event>
<event>
 5    1  0.1046082E-009  0.9118800E+02  0.7561462E-02  0.1125453E+00
         25   -1    0    0    0    0  0.00000000000E+00  0.00000000000E+00  0.99999998245E-14  0.12509000000E+03  0.12509000000E+03 0.  0.
        -11    1    3    3    0    0 -0.16766011185E+02  0.48002753556E+02  0.29363500504E+02  0.58716085038E+02  0.51100000000E-03 0. -1.
         23    2    1    0    0    0 -0.44874658669E+01  0.29188657710E+02  0.16435701917E+00  0.95557947886E+02  0.90880026970E+02 0.  0.
         11    1    3    3    0    0  0.12278545319E+02 -0.18814095846E+02 -0.29199143485E+02  0.36841862849E+02  0.51100000000E-03 0.  1.
         22    1    1    0    0    0  0.44874658669E+01 -0.29188657710E+02 -0.16435701917E+00  0.29532052114E+02  0.00000000000E+00 0. -1.
</event>
<event>
 5    1  0.1046082E-009  0.9118800E+02  0.7561462E-02  0.1125453E+00
         25   -1    0    0    0    0  0.00000000000E+00  0.00000000000E+00  0.99999998245E-14  0.12509000000E+03  0.12509000000E+03 0.  0.
        -11    1    3    3    0    0 -0.66330891455E+00  0.48502971968E+02  0.25957917392E+01  0.48576912247E+02  0.51100000000E-03 0. -1.
         23    2    1    0    0    0 -0.21455410309E+02  0.93742436918E+01 -0.16105544534E+02  0.96671702355E+02  0.92400315991E+02 0.  0.
         11    1    3    3    0    0 -0.20792101394E+02 -0.39128728276E+02 -0.18701336273E+02  0.48094790108E+02  0.51100000000E-03 0.  1.
         22    1    1    0    0    0  0.21455410309E+02 -0.93742436918E+01  0.16105544534E+02  0.28418297645E+02  0.00000000000E+00 0.  1.
</event>
<event>
 5    1  0.1046082E-009  0.9118800E+02  0.7561462E-02  0.1125453E+00
         25   -1    0    0    0    0  0.00000000000E+00  0.00000000000E+00  0.99999998245E-14  0.12509000000E+03  0.12509000000E+03 0.  0.
        -11    1    3    3    0    0 -0.35050669681E+02 -0.18546120519E+02 -0.22999293495E+02  0.45841853507E+02  0.51100000000E-03 0.  1.
         23    2    1    0    0    0  0.13055542406E+02 -0.24042282110E+02 -0.98203956929E+01  0.96022514933E+02  0.91517237097E+02 0.  0.
         11    1    3    3    0    0  0.48106212087E+02 -0.54961615905E+01  0.13178897802E+02  0.50180661426E+02  0.51100000000E-03 0. -1.
         22    1    1    0    0    0 -0.13055542406E+02  0.24042282110E+02  0.98203956929E+01  0.29067485067E+02  0.00000000000E+00 0. -1.
</event>
<event>
 5    1  0.1046082E-009  0.9118800E+02  0.7561462E-02  0.1125453E+00
         25   -1    0    0    0    0  0.00000000000E+00  0.00000000000E+00  0.99999998245E-14  0.12509000000E+03  0.12509000000E+03 0.  0.
        -11    1    3    3    0    0  0.17582875912E+02  0.37883039486E+02  0.11512203016E+02  0.43322200136E+02  0.51100000000E-03 0. -1.
         23    2    1    0    0    0  0.63534167579E+01  0.52096658794E+01 -0.28058630304E+02  0.95853152399E+02  0.91285451016E+02 0.  0.
         11    1    3    3    0    0 -0.11229459154E+02 -0.32673373607E+02 -0.39570833320E+02  0.52530952263E+02  0.51100000000E-03 0.  1.
         22    1    1    0    0    0 -0.63534167579E+01 -0.52096658794E+01  0.28058630304E+02  0.29236847601E+02  0.00000000000E+00 0. -1.
</event>
<event>
 5    1  0.1046082E-009  0.9118800E+02  0.7561462E-02  0.1125453E+00
         25   -1    0    0    0    0  0.00000000000E+00  0.00000000000E+00  0.99999998245E-14  0.12509000000E+03  0.12509000000E+03 0.  0.
        -11    1    3    3    0    0 -0.22803294442E+02  0.26064288441E+02 -0.51451572635E+02  0.62020977872E+02  0.51100000000E-03 0.  1.
         23    2    1    0    0    0 -0.15360724070E+02  0.11285410635E+02 -0.20636976540E+02  0.96997347261E+02  0.92840121919E+02 0.  0.
         11    1    3    3    0    0  0.74425703720E+01 -0.14778877806E+02  0.30814596094E+02  0.34976369389E+02  0.51100000000E-03 0. -1.
         22    1    1    0    0    0  0.15360724070E+02 -0.11285410635E+02  0.20636976540E+02  0.28092652739E+02  0.00000000000E+00 0.  1.
</event>
<event>
 5    1  0.1046082E-009  0.9118800E+02  0.7561462E-02  0.1125453E+00
         25   -1    0    0    0    0  0.00000000000E+00  0.00000000000E+00  0.99999998245E-14  0.12509000000E+03  0.12509000000E+03 0.  0.
        -11    1    3    3    0    0  0.62476336139E+01  0.19663195893E+01 -0.51425929302E+02  0.51841349745E+02  0.51100000000E-03 0. -1.
         23    2    1    0    0    0 -0.20986279157E+02 -0.77324645213E+01 -0.15873948746E+02  0.97663786823E+02  0.93733761726E+02 0.  0.
         11    1    3    3    0    0 -0.27233912771E+02 -0.96987841106E+01  0.35551980556E+02  0.45822437078E+02  0.51100000000E-03 0.  1.
         22    1    1    0    0    0  0.20986279157E+02  0.77324645213E+01  0.15873948746E+02  0.27426213177E+02  0.00000000000E+00 0. -1.
</event>
<event>
 5    1  0.1046082E-009  0.9118800E+02  0.7561462E-02  0.1125453E+00
         25   -1    0    0    0    0  0.00000000000E+00  0.00000000000E+00  0.99999998245E-14  0.12509000000E+03  0.12509000000E+03 0.  0.
        -11    1    3    3    0    0  0.31933343899E+02  0.30218331820E+02  0.13523991356E+02  0.45997656169E+02  0.51100000000E-03 0.  1.
         23    2    1    0    0    0  0.13904016680E+02  0.12452836756E+02 -0.26091839567E+02  0.93009181508E+02  0.87301368430E+02 0.  0.
         11    1    3    3    0    0 -0.18029327219E+02 -0.17765495064E+02 -0.39615830923E+02  0.47011525340E+02  0.51100000000E-03 0. -1.
         22    1    1    0    0    0 -0.13904016680E+02 -0.12452836756E+02  0.26091839567E+02  0.32080818492E+02  0.00000000000E+00 0. -1.
</event>
<event>
 5    1  0.1046082E-009  0.9118800E+02  0.7561462E-02  0.1125453E+00
         25   -1    0    0    0    0  0.00000000000E+00  0.00000000000E+00  0.99999998245E-14  0.12509000000E+03  0.12509000000E+03 0.  0.
        -11    1    3    3    0    0 -0.17969080789E+02 -0.89411794675E+01 -0.42052196109E+02  0.46596349133E+02  0.51100000000E-03 0. -1.
         23    2    1    0    0    0 -0.28907770603E+02  0.52909077687E+01  0.34395581523E+01  0.95501430137E+02  0.90802200918E+02 0.  0.
         11    1    3    3    0    0 -0.10938689814E+02  0.14232087236E+02  0.45491754261E+02  0.48905081004E+02  0.51100000000E-03 0.  1.
         22    1    1    0    0    0  0.28907770603E+02 -0.52909077687E+01 -0.34395581523E+01  0.29588569863E+02  0.00000000000E+00 0.  1.
</event>
<event>
 5    1  0.1046082E-009  0.9118800E+02  0.7561462E-02  0.1125453E+00
         25   -1    0    0    0    0  0.00000000000E+00  0.00000000000E+00  0.99999998245E-14  0.12509000000E+03  0.12509000000E+03 0.  0.
        -11    1    3    3    0    0  0.15558118471E+02  0.33906578122E+02  0.17715494732E+02  0.41298303163E+02  0.51100000000E-03 0. -1.
         23    2    1    0    0    0 -0.16114462914E+02  0.13207299069E+02 -0.21052848966E+02  0.95470224287E+02  0.90759201253E+02 0.  0.
         11    1    3    3    0    0 -0.31672581385E+02 -0.20699279053E+02 -0.38768343698E+02  0.54171921124E+02  0.51100000000E-03 0.  1.
         22    1    1    0    0    0  0.16114462914E+02 -0.13207299069E+02  0.21052848966E+02  0.29619775713E+02  0.00000000000E+00 0.  1.
</event>
<event>
 5    1  0.1046082E-009  0.9118800E+02  0.7561462E-02  0.1125453E+00
         25   -1    0    0    0    0  0.00000000000E+00  0.00000000000E+00  0.99999998245E-14  0.12509000000E+03  0.12509000000E+03 0.  0.
        -11    1    3    3    0    0  0.22690474822E+02 -0.25071096721E+02  0.36305955279E-01  0.33814477030E+02  0.51100000000E-03 0.  1.
         23    2    1    0    0    0 -0.15872095109E+02  0.19387149736E+02  0.16698095218E+02  0.94980012256E+02  0.90081026671E+02 0.  0.
         11    1    3    3    0    0 -0.38562569930E+02  0.44458246458E+02  0.16661789263E+02  0.61165535226E+02  0.51100000000E-03 0. -1.
         22    1    1    0    0    0  0.15872095109E+02 -0.19387149736E+02 -0.16698095218E+02  0.30109987744E+02  0.00000000000E+00 0. -1.
</event>
<event>
 5    1  0.1046082E-009  0.9118800E+02  0.7561462E-02  0.1125453E+00
         25   -1    0    0    0    0  0.00000000000E+00  0.00000000000E+00  0.99999998245E-14  0.12509000000E+03  0.12509000000E+03 0.  0.
        -11    1    3    3    0    0 -0.26096487828E+02 -0.12262821448E+01  0.33714062303E+02  0.42651710893E+02  0.51100000000E-03 0. -1.
         23    2    1    0    0    0 -0.19637829461E+02  0.15025618379E+02 -0.16192102716E+02  0.95533313041E+02  0.90846112502E+02 0.  0.
         11    1    3    3    0    0  0.64586583670E+01  0.16251900523E+02 -0.49906165019E+02  0.52881602148E+02  0.51100000000E-03 0.  1.
         22    1    1    0    0    0  0.19637829461E+02 -0.15025618379E+02  0.16192102716E+02  0.29556686959E+02  0.00000000000E+00 0.  1.
</event>
<event>
 5    1  0.1046082E-009  0.9118800E+02  0.7561462E-02  0.1125453E+00
         25   -1    0    0    0    0  0.00000000000E+00  0.00000000000E+00  0.99999998245E-14  0.12509000000E+03  0.12509000000E+03 0.  0.
        -11    1    3    3    0    0  0.18940896888E+01  0.21480297020E+02  0.38266425888E+02  0.43923912466E+02  0.51100000000E-03 0.  1.
         23    2    1    0    0    0 -0.22780143889E+02 -0.15079285553E+02  0.12071883822E+02  0.95222790766E+02  0.90417529793E+02 0.  0.
         11    1    3    3    0    0 -0.24674233578E+02 -0.36559582573E+02 -0.26194542065E+02  0.51298878300E+02  0.51100000000E-03 0. -1.
         22    1    1    0    0    0  0.22780143889E+02  0.15079285553E+02 -0.12071883822E+02  0.29867209234E+02  0.00000000000E+00 0. -1.
</event>
<event>
 5    1  0.1046082E-009  0.9118800E+02  0.7561462E-02  0.1125453E+00
         25   -1    0    0    0    0  0.00000000000E+00  0.00000000000E+00  0.99999998245E-14  0.12509000000E+03  0.12509000000E+03 0.  0.
        -11    1    3    3    0    0  0.28112470134E+02 -0.25399094851E+02  0.47716396400E+02  0.60928478415E+02  0.51100000000E-03 0.  1.
         23    2    1    0    0    0  0.17262310047E+02 -0.23575201191E+01  0.19045307533E+02  0.99277813183E+02  0.95863523835E+02 0.  0.
         11    1    3    3    0    0 -0.10850160088E+02  0.23041574732E+02 -0.28671088867E+02  0.38349334768E+02  0.51100000000E-03 0. -1.
         22    1    1    0    0    0 -0.17262310047E+02  0.23575201191E+01 -0.19045307533E+02  0.25812186817E+02  0.00000000000E+00 0.  1.
</event>
<event>
 5    1  0.1046082E-009  0.9118800E+02  0.7561462E-02  0.1125453E+00
         25   -1    0    0    0    0  0.00000000000E+00  0.00000000000E+00  0.99999998245E-14  0.12509000000E+03  0.12509000000E+03 0.  0.
        -11    1    3    3    0    0 -0.44965211576E+02  0.11681163879E+01  0.14101579013E+02  0.47139041981E+02  0.51100000000E-03 0. -1.
         23    2    1    0    0    0 -0.98968091132E+01  0.29562849976E+02  0.20300590064E+01  0.93848520059E+02  0.88495845374E+02 0.  0.
         11    1    3    3    0    0  0.35068402463E+02  0.28394733588E+02 -0.12071520007E+02  0.46709478078E+02  0.51100000000E-03 0.  1.
         22    1    1    0    0    0  0.98968091132E+01 -0.29562849976E+02 -0.20300590064E+01  0.31241479941E+02  0.00000000000E+00 0. -1.
</event>
<event>
 5    1  0.1046082E-009  0.9118800E+02  0.7561462E-02  0.1125453E+00
         25   -1    0    0    0    0  0.00000000000E+00  0.00000000000E+00  0.99999998245E-14  0.12509000000E+03  0.12509000000E+03 0.  0.
        -11    1    3    3    0    0 -0.28572885101E+02  0.97583097783E+01 -0.22890276810E+02  0.37889301200E+02  0.51100000000E-03 0. -1.
         23    2    1    0    0    0 -0.70046041104E+01 -0.16675457791E+02  0.23475974000E+02  0.95454603486E+02  0.90737669135E+02 0.  0.
         11    1    3    3    0    0  0.21568280991E+02 -0.26433767570E+02  0.46366250810E+02  0.57565302286E+02  0.51100000000E-03 0.  1.
         22    1    1    0    0    0  0.70046041104E+01  0.16675457791E+02 -0.23475974000E+02  0.29635396514E+02  0.00000000000E+00 0.  1.
</event>
<event>
 5    1  0.1046082E-009  0.9118800E+02  0.7561462E-02  0.1125453E+00
         25   -1    0    0    0    0  0.00000000000E+00  0.00000000000E+00  0.99999998245E-14  0.12509000000E+03  0.12509000000E+03 0.  0.
        -11    1    3    3    0    0  0.25552998903E+02  0.19464587253E+02  0.24843184624E+02  0.40608000842E+02  0.51100000000E-03 0. -1.
         23    2    1    0    0    0  0.13946486029E+02 -0.23840007582E+02 -0.81731505322E+01  0.96286340099E+02  0.91877137885E+02 0.  0.
         11    1    3    3    0    0 -0.11606512874E+02 -0.43304594836E+02 -0.33016335156E+02  0.55678339257E+02  0.51100000000E-03 0.  1.
         22    1    1    0    0    0 -0.13946486029E+02  0.23840007582E+02  0.81731505322E+01  0.28803659901E+02  0.00000000000E+00 0.  1.
</event>
<event>
 5    1  0.1046082E-009  0.9118800E+02  0.7561462E-02  0.1125453E+00
         25   -1    0    0    0    0  0.00000000000E+00  0.00000000000E+00  0.99999998245E-14  0.12509000000E+03  0.12509000000E+03 0.  0.
        -11    1    3    3    0    0  0.13032837159E+01  0.58047165077E+02  0.16317649772E+02  0.60311173230E+02  0.51100000000E-03 0. -1.
         23    2    1    0    0    0  0.18310560205E+01  0.22671517529E+02  0.18518837293E+02  0.95759166260E+02  0.91156569236E+02 0.  0.
         11    1    3    3    0    0  0.52777230460E+00 -0.35375647549E+02  0.22011875209E+01  0.35447993030E+02  0.51100000000E-03 0.  1.
         22    1    1    0    0    0 -0.18310560205E+01 -0.22671517529E+02 -0.18518837293E+02  0.29330833740E+02  0.00000000000E+00 0. -1.
</event>
<event>
 5    1  0.1046082E-009  0.9118800E+02  0.7561462E-02  0.1125453E+00
         25   -1    0    0    0    0  0.00000000000E+00  0.00000000000E+00  0.99999998245E-14  0.12509000000E+03  0.12509000000E+03 0.  0.
        -11    1    3    3    0    0  0.27139106180E+02 -0.33182626191E+02 -0.35193181977E+02  0.55463301589E+02  0.51100000000E-03 0.  1.
         23    2    1    0    0    0  0.24017811312E+02  0.25108770435E+01 -0.16142244915E+02  0.96042937590E+02  0.91545147476E+02 0.  0.
         11    1    3    3    0    0 -0.31212948680E+01  0.35693503234E+02  0.19050937062E+02  0.40579636002E+02  0.51100000000E-03 0. -1.
         22    1    1    0    0    0 -0.24017811312E+02 -0.25108770435E+01  0.16142244915E+02  0.29047062410E+02  0.00000000000E+00 0. -1.
</event>
<event>
 5    1  0.1046082E-009  0.9118800E+02  0.7561462E-02  0.1125453E+00
         25   -1    0    0    0    0  0.00000000000E+00  0.00000000000E+00  0.99999998245E-14  0.12509000000E+03  0.12509000000E+03 0.  0.
        -11    1    3    3    0    0 -0.25681275034E+01  0.27320978573E+02 -0.32653926676E+02  0.42653371223E+02  0.51100000000E-03 0. -1.
         23    2    1    0    0    0  0.14758322925E+02  0.18554894197E+02  0.16965285925E+02  0.95936730531E+02  0.91399907792E+02 0.  0.
         11    1    3    3    0    0  0.17326450428E+02 -0.87660843763E+01  0.49619212601E+02  0.53283359308E+02  0.51100000000E-03 0.  1.
         22    1    1    0    0    0 -0.14758322925E+02 -0.18554894197E+02 -0.16965285925E+02  0.29153269469E+02  0.00000000000E+00 0.  1.
</event>
<event>
 5    1  0.1046082E-009  0.9118800E+02  0.7561462E-02  0.1125453E+00
         25   -1    0    0    0    0  0.00000000000E+00  0.00000000000E+00  0.99999998245E-14  0.12509000000E+03  0.12509000000E+03 0.  0.
        -11    1    3    3    0    0 -0.14613493313E+01 -0.13827915468E+02 -0.29578857126E+02  0.32684179310E+02  0.51100000000E-03 0.  1.
         23    2    1    0    0    0 -0.31382403663E+02 -0.88509645362E+00  0.16883872995E+02  0.89443067134E+02  0.82032666881E+02 0.  0.
         11    1    3    3    0    0 -0.29921054332E+02  0.12942819015E+02  0.46462730121E+02  0.56758887824E+02  0.51100000000E-03 0. -1.
         22    1    1    0    0    0  0.31382403663E+02  0.88509645362E+00 -0.16883872995E+02  0.35646932866E+02  0.00000000000E+00 0. -1.
</event>
<event>
 5    1  0.1046082E-009  0.9118800E+02  0.7561462E-02  0.1125453E+00
         25   -1    0    0    0    0  0.00000000000E+00  0.00000000000E+00  0.99999998245E-14  0.12509000000E+03  0.12509000000E+03 0.  0.
        -11    1    3    3    0    0 -0.36649035865E+02 -0.19298661140E+02  0.78819100472E+01  0.42162953619E+02  0.51100000000E-03 0. -1.
         23    2    1    0    0    0 -0.18374014816E+02  0.18924217730E+02 -0.19217039645E+02  0.92455278462E+02  0.86504066180E+02 0.  0.
         11    1    3    3    0    0  0.18275021049E+02  0.38222878870E+02 -0.27098949692E+02  0.50292324843E+02  0.51100000000E-03 0.  1.
         22    1    1    0    0    0  0.18374014816E+02 -0.18924217730E+02  0.19217039645E+02  0.32634721538E+02  0.00000000000E+00 0.  1.
</event>
<event>
 5    1  0.1046082E-009  0.9118800E+02  0.7561462E-02  0.1125453E+00
         25   -1    0    0    0    0  0.00000000000E+00  0.00000000000E+00  0.99999998245E-14  0.12509000000E+03  0.12509000000E+03 0.  0.
        -11    1    3    3    0    0 -0.18236001605E+02  0.32172151862E+02  0.19510691492E+02  0.41812273231E+02  0.51100000000E-03 0. -1.
         23    2    1    0    0    0 -0.11254617716E+02 -0.11970096427E+01 -0.24864239787E+02  0.97770965021E+02  0.93876684693E+02 0.  0.
         11    1    3    3    0    0  0.69813838894E+01 -0.33369161504E+02 -0.44374931279E+02  0.55958691790E+02  0.51100000000E-03 0.  1.
         22    1    1    0    0    0  0.11254617716E+02  0.11970096427E+01  0.24864239787E+02  0.27319034979E+02  0.00000000000E+00 0.  1.
</event>
<event>
 5    1  0.1046082E-009  0.9118800E+02  0.7561462E-02  0.1125453E+00
         25   -1    0    0    0    0  0.00000000000E+00  0.00000000000E+00  0.99999998245E-14  0.12509000000E+03  0.12509000000E+03 0.  0.
        -11    1    3    3    0    0 -0.30576833705E+02 -0.26725071486E+02  0.28348044865E+02  0.49525587864E+02  0.51100000000E-03 0.  1.
         23    2    1    0    0    0  0.62133991067E+01 -0.32057421819E+02  0.10297907250E+02  0.90850672964E+02  0.84151727625E+02 0.  0.
         11    1    3    3    0    0  0.36790232811E+02 -0.53323503327E+01 -0.18050137615E+02  0.41325085100E+02  0.51100000000E-03 0. -1.
         22    1    1    0    0    0 -0.62133991067E+01  0.32057421819E+02 -0.10297907250E+02  0.34239327036E+02  0.00000000000E+00 0.  1.
</event>
<event>
 5    1  0.1046082E-009  0.9118800E+02  0.7561462E-02  0.1125453E+00
         25   -1    0    0    0    0  0.00000000000E+00  0.00000000000E+00  0.99999998245E-14  0.12509000000E+03  0.12509000000E+03 0.  0.
        -11    1    3    3    0    0 -0.11101077307E+02 -0.14555914170E+02  0.36896254499E+02  0.41187888402E+02  0.51100000000E-03 0.  1.
         23    2    1    0    0    0 -0.20521382865E+02  0.19898718766E+02 -0.48143209015E+01  0.96102695039E+02  0.91626765439E+02 0.  0.
         11    1    3    3    0    0 -0.94203055579E+01  0.34454632935E+02 -0.41710575400E+02  0.54914806637E+02  0.51100000000E-03 0. -1.
         22    1    1    0    0    0  0.20521382865E+02 -0.19898718766E+02  0.48143209015E+01  0.28987304961E+02  0.00000000000E+00 0. -1.
</event>
<event>
 5    1  0.1046082E-009  0.9118800E+02  0.7561462E-02  0.1125453E+00
         25   -1    0    0    0    0  0.00000000000E+00  0.00000000000E+00  0.99999998245E-14  0.12509000000E+03  0.12509000000E+03 0.  0.
        -11    1    3    3    0    0  0.20451783017E+02 -0.10679469131E+02 -0.40394147385E+02  0.46518959928E+02  0.51100000000E-03 0.  1.
         23    2    1    0    0    0 -0.11835423267E+01  0.25326698071E+02 -0.16375095880E+02  0.94907452514E+02  0.89980210991E+02 0.  0.
         11    1    3    3    0    0 -0.21635325344E+02  0.36006167203E+02  0.24019051505E+02  0.48388492587E+02  0.51100000000E-03 0. -1.
         22    1    1    0    0    0  0.11835423267E+01 -0.25326698071E+02  0.16375095880E+02  0.30182547486E+02  0.00000000000E+00 0.  1.
</event>
<event>
 5    1  0.1046082E-009  0.9118800E+02  0.7561462E-02  0.1125453E+00
         25   -1    0    0    0    0  0.00000000000E+00  0.00000000000E+00  0.99999998245E-14  0.12509000000E+03  0.12509000000E+03 0.  0.
        -11    1    3    3    0    0  0.41422257259E+02 -0.15029809540E+02 -0.43515654002E+02  0.61929885473E+02  0.51100000000E-03 0. -1.
         23    2    1    0    0    0  0.15203727058E+02 -0.87199848169E+01 -0.24663057158E+02  0.94833466160E+02  0.89877296710E+02 0.  0.
         11    1    3    3    0    0 -0.26218530201E+02  0.63098247231E+01  0.18852596844E+02  0.32903580686E+02  0.51100000000E-03 0.  1.
         22    1    1    0    0    0 -0.15203727058E+02  0.87199848169E+01  0.24663057158E+02  0.30256533840E+02  0.00000000000E+00 0. -1.
</event>
<event>
 5    1  0.1046082E-009  0.9118800E+02  0.7561462E-02  0.1125453E+00
         25   -1    0    0    0    0  0.00000000000E+00  0.00000000000E+00  0.99999998245E-14  0.12509000000E+03  0.12509000000E+03 0.  0.
        -11    1    3    3    0    0 -0.34272513938E+02 -0.35567571976E+02  0.20548610369E+02  0.53496754820E+02  0.51100000000E-03 0. -1.
         23    2    1    0    0    0 -0.28514851620E+02 -0.17736881427E+01 -0.47842490624E+01  0.96122228742E+02  0.91653429214E+02 0.  0.
         11    1    3    3    0    0  0.57576623182E+01  0.33793883833E+02 -0.25332859431E+02  0.42625473923E+02  0.51100000000E-03 0.  1.
         22    1    1    0    0    0  0.28514851620E+02  0.17736881427E+01  0.47842490624E+01  0.28967771258E+02  0.00000000000E+00 0. -1.
</event>
<event>
 5    1  0.1046082E-009  0.9118800E+02  0.7561462E-02  0.1125453E+00
         25   -1    0    0    0    0  0.00000000000E+00  0.00000000000E+00  0.99999998245E-14  0.12509000000E+03  0.12509000000E+03 0.  0.
        -11    1    3    3    0    0  0.96486088722E+01 -0.33911261569E+02  0.10288405243E+01  0.35272196239E+02  0.51100000000E-03 0. -1.
         23    2    1    0    0    0 -0.28583946631E+02  0.10985479996E+02  0.33317956676E+01  0.94287019005E+02  0.89113513649E+02 0.  0.
         11    1    3    3    0    0 -0.38232555504E+02  0.44896741566E+02  0.23029551434E+01  0.59014822767E+02  0.51100000000E-03 0.  1.
         22    1    1    0    0    0  0.28583946631E+02 -0.10985479996E+02 -0.33317956676E+01  0.30802980995E+02  0.00000000000E+00 0.  1.
</event>
<event>
 5    1  0.1046082E-009  0.9118800E+02  0.7561462E-02  0.1125453E+00
         25   -1    0    0    0    0  0.00000000000E+00  0.00000000000E+00  0.99999998245E-14  0.12509000000E+03  0.12509000000E+03 0.  0.
        -11    1    3    3    0    0 -0.87195026991E+01 -0.74011735250E+01 -0.35254238891E+02  0.37063033563E+02  0.51100000000E-03 0.  1.
         23    2    1    0    0    0  0.27422451516E+02  0.58462961771E+01  0.89303171804E+01  0.95663471304E+02  0.91025156692E+02 0.  0.
         11    1    3    3    0    0  0.36141954215E+02  0.13247469702E+02  0.44184556071E+02  0.58600437741E+02  0.51100000000E-03 0. -1.
         22    1    1    0    0    0 -0.27422451516E+02 -0.58462961771E+01 -0.89303171804E+01  0.29426528696E+02  0.00000000000E+00 0. -1.
</event>
<event>
 5    1  0.1046082E-009  0.9118800E+02  0.7561462E-02  0.1125453E+00
         25   -1    0    0    0    0  0.00000000000E+00  0.00000000000E+00  0.99999998245E-14  0.12509000000E+03  0.12509000000E+03 0.  0.
        -11    1    3    3    0    0  0.17313404987E+02 -0.25956063530E+02  0.19411148594E+02  0.36745937411E+02  0.51100000000E-03 0. -1.
         23    2    1    0    0    0  0.60149782120E+01  0.48458823506E+01 -0.28917381011E+02  0.95158787810E+02  0.90328940181E+02 0.  0.
         11    1    3    3    0    0 -0.11298426775E+02  0.30801945881E+02 -0.48328529605E+02  0.58412850398E+02  0.51100000000E-03 0.  1.
         22    1    1    0    0    0 -0.60149782120E+01 -0.48458823506E+01  0.28917381011E+02  0.29931212190E+02  0.00000000000E+00 0.  1.
</event>
<event>
 5    1  0.1046082E-009  0.9118800E+02  0.7561462E-02  0.1125453E+00
         25   -1    0    0    0    0  0.00000000000E+00  0.00000000000E+00  0.99999998245E-14  0.12509000000E+03  0.12509000000E+03 0.  0.
        -11    1    3    3    0    0  0.53998052917E+01  0.24266938416E+02 -0.25441806392E+02  0.35571445149E+02  0.51100000000E-03 0.  1.
         23    2    1    0    0    0  0.13094432011E+02 -0.17100217755E+02  0.18708843846E+02  0.96561024642E+02  0.92250360676E+02 0.  0.
         11    1    3    3    0    0  0.76946267191E+01 -0.41367156171E+02  0.44150650238E+02  0.60989579492E+02  0.51100000000E-03 0. -1.
         22    1    1    0    0    0 -0.13094432011E+02  0.17100217755E+02 -0.18708843846E+02  0.28528975358E+02  0.00000000000E+00 0. -1.
</event>
<event>
 5    1  0.1046082E-009  0.9118800E+02  0.7561462E-02  0.1125453E+00
         25   -1    0    0    0    0  0.00000000000E+00  0.00000000000E+00  0.99999998245E-14  0.12509000000E+03  0.12509000000E+03 0.  0.
        -11    1    3    3    0    0  0.85847553333E+00  0.61395827703E+02 -0.14475850236E+01  0.61418890760E+02  0.51100000000E-03 0. -1.
         23    2    1    0    0    0 -0.23220096543E+01  0.30077656240E+02  0.72225294016E+01  0.94070295542E+02  0.88808774559E+02 0.  0.
         11    1    3    3    0    0 -0.31804851876E+01 -0.31318171463E+02  0.86701144252E+01  0.32651404782E+02  0.51100000000E-03 0.  1.
         22    1    1    0    0    0  0.23220096543E+01 -0.30077656240E+02 -0.72225294016E+01  0.31019704458E+02  0.00000000000E+00 0. -1.
</event>
<event>
 5    1  0.1046082E-009  0.9118800E+02  0.7561462E-02  0.1125453E+00
         25   -1    0    0    0    0  0.00000000000E+00  0.00000000000E+00  0.99999998245E-14  0.12509000000E+03  0.12509000000E+03 0.  0.
        -11    1    3    3    0    0 -0.16333645746E+02 -0.49851145961E+02  0.13812081611E+02  0.54246643543E+02  0.51100000000E-03 0. -1.
         23    2    1    0    0    0  0.12592775471E+02 -0.22215878947E+02 -0.59532557831E+01  0.98868548364E+02  0.95327988177E+02 0.  0.
         11    1    3    3    0    0  0.28926421217E+02  0.27635267014E+02 -0.19765337395E+02  0.44621904822E+02  0.51100000000E-03 0.  1.
         22    1    1    0    0    0 -0.12592775471E+02  0.22215878947E+02  0.59532557831E+01  0.26221451636E+02  0.00000000000E+00 0. -1.
</event>
<event>
 5    1  0.1046082E-009  0.9118800E+02  0.7561462E-02  0.1125453E+00
         25   -1    0    0    0    0  0.00000000000E+00  0.00000000000E+00  0.99999998245E-14  0.12509000000E+03  0.12509000000E+03 0.  0.
        -11    1    3    3    0    0  0.22793089212E+02 -0.26700517137E+02 -0.45490812895E+02  0.57461783729E+02  0.51100000000E-03 0. -1.
         23    2    1    0    0    0  0.24749653098E+02 -0.12490170747E+02 -0.10210463908E+02  0.95546755984E+02  0.90864620794E+02 0.  0.
         11    1    3    3    0    0  0.19565638862E+01  0.14210346391E+02  0.35280348987E+02  0.38084972255E+02  0.51100000000E-03 0.  1.
         22    1    1    0    0    0 -0.24749653098E+02  0.12490170747E+02  0.10210463908E+02  0.29543244016E+02  0.00000000000E+00 0. -1.
</event>
<event>
 5    1  0.1046082E-009  0.9118800E+02  0.7561462E-02  0.1125453E+00
         25   -1    0    0    0    0  0.00000000000E+00  0.00000000000E+00  0.99999998245E-14  0.12509000000E+03  0.12509000000E+03 0.  0.
        -11    1    3    3    0    0 -0.28386993468E+01 -0.32445837606E+02 -0.10146865738E+02  0.34113772534E+02  0.51100000000E-03 0.  1.
         23    2    1    0    0    0  0.26771185495E+01 -0.12414062392E+02  0.37180193940E+02  0.85800780992E+02  0.76276675915E+02 0.  0.
         11    1    3    3    0    0  0.55158178963E+01  0.20031775214E+02  0.47327059678E+02  0.51687008458E+02  0.51100000000E-03 0. -1.
         22    1    1    0    0    0 -0.26771185495E+01  0.12414062392E+02 -0.37180193940E+02  0.39289219008E+02  0.00000000000E+00 0. -1.
</event>
<event>
 5    1  0.1046082E-009  0.9118800E+02  0.7561462E-02  0.1125453E+00
         25   -1    0    0    0    0  0.00000000000E+00  0.00000000000E+00  0.99999998245E-14  0.12509000000E+03  0.12509000000E+03 0.  0.
        -11    1    3    3    0    0  0.41518365595E+02  0.11499911793E+02 -0.80710828050E+01  0.43831096619E+02  0.51100000000E-03 0.  1.
         23    2    1    0    0    0  0.57974741053E+01 -0.38656755399E+01  0.27614847525E+02  0.96609586429E+02  0.92316186191E+02 0.  0.
         11    1    3    3    0    0 -0.35720891489E+02 -0.15365587333E+02  0.35685930329E+02  0.52778489810E+02  0.51100000000E-03 0. -1.
         22    1    1    0    0    0 -0.57974741053E+01  0.38656755399E+01 -0.27614847525E+02  0.28480413571E+02  0.00000000000E+00 0.  1.
</event>
<event>
 5    1  0.1046082E-009  0.9118800E+02  0.7561462E-02  0.1125453E+00
         25   -1    0    0    0    0  0.00000000000E+00  0.00000000000E+00  0.99999998245E-14  0.12509000000E+03  0.12509000000E+03 0.  0.
        -11    1    3    3    0    0  0.54407529525E+02 -0.47040830023E+01 -0.28617741431E+02  0.61654543959E+02  0.51100000000E-03 0.  1.
         23    2    1    0    0    0  0.34754842253E+02  0.36106110687E+01 -0.14395563251E+02  0.87298892400E+02  0.78695163769E+02 0.  0.
         11    1    3    3    0    0 -0.19652687272E+02  0.83146940710E+01  0.14222178179E+02  0.25644348441E+02  0.51100000000E-03 0. -1.
         22    1    1    0    0    0 -0.34754842253E+02 -0.36106110687E+01  0.14395563251E+02  0.37791107600E+02  0.00000000000E+00 0.  1.
</event>
<event>
 5    1  0.1046082E-009  0.9118800E+02  0.7561462E-02  0.1125453E+00
         25   -1    0    0    0    0  0.00000000000E+00  0.00000000000E+00  0.99999998245E-14  0.12509000000E+03  0.12509000000E+03 0.  0.
        -11    1    3    3    0    0  0.15640088812E+02 -0.26363358475E+02 -0.16822369150E+02  0.34966142942E+02  0.51100000000E-03 0.  1.
         23    2    1    0    0    0  0.12620063549E+02  0.25331758477E+02  0.12135859253E+02  0.94296444322E+02  0.89126743127E+02 0.  0.
         11    1    3    3    0    0 -0.30200252630E+01  0.51695116952E+02  0.28958228403E+02  0.59330301380E+02  0.51100000000E-03 0. -1.
         22    1    1    0    0    0 -0.12620063549E+02 -0.25331758477E+02 -0.12135859253E+02  0.30793555678E+02  0.00000000000E+00 0. -1.
</event>
<event>
 5    1  0.1046082E-009  0.9118800E+02  0.7561462E-02  0.1125453E+00
         25   -1    0    0    0    0  0.00000000000E+00  0.00000000000E+00  0.99999998245E-14  0.12509000000E+03  0.12509000000E+03 0.  0.
        -11    1    3    3    0    0  0.73060003236E+01 -0.39418472558E+02  0.43747198045E+02  0.59338107120E+02  0.51100000000E-03 0. -1.
         23    2    1    0    0    0 -0.10572088899E+02 -0.19655348221E+02  0.22224033358E+02  0.93593818707E+02  0.88135086453E+02 0.  0.
         11    1    3    3    0    0 -0.17878089223E+02  0.19763124338E+02 -0.21523164688E+02  0.34255711586E+02  0.51100000000E-03 0.  1.
         22    1    1    0    0    0  0.10572088899E+02  0.19655348221E+02 -0.22224033358E+02  0.31496181293E+02  0.00000000000E+00 0. -1.
</event>
<event>
 5    1  0.1046082E-009  0.9118800E+02  0.7561462E-02  0.1125453E+00
         25   -1    0    0    0    0  0.00000000000E+00  0.00000000000E+00  0.99999998245E-14  0.12509000000E+03  0.12509000000E+03 0.  0.
        -11    1    3    3    0    0 -0.10707706408E+02 -0.23003773284E+02 -0.30521472588E+02  0.39691168426E+02  0.51100000000E-03 0.  1.
         23    2    1    0    0    0 -0.26332740515E+01  0.27965411899E+02 -0.91246267749E+01  0.95555999108E+02  0.90877344574E+02 0.  0.
         11    1    3    3    0    0  0.80744323564E+01  0.50969185183E+02  0.21396845813E+02  0.55864830682E+02  0.51100000000E-03 0. -1.
         22    1    1    0    0    0  0.26332740515E+01 -0.27965411899E+02  0.91246267749E+01  0.29534000892E+02  0.00000000000E+00 0. -1.
</event>
<event>
 5    1  0.1046082E-009  0.9118800E+02  0.7561462E-02  0.1125453E+00
         25   -1    0    0    0    0  0.00000000000E+00  0.00000000000E+00  0.99999998245E-14  0.12509000000E+03  0.12509000000E+03 0.  0.
        -11    1    3    3    0    0 -0.13134833541E+02 -0.17549954395E+02 -0.42467327963E+02  0.47791198939E+02  0.51100000000E-03 0. -1.
         23    2    1    0    0    0  0.16396285168E+02  0.13577426066E+02 -0.18181949316E+02  0.97094144113E+02  0.92970451619E+02 0.  0.
         11    1    3    3    0    0  0.29531118709E+02  0.31127380462E+02  0.24285378647E+02  0.49302945175E+02  0.51100000000E-03 0.  1.
         22    1    1    0    0    0 -0.16396285168E+02 -0.13577426066E+02  0.18181949316E+02  0.27995855887E+02  0.00000000000E+00 0. -1.
</event>
<event>
 5    1  0.1046082E-009  0.9118800E+02  0.7561462E-02  0.1125453E+00
         25   -1    0    0    0    0  0.00000000000E+00  0.00000000000E+00  0.99999998245E-14  0.12509000000E+03  0.12509000000E+03 0.  0.
        -11    1    3    3    0    0 -0.29580643830E+02  0.18691677109E+02  0.29059485393E+02  0.45484579520E+02  0.51100000000E-03 0. -1.
         23    2    1    0    0    0 -0.18696315961E+02 -0.22804779883E+02  0.35708422913E+01  0.95385435860E+02  0.90642265216E+02 0.  0.
         11    1    3    3    0    0  0.10884327868E+02 -0.41496456992E+02 -0.25488643102E+02  0.49900856340E+02  0.51100000000E-03 0.  1.
         22    1    1    0    0    0  0.18696315961E+02  0.22804779883E+02 -0.35708422913E+01  0.29704564140E+02  0.00000000000E+00 0.  1.
</event>
<event>
 5    1  0.1046082E-009  0.9118800E+02  0.7561462E-02  0.1125453E+00
         25   -1    0    0    0    0  0.00000000000E+00  0.00000000000E+00  0.99999998245E-14  0.12509000000E+03  0.12509000000E+03 0.  0.
        -11    1    3    3    0    0  0.44022791194E+02  0.17479189566E+02 -0.35764140001E+02  0.59351511545E+02  0.51100000000E-03 0.  1.
         23    2    1    0    0    0  0.16962713521E+02  0.20583520244E+02 -0.10748987532E+02  0.96333162750E+02  0.91940864456E+02 0.  0.
         11    1    3    3    0    0 -0.27060077672E+02  0.31043306775E+01  0.25015152469E+02  0.36981651206E+02  0.51100000000E-03 0. -1.
         22    1    1    0    0    0 -0.16962713521E+02 -0.20583520244E+02  0.10748987532E+02  0.28756837250E+02  0.00000000000E+00 0.  1.
</event>
<event>
 5    1  0.1046082E-009  0.9118800E+02  0.7561462E-02  0.1125453E+00
         25   -1    0    0    0    0  0.00000000000E+00  0.00000000000E+00  0.99999998245E-14  0.12509000000E+03  0.12509000000E+03 0.  0.
        -11    1    3    3    0    0 -0.41908444449E+02  0.23141725168E+00  0.29238222308E+02  0.51100341623E+02  0.51100000000E-03 0.  1.
         23    2    1    0    0    0  0.14674267368E+01 -0.98407967932E+01  0.27700489081E+02  0.95656826231E+02  0.91016024339E+02 0.  0.
         11    1    3    3    0    0  0.43375871185E+02 -0.10072214045E+02 -0.15377332264E+01  0.44556484608E+02  0.51100000000E-03 0. -1.
         22    1    1    0    0    0 -0.14674267368E+01  0.98407967932E+01 -0.27700489081E+02  0.29433173769E+02  0.00000000000E+00 0. -1.
</event>
<event>
 5    1  0.1046082E-009  0.9118800E+02  0.7561462E-02  0.1125453E+00
         25   -1    0    0    0    0  0.00000000000E+00  0.00000000000E+00  0.99999998245E-14  0.12509000000E+03  0.12509000000E+03 0.  0.
        -11    1    3    3    0    0 -0.26966224428E+01 -0.19569500631E+02 -0.29967274334E+02  0.35892543221E+02  0.51100000000E-03 0.  1.
         23    2    1    0    0    0  0.20646328198E+02  0.12199886436E+02  0.15856144438E+02  0.96340644990E+02  0.91951043841E+02 0.  0.
         11    1    3    3    0    0  0.23342950641E+02  0.31769387067E+02  0.45823418772E+02  0.60448101769E+02  0.51100000000E-03 0. -1.
         22    1    1    0    0    0 -0.20646328198E+02 -0.12199886436E+02 -0.15856144438E+02  0.28749355010E+02  0.00000000000E+00 0. -1.
</event>
<event>
 5    1  0.1046082E-009  0.9118800E+02  0.7561462E-02  0.1125453E+00
         25   -1    0    0    0    0  0.00000000000E+00  0.00000000000E+00  0.99999998245E-14  0.12509000000E+03  0.12509000000E+03 0.  0.
        -11    1    3    3    0    0 -0.57770778456E+02  0.14929551921E+02  0.56701170779E+01  0.59937505720E+02  0.51100000000E-03 0. -1.
         23    2    1    0    0    0 -0.22636100584E+02  0.18976010811E+02  0.27155015800E+01  0.95427633527E+02  0.90700481012E+02 0.  0.
         11    1    3    3    0    0  0.35134677872E+02  0.40464588897E+01 -0.29546154979E+01  0.35490127807E+02  0.51100000000E-03 0.  1.
         22    1    1    0    0    0  0.22636100584E+02 -0.18976010811E+02 -0.27155015800E+01  0.29662366473E+02  0.00000000000E+00 0. -1.
</event>
<event>
 5    1  0.1046082E-009  0.9118800E+02  0.7561462E-02  0.1125453E+00
         25   -1    0    0    0    0  0.00000000000E+00  0.00000000000E+00  0.99999998245E-14  0.12509000000E+03  0.12509000000E+03 0.  0.
        -11    1    3    3    0    0 -0.15710128178E+02 -0.45729534927E+02 -0.71379848711E+01  0.48876879199E+02  0.51100000000E-03 0.  1.
         23    2    1    0    0    0 -0.16652082622E+01  0.26695311931E+01 -0.23128350868E+02  0.10174862195E+03  0.99035156080E+02 0.  0.
         11    1    3    3    0    0  0.14044919916E+02  0.48399066120E+02 -0.15990365997E+02  0.52871742752E+02  0.51100000000E-03 0. -1.
         22    1    1    0    0    0  0.16652082622E+01 -0.26695311931E+01  0.23128350868E+02  0.23341378048E+02  0.00000000000E+00 0.  1.
</event>
<event>
 5    1  0.1046082E-009  0.9118800E+02  0.7561462E-02  0.1125453E+00
         25   -1    0    0    0    0  0.00000000000E+00  0.00000000000E+00  0.99999998245E-14  0.12509000000E+03  0.12509000000E+03 0.  0.
        -11    1    3    3    0    0 -0.16557770258E+02 -0.37970401825E+02  0.45250452983E+02  0.61347491115E+02  0.51100000000E-03 0. -1.
         23    2    1    0    0    0 -0.26765766706E+01 -0.12550113095E+02  0.25915040191E+02  0.96171861929E+02  0.91721144332E+02 0.  0.
         11    1    3    3    0    0  0.13881193588E+02  0.25420288730E+02 -0.19335412792E+02  0.34824370815E+02  0.51100000000E-03 0.  1.
         22    1    1    0    0    0  0.26765766706E+01  0.12550113095E+02 -0.25915040191E+02  0.28918138071E+02  0.00000000000E+00 0. -1.
</event>
<event>
 5    1  0.1046082E-009  0.9118800E+02  0.7561462E-02  0.1125453E+00
         25   -1    0    0    0    0  0.00000000000E+00  0.00000000000E+00  0.99999998245E-14  0.12509000000E+03  0.12509000000E+03 0.  0.
        -11    1    3    3    0    0 -0.18853927964E+02  0.43084624778E+02  0.11611107692E+02  0.48441442113E+02  0.51100000000E-03 0.  1.
         23    2    1    0    0    0 -0.25901456036E+02  0.91791764603E+00 -0.11151240885E+02  0.96875142728E+02  0.92675320920E+02 0.  0.
         11    1    3    3    0    0 -0.70475280729E+01 -0.42166707132E+02 -0.22762348577E+02  0.48433700615E+02  0.51100000000E-03 0. -1.
         22    1    1    0    0    0  0.25901456036E+02 -0.91791764603E+00  0.11151240885E+02  0.28214857272E+02  0.00000000000E+00 0. -1.
</event>
<event>
 5    1  0.1046082E-009  0.9118800E+02  0.7561462E-02  0.1125453E+00
         25   -1    0    0    0    0  0.00000000000E+00  0.00000000000E+00  0.99999998245E-14  0.12509000000E+03  0.12509000000E+03 0.  0.
        -11    1    3    3    0    0  0.17432269567E+02  0.46448304135E+02 -0.76010217060E+00  0.49617605090E+02  0.51100000000E-03 0. -1.
         23    2    1    0    0    0  0.30340367834E+02  0.39161337518E+01  0.36377337995E+01  0.94282417637E+02  0.89107054403E+02 0.  0.
         11    1    3    3    0    0  0.12908098267E+02 -0.42532170383E+02  0.43978359701E+01  0.44664812547E+02  0.51100000000E-03 0.  1.
         22    1    1    0    0    0 -0.30340367834E+02 -0.39161337518E+01 -0.36377337995E+01  0.30807582363E+02  0.00000000000E+00 0.  1.
</event>
<event>
 5    1  0.1046082E-009  0.9118800E+02  0.7561462E-02  0.1125453E+00
         25   -1    0    0    0    0  0.00000000000E+00  0.00000000000E+00  0.99999998245E-14  0.12509000000E+03  0.12509000000E+03 0.  0.
        -11    1    3    3    0    0  0.36215497562E+02  0.41172906732E+02 -0.21637462768E+02  0.58948709127E+02  0.51100000000E-03 0.  1.
         23    2    1    0    0    0  0.28338655462E+02  0.10911976885E+02 -0.51801569991E+01  0.94284405387E+02  0.89109844797E+02 0.  0.
         11    1    3    3    0    0 -0.78768420997E+01 -0.30260929848E+02  0.16457305769E+02  0.35335696260E+02  0.51100000000E-03 0. -1.
         22    1    1    0    0    0 -0.28338655462E+02 -0.10911976885E+02  0.51801569991E+01  0.30805594613E+02  0.00000000000E+00 0.  1.
</event>
<event>
 5    1  0.1046082E-009  0.9118800E+02  0.7561462E-02  0.1125453E+00
         25   -1    0    0    0    0  0.00000000000E+00  0.00000000000E+00  0.99999998245E-14  0.12509000000E+03  0.12509000000E+03 0.  0.
        -11    1    3    3    0    0  0.17385020113E+02 -0.12984724000E+02 -0.26096671799E+02  0.33939332064E+02  0.51100000000E-03 0.  1.
         23    2    1    0    0    0 -0.78189391787E+01 -0.56705988653E+00  0.28602441830E+02  0.95432672989E+02  0.90707430944E+02 0.  0.
         11    1    3    3    0    0 -0.25203959292E+02  0.12417664113E+02  0.54699113629E+02  0.61493340925E+02  0.51100000000E-03 0. -1.
         22    1    1    0    0    0  0.78189391787E+01  0.56705988653E+00 -0.28602441830E+02  0.29657327011E+02  0.00000000000E+00 0. -1.
</event>
<event>
 5    1  0.1046082E-009  0.9118800E+02  0.7561462E-02  0.1125453E+00
         25   -1    0    0    0    0  0.00000000000E+00  0.00000000000E+00  0.99999998245E-14  0.12509000000E+03  0.12509000000E+03 0.  0.
        -11    1    3    3    0    0  0.19674568624E+02  0.41831825985E+02 -0.40718125254E+02  0.61603214528E+02  0.51100000000E-03 0.  1.
         23    2    1    0    0    0  0.17021897686E+01  0.21461870301E+02 -0.18788197231E+02  0.96515436451E+02  0.92188523100E+02 0.  0.
         11    1    3    3    0    0 -0.17972378855E+02 -0.20369955684E+02  0.21929928023E+02  0.34912221923E+02  0.51100000000E-03 0. -1.
         22    1    1    0    0    0 -0.17021897686E+01 -0.21461870301E+02  0.18788197231E+02  0.28574563549E+02  0.00000000000E+00 0.  1.
</event>
<event>
 5    1  0.1046082E-009  0.9118800E+02  0.7561462E-02  0.1125453E+00
         25   -1    0    0    0    0  0.00000000000E+00  0.00000000000E+00  0.99999998245E-14  0.12509000000E+03  0.12509000000E+03 0.  0.
        -11    1    3    3    0    0  0.21606528502E+02  0.19046594813E+02 -0.11667539619E+02  0.31076459401E+02  0.51100000000E-03 0. -1.
         23    2    1    0    0    0 -0.40337498481E+01 -0.12956603820E+02  0.31606126505E+02  0.90693896252E+02  0.83918358327E+02 0.  0.
         11    1    3    3    0    0 -0.25640278350E+02 -0.32003198633E+02  0.43273666124E+02  0.59617436851E+02  0.51100000000E-03 0.  1.
         22    1    1    0    0    0  0.40337498481E+01  0.12956603820E+02 -0.31606126505E+02  0.34396103748E+02  0.00000000000E+00 0.  1.
</event>
<event>
 5    1  0.1046082E-009  0.9118800E+02  0.7561462E-02  0.1125453E+00
         25   -1    0    0    0    0  0.00000000000E+00  0.00000000000E+00  0.99999998245E-14  0.12509000000E+03  0.12509000000E+03 0.  0.
        -11    1    3    3    0    0 -0.21617316255E+02 -0.50612946373E+01 -0.48956416451E+02  0.53755518576E+02  0.51100000000E-03 0. -1.
         23    2    1    0    0    0 -0.26526387624E+02  0.26491760068E+01 -0.58802180549E+01  0.97790836308E+02  0.93903159306E+02 0.  0.
         11    1    3    3    0    0 -0.49090713691E+01  0.77104706440E+01  0.43076198396E+02  0.44035317732E+02  0.51100000000E-03 0.  1.
         22    1    1    0    0    0  0.26526387624E+02 -0.26491760068E+01  0.58802180549E+01  0.27299163692E+02  0.00000000000E+00 0.  1.
</event>
<event>
 5    1  0.1046082E-009  0.9118800E+02  0.7561462E-02  0.1125453E+00
         25   -1    0    0    0    0  0.00000000000E+00  0.00000000000E+00  0.99999998245E-14  0.12509000000E+03  0.12509000000E+03 0.  0.
        -11    1    3    3    0    0  0.32950306636E+02 -0.37253238472E+02  0.33455621941E+02  0.59940012711E+02  0.51100000000E-03 0.  1.
         23    2    1    0    0    0  0.21830193926E+02 -0.61022722672E+01  0.16045914018E+02  0.97318315674E+02  0.93271582571E+02 0.  0.
         11    1    3    3    0    0 -0.11120112710E+02  0.31150966205E+02 -0.17409707923E+02  0.37378302963E+02  0.51100000000E-03 0. -1.
         22    1    1    0    0    0 -0.21830193926E+02  0.61022722672E+01 -0.16045914018E+02  0.27771684326E+02  0.00000000000E+00 0.  1.
</event>
<event>
 5    1  0.1046082E-009  0.9118800E+02  0.7561462E-02  0.1125453E+00
         25   -1    0    0    0    0  0.00000000000E+00  0.00000000000E+00  0.99999998245E-14  0.12509000000E+03  0.12509000000E+03 0.  0.
        -11    1    3    3    0    0 -0.38657853034E+02 -0.16946238192E+01  0.10965302581E+01  0.38710511879E+02  0.51100000000E-03 0.  1.
         23    2    1    0    0    0  0.14560765671E+02 -0.24461406846E+02 -0.54445781482E+00  0.96617684391E+02  0.92327158415E+02 0.  0.
         11    1    3    3    0    0  0.53218618705E+02 -0.22766783027E+02 -0.16409880730E+01  0.57907172512E+02  0.51100000000E-03 0. -1.
         22    1    1    0    0    0 -0.14560765671E+02  0.24461406846E+02  0.54445781482E+00  0.28472315609E+02  0.00000000000E+00 0. -1.
</event>
<event>
 5    1  0.1046082E-009  0.9118800E+02  0.7561462E-02  0.1125453E+00
         25   -1    0    0    0    0  0.00000000000E+00  0.00000000000E+00  0.99999998245E-14  0.12509000000E+03  0.12509000000E+03 0.  0.
        -11    1    3    3    0    0  0.69718667216E+01 -0.49997201875E+01 -0.35963372293E+02  0.36972534055E+02  0.51100000000E-03 0. -1.
         23    2    1    0    0    0  0.21751121378E+02 -0.12051634830E+02  0.18661886932E+02  0.93999499729E+02  0.88709000344E+02 0.  0.
         11    1    3    3    0    0  0.14779254656E+02 -0.70519146422E+01  0.54625259225E+02  0.57026965674E+02  0.51100000000E-03 0.  1.
         22    1    1    0    0    0 -0.21751121378E+02  0.12051634830E+02 -0.18661886932E+02  0.31090500271E+02  0.00000000000E+00 0.  1.
</event>
<event>
 5    1  0.1046082E-009  0.9118800E+02  0.7561462E-02  0.1125453E+00
         25   -1    0    0    0    0  0.00000000000E+00  0.00000000000E+00  0.99999998245E-14  0.12509000000E+03  0.12509000000E+03 0.  0.
        -11    1    3    3    0    0 -0.34249798860E+02  0.31266508808E+02  0.20281713610E+02  0.50616116033E+02  0.51100000000E-03 0.  1.
         23    2    1    0    0    0 -0.38078271475E+02  0.31391774566E+01  0.25053357871E+02  0.79401052384E+02  0.64938795688E+02 0.  0.
         11    1    3    3    0    0 -0.38284726147E+01 -0.28127331352E+02  0.47716442614E+01  0.28784936351E+02  0.51100000000E-03 0. -1.
         22    1    1    0    0    0  0.38078271475E+02 -0.31391774566E+01 -0.25053357871E+02  0.45688947616E+02  0.00000000000E+00 0.  1.
</event>
<event>
 5    1  0.1046082E-009  0.9118800E+02  0.7561462E-02  0.1125453E+00
         25   -1    0    0    0    0  0.00000000000E+00  0.00000000000E+00  0.99999998245E-14  0.12509000000E+03  0.12509000000E+03 0.  0.
        -11    1    3    3    0    0  0.53328126170E+02 -0.13001418176E+02 -0.13631618734E+02  0.56557465864E+02  0.51100000000E-03 0.  1.
         23    2    1    0    0    0  0.20043635929E+02 -0.21772769716E+02  0.39925953927E+01  0.95227956193E+02  0.90424675727E+02 0.  0.
         11    1    3    3    0    0 -0.33284490241E+02 -0.87713515400E+01  0.17624214127E+02  0.38670490329E+02  0.51100000000E-03 0. -1.
         22    1    1    0    0    0 -0.20043635929E+02  0.21772769716E+02 -0.39925953927E+01  0.29862043807E+02  0.00000000000E+00 0.  1.
</event>
<event>
 5    1  0.1046082E-009  0.9118800E+02  0.7561462E-02  0.1125453E+00
         25   -1    0    0    0    0  0.00000000000E+00  0.00000000000E+00  0.99999998245E-14  0.12509000000E+03  0.12509000000E+03 0.  0.
        -11    1    3    3    0    0 -0.42598644732E+02  0.19576452489E+02 -0.41361331238E+02  0.62519131049E+02  0.51100000000E-03 0. -1.
         23    2    1    0    0    0 -0.20320777506E+02  0.81182430849E+01 -0.20107847496E+02  0.95371901135E+02  0.90623584821E+02 0.  0.
         11    1    3    3    0    0  0.22277867225E+02 -0.11458209404E+02  0.21253483742E+02  0.32852770086E+02  0.51100000000E-03 0.  1.
         22    1    1    0    0    0  0.20320777506E+02 -0.81182430849E+01  0.20107847496E+02  0.29718098865E+02  0.00000000000E+00 0. -1.
</event>
<event>
 5    1  0.1046082E-009  0.9118800E+02  0.7561462E-02  0.1125453E+00
         25   -1    0    0    0    0  0.00000000000E+00  0.00000000000E+00  0.99999998245E-14  0.12509000000E+03  0.12509000000E+03 0.  0.
        -11    1    3    3    0    0 -0.43060906517E+01  0.47436527681E+02  0.30186357761E+02  0.56391335950E+02  0.51100000000E-03 0. -1.
         23    2    1    0    0    0 -0.59151117484E+01  0.25757826278E+02 -0.54224788661E+01  0.98111166841E+02  0.94328911900E+02 0.  0.
         11    1    3    3    0    0 -0.16090210967E+01 -0.21678701403E+02 -0.35608836627E+02  0.41719830891E+02  0.51100000000E-03 0.  1.
         22    1    1    0    0    0  0.59151117484E+01 -0.25757826278E+02  0.54224788661E+01  0.26978833159E+02  0.00000000000E+00 0. -1.
</event>
<event>
 5    1  0.1046082E-009  0.9118800E+02  0.7561462E-02  0.1125453E+00
         25   -1    0    0    0    0  0.00000000000E+00  0.00000000000E+00  0.99999998245E-14  0.12509000000E+03  0.12509000000E+03 0.  0.
        -11    1    3    3    0    0 -0.36220266041E+02 -0.17718715653E+02 -0.32884003413E+02  0.52030935386E+02  0.51100000000E-03 0.  1.
         23    2    1    0    0    0  0.95804113265E+00  0.54927590075E+01 -0.28466948426E+02  0.96082149390E+02  0.91598711969E+02 0.  0.
         11    1    3    3    0    0  0.37178307174E+02  0.23211474660E+02  0.44170549866E+01  0.44051214004E+02  0.51100000000E-03 0. -1.
         22    1    1    0    0    0 -0.95804113265E+00 -0.54927590075E+01  0.28466948426E+02  0.29007850610E+02  0.00000000000E+00 0.  1.
</event>
<event>
 5    1  0.1046082E-009  0.9118800E+02  0.7561462E-02  0.1125453E+00
         25   -1    0    0    0    0  0.00000000000E+00  0.00000000000E+00  0.99999998245E-14  0.12509000000E+03  0.12509000000E+03 0.  0.
        -11    1    3    3    0    0  0.47217208623E+02  0.22605122483E+02  0.32376570635E+02  0.61552405956E+02  0.51100000000E-03 0.  1.
         23    2    1    0    0    0  0.28591756926E+02  0.18461036269E+02  0.13253623874E+02  0.88566624334E+02  0.80685128591E+02 0.  0.
         11    1    3    3    0    0 -0.18625451697E+02 -0.41440862139E+01 -0.19122946761E+02  0.27014218377E+02  0.51100000000E-03 0. -1.
         22    1    1    0    0    0 -0.28591756926E+02 -0.18461036269E+02 -0.13253623874E+02  0.36523375666E+02  0.00000000000E+00 0.  1.
</event>
<event>
 5    1  0.1046082E-009  0.9118800E+02  0.7561462E-02  0.1125453E+00
         25   -1    0    0    0    0  0.00000000000E+00  0.00000000000E+00  0.99999998245E-14  0.12509000000E+03  0.12509000000E+03 0.  0.
        -11    1    3    3    0    0 -0.18024573277E+02 -0.26227671266E+02  0.47595175128E+02  0.57254490458E+02  0.51100000000E-03 0.  1.
         23    2    1    0    0    0 -0.21121701605E+02  0.78515910728E+00  0.21494483805E+02  0.94944426734E+02  0.90031597677E+02 0.  0.
         11    1    3    3    0    0 -0.30971283281E+01  0.27012830373E+02 -0.26100691323E+02  0.37689936276E+02  0.51100000000E-03 0. -1.
         22    1    1    0    0    0  0.21121701605E+02 -0.78515910728E+00 -0.21494483805E+02  0.30145573266E+02  0.00000000000E+00 0.  1.
</event>
<event>
 5    1  0.1046082E-009  0.9118800E+02  0.7561462E-02  0.1125453E+00
         25   -1    0    0    0    0  0.00000000000E+00  0.00000000000E+00  0.99999998245E-14  0.12509000000E+03  0.12509000000E+03 0.  0.
        -11    1    3    3    0    0 -0.93670474333E+01  0.27986641513E+02  0.31566765257E+02  0.43214052690E+02  0.51100000000E-03 0.  1.
         23    2    1    0    0    0  0.11200197024E+00  0.21383039310E+02 -0.19850491444E+02  0.95913144015E+02  0.91367621561E+02 0.  0.
         11    1    3    3    0    0  0.94790494036E+01 -0.66036022027E+01 -0.51417256701E+02  0.52699091326E+02  0.51100000000E-03 0. -1.
         22    1    1    0    0    0 -0.11200197024E+00 -0.21383039310E+02  0.19850491444E+02  0.29176855985E+02  0.00000000000E+00 0.  1.
</event>
<event>
 5    1  0.1046082E-009  0.9118800E+02  0.7561462E-02  0.1125453E+00
         25   -1    0    0    0    0  0.00000000000E+00  0.00000000000E+00  0.99999998245E-14  0.12509000000E+03  0.12509000000E+03 0.  0.
        -11    1    3    3    0    0 -0.40282931787E+02  0.40619350516E+01  0.42659878323E+02  0.58813936516E+02  0.51100000000E-03 0.  1.
         23    2    1    0    0    0 -0.14300611153E+02  0.15993871201E+02  0.23704805171E+02  0.93117680979E+02  0.87456694011E+02 0.  0.
         11    1    3    3    0    0  0.25982320634E+02  0.11931936150E+02 -0.18955073151E+02  0.34303744464E+02  0.51100000000E-03 0. -1.
         22    1    1    0    0    0  0.14300611153E+02 -0.15993871201E+02 -0.23704805171E+02  0.31972319021E+02  0.00000000000E+00 0. -1.
</event>
<event>
 5    1  0.1046082E-009  0.9118800E+02  0.7561462E-02  0.1125453E+00
         25   -1    0    0    0    0  0.00000000000E+00  0.00000000000E+00  0.99999998245E-14  0.12509000000E+03  0.12509000000E+03 0.  0.
        -11    1    3    3    0    0 -0.38584836881E+02 -0.37721165259E+01 -0.31912763539E+02  0.50213971932E+02  0.51100000000E-03 0. -1.
         23    2    1    0    0    0  0.10719478012E+02  0.21106177669E+01 -0.21536852052E+02  0.10094050906E+03  0.98009124358E+02 0.  0.
         11    1    3    3    0    0  0.49304314893E+02  0.58827342929E+01  0.10375911488E+02  0.50726537131E+02  0.51100000000E-03 0.  1.
         22    1    1    0    0    0 -0.10719478012E+02 -0.21106177669E+01  0.21536852052E+02  0.24149490937E+02  0.00000000000E+00 0.  1.
</event>
<event>
 5    1  0.1046082E-009  0.9118800E+02  0.7561462E-02  0.1125453E+00
         25   -1    0    0    0    0  0.00000000000E+00  0.00000000000E+00  0.99999998245E-14  0.12509000000E+03  0.12509000000E+03 0.  0.
        -11    1    3    3    0    0  0.18419698203E+02 -0.21009770629E+02 -0.27654124586E+02  0.39312165428E+02  0.51100000000E-03 0. -1.
         23    2    1    0    0    0 -0.24690927838E+02  0.10897994128E+02 -0.14132844304E+02  0.94624519836E+02  0.89586016054E+02 0.  0.
         11    1    3    3    0    0 -0.43110626041E+02  0.31907764757E+02  0.13521280282E+02  0.55312354408E+02  0.51100000000E-03 0.  1.
         22    1    1    0    0    0  0.24690927838E+02 -0.10897994128E+02  0.14132844304E+02  0.30465480164E+02  0.00000000000E+00 0.  1.
</event>
<event>
 5    1  0.1046082E-009  0.9118800E+02  0.7561462E-02  0.1125453E+00
         25   -1    0    0    0    0  0.00000000000E+00  0.00000000000E+00  0.99999998245E-14  0.12509000000E+03  0.12509000000E+03 0.  0.
        -11    1    3    3    0    0  0.48226144064E+01 -0.16662695010E+02 -0.30787694424E+02  0.35338154209E+02  0.51100000000E-03 0.  1.
         23    2    1    0    0    0  0.10400825846E+02 -0.74666658156E+01  0.27577065233E+02  0.94685677880E+02  0.89671371084E+02 0.  0.
         11    1    3    3    0    0  0.55782114397E+01  0.91960291942E+01  0.58364759657E+02  0.59347523671E+02  0.51100000000E-03 0. -1.
         22    1    1    0    0    0 -0.10400825846E+02  0.74666658156E+01 -0.27577065233E+02  0.30404322120E+02  0.00000000000E+00 0. -1.
</event>
<event>
 5    1  0.1046082E-009  0.9118800E+02  0.7561462E-02  0.1125453E+00
         25   -1    0    0    0    0  0.00000000000E+00  0.00000000000E+00  0.99999998245E-14  0.12509000000E+03  0.12509000000E+03 0.  0.
        -11    1    3    3    0    0  0.54540645579E+02  0.28700903284E+02  0.90221876093E+01  0.62288231144E+02  0.51100000000E-03 0.  1.
         23    2    1    0    0    0  0.24259998842E+02  0.15923003890E+02  0.13405127968E+01  0.96040274162E+02  0.91541508017E+02 0.  0.
         11    1    3    3    0    0 -0.30280646737E+02 -0.12777899394E+02 -0.76816748125E+01  0.33752043019E+02  0.51100000000E-03 0. -1.
         22    1    1    0    0    0 -0.24259998842E+02 -0.15923003890E+02 -0.13405127968E+01  0.29049725838E+02  0.00000000000E+00 0.  1.
</event>
<event>
 5    1  0.1046082E-009  0.9118800E+02  0.7561462E-02  0.1125453E+00
         25   -1    0    0    0    0  0.00000000000E+00  0.00000000000E+00  0.99999998245E-14  0.12509000000E+03  0.12509000000E+03 0.  0.
        -11    1    3    3    0    0 -0.28590351248E+02 -0.48924273981E+02 -0.12728290219E+02  0.58077552817E+02  0.51100000000E-03 0.  1.
         23    2    1    0    0    0  0.22256147644E+01 -0.28763291205E+02 -0.75864363683E+01  0.95259909507E+02  0.90468867908E+02 0.  0.
         11    1    3    3    0    0  0.30815966012E+02  0.20160982776E+02  0.51418538506E+01  0.37182356690E+02  0.51100000000E-03 0. -1.
         22    1    1    0    0    0 -0.22256147644E+01  0.28763291205E+02  0.75864363683E+01  0.29830090493E+02  0.00000000000E+00 0.  1.
</event>
<event>
 5    1  0.1046082E-009  0.9118800E+02  0.7561462E-02  0.1125453E+00
         25   -1    0    0    0    0  0.00000000000E+00  0.00000000000E+00  0.99999998245E-14  0.12509000000E+03  0.12509000000E+03 0.  0.
        -11    1    3    3    0    0  0.34261045163E+02  0.15229880694E+02  0.25500974683E+02  0.45343888140E+02  0.51100000000E-03 0. -1.
         23    2    1    0    0    0 -0.23367342207E+01 -0.17140022762E+02  0.25588360818E+02  0.94203029989E+02  0.88995538892E+02 0.  0.
         11    1    3    3    0    0 -0.36597779384E+02 -0.32369903456E+02  0.87386134679E-01  0.48859141849E+02  0.51100000000E-03 0.  1.
         22    1    1    0    0    0  0.23367342207E+01  0.17140022762E+02 -0.25588360818E+02  0.30886970011E+02  0.00000000000E+00 0. -1.
</event>
<event>
 5    1  0.1046082E-009  0.9118800E+02  0.7561462E-02  0.1125453E+00
         25   -1    0    0    0    0  0.00000000000E+00  0.00000000000E+00  0.99999998245E-14  0.12509000000E+03  0.12509000000E+03 0.  0.
        -11    1    3    3    0    0  0.56013431653E+01 -0.90620092132E+01 -0.37447126602E+02  0.38933049550E+02  0.51100000000E-03 0. -1.
         23    2    1    0    0    0 -0.18293611629E+02  0.21153730971E+02  0.54595674571E+01  0.96595378802E+02  0.92296932607E+02 0.  0.
         11    1    3    3    0    0 -0.23894954794E+02  0.30215740184E+02  0.42906694059E+02  0.57662329252E+02  0.51100000000E-03 0.  1.
         22    1    1    0    0    0  0.18293611629E+02 -0.21153730971E+02 -0.54595674571E+01  0.28494621198E+02  0.00000000000E+00 0. -1.
</event>
<event>
 5    1  0.1046082E-009  0.9118800E+02  0.7561462E-02  0.1125453E+00
         25   -1    0    0    0    0  0.00000000000E+00  0.00000000000E+00  0.99999998245E-14  0.12509000000E+03  0.12509000000E+03 0.  0.
        -11    1    3    3    0    0  0.33909788851E+02  0.12313208364E+02 -0.30581988412E+02  0.47294258590E+02  0.51100000000E-03 0.  1.
         23    2    1    0    0    0  0.87224867292E+01 -0.24910591058E+02 -0.14105145645E+02  0.95163849976E+02  0.90335950136E+02 0.  0.
         11    1    3    3    0    0 -0.25187302121E+02 -0.37223799422E+02  0.16476842767E+02  0.47869591386E+02  0.51100000000E-03 0. -1.
         22    1    1    0    0    0 -0.87224867292E+01  0.24910591058E+02  0.14105145645E+02  0.29926150024E+02  0.00000000000E+00 0. -1.
</event>
<event>
 5    1  0.1046082E-009  0.9118800E+02  0.7561462E-02  0.1125453E+00
         25   -1    0    0    0    0  0.00000000000E+00  0.00000000000E+00  0.99999998245E-14  0.12509000000E+03  0.12509000000E+03 0.  0.
        -11    1    3    3    0    0 -0.44848204866E+02 -0.22049467529E+01 -0.39368257378E+02  0.59716689117E+02  0.51100000000E-03 0. -1.
         23    2    1    0    0    0 -0.18859972338E+02  0.12099477945E+02 -0.14779852027E+02  0.98247124798E+02  0.94509034394E+02 0.  0.
         11    1    3    3    0    0  0.25988232527E+02  0.14304424698E+02  0.24588405351E+02  0.38530435681E+02  0.51100000000E-03 0.  1.
         22    1    1    0    0    0  0.18859972338E+02 -0.12099477945E+02  0.14779852027E+02  0.26842875202E+02  0.00000000000E+00 0. -1.
</event>
<event>
 5    1  0.1046082E-009  0.9118800E+02  0.7561462E-02  0.1125453E+00
         25   -1    0    0    0    0  0.00000000000E+00  0.00000000000E+00  0.99999998245E-14  0.12509000000E+03  0.12509000000E+03 0.  0.
        -11    1    3    3    0    0 -0.24985862626E+02  0.16914898844E+02  0.85778821064E+01  0.31368570190E+02  0.51100000000E-03 0. -1.
         23    2    1    0    0    0  0.28116714182E+02 -0.13624474999E+02 -0.29694946068E+01  0.93705388586E+02  0.88293295421E+02 0.  0.
         11    1    3    3    0    0  0.53102576808E+02 -0.30539373844E+02 -0.11547376713E+02  0.62336818395E+02  0.51100000000E-03 0.  1.
         22    1    1    0    0    0 -0.28116714182E+02  0.13624474999E+02  0.29694946068E+01  0.31384611414E+02  0.00000000000E+00 0.  1.
</event>
<event>
 5    1  0.1046082E-009  0.9118800E+02  0.7561462E-02  0.1125453E+00
         25   -1    0    0    0    0  0.00000000000E+00  0.00000000000E+00  0.99999998245E-14  0.12509000000E+03  0.12509000000E+03 0.  0.
        -11    1    3    3    0    0  0.34634130773E+02 -0.74967627612E+00 -0.15209318777E+02  0.37833958382E+02  0.51100000000E-03 0.  1.
         23    2    1    0    0    0 -0.15218986776E+02  0.24474382952E+02  0.17334733799E+01  0.96217557960E+02  0.91783443771E+02 0.  0.
         11    1    3    3    0    0 -0.49853117550E+02  0.25224059228E+02  0.16942792157E+02  0.58383599578E+02  0.51100000000E-03 0. -1.
         22    1    1    0    0    0  0.15218986776E+02 -0.24474382952E+02 -0.17334733799E+01  0.28872442040E+02  0.00000000000E+00 0. -1.
</event>
<event>
 5    1  0.1046082E-009  0.9118800E+02  0.7561462E-02  0.1125453E+00
         25   -1    0    0    0    0  0.00000000000E+00  0.00000000000E+00  0.99999998245E-14  0.12509000000E+03  0.12509000000E+03 0.  0.
        -11    1    3    3    0    0 -0.35360415145E+02  0.11229713365E+02  0.50159502679E+01  0.37438284935E+02  0.51100000000E-03 0.  1.
         23    2    1    0    0    0  0.20335656448E+02  0.16145611084E+02 -0.12826842842E+02  0.96128860904E+02  0.91662480442E+02 0.  0.
         11    1    3    3    0    0  0.55696071593E+02  0.49158977188E+01 -0.17842793110E+02  0.58690575969E+02  0.51100000000E-03 0. -1.
         22    1    1    0    0    0 -0.20335656448E+02 -0.16145611084E+02  0.12826842842E+02  0.28961139096E+02  0.00000000000E+00 0. -1.
</event>
<event>
 5    1  0.1046082E-009  0.9118800E+02  0.7561462E-02  0.1125453E+00
         25   -1    0    0    0    0  0.00000000000E+00  0.00000000000E+00  0.99999998245E-14  0.12509000000E+03  0.12509000000E+03 0.  0.
        -11    1    3    3    0    0 -0.61061269147E+02  0.37049510313E+01 -0.23592020093E+01  0.61219041861E+02  0.51100000000E-03 0. -1.
         23    2    1    0    0    0 -0.27023390267E+02  0.44879326205E+01 -0.96659582948E+01  0.96041146142E+02  0.91542699555E+02 0.  0.
         11    1    3    3    0    0  0.34037878881E+02  0.78298158913E+00 -0.73067562855E+01  0.34822104281E+02  0.51100000000E-03 0.  1.
         22    1    1    0    0    0  0.27023390267E+02 -0.44879326205E+01  0.96659582948E+01  0.29048853858E+02  0.00000000000E+00 0. -1.
</event>
<event>
 5    1  0.1046082E-009  0.9118800E+02  0.7561462E-02  0.1125453E+00
         25   -1    0    0    0    0  0.00000000000E+00  0.00000000000E+00  0.99999998245E-14  0.12509000000E+03  0.12509000000E+03 0.  0.
        -11    1    3    3    0    0  0.28638821299E+02  0.28299257348E+02 -0.20527631748E+02  0.45193071563E+02  0.51100000000E-03 0. -1.
         23    2    1    0    0    0  0.33935916391E+01 -0.17826684965E+02 -0.20414741991E+02  0.97775739043E+02  0.93883045827E+02 0.  0.
         11    1    3    3    0    0 -0.25245229660E+02 -0.46125942314E+02  0.11288975701E+00  0.52582667480E+02  0.51100000000E-03 0.  1.
         22    1    1    0    0    0 -0.33935916391E+01  0.17826684965E+02  0.20414741991E+02  0.27314260957E+02  0.00000000000E+00 0.  1.
</event>
<event>
 5    1  0.1046082E-009  0.9118800E+02  0.7561462E-02  0.1125453E+00
         25   -1    0    0    0    0  0.00000000000E+00  0.00000000000E+00  0.99999998245E-14  0.12509000000E+03  0.12509000000E+03 0.  0.
        -11    1    3    3    0    0 -0.12687112514E+02 -0.84109395457E+01 -0.49178394933E+02  0.51480299693E+02  0.51100000000E-03 0.  1.
         23    2    1    0    0    0  0.19925753054E+02  0.27937810050E+01 -0.20927423211E+02  0.96059018457E+02  0.91567118212E+02 0.  0.
         11    1    3    3    0    0  0.32612865569E+02  0.11204720551E+02  0.28250971722E+02  0.44578718765E+02  0.51100000000E-03 0. -1.
         22    1    1    0    0    0 -0.19925753054E+02 -0.27937810050E+01  0.20927423211E+02  0.29030981543E+02  0.00000000000E+00 0.  1.
</event>
<event>
 5    1  0.1046082E-009  0.9118800E+02  0.7561462E-02  0.1125453E+00
         25   -1    0    0    0    0  0.00000000000E+00  0.00000000000E+00  0.99999998245E-14  0.12509000000E+03  0.12509000000E+03 0.  0.
        -11    1    3    3    0    0 -0.20477471890E+02  0.15142649795E+02 -0.37297549198E+02  0.45163413005E+02  0.51100000000E-03 0. -1.
         23    2    1    0    0    0 -0.24327456501E+02 -0.10203233970E+02  0.82665612996E+01  0.97444617764E+02  0.93440817485E+02 0.  0.
         11    1    3    3    0    0 -0.38499846113E+01 -0.25345883765E+02  0.45564110498E+02  0.52281204759E+02  0.51100000000E-03 0.  1.
         22    1    1    0    0    0  0.24327456501E+02  0.10203233970E+02 -0.82665612996E+01  0.27645382236E+02  0.00000000000E+00 0.  1.
</event>
<event>
 5    1  0.1046082E-009  0.9118800E+02  0.7561462E-02  0.1125453E+00
         25   -1    0    0    0    0  0.00000000000E+00  0.00000000000E+00  0.99999998245E-14  0.12509000000E+03  0.12509000000E+03 0.  0.
        -11    1    3    3    0    0  0.59765032579E+02  0.13116037987E+02 -0.10622017839E+01  0.61196550920E+02  0.51100000000E-03 0. -1.
         23    2    1    0    0    0  0.49578216918E+02  0.39811052330E+01 -0.40015957572E+01  0.75191487394E+02  0.56248539681E+02 0.  0.
         11    1    3    3    0    0 -0.10186815661E+02 -0.91349327539E+01 -0.29393939733E+01  0.13994936474E+02  0.51100000000E-03 0.  1.
         22    1    1    0    0    0 -0.49578216918E+02 -0.39811052330E+01  0.40015957572E+01  0.49898512606E+02  0.00000000000E+00 0. -1.
</event>
<event>
 5    1  0.1046082E-009  0.9118800E+02  0.7561462E-02  0.1125453E+00
         25   -1    0    0    0    0  0.00000000000E+00  0.00000000000E+00  0.99999998245E-14  0.12509000000E+03  0.12509000000E+03 0.  0.
        -11    1    3    3    0    0  0.43853804003E+01  0.26675765033E+02  0.28234428193E+02  0.39089780467E+02  0.51100000000E-03 0.  1.
         23    2    1    0    0    0  0.14050395106E+02  0.56887046134E+01 -0.24282354042E+02  0.96464702087E+02  0.92119656252E+02 0.  0.
         11    1    3    3    0    0  0.96650147060E+01 -0.20987060419E+02 -0.52516782235E+02  0.57374921620E+02  0.51100000000E-03 0. -1.
         22    1    1    0    0    0 -0.14050395106E+02 -0.56887046134E+01  0.24282354042E+02  0.28625297913E+02  0.00000000000E+00 0. -1.
</event>
<event>
 5    1  0.1046082E-009  0.9118800E+02  0.7561462E-02  0.1125453E+00
         25   -1    0    0    0    0  0.00000000000E+00  0.00000000000E+00  0.99999998245E-14  0.12509000000E+03  0.12509000000E+03 0.  0.
        -11    1    3    3    0    0  0.12769712939E+02  0.33284036934E+02  0.13014155021E+02  0.37950769615E+02  0.51100000000E-03 0. -1.
         23    2    1    0    0    0  0.15933120209E+01 -0.17237909447E+02 -0.19463047103E+02  0.99042075557E+02  0.95555420374E+02 0.  0.
         11    1    3    3    0    0 -0.11176400919E+02 -0.50521946381E+02 -0.32477202124E+02  0.61091305942E+02  0.51100000000E-03 0.  1.
         22    1    1    0    0    0 -0.15933120209E+01  0.17237909447E+02  0.19463047103E+02  0.26047924443E+02  0.00000000000E+00 0.  1.
</event>
<event>
 5    1  0.1046082E-009  0.9118800E+02  0.7561462E-02  0.1125453E+00
         25   -1    0    0    0    0  0.00000000000E+00  0.00000000000E+00  0.99999998245E-14  0.12509000000E+03  0.12509000000E+03 0.  0.
        -11    1    3    3    0    0 -0.24205398733E+02  0.10638320841E+02  0.29188888838E+02  0.39383580716E+02  0.51100000000E-03 0. -1.
         23    2    1    0    0    0 -0.13746919589E+02  0.48019188089E+01 -0.25693231685E+02  0.95557333733E+02  0.90879181628E+02 0.  0.
         11    1    3    3    0    0  0.10458479144E+02 -0.58364020317E+01 -0.54882120523E+02  0.56173753017E+02  0.51100000000E-03 0.  1.
         22    1    1    0    0    0  0.13746919589E+02 -0.48019188089E+01  0.25693231685E+02  0.29532666267E+02  0.00000000000E+00 0.  1.
</event>
<event>
 5    1  0.1046082E-009  0.9118800E+02  0.7561462E-02  0.1125453E+00
         25   -1    0    0    0    0  0.00000000000E+00  0.00000000000E+00  0.99999998245E-14  0.12509000000E+03  0.12509000000E+03 0.  0.
        -11    1    3    3    0    0  0.83587083197E+01 -0.57013815194E+02  0.15002503207E+02  0.59544254387E+02  0.51100000000E-03 0.  1.
         23    2    1    0    0    0 -0.79870487332E+01 -0.27335189315E+02  0.13791439880E+02  0.93448107890E+02  0.87928036097E+02 0.  0.
         11    1    3    3    0    0 -0.16345757053E+02  0.29678625879E+02 -0.12110633261E+01  0.33903853503E+02  0.51100000000E-03 0. -1.
         22    1    1    0    0    0  0.79870487332E+01  0.27335189315E+02 -0.13791439880E+02  0.31641892110E+02  0.00000000000E+00 0.  1.
</event>
<event>
 5    1  0.1046082E-009  0.9118800E+02  0.7561462E-02  0.1125453E+00
         25   -1    0    0    0    0  0.00000000000E+00  0.00000000000E+00  0.99999998245E-14  0.12509000000E+03  0.12509000000E+03 0.  0.
        -11    1    3    3    0    0 -0.11938580344E+02  0.38667854231E+02 -0.11190051110E+02  0.41987496896E+02  0.51100000000E-03 0.  1.
         23    2    1    0    0    0 -0.15633226175E+02 -0.14532308660E+02 -0.19763775044E+02  0.96000610876E+02  0.91487292719E+02 0.  0.
         11    1    3    3    0    0 -0.36946458303E+01 -0.53200162891E+02 -0.85737239337E+01  0.54013113980E+02  0.51100000000E-03 0. -1.
         22    1    1    0    0    0  0.15633226175E+02  0.14532308660E+02  0.19763775044E+02  0.29089389124E+02  0.00000000000E+00 0. -1.
</event>
<event>
 5    1  0.1046082E-009  0.9118800E+02  0.7561462E-02  0.1125453E+00
         25   -1    0    0    0    0  0.00000000000E+00  0.00000000000E+00  0.99999998245E-14  0.12509000000E+03  0.12509000000E+03 0.  0.
        -11    1    3    3    0    0 -0.64931254812E-01  0.33858622266E+02 -0.24825306582E+02  0.41984596758E+02  0.51100000000E-03 0.  1.
         23    2    1    0    0    0  0.20665152746E+02 -0.15218855481E+02 -0.11871802256E+02  0.96812769072E+02  0.92591092803E+02 0.  0.
         11    1    3    3    0    0  0.20730084001E+02 -0.49077477747E+02  0.12953504326E+02  0.54828172314E+02  0.51100000000E-03 0. -1.
         22    1    1    0    0    0 -0.20665152746E+02  0.15218855481E+02  0.11871802256E+02  0.28277230928E+02  0.00000000000E+00 0. -1.
</event>
<event>
 5    1  0.1046082E-009  0.9118800E+02  0.7561462E-02  0.1125453E+00
         25   -1    0    0    0    0  0.00000000000E+00  0.00000000000E+00  0.99999998245E-14  0.12509000000E+03  0.12509000000E+03 0.  0.
        -11    1    3    3    0    0 -0.35124224791E+02  0.83252050283E+01  0.40521245173E+02  0.54267776042E+02  0.51100000000E-03 0. -1.
         23    2    1    0    0    0 -0.15167285779E+00  0.19248243220E+02  0.23628896385E+02  0.94613080601E+02  0.89570041893E+02 0.  0.
         11    1    3    3    0    0  0.34972551933E+02  0.10923038192E+02 -0.16892348788E+02  0.40345304559E+02  0.51100000000E-03 0.  1.
         22    1    1    0    0    0  0.15167285779E+00 -0.19248243220E+02 -0.23628896385E+02  0.30476919399E+02  0.00000000000E+00 0. -1.
</event>
<event>
 5    1  0.1046082E-009  0.9118800E+02  0.7561462E-02  0.1125453E+00
         25   -1    0    0    0    0  0.00000000000E+00  0.00000000000E+00  0.99999998245E-14  0.12509000000E+03  0.12509000000E+03 0.  0.
        -11    1    3    3    0    0  0.86704110242E+01 -0.45295499043E+02 -0.30588813933E+02  0.55340164428E+02  0.51100000000E-03 0.  1.
         23    2    1    0    0    0  0.69039913930E+01 -0.29330248740E+02  0.51486045921E+01  0.94521442338E+02  0.89441971938E+02 0.  0.
         11    1    3    3    0    0 -0.17664196313E+01  0.15965250303E+02  0.35737418525E+02  0.39181277910E+02  0.51100000000E-03 0. -1.
         22    1    1    0    0    0 -0.69039913930E+01  0.29330248740E+02 -0.51486045921E+01  0.30568557662E+02  0.00000000000E+00 0. -1.
</event>
<event>
 5    1  0.1046082E-009  0.9118800E+02  0.7561462E-02  0.1125453E+00
         25   -1    0    0    0    0  0.00000000000E+00  0.00000000000E+00  0.99999998245E-14  0.12509000000E+03  0.12509000000E+03 0.  0.
        -11    1    3    3    0    0  0.27070519498E+02 -0.29559904222E+02 -0.16822500562E+02  0.43469500675E+02  0.51100000000E-03 0.  1.
         23    2    1    0    0    0  0.35407162820E+02  0.11457392441E+02 -0.13669970349E+02  0.85443977376E+02  0.75689273745E+02 0.  0.
         11    1    3    3    0    0  0.83366433224E+01  0.41017296662E+02  0.31525302134E+01  0.41974476702E+02  0.51100000000E-03 0. -1.
         22    1    1    0    0    0 -0.35407162820E+02 -0.11457392441E+02  0.13669970349E+02  0.39646022624E+02  0.00000000000E+00 0. -1.
</event>
<event>
 5    1  0.1046082E-009  0.9118800E+02  0.7561462E-02  0.1125453E+00
         25   -1    0    0    0    0  0.00000000000E+00  0.00000000000E+00  0.99999998245E-14  0.12509000000E+03  0.12509000000E+03 0.  0.
        -11    1    3    3    0    0 -0.50236195715E+02 -0.82222469587E+01 -0.11889401834E+02  0.52274645683E+02  0.51100000000E-03 0.  1.
         23    2    1    0    0    0 -0.19939713405E+02  0.20214783162E+02 -0.13045424242E+02  0.93842396530E+02  0.88487189264E+02 0.  0.
         11    1    3    3    0    0  0.30296482310E+02  0.28437030120E+02 -0.11560224082E+01  0.41567750848E+02  0.51100000000E-03 0. -1.
         22    1    1    0    0    0  0.19939713405E+02 -0.20214783162E+02  0.13045424242E+02  0.31247603470E+02  0.00000000000E+00 0.  1.
</event>
<event>
 5    1  0.1046082E-009  0.9118800E+02  0.7561462E-02  0.1125453E+00
         25   -1    0    0    0    0  0.00000000000E+00  0.00000000000E+00  0.99999998245E-14  0.12509000000E+03  0.12509000000E+03 0.  0.
        -11    1    3    3    0    0  0.15837084548E+02  0.34432377459E+02  0.20600475245E+02  0.43136776016E+02  0.51100000000E-03 0.  1.
         23    2    1    0    0    0 -0.18411045741E+02 -0.54911710929E+01  0.22160747583E+02  0.95760521677E+02  0.91158429194E+02 0.  0.
         11    1    3    3    0    0 -0.34248130290E+02 -0.39923548552E+02  0.15602723378E+01  0.52623745661E+02  0.51100000000E-03 0. -1.
         22    1    1    0    0    0  0.18411045741E+02  0.54911710929E+01 -0.22160747583E+02  0.29329478323E+02  0.00000000000E+00 0.  1.
</event>
<event>
 5    1  0.1046082E-009  0.9118800E+02  0.7561462E-02  0.1125453E+00
         25   -1    0    0    0    0  0.00000000000E+00  0.00000000000E+00  0.99999998245E-14  0.12509000000E+03  0.12509000000E+03 0.  0.
        -11    1    3    3    0    0 -0.18694006910E+01 -0.36526149406E+02  0.72446906179E+00  0.36581130451E+02  0.51100000000E-03 0.  1.
         23    2    1    0    0    0 -0.79268020959E+01  0.21396045846E+02  0.16516449101E+02  0.96922322421E+02  0.92738980603E+02 0.  0.
         11    1    3    3    0    0 -0.60574014048E+01  0.57922195252E+02  0.15791980039E+02  0.60341191970E+02  0.51100000000E-03 0. -1.
         22    1    1    0    0    0  0.79268020959E+01 -0.21396045846E+02 -0.16516449101E+02  0.28167677579E+02  0.00000000000E+00 0. -1.
</event>
<event>
 5    1  0.1046082E-009  0.9118800E+02  0.7561462E-02  0.1125453E+00
         25   -1    0    0    0    0  0.00000000000E+00  0.00000000000E+00  0.99999998245E-14  0.12509000000E+03  0.12509000000E+03 0.  0.
        -11    1    3    3    0    0  0.28121750534E+02 -0.22896370396E+02 -0.82687036932E+01  0.37194732038E+02  0.51100000000E-03 0.  1.
         23    2    1    0    0    0 -0.15692307730E+02 -0.18002322512E+01  0.24575848729E+02  0.95875933203E+02  0.91316662602E+02 0.  0.
         11    1    3    3    0    0 -0.43814058263E+02  0.21096138144E+02  0.32844552422E+02  0.58681201165E+02  0.51100000000E-03 0. -1.
         22    1    1    0    0    0  0.15692307730E+02  0.18002322512E+01 -0.24575848729E+02  0.29214066797E+02  0.00000000000E+00 0. -1.
</event>
<event>
 5    1  0.1046082E-009  0.9118800E+02  0.7561462E-02  0.1125453E+00
         25   -1    0    0    0    0  0.00000000000E+00  0.00000000000E+00  0.99999998245E-14  0.12509000000E+03  0.12509000000E+03 0.  0.
        -11    1    3    3    0    0 -0.44021447727E+02 -0.13173316050E+02 -0.73847247845E+00  0.45956168874E+02  0.51100000000E-03 0.  1.
         23    2    1    0    0    0 -0.94662272308E+01 -0.31069301644E+02  0.16664804893E+02  0.88584840299E+02  0.80713364730E+02 0.  0.
         11    1    3    3    0    0  0.34555220496E+02 -0.17895985595E+02  0.17403277372E+02  0.42628671425E+02  0.51100000000E-03 0. -1.
         22    1    1    0    0    0  0.94662272308E+01  0.31069301644E+02 -0.16664804893E+02  0.36505159701E+02  0.00000000000E+00 0.  1.
</event>
<event>
 5    1  0.1046082E-009  0.9118800E+02  0.7561462E-02  0.1125453E+00
         25   -1    0    0    0    0  0.00000000000E+00  0.00000000000E+00  0.99999998245E-14  0.12509000000E+03  0.12509000000E+03 0.  0.
        -11    1    3    3    0    0 -0.19819914435E+02 -0.18134067509E+02 -0.50798490660E+02  0.57464424353E+02  0.51100000000E-03 0. -1.
         23    2    1    0    0    0 -0.13841952561E+02  0.51304269678E+01 -0.37202711659E+02  0.85065473940E+02  0.75061122895E+02 0.  0.
         11    1    3    3    0    0  0.59779618736E+01  0.23264494477E+02  0.13595779001E+02  0.27601049587E+02  0.51100000000E-03 0.  1.
         22    1    1    0    0    0  0.13841952561E+02 -0.51304269678E+01  0.37202711659E+02  0.40024526060E+02  0.00000000000E+00 0. -1.
</event>
<event>
 5    1  0.1046082E-009  0.9118800E+02  0.7561462E-02  0.1125453E+00
         25   -1    0    0    0    0  0.00000000000E+00  0.00000000000E+00  0.99999998245E-14  0.12509000000E+03  0.12509000000E+03 0.  0.
        -11    1    3    3    0    0  0.11573511285E+02  0.92041497383E+01 -0.59575129267E+02  0.61382884938E+02  0.51100000000E-03 0.  1.
         23    2    1    0    0    0  0.19151739466E+01  0.12101739408E+02 -0.28067040335E+02  0.94465194024E+02  0.89363270648E+02 0.  0.
         11    1    3    3    0    0 -0.96583373387E+01  0.28975896692E+01  0.31508088932E+02  0.33082309086E+02  0.51100000000E-03 0. -1.
         22    1    1    0    0    0 -0.19151739466E+01 -0.12101739408E+02  0.28067040335E+02  0.30624805976E+02  0.00000000000E+00 0.  1.
</event>
<event>
 5    1  0.1046082E-009  0.9118800E+02  0.7561462E-02  0.1125453E+00
         25   -1    0    0    0    0  0.00000000000E+00  0.00000000000E+00  0.99999998245E-14  0.12509000000E+03  0.12509000000E+03 0.  0.
        -11    1    3    3    0    0 -0.52200616279E+01 -0.45843286003E+02  0.36267553215E+02  0.58687233121E+02  0.51100000000E-03 0.  1.
         23    2    1    0    0    0  0.11716231772E+02 -0.20958315504E+02  0.85614818813E+01  0.99598431831E+02  0.96280982419E+02 0.  0.
         11    1    3    3    0    0  0.16936293400E+02  0.24884970499E+02 -0.27706071334E+02  0.40911198710E+02  0.51100000000E-03 0. -1.
         22    1    1    0    0    0 -0.11716231772E+02  0.20958315504E+02 -0.85614818813E+01  0.25491568169E+02  0.00000000000E+00 0.  1.
</event>
<event>
 5    1  0.1046082E-009  0.9118800E+02  0.7561462E-02  0.1125453E+00
         25   -1    0    0    0    0  0.00000000000E+00  0.00000000000E+00  0.99999998245E-14  0.12509000000E+03  0.12509000000E+03 0.  0.
        -11    1    3    3    0    0  0.22166377189E+02  0.48668302417E+02  0.11213797356E+02  0.54641570157E+02  0.51100000000E-03 0.  1.
         23    2    1    0    0    0  0.22077798968E+02  0.54297536850E+01  0.14692742915E+02  0.98019940400E+02  0.94207858427E+02 0.  0.
         11    1    3    3    0    0 -0.88578220908E-01 -0.43238548732E+02  0.34789455585E+01  0.43378370244E+02  0.51100000000E-03 0. -1.
         22    1    1    0    0    0 -0.22077798968E+02 -0.54297536850E+01 -0.14692742915E+02  0.27070059600E+02  0.00000000000E+00 0.  1.
</event>
<event>
 5    1  0.1046082E-009  0.9118800E+02  0.7561462E-02  0.1125453E+00
         25   -1    0    0    0    0  0.00000000000E+00  0.00000000000E+00  0.99999998245E-14  0.12509000000E+03  0.12509000000E+03 0.  0.
        -11    1    3    3    0    0  0.47328527197E+00  0.45379327607E+02  0.24998741524E+01  0.45450596741E+02  0.51100000000E-03 0.  1.
         23    2    1    0    0    0  0.95640770879E+01  0.19223543739E+01  0.27155809778E+02  0.96235104027E+02  0.91807353875E+02 0.  0.
         11    1    3    3    0    0  0.90907918160E+01 -0.43456973233E+02  0.24655935626E+02  0.50784507286E+02  0.51100000000E-03 0. -1.
         22    1    1    0    0    0 -0.95640770879E+01 -0.19223543739E+01 -0.27155809778E+02  0.28854895973E+02  0.00000000000E+00 0. -1.
</event>
<event>
 5    1  0.1046082E-009  0.9118800E+02  0.7561462E-02  0.1125453E+00
         25   -1    0    0    0    0  0.00000000000E+00  0.00000000000E+00  0.99999998245E-14  0.12509000000E+03  0.12509000000E+03 0.  0.
        -11    1    3    3    0    0  0.28234912452E+02  0.36639964002E+00 -0.21918577575E+02  0.35745888897E+02  0.51100000000E-03 0. -1.
         23    2    1    0    0    0 -0.33100226155E+01  0.17027524194E+02  0.24984377377E+02  0.94674347076E+02  0.89655563416E+02 0.  0.
         11    1    3    3    0    0 -0.31544935068E+02  0.16661124553E+02  0.46902954952E+02  0.58928458179E+02  0.51100000000E-03 0.  1.
         22    1    1    0    0    0  0.33100226155E+01 -0.17027524194E+02 -0.24984377377E+02  0.30415652924E+02  0.00000000000E+00 0.  1.
</event>
<event>
 5    1  0.1046082E-009  0.9118800E+02  0.7561462E-02  0.1125453E+00
         25   -1    0    0    0    0  0.00000000000E+00  0.00000000000E+00  0.99999998245E-14  0.12509000000E+03  0.12509000000E+03 0.  0.
        -11    1    3    3    0    0 -0.39952573015E+02 -0.27039847464E+02 -0.95755439039E+01  0.49183864048E+02  0.51100000000E-03 0.  1.
         23    2    1    0    0    0 -0.49922967853E+01 -0.19871121838E+02  0.20686147453E+02  0.95974691196E+02  0.91451846036E+02 0.  0.
         11    1    3    3    0    0  0.34960276230E+02  0.71687256250E+01  0.30261691357E+02  0.46790827148E+02  0.51100000000E-03 0. -1.
         22    1    1    0    0    0  0.49922967853E+01  0.19871121838E+02 -0.20686147453E+02  0.29115308804E+02  0.00000000000E+00 0.  1.
</event>
<event>
 5    1  0.1046082E-009  0.9118800E+02  0.7561462E-02  0.1125453E+00
         25   -1    0    0    0    0  0.00000000000E+00  0.00000000000E+00  0.99999998245E-14  0.12509000000E+03  0.12509000000E+03 0.  0.
        -11    1    3    3    0    0 -0.20164553228E+02 -0.34716827564E+02 -0.35060770335E+02  0.53302203892E+02  0.51100000000E-03 0.  1.
         23    2    1    0    0    0 -0.12723442353E+02 -0.20035580980E+02  0.85085276255E+01  0.99876798440E+02  0.96641964662E+02 0.  0.
         11    1    3    3    0    0  0.74411108751E+01  0.14681246583E+02  0.43569297961E+02  0.46574594548E+02  0.51100000000E-03 0. -1.
         22    1    1    0    0    0  0.12723442353E+02  0.20035580980E+02 -0.85085276255E+01  0.25213201560E+02  0.00000000000E+00 0.  1.
</event>
<event>
 5    1  0.1046082E-009  0.9118800E+02  0.7561462E-02  0.1125453E+00
         25   -1    0    0    0    0  0.00000000000E+00  0.00000000000E+00  0.99999998245E-14  0.12509000000E+03  0.12509000000E+03 0.  0.
        -11    1    3    3    0    0 -0.42993536470E+02 -0.11813785936E+02 -0.40457689421E+02  0.60206597229E+02  0.51100000000E-03 0. -1.
         23    2    1    0    0    0 -0.33100163127E+02 -0.19233749889E+02 -0.29024763697E+02  0.77048405090E+02  0.60236715428E+02 0.  0.
         11    1    3    3    0    0  0.98933733429E+01 -0.74199639530E+01  0.11432925725E+02  0.16841807862E+02  0.51100000000E-03 0.  1.
         22    1    1    0    0    0  0.33100163127E+02  0.19233749889E+02  0.29024763697E+02  0.48041594910E+02  0.00000000000E+00 0. -1.
</event>
<event>
 5    1  0.1046082E-009  0.9118800E+02  0.7561462E-02  0.1125453E+00
         25   -1    0    0    0    0  0.00000000000E+00  0.00000000000E+00  0.99999998245E-14  0.12509000000E+03  0.12509000000E+03 0.  0.
        -11    1    3    3    0    0  0.23084830004E+02 -0.85946743722E+01 -0.34805583450E+02  0.42640432027E+02  0.51100000000E-03 0.  1.
         23    2    1    0    0    0 -0.24999971000E+02  0.10231892183E+01 -0.17134450851E+02  0.94764517776E+02  0.89781284002E+02 0.  0.
         11    1    3    3    0    0 -0.48084801004E+02  0.96178635905E+01  0.17671132598E+02  0.52124085749E+02  0.51100000000E-03 0. -1.
         22    1    1    0    0    0  0.24999971000E+02 -0.10231892183E+01  0.17134450851E+02  0.30325482224E+02  0.00000000000E+00 0. -1.
</event>
<event>
 5    1  0.1046082E-009  0.9118800E+02  0.7561462E-02  0.1125453E+00
         25   -1    0    0    0    0  0.00000000000E+00  0.00000000000E+00  0.99999998245E-14  0.12509000000E+03  0.12509000000E+03 0.  0.
        -11    1    3    3    0    0  0.19637879210E+02 -0.41694133896E+02 -0.29824765317E+02  0.54895935439E+02  0.51100000000E-03 0.  1.
         23    2    1    0    0    0  0.14053397400E+02 -0.27374523072E+02  0.58743168033E+01  0.93763173002E+02  0.88375123884E+02 0.  0.
         11    1    3    3    0    0 -0.55844818101E+01  0.14319610825E+02  0.35699082120E+02  0.38867237563E+02  0.51100000000E-03 0. -1.
         22    1    1    0    0    0 -0.14053397400E+02  0.27374523072E+02 -0.58743168033E+01  0.31326826998E+02  0.00000000000E+00 0.  1.
</event>
<event>
 5    1  0.1046082E-009  0.9118800E+02  0.7561462E-02  0.1125453E+00
         25   -1    0    0    0    0  0.00000000000E+00  0.00000000000E+00  0.99999998245E-14  0.12509000000E+03  0.12509000000E+03 0.  0.
        -11    1    3    3    0    0  0.12849445443E+02 -0.49925624072E+00  0.36723752891E+02  0.38910044097E+02  0.51100000000E-03 0. -1.
         23    2    1    0    0    0 -0.18280509441E+02  0.93738585445E+01 -0.14700694236E+02  0.99828237186E+02  0.96579088209E+02 0.  0.
         11    1    3    3    0    0 -0.31129954884E+02  0.98731147852E+01 -0.51424447127E+02  0.60918193089E+02  0.51100000000E-03 0.  1.
         22    1    1    0    0    0  0.18280509441E+02 -0.93738585445E+01  0.14700694236E+02  0.25261762814E+02  0.00000000000E+00 0.  1.
</event>
<event>
 5    1  0.1046082E-009  0.9118800E+02  0.7561462E-02  0.1125453E+00
         25   -1    0    0    0    0  0.00000000000E+00  0.00000000000E+00  0.99999998245E-14  0.12509000000E+03  0.12509000000E+03 0.  0.
        -11    1    3    3    0    0 -0.29749236570E+02  0.14965846278E+02 -0.29683062466E+02  0.44610288375E+02  0.51100000000E-03 0. -1.
         23    2    1    0    0    0 -0.22237871877E+02 -0.94057950483E+01  0.15431869737E+02  0.96434554973E+02  0.92078710152E+02 0.  0.
         11    1    3    3    0    0  0.75113646930E+01 -0.24371641326E+02  0.45114932203E+02  0.51824266598E+02  0.51100000000E-03 0.  1.
         22    1    1    0    0    0  0.22237871877E+02  0.94057950483E+01 -0.15431869737E+02  0.28655445027E+02  0.00000000000E+00 0. -1.
</event>
<event>
 5    1  0.1046082E-009  0.9118800E+02  0.7561462E-02  0.1125453E+00
         25   -1    0    0    0    0  0.00000000000E+00  0.00000000000E+00  0.99999998245E-14  0.12509000000E+03  0.12509000000E+03 0.  0.
        -11    1    3    3    0    0 -0.10808275406E+02 -0.31561698668E+02  0.49988208391E+02  0.60098091637E+02  0.51100000000E-03 0.  1.
         23    2    1    0    0    0 -0.15391124286E+02 -0.84086132424E+01  0.25797558404E+02  0.93895360988E+02  0.88562030872E+02 0.  0.
         11    1    3    3    0    0 -0.45828488803E+01  0.23153085425E+02 -0.24190649987E+02  0.33797269351E+02  0.51100000000E-03 0. -1.
         22    1    1    0    0    0  0.15391124286E+02  0.84086132424E+01 -0.25797558404E+02  0.31194639012E+02  0.00000000000E+00 0. -1.
</event>
<event>
 5    1  0.1046082E-009  0.9118800E+02  0.7561462E-02  0.1125453E+00
         25   -1    0    0    0    0  0.00000000000E+00  0.00000000000E+00  0.99999998245E-14  0.12509000000E+03  0.12509000000E+03 0.  0.
        -11    1    3    3    0    0 -0.40368938585E+02  0.54729164697E+00 -0.25910806893E+02  0.47972081930E+02  0.51100000000E-03 0. -1.
         23    2    1    0    0    0  0.86170377861E+01  0.36316623943E+01 -0.26426565149E+02  0.97057774660E+02  0.92921504316E+02 0.  0.
         11    1    3    3    0    0  0.48985976371E+02  0.30843707473E+01 -0.51575825555E+00  0.49085692730E+02  0.51100000000E-03 0.  1.
         22    1    1    0    0    0 -0.86170377861E+01 -0.36316623943E+01  0.26426565149E+02  0.28032225340E+02  0.00000000000E+00 0.  1.
</event>
<event>
 5    1  0.1046082E-009  0.9118800E+02  0.7561462E-02  0.1125453E+00
         25   -1    0    0    0    0  0.00000000000E+00  0.00000000000E+00  0.99999998245E-14  0.12509000000E+03  0.12509000000E+03 0.  0.
        -11    1    3    3    0    0  0.28601211473E+02 -0.45103554650E+02 -0.28309014922E+02  0.60446342039E+02  0.51100000000E-03 0.  1.
         23    2    1    0    0    0  0.10620781956E+02 -0.14283439887E+02 -0.22181031033E+02  0.96650312905E+02  0.92371354773E+02 0.  0.
         11    1    3    3    0    0 -0.17980429517E+02  0.30820114763E+02  0.61279838883E+01  0.36203970866E+02  0.51100000000E-03 0. -1.
         22    1    1    0    0    0 -0.10620781956E+02  0.14283439887E+02  0.22181031033E+02  0.28439687095E+02  0.00000000000E+00 0.  1.
</event>
<event>
 5    1  0.1046082E-009  0.9118800E+02  0.7561462E-02  0.1125453E+00
         25   -1    0    0    0    0  0.00000000000E+00  0.00000000000E+00  0.99999998245E-14  0.12509000000E+03  0.12509000000E+03 0.  0.
        -11    1    3    3    0    0 -0.41684300244E+02 -0.89011698720E+01 -0.42691162928E+02  0.60327001453E+02  0.51100000000E-03 0. -1.
         23    2    1    0    0    0 -0.19829316288E+02  0.76822171873E+01 -0.18761283565E+02  0.96731509096E+02  0.92481245913E+02 0.  0.
         11    1    3    3    0    0  0.21854983956E+02  0.16583387059E+02  0.23929879363E+02  0.36404507642E+02  0.51100000000E-03 0.  1.
         22    1    1    0    0    0  0.19829316288E+02 -0.76822171873E+01  0.18761283565E+02  0.28358490904E+02  0.00000000000E+00 0. -1.
</event>
<event>
 5    1  0.1046082E-009  0.9118800E+02  0.7561462E-02  0.1125453E+00
         25   -1    0    0    0    0  0.00000000000E+00  0.00000000000E+00  0.99999998245E-14  0.12509000000E+03  0.12509000000E+03 0.  0.
        -11    1    3    3    0    0 -0.23544896741E+02  0.25406267134E+02 -0.18028440713E+02  0.39049523007E+02  0.51100000000E-03 0. -1.
         23    2    1    0    0    0  0.12193853302E+02  0.11225006710E+02  0.23943024548E+02  0.95970259986E+02  0.91445784722E+02 0.  0.
         11    1    3    3    0    0  0.35738750043E+02 -0.14181260425E+02  0.41971465261E+02  0.56920736979E+02  0.51100000000E-03 0.  1.
         22    1    1    0    0    0 -0.12193853302E+02 -0.11225006710E+02 -0.23943024548E+02  0.29119740014E+02  0.00000000000E+00 0.  1.
</event>
<event>
 5    1  0.1046082E-009  0.9118800E+02  0.7561462E-02  0.1125453E+00
         25   -1    0    0    0    0  0.00000000000E+00  0.00000000000E+00  0.99999998245E-14  0.12509000000E+03  0.12509000000E+03 0.  0.
        -11    1    3    3    0    0 -0.22430354903E+02 -0.47745090834E+02 -0.26735001962E+02  0.59139452567E+02  0.51100000000E-03 0.  1.
         23    2    1    0    0    0 -0.14366940890E+02 -0.21722218162E+02  0.22885124072E+01  0.98946147158E+02  0.95429759488E+02 0.  0.
         11    1    3    3    0    0  0.80634140135E+01  0.26022872671E+02  0.29023514369E+02  0.39806694590E+02  0.51100000000E-03 0. -1.
         22    1    1    0    0    0  0.14366940890E+02  0.21722218162E+02 -0.22885124072E+01  0.26143852842E+02  0.00000000000E+00 0.  1.
</event>
<event>
 5    1  0.1046082E-009  0.9118800E+02  0.7561462E-02  0.1125453E+00
         25   -1    0    0    0    0  0.00000000000E+00  0.00000000000E+00  0.99999998245E-14  0.12509000000E+03  0.12509000000E+03 0.  0.
        -11    1    3    3    0    0  0.11937077384E+02 -0.34859908554E+02 -0.10542035704E+02  0.38325468789E+02  0.51100000000E-03 0.  1.
         23    2    1    0    0    0 -0.28745194361E+02  0.28310687949E+01  0.46655271684E+01  0.95831355241E+02  0.91255577113E+02 0.  0.
         11    1    3    3    0    0 -0.40682271745E+02  0.37690977349E+02  0.15207562873E+02  0.57505886452E+02  0.51100000000E-03 0. -1.
         22    1    1    0    0    0  0.28745194361E+02 -0.28310687949E+01 -0.46655271684E+01  0.29258644759E+02  0.00000000000E+00 0. -1.
</event>
<event>
 5    1  0.1046082E-009  0.9118800E+02  0.7561462E-02  0.1125453E+00
         25   -1    0    0    0    0  0.00000000000E+00  0.00000000000E+00  0.99999998245E-14  0.12509000000E+03  0.12509000000E+03 0.  0.
        -11    1    3    3    0    0 -0.30083992416E+02 -0.21816975067E+02 -0.63975410753E+01  0.37708825663E+02  0.51100000000E-03 0.  1.
         23    2    1    0    0    0  0.12388907333E+02  0.16855283981E+02 -0.19352223638E+02  0.96592733767E+02  0.92293347723E+02 0.  0.
         11    1    3    3    0    0  0.42472899750E+02  0.38672259049E+02 -0.12954682563E+02  0.58883908104E+02  0.51100000000E-03 0. -1.
         22    1    1    0    0    0 -0.12388907333E+02 -0.16855283981E+02  0.19352223638E+02  0.28497266233E+02  0.00000000000E+00 0. -1.
</event>
<event>
 5    1  0.1046082E-009  0.9118800E+02  0.7561462E-02  0.1125453E+00
         25   -1    0    0    0    0  0.00000000000E+00  0.00000000000E+00  0.99999998245E-14  0.12509000000E+03  0.12509000000E+03 0.  0.
        -11    1    3    3    0    0 -0.19706423806E+02  0.31366769752E+02  0.17410825306E+02  0.40931091141E+02  0.51100000000E-03 0. -1.
         23    2    1    0    0    0  0.27597658975E+02  0.46038964536E+01  0.65118288797E+01  0.96363173534E+02  0.91981686518E+02 0.  0.
         11    1    3    3    0    0  0.47304082781E+02 -0.26762873299E+02 -0.10898996427E+02  0.55432082392E+02  0.51100000000E-03 0.  1.
         22    1    1    0    0    0 -0.27597658975E+02 -0.46038964536E+01 -0.65118288797E+01  0.28726826466E+02  0.00000000000E+00 0.  1.
</event>
<event>
 5    1  0.1046082E-009  0.9118800E+02  0.7561462E-02  0.1125453E+00
         25   -1    0    0    0    0  0.00000000000E+00  0.00000000000E+00  0.99999998245E-14  0.12509000000E+03  0.12509000000E+03 0.  0.
        -11    1    3    3    0    0 -0.37031661379E+02 -0.45695984918E+02  0.16668746387E+01  0.58840848510E+02  0.51100000000E-03 0.  1.
         23    2    1    0    0    0 -0.92308471189E+01 -0.24603502782E+02  0.13316088371E+02  0.95630551648E+02  0.90979906086E+02 0.  0.
         11    1    3    3    0    0  0.27800814260E+02  0.21092482135E+02  0.11649213732E+02  0.36789703138E+02  0.51100000000E-03 0. -1.
         22    1    1    0    0    0  0.92308471189E+01  0.24603502782E+02 -0.13316088371E+02  0.29459448352E+02  0.00000000000E+00 0.  1.
</event>
<event>
 5    1  0.1046082E-009  0.9118800E+02  0.7561462E-02  0.1125453E+00
         25   -1    0    0    0    0  0.00000000000E+00  0.00000000000E+00  0.99999998245E-14  0.12509000000E+03  0.12509000000E+03 0.  0.
        -11    1    3    3    0    0  0.18247922043E+02 -0.23568164823E+02 -0.36204428774E+02  0.46895689729E+02  0.51100000000E-03 0.  1.
         23    2    1    0    0    0  0.23081277176E+02  0.87245501825E+00  0.10413443191E+02  0.99753340139E+02  0.96482032193E+02 0.  0.
         11    1    3    3    0    0  0.48333551328E+01  0.24440619842E+02  0.46617871965E+02  0.52857650410E+02  0.51100000000E-03 0. -1.
         22    1    1    0    0    0 -0.23081277176E+02 -0.87245501825E+00 -0.10413443191E+02  0.25336659861E+02  0.00000000000E+00 0.  1.
</event>
<event>
 5    1  0.1046082E-009  0.9118800E+02  0.7561462E-02  0.1125453E+00
         25   -1    0    0    0    0  0.00000000000E+00  0.00000000000E+00  0.99999998245E-14  0.12509000000E+03  0.12509000000E+03 0.  0.
        -11    1    3    3    0    0 -0.18750149893E+01 -0.35901810528E+02  0.18574509482E-03  0.35950739641E+02  0.51100000000E-03 0.  1.
         23    2    1    0    0    0 -0.26749083661E+02  0.16242765365E+02 -0.17023426969E+01  0.93749309611E+02  0.88355498859E+02 0.  0.
         11    1    3    3    0    0 -0.24874068671E+02  0.52144575893E+02 -0.17025284420E+01  0.57798569971E+02  0.51100000000E-03 0. -1.
         22    1    1    0    0    0  0.26749083661E+02 -0.16242765365E+02  0.17023426969E+01  0.31340690389E+02  0.00000000000E+00 0. -1.
</event>
<event>
 5    1  0.1046082E-009  0.9118800E+02  0.7561462E-02  0.1125453E+00
         25   -1    0    0    0    0  0.00000000000E+00  0.00000000000E+00  0.99999998245E-14  0.12509000000E+03  0.12509000000E+03 0.  0.
        -11    1    3    3    0    0  0.34673489000E+02  0.25452839977E+02 -0.24664611834E+02  0.49582668136E+02  0.51100000000E-03 0.  1.
         23    2    1    0    0    0  0.12144467215E+02 -0.18300140075E+02 -0.50946304988E+01  0.10254363731E+03  0.10003428953E+03 0.  0.
         11    1    3    3    0    0 -0.22529021785E+02 -0.43752980051E+02  0.19569981336E+02  0.52960969173E+02  0.51100000000E-03 0. -1.
         22    1    1    0    0    0 -0.12144467215E+02  0.18300140075E+02  0.50946304988E+01  0.22546362691E+02  0.00000000000E+00 0. -1.
</event>
<event>
 5    1  0.1046082E-009  0.9118800E+02  0.7561462E-02  0.1125453E+00
         25   -1    0    0    0    0  0.00000000000E+00  0.00000000000E+00  0.99999998245E-14  0.12509000000E+03  0.12509000000E+03 0.  0.
        -11    1    3    3    0    0 -0.42375755979E+02 -0.11267299631E+02  0.36356273634E+02  0.56959945300E+02  0.51100000000E-03 0.  1.
         23    2    1    0    0    0 -0.35063318835E+01 -0.12409426484E+02  0.24142965447E+02  0.97719011536E+02  0.93807431508E+02 0.  0.
         11    1    3    3    0    0  0.38869424096E+02 -0.11421268524E+01 -0.12213308187E+02  0.40759066236E+02  0.51100000000E-03 0. -1.
         22    1    1    0    0    0  0.35063318835E+01  0.12409426484E+02 -0.24142965447E+02  0.27370988464E+02  0.00000000000E+00 0.  1.
</event>
<event>
 5    1  0.1046082E-009  0.9118800E+02  0.7561462E-02  0.1125453E+00
         25   -1    0    0    0    0  0.00000000000E+00  0.00000000000E+00  0.99999998245E-14  0.12509000000E+03  0.12509000000E+03 0.  0.
        -11    1    3    3    0    0 -0.34371719457E+02  0.27375773141E+01 -0.50916934712E+02  0.61493444112E+02  0.51100000000E-03 0. -1.
         23    2    1    0    0    0 -0.16184433580E+02  0.80059203518E+01 -0.32518069507E+02  0.87895168431E+02  0.79637335077E+02 0.  0.
         11    1    3    3    0    0  0.18187285878E+02  0.52683430377E+01  0.18398865205E+02  0.26401724320E+02  0.51100000000E-03 0.  1.
         22    1    1    0    0    0  0.16184433580E+02 -0.80059203518E+01  0.32518069507E+02  0.37194831569E+02  0.00000000000E+00 0. -1.
</event>
<event>
 5    1  0.1046082E-009  0.9118800E+02  0.7561462E-02  0.1125453E+00
         25   -1    0    0    0    0  0.00000000000E+00  0.00000000000E+00  0.99999998245E-14  0.12509000000E+03  0.12509000000E+03 0.  0.
        -11    1    3    3    0    0 -0.48287751347E+02 -0.36598507211E+02  0.40614833235E+01  0.60726051306E+02  0.51100000000E-03 0.  1.
         23    2    1    0    0    0 -0.18407617467E+02 -0.20109382232E+02  0.11241459043E+02  0.95601052308E+02  0.90939337838E+02 0.  0.
         11    1    3    3    0    0  0.29880133880E+02  0.16489124980E+02  0.71799757199E+01  0.34875001002E+02  0.51100000000E-03 0. -1.
         22    1    1    0    0    0  0.18407617467E+02  0.20109382232E+02 -0.11241459043E+02  0.29488947692E+02  0.00000000000E+00 0.  1.
</event>
<event>
 5    1  0.1046082E-009  0.9118800E+02  0.7561462E-02  0.1125453E+00
         25   -1    0    0    0    0  0.00000000000E+00  0.00000000000E+00  0.99999998245E-14  0.12509000000E+03  0.12509000000E+03 0.  0.
        -11    1    3    3    0    0  0.25310482599E+02 -0.12400994053E+02  0.26202530498E+02  0.38483474215E+02  0.51100000000E-03 0. -1.
         23    2    1    0    0    0 -0.27171166059E+02  0.29661958274E+01  0.13409705206E+02  0.94645119044E+02  0.89614774354E+02 0.  0.
         11    1    3    3    0    0 -0.52481648658E+02  0.15367189881E+02 -0.12792825292E+02  0.56161644829E+02  0.51100000000E-03 0.  1.
         22    1    1    0    0    0  0.27171166059E+02 -0.29661958274E+01 -0.13409705206E+02  0.30444880956E+02  0.00000000000E+00 0.  1.
</event>
<event>
 5    1  0.1046082E-009  0.9118800E+02  0.7561462E-02  0.1125453E+00
         25   -1    0    0    0    0  0.00000000000E+00  0.00000000000E+00  0.99999998245E-14  0.12509000000E+03  0.12509000000E+03 0.  0.
        -11    1    3    3    0    0 -0.23636919812E+02  0.34546776029E+02 -0.12789756066E+02  0.43769413666E+02  0.51100000000E-03 0. -1.
         23    2    1    0    0    0 -0.21345386122E+02 -0.98588193762E+01  0.15918065291E+02  0.96696221970E+02  0.92433504275E+02 0.  0.
         11    1    3    3    0    0  0.22915336903E+01 -0.44405595405E+02  0.28707821358E+02  0.52926808304E+02  0.51100000000E-03 0.  1.
         22    1    1    0    0    0  0.21345386122E+02  0.98588193762E+01 -0.15918065291E+02  0.28393778030E+02  0.00000000000E+00 0.  1.
</event>
<event>
 5    1  0.1046082E-009  0.9118800E+02  0.7561462E-02  0.1125453E+00
         25   -1    0    0    0    0  0.00000000000E+00  0.00000000000E+00  0.99999998245E-14  0.12509000000E+03  0.12509000000E+03 0.  0.
        -11    1    3    3    0    0 -0.38223463880E+02 -0.24909171475E+02  0.34266193833E+02  0.57058496778E+02  0.51100000000E-03 0.  1.
         23    2    1    0    0    0 -0.27073656755E+02 -0.33868737309E+02  0.19728713222E+02  0.77452867610E+02  0.61070863090E+02 0.  0.
         11    1    3    3    0    0  0.11149807125E+02 -0.89595658333E+01 -0.14537480611E+02  0.20394370831E+02  0.51100000000E-03 0. -1.
         22    1    1    0    0    0  0.27073656755E+02  0.33868737309E+02 -0.19728713222E+02  0.47637132390E+02  0.00000000000E+00 0.  1.
</event>
<event>
 5    1  0.1046082E-009  0.9118800E+02  0.7561462E-02  0.1125453E+00
         25   -1    0    0    0    0  0.00000000000E+00  0.00000000000E+00  0.99999998245E-14  0.12509000000E+03  0.12509000000E+03 0.  0.
        -11    1    3    3    0    0  0.26187865158E+02  0.20991186290E+02 -0.72110913500E+01  0.34328326818E+02  0.51100000000E-03 0. -1.
         23    2    1    0    0    0 -0.20208310020E+02 -0.18446086456E+02 -0.11583921831E+02  0.95377693722E+02  0.90631580121E+02 0.  0.
         11    1    3    3    0    0 -0.46396175178E+02 -0.39437272745E+02 -0.43728304806E+01  0.61049366904E+02  0.51100000000E-03 0.  1.
         22    1    1    0    0    0  0.20208310020E+02  0.18446086456E+02  0.11583921831E+02  0.29712306278E+02  0.00000000000E+00 0.  1.
</event>
<event>
 5    1  0.1046082E-009  0.9118800E+02  0.7561462E-02  0.1125453E+00
         25   -1    0    0    0    0  0.00000000000E+00  0.00000000000E+00  0.99999998245E-14  0.12509000000E+03  0.12509000000E+03 0.  0.
        -11    1    3    3    0    0 -0.41345598336E+02 -0.35420973615E+02 -0.11788831755E+01  0.54456346181E+02  0.51100000000E-03 0. -1.
         23    2    1    0    0    0 -0.27283655199E+02  0.31322014387E+01 -0.89142154169E+01  0.96216625355E+02  0.91782172732E+02 0.  0.
         11    1    3    3    0    0  0.14061943137E+02  0.38553175054E+02 -0.77353322414E+01  0.41760279174E+02  0.51100000000E-03 0.  1.
         22    1    1    0    0    0  0.27283655199E+02 -0.31322014387E+01  0.89142154169E+01  0.28873374645E+02  0.00000000000E+00 0. -1.
</event>
<event>
 5    1  0.1046082E-009  0.9118800E+02  0.7561462E-02  0.1125453E+00
         25   -1    0    0    0    0  0.00000000000E+00  0.00000000000E+00  0.99999998245E-14  0.12509000000E+03  0.12509000000E+03 0.  0.
        -11    1    3    3    0    0  0.22701740293E+02 -0.38044369922E+02 -0.32426972254E+01  0.44421370765E+02  0.51100000000E-03 0.  1.
         23    2    1    0    0    0  0.26455439315E+02  0.12055452342E+02  0.57337909299E+01  0.95457238418E+02  0.90741301552E+02 0.  0.
         11    1    3    3    0    0  0.37536990226E+01  0.50099822264E+02  0.89764881553E+01  0.51035867653E+02  0.51100000000E-03 0. -1.
         22    1    1    0    0    0 -0.26455439315E+02 -0.12055452342E+02 -0.57337909299E+01  0.29632761582E+02  0.00000000000E+00 0. -1.
</event>
<event>
 5    1  0.1046082E-009  0.9118800E+02  0.7561462E-02  0.1125453E+00
         25   -1    0    0    0    0  0.00000000000E+00  0.00000000000E+00  0.99999998245E-14  0.12509000000E+03  0.12509000000E+03 0.  0.
        -11    1    3    3    0    0  0.63674724891E+01 -0.52177352332E+02 -0.26498329763E+02  0.58865798923E+02  0.51100000000E-03 0. -1.
         23    2    1    0    0    0 -0.12061455641E+02 -0.22711544993E+02 -0.14080074435E+02  0.95772062074E+02  0.91174263856E+02 0.  0.
         11    1    3    3    0    0 -0.18428928130E+02  0.29465807339E+02  0.12418255328E+02  0.36906263152E+02  0.51100000000E-03 0.  1.
         22    1    1    0    0    0  0.12061455641E+02  0.22711544993E+02  0.14080074435E+02  0.29317937926E+02  0.00000000000E+00 0. -1.
</event>
<event>
 5    1  0.1046082E-009  0.9118800E+02  0.7561462E-02  0.1125453E+00
         25   -1    0    0    0    0  0.00000000000E+00  0.00000000000E+00  0.99999998245E-14  0.12509000000E+03  0.12509000000E+03 0.  0.
        -11    1    3    3    0    0  0.20192947239E+02  0.35462380698E+02  0.31270025712E+02  0.51411575265E+02  0.51100000000E-03 0.  1.
         23    2    1    0    0    0 -0.11905315921E+02  0.28084321412E+02  0.37005726309E+01  0.94362815063E+02  0.89219846292E+02 0.  0.
         11    1    3    3    0    0 -0.32098263160E+02 -0.73780592859E+01 -0.27569453081E+02  0.42951239797E+02  0.51100000000E-03 0. -1.
         22    1    1    0    0    0  0.11905315921E+02 -0.28084321412E+02 -0.37005726309E+01  0.30727184937E+02  0.00000000000E+00 0. -1.
</event>
<event>
 5    1  0.1046082E-009  0.9118800E+02  0.7561462E-02  0.1125453E+00
         25   -1    0    0    0    0  0.00000000000E+00  0.00000000000E+00  0.99999998245E-14  0.12509000000E+03  0.12509000000E+03 0.  0.
        -11    1    3    3    0    0 -0.45107438456E+02  0.27192577172E+02 -0.27948359451E+02  0.59625733149E+02  0.51100000000E-03 0. -1.
         23    2    1    0    0    0 -0.12558637555E+02  0.18238304632E+02 -0.21946289922E+02  0.93913169270E+02  0.88587180720E+02 0.  0.
         11    1    3    3    0    0  0.32548800901E+02 -0.89542725407E+01  0.60020695291E+01  0.34287436121E+02  0.51100000000E-03 0.  1.
         22    1    1    0    0    0  0.12558637555E+02 -0.18238304632E+02  0.21946289922E+02  0.31176830730E+02  0.00000000000E+00 0. -1.
</event>
<event>
 5    1  0.1046082E-009  0.9118800E+02  0.7561462E-02  0.1125453E+00
         25   -1    0    0    0    0  0.00000000000E+00  0.00000000000E+00  0.99999998245E-14  0.12509000000E+03  0.12509000000E+03 0.  0.
        -11    1    3    3    0    0 -0.33790382970E+02  0.70944481621E+01 -0.65283422472E+01  0.35138873470E+02  0.51100000000E-03 0.  1.
         23    2    1    0    0    0  0.20857578618E+02  0.33759021891E+01  0.19997535399E+02  0.95998133037E+02  0.91483904722E+02 0.  0.
         11    1    3    3    0    0  0.54647961588E+02 -0.37185459730E+01  0.26525877646E+02  0.60859259567E+02  0.51100000000E-03 0. -1.
         22    1    1    0    0    0 -0.20857578618E+02 -0.33759021891E+01 -0.19997535399E+02  0.29091866963E+02  0.00000000000E+00 0. -1.
</event>
<event>
 5    1  0.1046082E-009  0.9118800E+02  0.7561462E-02  0.1125453E+00
         25   -1    0    0    0    0  0.00000000000E+00  0.00000000000E+00  0.99999998245E-14  0.12509000000E+03  0.12509000000E+03 0.  0.
        -11    1    3    3    0    0  0.21364304137E+02 -0.55881107740E+02  0.15405882284E+02  0.61777608425E+02  0.51100000000E-03 0.  1.
         23    2    1    0    0    0  0.66688248738E+01 -0.25510098227E+02  0.35934850227E+00  0.98720178838E+02  0.95133097510E+02 0.  0.
         11    1    3    3    0    0 -0.14695479263E+02  0.30371009513E+02 -0.15046533781E+02  0.36942570413E+02  0.51100000000E-03 0. -1.
         22    1    1    0    0    0 -0.66688248738E+01  0.25510098227E+02 -0.35934850227E+00  0.26369821162E+02  0.00000000000E+00 0.  1.
</event>
<event>
 5    1  0.1046082E-009  0.9118800E+02  0.7561462E-02  0.1125453E+00
         25   -1    0    0    0    0  0.00000000000E+00  0.00000000000E+00  0.99999998245E-14  0.12509000000E+03  0.12509000000E+03 0.  0.
        -11    1    3    3    0    0  0.22745039707E+02 -0.69325349910E+01  0.52958591478E+02  0.58051781060E+02  0.51100000000E-03 0. -1.
         23    2    1    0    0    0  0.21456650817E+02  0.81058252102E+01  0.18670108443E+02  0.95515260510E+02  0.90821251778E+02 0.  0.
         11    1    3    3    0    0 -0.12883888905E+01  0.15038360201E+02 -0.34288483034E+02  0.37463479450E+02  0.51100000000E-03 0.  1.
         22    1    1    0    0    0 -0.21456650817E+02 -0.81058252102E+01 -0.18670108443E+02  0.29574739490E+02  0.00000000000E+00 0. -1.
</event>
<event>
 5    1  0.1046082E-009  0.9118800E+02  0.7561462E-02  0.1125453E+00
         25   -1    0    0    0    0  0.00000000000E+00  0.00000000000E+00  0.99999998245E-14  0.12509000000E+03  0.12509000000E+03 0.  0.
        -11    1    3    3    0    0  0.14841552798E+02 -0.31004323093E+02  0.87890923398E+01  0.35479400845E+02  0.51100000000E-03 0.  1.
         23    2    1    0    0    0 -0.29701137959E+02  0.69549538967E+01  0.54890154528E+01  0.94095512258E+02  0.88844286010E+02 0.  0.
         11    1    3    3    0    0 -0.44542690757E+02  0.37959276989E+02 -0.33000768870E+01  0.58616111413E+02  0.51100000000E-03 0. -1.
         22    1    1    0    0    0  0.29701137959E+02 -0.69549538967E+01 -0.54890154528E+01  0.30994487742E+02  0.00000000000E+00 0. -1.
</event>
<event>
 5    1  0.1046082E-009  0.9118800E+02  0.7561462E-02  0.1125453E+00
         25   -1    0    0    0    0  0.00000000000E+00  0.00000000000E+00  0.99999998245E-14  0.12509000000E+03  0.12509000000E+03 0.  0.
        -11    1    3    3    0    0 -0.30449268117E+02 -0.22407961090E+02 -0.86212742034E+01  0.38776294539E+02  0.51100000000E-03 0. -1.
         23    2    1    0    0    0  0.26174953859E+02 -0.80180766332E+01 -0.45170786361E+01  0.97344337964E+02  0.93306475508E+02 0.  0.
         11    1    3    3    0    0  0.56624221976E+02  0.14389884456E+02  0.41041955673E+01  0.58568043424E+02  0.51100000000E-03 0.  1.
         22    1    1    0    0    0 -0.26174953859E+02  0.80180766332E+01  0.45170786361E+01  0.27745662036E+02  0.00000000000E+00 0.  1.
</event>
<event>
 5    1  0.1046082E-009  0.9118800E+02  0.7561462E-02  0.1125453E+00
         25   -1    0    0    0    0  0.00000000000E+00  0.00000000000E+00  0.99999998245E-14  0.12509000000E+03  0.12509000000E+03 0.  0.
        -11    1    3    3    0    0  0.35653628734E+02  0.11177909568E+02 -0.77742851156E+01  0.38164989369E+02  0.51100000000E-03 0.  1.
         23    2    1    0    0    0 -0.65774282552E+01 -0.28093247205E+02 -0.40540711436E+01  0.95953620784E+02  0.91423020886E+02 0.  0.
         11    1    3    3    0    0 -0.42231056989E+02 -0.39271156773E+02  0.37202139720E+01  0.57788631416E+02  0.51100000000E-03 0. -1.
         22    1    1    0    0    0  0.65774282552E+01  0.28093247205E+02  0.40540711436E+01  0.29136379216E+02  0.00000000000E+00 0. -1.
</event>
<event>
 5    1  0.1046082E-009  0.9118800E+02  0.7561462E-02  0.1125453E+00
         25   -1    0    0    0    0  0.00000000000E+00  0.00000000000E+00  0.99999998245E-14  0.12509000000E+03  0.12509000000E+03 0.  0.
        -11    1    3    3    0    0  0.14781338442E+02 -0.25597081843E+02  0.35708589631E+02  0.46355171650E+02  0.51100000000E-03 0.  1.
         23    2    1    0    0    0  0.29854495714E+02 -0.87313750252E+00 -0.34142044637E+01  0.95028229001E+02  0.90147957445E+02 0.  0.
         11    1    3    3    0    0  0.15073157272E+02  0.24723944340E+02 -0.39122794095E+02  0.48673057351E+02  0.51100000000E-03 0. -1.
         22    1    1    0    0    0 -0.29854495714E+02  0.87313750252E+00  0.34142044637E+01  0.30061770999E+02  0.00000000000E+00 0. -1.
</event>
<event>
 5    1  0.1046082E-009  0.9118800E+02  0.7561462E-02  0.1125453E+00
         25   -1    0    0    0    0  0.00000000000E+00  0.00000000000E+00  0.99999998245E-14  0.12509000000E+03  0.12509000000E+03 0.  0.
        -11    1    3    3    0    0  0.21422384459E+02 -0.35471935613E+02 -0.33010428428E+02  0.52979856147E+02  0.51100000000E-03 0. -1.
         23    2    1    0    0    0  0.22548170719E+02  0.43608027955E+01 -0.19205258603E+02  0.95152088219E+02  0.90319661927E+02 0.  0.
         11    1    3    3    0    0  0.11257862599E+01  0.39832738408E+02  0.13805169825E+02  0.42172232073E+02  0.51100000000E-03 0.  1.
         22    1    1    0    0    0 -0.22548170719E+02 -0.43608027955E+01  0.19205258603E+02  0.29937911781E+02  0.00000000000E+00 0. -1.
</event>
<event>
 5    1  0.1046082E-009  0.9118800E+02  0.7561462E-02  0.1125453E+00
         25   -1    0    0    0    0  0.00000000000E+00  0.00000000000E+00  0.99999998245E-14  0.12509000000E+03  0.12509000000E+03 0.  0.
        -11    1    3    3    0    0 -0.26357471075E+02  0.28469039821E+02 -0.17949550256E+01  0.38838439382E+02  0.51100000000E-03 0.  1.
         23    2    1    0    0    0  0.15129018378E+00 -0.13414148026E+02  0.26120559906E+02  0.95725975995E+02  0.91111012366E+02 0.  0.
         11    1    3    3    0    0  0.26508761258E+02 -0.41883187848E+02  0.27915514931E+02  0.56887536613E+02  0.51100000000E-03 0. -1.
         22    1    1    0    0    0 -0.15129018378E+00  0.13414148026E+02 -0.26120559906E+02  0.29364024005E+02  0.00000000000E+00 0. -1.
</event>
<event>
 5    1  0.1046082E-009  0.9118800E+02  0.7561462E-02  0.1125453E+00
         25   -1    0    0    0    0  0.00000000000E+00  0.00000000000E+00  0.99999998245E-14  0.12509000000E+03  0.12509000000E+03 0.  0.
        -11    1    3    3    0    0  0.33106969733E+02 -0.86580962351E+01  0.46898437781E+02  0.58055986271E+02  0.51100000000E-03 0.  1.
         23    2    1    0    0    0  0.11863691647E+01 -0.16575331703E+01  0.30323023518E+02  0.94698543252E+02  0.89689316258E+02 0.  0.
         11    1    3    3    0    0 -0.31920600568E+02  0.70005630648E+01 -0.16575414263E+02  0.36642556981E+02  0.51100000000E-03 0. -1.
         22    1    1    0    0    0 -0.11863691647E+01  0.16575331703E+01 -0.30323023518E+02  0.30391456748E+02  0.00000000000E+00 0.  1.
</event>
<event>
 5    1  0.1046082E-009  0.9118800E+02  0.7561462E-02  0.1125453E+00
         25   -1    0    0    0    0  0.00000000000E+00  0.00000000000E+00  0.99999998245E-14  0.12509000000E+03  0.12509000000E+03 0.  0.
        -11    1    3    3    0    0 -0.39453111491E+01 -0.26870892555E+02  0.37265571222E+02  0.46112180013E+02  0.51100000000E-03 0. -1.
         23    2    1    0    0    0 -0.67335936243E+01 -0.28772536699E+02 -0.10299283564E+02  0.93796623814E+02  0.88422458945E+02 0.  0.
         11    1    3    3    0    0 -0.27882824752E+01 -0.19016441435E+01 -0.47564854786E+02  0.47684443802E+02  0.51100000000E-03 0.  1.
         22    1    1    0    0    0  0.67335936243E+01  0.28772536699E+02  0.10299283564E+02  0.31293376186E+02  0.00000000000E+00 0.  1.
</event>
<event>
 5    1  0.1046082E-009  0.9118800E+02  0.7561462E-02  0.1125453E+00
         25   -1    0    0    0    0  0.00000000000E+00  0.00000000000E+00  0.99999998245E-14  0.12509000000E+03  0.12509000000E+03 0.  0.
        -11    1    3    3    0    0  0.17823452123E+02 -0.53758454836E+02 -0.98795997408E+01  0.57491333288E+02  0.51100000000E-03 0.  1.
         23    2    1    0    0    0  0.18601572472E+02 -0.15706634459E+02 -0.15882532098E+02  0.96021603238E+02  0.91515990942E+02 0.  0.
         11    1    3    3    0    0  0.77812034889E+00  0.38051820377E+02 -0.60029323570E+01  0.38530269950E+02  0.51100000000E-03 0. -1.
         22    1    1    0    0    0 -0.18601572472E+02  0.15706634459E+02  0.15882532098E+02  0.29068396762E+02  0.00000000000E+00 0.  1.
</event>
<event>
 5    1  0.1046082E-009  0.9118800E+02  0.7561462E-02  0.1125453E+00
         25   -1    0    0    0    0  0.00000000000E+00  0.00000000000E+00  0.99999998245E-14  0.12509000000E+03  0.12509000000E+03 0.  0.
        -11    1    3    3    0    0 -0.32734922643E+02  0.11444904021E+02 -0.17791957398E+02  0.38975822465E+02  0.51100000000E-03 0.  1.
         23    2    1    0    0    0 -0.61099133121E+01 -0.16013546613E+02  0.23981056928E+02  0.95613639859E+02  0.90956650773E+02 0.  0.
         11    1    3    3    0    0  0.26625009331E+02 -0.27458450633E+02  0.41773014326E+02  0.56637817394E+02  0.51100000000E-03 0. -1.
         22    1    1    0    0    0  0.61099133121E+01  0.16013546613E+02 -0.23981056928E+02  0.29476360141E+02  0.00000000000E+00 0. -1.
</event>
<event>
 5    1  0.1046082E-009  0.9118800E+02  0.7561462E-02  0.1125453E+00
         25   -1    0    0    0    0  0.00000000000E+00  0.00000000000E+00  0.99999998245E-14  0.12509000000E+03  0.12509000000E+03 0.  0.
        -11    1    3    3    0    0  0.25034645841E+02  0.43911111468E+02  0.35701360189E+02  0.61883005117E+02  0.51100000000E-03 0.  1.
         23    2    1    0    0    0  0.62244971067E+01  0.20832023779E+02  0.20024426554E+02  0.95531663819E+02  0.90843841587E+02 0.  0.
         11    1    3    3    0    0 -0.18810148734E+02 -0.23079087689E+02 -0.15676933635E+02  0.33648658702E+02  0.51100000000E-03 0. -1.
         22    1    1    0    0    0 -0.62244971067E+01 -0.20832023779E+02 -0.20024426554E+02  0.29558336181E+02  0.00000000000E+00 0.  1.
</event>
<event>
 5    1  0.1046082E-009  0.9118800E+02  0.7561462E-02  0.1125453E+00
         25   -1    0    0    0    0  0.00000000000E+00  0.00000000000E+00  0.99999998245E-14  0.12509000000E+03  0.12509000000E+03 0.  0.
        -11    1    3    3    0    0 -0.22018036112E+02  0.35540736689E+02  0.16896292009E+02  0.45093486919E+02  0.51100000000E-03 0. -1.
         23    2    1    0    0    0 -0.20462517810E+02 -0.22936118042E+00 -0.19978676661E+02  0.96490790871E+02  0.92155075607E+02 0.  0.
         11    1    3    3    0    0  0.15555183022E+01 -0.35770097869E+02 -0.36874968670E+02  0.51397303951E+02  0.51100000000E-03 0.  1.
         22    1    1    0    0    0  0.20462517810E+02  0.22936118042E+00  0.19978676661E+02  0.28599209129E+02  0.00000000000E+00 0.  1.
</event>
<event>
 5    1  0.1046082E-009  0.9118800E+02  0.7561462E-02  0.1125453E+00
         25   -1    0    0    0    0  0.00000000000E+00  0.00000000000E+00  0.99999998245E-14  0.12509000000E+03  0.12509000000E+03 0.  0.
        -11    1    3    3    0    0  0.30561120960E+02  0.70319610282E+01 -0.42153405199E+02  0.52538939468E+02  0.51100000000E-03 0.  1.
         23    2    1    0    0    0  0.10010191895E+02 -0.16516200234E+02 -0.35770616721E+02  0.84438729017E+02  0.74009277293E+02 0.  0.
         11    1    3    3    0    0 -0.20550929064E+02 -0.23548161262E+02  0.63827884782E+01  0.31899789549E+02  0.51100000000E-03 0. -1.
         22    1    1    0    0    0 -0.10010191895E+02  0.16516200234E+02  0.35770616721E+02  0.40651270983E+02  0.00000000000E+00 0.  1.
</event>
<event>
 5    1  0.1046082E-009  0.9118800E+02  0.7561462E-02  0.1125453E+00
         25   -1    0    0    0    0  0.00000000000E+00  0.00000000000E+00  0.99999998245E-14  0.12509000000E+03  0.12509000000E+03 0.  0.
        -11    1    3    3    0    0 -0.66774933209E+01  0.38589463600E+02 -0.10592783293E+02  0.40570219079E+02  0.51100000000E-03 0.  1.
         23    2    1    0    0    0 -0.26014754632E+02 -0.63269601818E+01  0.13523221541E+02  0.95095410412E+02  0.90241130738E+02 0.  0.
         11    1    3    3    0    0 -0.19337261311E+02 -0.44916423782E+02  0.24116004835E+02  0.54525191332E+02  0.51100000000E-03 0. -1.
         22    1    1    0    0    0  0.26014754632E+02  0.63269601818E+01 -0.13523221541E+02  0.29994589588E+02  0.00000000000E+00 0. -1.
</event>
<event>
 5    1  0.1046082E-009  0.9118800E+02  0.7561462E-02  0.1125453E+00
         25   -1    0    0    0    0  0.00000000000E+00  0.00000000000E+00  0.99999998245E-14  0.12509000000E+03  0.12509000000E+03 0.  0.
        -11    1    3    3    0    0 -0.30538638037E+02  0.37031065315E+02 -0.33574490886E+01  0.48116324425E+02  0.51100000000E-03 0. -1.
         23    2    1    0    0    0 -0.29431074471E+02 -0.90073426310E+01 -0.29560552501E+01  0.94169802258E+02  0.88948822526E+02 0.  0.
         11    1    3    3    0    0  0.11075635663E+01 -0.46038407946E+02  0.40139383857E+00  0.46053477833E+02  0.51100000000E-03 0.  1.
         22    1    1    0    0    0  0.29431074471E+02  0.90073426310E+01  0.29560552501E+01  0.30920197742E+02  0.00000000000E+00 0.  1.
</event>
<event>
 5    1  0.1046082E-009  0.9118800E+02  0.7561462E-02  0.1125453E+00
         25   -1    0    0    0    0  0.00000000000E+00  0.00000000000E+00  0.99999998245E-14  0.12509000000E+03  0.12509000000E+03 0.  0.
        -11    1    3    3    0    0  0.22260214552E+02 -0.30751106540E+02 -0.15205081662E+01  0.37992889475E+02  0.51100000000E-03 0. -1.
         23    2    1    0    0    0 -0.74245646500E+00  0.11176734315E+02 -0.29593860483E+02  0.93447193395E+02  0.87926735090E+02 0.  0.
         11    1    3    3    0    0 -0.23002671017E+02  0.41927840855E+02 -0.28073352316E+02  0.55454303920E+02  0.51100000000E-03 0.  1.
         22    1    1    0    0    0  0.74245646500E+00 -0.11176734315E+02  0.29593860483E+02  0.31642806605E+02  0.00000000000E+00 0.  1.
</event>
<event>
 5    1  0.1046082E-009  0.9118800E+02  0.7561462E-02  0.1125453E+00
         25   -1    0    0    0    0  0.00000000000E+00  0.00000000000E+00  0.99999998245E-14  0.12509000000E+03  0.12509000000E+03 0.  0.
        -11    1    3    3    0    0  0.37503098809E+02  0.81889334335E+01  0.40472425530E+02  0.55781343473E+02  0.51100000000E-03 0.  1.
         23    2    1    0    0    0  0.24455135470E+02  0.28600208782E+01 -0.18596558941E+01  0.10039806426E+03  0.97314334082E+02 0.  0.
         11    1    3    3    0    0 -0.13047963339E+02 -0.53289125553E+01 -0.42332081424E+02  0.44616720792E+02  0.51100000000E-03 0. -1.
         22    1    1    0    0    0 -0.24455135470E+02 -0.28600208782E+01  0.18596558941E+01  0.24691935735E+02  0.00000000000E+00 0.  1.
</event>
<event>
 5    1  0.1046082E-009  0.9118800E+02  0.7561462E-02  0.1125453E+00
         25   -1    0    0    0    0  0.00000000000E+00  0.00000000000E+00  0.99999998245E-14  0.12509000000E+03  0.12509000000E+03 0.  0.
        -11    1    3    3    0    0  0.57597676766E+01 -0.72230320304E+01  0.46215436794E+02  0.47129754018E+02  0.51100000000E-03 0.  1.
         23    2    1    0    0    0  0.63672158748E+01 -0.29422140292E+02  0.41436068575E+01  0.94702942637E+02  0.89695451886E+02 0.  0.
         11    1    3    3    0    0  0.60744819819E+00 -0.22199108262E+02 -0.42071829937E+02  0.47573188620E+02  0.51100000000E-03 0. -1.
         22    1    1    0    0    0 -0.63672158748E+01  0.29422140292E+02 -0.41436068575E+01  0.30387057363E+02  0.00000000000E+00 0.  1.
</event>
<event>
 5    1  0.1046082E-009  0.9118800E+02  0.7561462E-02  0.1125453E+00
         25   -1    0    0    0    0  0.00000000000E+00  0.00000000000E+00  0.99999998245E-14  0.12509000000E+03  0.12509000000E+03 0.  0.
        -11    1    3    3    0    0  0.38829795657E+02  0.40236040941E+02  0.17596007260E+02  0.58620060501E+02  0.51100000000E-03 0.  1.
         23    2    1    0    0    0  0.13520967891E+02  0.26629784580E+02 -0.45254559342E+01  0.94883349227E+02  0.89946696491E+02 0.  0.
         11    1    3    3    0    0 -0.25308827767E+02 -0.13606256361E+02 -0.22121463195E+02  0.36263288726E+02  0.51100000000E-03 0. -1.
         22    1    1    0    0    0 -0.13520967891E+02 -0.26629784580E+02  0.45254559342E+01  0.30206650773E+02  0.00000000000E+00 0.  1.
</event>
<event>
 5    1  0.1046082E-009  0.9118800E+02  0.7561462E-02  0.1125453E+00
         25   -1    0    0    0    0  0.00000000000E+00  0.00000000000E+00  0.99999998245E-14  0.12509000000E+03  0.12509000000E+03 0.  0.
        -11    1    3    3    0    0  0.99893241751E+01  0.33199614884E+02 -0.27124387510E+02  0.44019693593E+02  0.51100000000E-03 0. -1.
         23    2    1    0    0    0  0.26388355899E+02  0.31972227107E+01  0.11953863876E+02  0.95944461376E+02  0.91410487620E+02 0.  0.
         11    1    3    3    0    0  0.16399031724E+02 -0.30002392173E+02  0.39078251387E+02  0.51924767783E+02  0.51100000000E-03 0.  1.
         22    1    1    0    0    0 -0.26388355899E+02 -0.31972227107E+01 -0.11953863876E+02  0.29145538624E+02  0.00000000000E+00 0.  1.
</event>
<event>
 5    1  0.1046082E-009  0.9118800E+02  0.7561462E-02  0.1125453E+00
         25   -1    0    0    0    0  0.00000000000E+00  0.00000000000E+00  0.99999998245E-14  0.12509000000E+03  0.12509000000E+03 0.  0.
        -11    1    3    3    0    0  0.43200229594E+02 -0.15159419942E+02 -0.11935969890E+02  0.47313161250E+02  0.51100000000E-03 0. -1.
         23    2    1    0    0    0  0.12671491633E+01 -0.32995538243E+00 -0.29812157132E+02  0.95249101046E+02  0.90453921969E+02 0.  0.
         11    1    3    3    0    0 -0.41933080431E+02  0.14829464559E+02 -0.17876187242E+02  0.47935939796E+02  0.51100000000E-03 0.  1.
         22    1    1    0    0    0 -0.12671491633E+01  0.32995538243E+00  0.29812157132E+02  0.29840898954E+02  0.00000000000E+00 0.  1.
</event>
<event>
 5    1  0.1046082E-009  0.9118800E+02  0.7561462E-02  0.1125453E+00
         25   -1    0    0    0    0  0.00000000000E+00  0.00000000000E+00  0.99999998245E-14  0.12509000000E+03  0.12509000000E+03 0.  0.
        -11    1    3    3    0    0 -0.46423389244E+01  0.16811474354E+01 -0.33011082452E+02  0.33378273357E+02  0.51100000000E-03 0. -1.
         23    2    1    0    0    0 -0.59952304477E+01  0.16754793792E+01  0.29012797717E+02  0.95416906958E+02  0.90685686207E+02 0.  0.
         11    1    3    3    0    0 -0.13528915233E+01 -0.56680562191E-02  0.62023880169E+02  0.62038633601E+02  0.51100000000E-03 0.  1.
         22    1    1    0    0    0  0.59952304477E+01 -0.16754793792E+01 -0.29012797717E+02  0.29673093042E+02  0.00000000000E+00 0.  1.
</event>
<event>
 5    1  0.1046082E-009  0.9118800E+02  0.7561462E-02  0.1125453E+00
         25   -1    0    0    0    0  0.00000000000E+00  0.00000000000E+00  0.99999998245E-14  0.12509000000E+03  0.12509000000E+03 0.  0.
        -11    1    3    3    0    0 -0.59873794742E+02 -0.11263849620E+02  0.81244086187E+01  0.61463416930E+02  0.51100000000E-03 0.  1.
         23    2    1    0    0    0 -0.29461829089E+02 -0.22195485873E+01 -0.36797600231E+01  0.95316414341E+02  0.90546962620E+02 0.  0.
         11    1    3    3    0    0  0.30411965653E+02  0.90443010323E+01 -0.11804168642E+02  0.33852997410E+02  0.51100000000E-03 0. -1.
         22    1    1    0    0    0  0.29461829089E+02  0.22195485873E+01  0.36797600231E+01  0.29773585659E+02  0.00000000000E+00 0.  1.
</event>
<event>
 5    1  0.1046082E-009  0.9118800E+02  0.7561462E-02  0.1125453E+00
         25   -1    0    0    0    0  0.00000000000E+00  0.00000000000E+00  0.99999998245E-14  0.12509000000E+03  0.12509000000E+03 0.  0.
        -11    1    3    3    0    0 -0.27356699762E+02 -0.19118396156E+02  0.95790801077E+01  0.34722627628E+02  0.51100000000E-03 0.  1.
         23    2    1    0    0    0  0.15611977905E+02  0.85843150667E+01 -0.23488061986E+02  0.95609271123E+02  0.90950642381E+02 0.  0.
         11    1    3    3    0    0  0.42968677667E+02  0.27702711223E+02 -0.33067142094E+02  0.60886643495E+02  0.51100000000E-03 0. -1.
         22    1    1    0    0    0 -0.15611977905E+02 -0.85843150667E+01  0.23488061986E+02  0.29480728877E+02  0.00000000000E+00 0. -1.
</event>
<event>
 5    1  0.1046082E-009  0.9118800E+02  0.7561462E-02  0.1125453E+00
         25   -1    0    0    0    0  0.00000000000E+00  0.00000000000E+00  0.99999998245E-14  0.12509000000E+03  0.12509000000E+03 0.  0.
        -11    1    3    3    0    0 -0.25531054900E+02  0.33448541134E+02 -0.97369226812E+01  0.43190824626E+02  0.51100000000E-03 0.  1.
         23    2    1    0    0    0 -0.19420169407E+02 -0.16600881365E+02 -0.17383216110E+02  0.94188407092E+02  0.88974982924E+02 0.  0.
         11    1    3    3    0    0  0.61108854930E+01 -0.50049422499E+02 -0.76462934289E+01  0.50997582467E+02  0.51100000000E-03 0. -1.
         22    1    1    0    0    0  0.19420169407E+02  0.16600881365E+02  0.17383216110E+02  0.30901592908E+02  0.00000000000E+00 0. -1.
</event>
<event>
 5    1  0.1046082E-009  0.9118800E+02  0.7561462E-02  0.1125453E+00
         25   -1    0    0    0    0  0.00000000000E+00  0.00000000000E+00  0.99999998245E-14  0.12509000000E+03  0.12509000000E+03 0.  0.
        -11    1    3    3    0    0  0.39682753085E+02  0.42942070558E+02 -0.11009012812E+02  0.59497400612E+02  0.51100000000E-03 0.  1.
         23    2    1    0    0    0  0.95510186808E+01  0.27417276533E+02  0.24186668860E+01  0.95956188717E+02  0.91426534405E+02 0.  0.
         11    1    3    3    0    0 -0.30131734405E+02 -0.15524794025E+02  0.13427679698E+02  0.36458788105E+02  0.51100000000E-03 0. -1.
         22    1    1    0    0    0 -0.95510186808E+01 -0.27417276533E+02 -0.24186668860E+01  0.29133811283E+02  0.00000000000E+00 0.  1.
</event>
<event>
 5    1  0.1046082E-009  0.9118800E+02  0.7561462E-02  0.1125453E+00
         25   -1    0    0    0    0  0.00000000000E+00  0.00000000000E+00  0.99999998245E-14  0.12509000000E+03  0.12509000000E+03 0.  0.
        -11    1    3    3    0    0  0.27567112719E+02  0.80678134275E+01 -0.18250681416E+02  0.34031201706E+02  0.51100000000E-03 0.  1.
         23    2    1    0    0    0 -0.28750979931E+02 -0.16146215882E+01  0.52497022803E+01  0.95819106199E+02  0.91238785004E+02 0.  0.
         11    1    3    3    0    0 -0.56318092650E+02 -0.96824350156E+01  0.23500383697E+02  0.61787904493E+02  0.51100000000E-03 0. -1.
         22    1    1    0    0    0  0.28750979931E+02  0.16146215882E+01 -0.52497022803E+01  0.29270893801E+02  0.00000000000E+00 0. -1.
</event>
<event>
 5    1  0.1046082E-009  0.9118800E+02  0.7561462E-02  0.1125453E+00
         25   -1    0    0    0    0  0.00000000000E+00  0.00000000000E+00  0.99999998245E-14  0.12509000000E+03  0.12509000000E+03 0.  0.
        -11    1    3    3    0    0  0.77817589265E+01  0.23162464880E+02  0.38825265725E+02  0.45874358963E+02  0.51100000000E-03 0. -1.
         23    2    1    0    0    0 -0.17933963670E+01 -0.22294414776E+02  0.15675634224E+02  0.97777315968E+02  0.93885146902E+02 0.  0.
         11    1    3    3    0    0 -0.95751552936E+01 -0.45456879656E+02 -0.23149631502E+02  0.51902957005E+02  0.51100000000E-03 0.  1.
         22    1    1    0    0    0  0.17933963670E+01  0.22294414776E+02 -0.15675634224E+02  0.27312684032E+02  0.00000000000E+00 0. -1.
</event>
<event>
 5    1  0.1046082E-009  0.9118800E+02  0.7561462E-02  0.1125453E+00
         25   -1    0    0    0    0  0.00000000000E+00  0.00000000000E+00  0.99999998245E-14  0.12509000000E+03  0.12509000000E+03 0.  0.
        -11    1    3    3    0    0 -0.24025918362E+02 -0.87629703103E+01 -0.22330489848E+02  0.33951217635E+02  0.51100000000E-03 0. -1.
         23    2    1    0    0    0  0.19920933449E+02 -0.20821088364E+01  0.21029516209E+02  0.96048317565E+02  0.91552498537E+02 0.  0.
         11    1    3    3    0    0  0.43946851811E+02  0.66808614738E+01  0.43360006057E+02  0.62097099930E+02  0.51100000000E-03 0.  1.
         22    1    1    0    0    0 -0.19920933449E+02  0.20821088364E+01 -0.21029516209E+02  0.29041682435E+02  0.00000000000E+00 0.  1.
</event>
<event>
 5    1  0.1046082E-009  0.9118800E+02  0.7561462E-02  0.1125453E+00
         25   -1    0    0    0    0  0.00000000000E+00  0.00000000000E+00  0.99999998245E-14  0.12509000000E+03  0.12509000000E+03 0.  0.
        -11    1    3    3    0    0  0.16835788473E+02 -0.11916357792E+02 -0.39425776973E+02  0.44495339606E+02  0.51100000000E-03 0.  1.
         23    2    1    0    0    0 -0.21594780720E+02 -0.16595083522E+02 -0.30451664024E+02  0.84236172844E+02  0.73666122622E+02 0.  0.
         11    1    3    3    0    0 -0.38430569193E+02 -0.46787257305E+01  0.89741129492E+01  0.39740833238E+02  0.51100000000E-03 0. -1.
         22    1    1    0    0    0  0.21594780720E+02  0.16595083522E+02  0.30451664024E+02  0.40853827156E+02  0.00000000000E+00 0. -1.
</event>
<event>
 5    1  0.1046082E-009  0.9118800E+02  0.7561462E-02  0.1125453E+00
         25   -1    0    0    0    0  0.00000000000E+00  0.00000000000E+00  0.99999998245E-14  0.12509000000E+03  0.12509000000E+03 0.  0.
        -11    1    3    3    0    0 -0.37477232902E+01  0.39449577299E+02  0.18854231712E+02  0.43883899469E+02  0.51100000000E-03 0.  1.
         23    2    1    0    0    0  0.22299188039E+02  0.84660479586E+01 -0.15221345902E+02  0.96794821500E+02  0.92566842568E+02 0.  0.
         11    1    3    3    0    0  0.26046911330E+02 -0.30983529340E+02 -0.34075577614E+02  0.52910922031E+02  0.51100000000E-03 0. -1.
         22    1    1    0    0    0 -0.22299188039E+02 -0.84660479586E+01  0.15221345902E+02  0.28295178500E+02  0.00000000000E+00 0. -1.
</event>
<event>
 5    1  0.1046082E-009  0.9118800E+02  0.7561462E-02  0.1125453E+00
         25   -1    0    0    0    0  0.00000000000E+00  0.00000000000E+00  0.99999998245E-14  0.12509000000E+03  0.12509000000E+03 0.  0.
        -11    1    3    3    0    0 -0.40856987746E+02  0.25414363486E+02 -0.22851944754E+02  0.53267200963E+02  0.51100000000E-03 0. -1.
         23    2    1    0    0    0 -0.13828576121E+02  0.22308351136E+02  0.10943792053E+02  0.96653076249E+02  0.92375096839E+02 0.  0.
         11    1    3    3    0    0  0.27028411625E+02 -0.31060123506E+01  0.33795736808E+02  0.43385875286E+02  0.51100000000E-03 0.  1.
         22    1    1    0    0    0  0.13828576121E+02 -0.22308351136E+02 -0.10943792053E+02  0.28436923751E+02  0.00000000000E+00 0. -1.
</event>
<event>
 5    1  0.1046082E-009  0.9118800E+02  0.7561462E-02  0.1125453E+00
         25   -1    0    0    0    0  0.00000000000E+00  0.00000000000E+00  0.99999998245E-14  0.12509000000E+03  0.12509000000E+03 0.  0.
        -11    1    3    3    0    0 -0.14309269602E+02 -0.29721643809E+02  0.34822139003E+02  0.47965744780E+02  0.51100000000E-03 0. -1.
         23    2    1    0    0    0  0.20578035666E+01 -0.26710807382E+02 -0.10553072609E+02  0.96296439469E+02  0.91890887070E+02 0.  0.
         11    1    3    3    0    0  0.16367073168E+02  0.30108364263E+01 -0.45375211612E+02  0.48330694690E+02  0.51100000000E-03 0.  1.
         22    1    1    0    0    0 -0.20578035666E+01  0.26710807382E+02  0.10553072609E+02  0.28793560531E+02  0.00000000000E+00 0.  1.
</event>
<event>
 5    1  0.1046082E-009  0.9118800E+02  0.7561462E-02  0.1125453E+00
         25   -1    0    0    0    0  0.00000000000E+00  0.00000000000E+00  0.99999998245E-14  0.12509000000E+03  0.12509000000E+03 0.  0.
        -11    1    3    3    0    0 -0.23145797908E+02  0.18590441308E+02 -0.49997680516E+02  0.58147231456E+02  0.51100000000E-03 0. -1.
         23    2    1    0    0    0  0.10880113791E+01 -0.22830155068E+01 -0.28023932007E+02  0.96952183920E+02  0.92779250230E+02 0.  0.
         11    1    3    3    0    0  0.24233809287E+02 -0.20873456815E+02  0.21973748508E+02  0.38804952464E+02  0.51100000000E-03 0.  1.
         22    1    1    0    0    0 -0.10880113791E+01  0.22830155068E+01  0.28023932007E+02  0.28137816080E+02  0.00000000000E+00 0. -1.
</event>
<event>
 5    1  0.1046082E-009  0.9118800E+02  0.7561462E-02  0.1125453E+00
         25   -1    0    0    0    0  0.00000000000E+00  0.00000000000E+00  0.99999998245E-14  0.12509000000E+03  0.12509000000E+03 0.  0.
        -11    1    3    3    0    0 -0.16457129792E+02 -0.89233324038E+01 -0.51912495466E+02  0.55184872637E+02  0.51100000000E-03 0. -1.
         23    2    1    0    0    0 -0.49453035047E+01 -0.24794587481E+02 -0.19121478347E+02  0.93390496387E+02  0.87846037396E+02 0.  0.
         11    1    3    3    0    0  0.11511826287E+02 -0.15871255077E+02  0.32791017119E+02  0.38205623750E+02  0.51100000000E-03 0.  1.
         22    1    1    0    0    0  0.49453035047E+01  0.24794587481E+02  0.19121478347E+02  0.31699503613E+02  0.00000000000E+00 0. -1.
</event>
<event>
 5    1  0.1046082E-009  0.9118800E+02  0.7561462E-02  0.1125453E+00
         25   -1    0    0    0    0  0.00000000000E+00  0.00000000000E+00  0.99999998245E-14  0.12509000000E+03  0.12509000000E+03 0.  0.
        -11    1    3    3    0    0  0.20981032554E+02 -0.30618531870E+02 -0.13203240610E+02  0.39395733065E+02  0.51100000000E-03 0. -1.
         23    2    1    0    0    0 -0.26210324806E+02 -0.32081135474E+01 -0.16300893594E+02  0.94057883557E+02  0.88791290160E+02 0.  0.
         11    1    3    3    0    0 -0.47191357360E+02  0.27410418322E+02 -0.30976529840E+01  0.54662150492E+02  0.51100000000E-03 0.  1.
         22    1    1    0    0    0  0.26210324806E+02  0.32081135474E+01  0.16300893594E+02  0.31032116443E+02  0.00000000000E+00 0.  1.
</event>
<event>
 5    1  0.1046082E-009  0.9118800E+02  0.7561462E-02  0.1125453E+00
         25   -1    0    0    0    0  0.00000000000E+00  0.00000000000E+00  0.99999998245E-14  0.12509000000E+03  0.12509000000E+03 0.  0.
        -11    1    3    3    0    0  0.38486916303E+02 -0.15172923254E+02 -0.10789659162E+02  0.42753679043E+02  0.51100000000E-03 0.  1.
         23    2    1    0    0    0 -0.13083329660E+02 -0.25798950850E+02 -0.25068095125E+01  0.96054789067E+02  0.91561340252E+02 0.  0.
         11    1    3    3    0    0 -0.51570245964E+02 -0.10626027597E+02  0.82828496497E+01  0.53301110024E+02  0.51100000000E-03 0. -1.
         22    1    1    0    0    0  0.13083329660E+02  0.25798950850E+02  0.25068095125E+01  0.29035210933E+02  0.00000000000E+00 0.  1.
</event>
<event>
 5    1  0.1046082E-009  0.9118800E+02  0.7561462E-02  0.1125453E+00
         25   -1    0    0    0    0  0.00000000000E+00  0.00000000000E+00  0.99999998245E-14  0.12509000000E+03  0.12509000000E+03 0.  0.
        -11    1    3    3    0    0 -0.32535610590E+01  0.17232304220E+02  0.45939330867E+02  0.49172757590E+02  0.51100000000E-03 0. -1.
         23    2    1    0    0    0 -0.18682086022E+02 -0.15433288217E+02  0.16519505808E+02  0.95762524905E+02  0.91161178035E+02 0.  0.
         11    1    3    3    0    0 -0.15428524963E+02 -0.32665592436E+02 -0.29419825059E+02  0.46589767315E+02  0.51100000000E-03 0.  1.
         22    1    1    0    0    0  0.18682086022E+02  0.15433288217E+02 -0.16519505808E+02  0.29327475095E+02  0.00000000000E+00 0. -1.
</event>
<event>
 5    1  0.1046082E-009  0.9118800E+02  0.7561462E-02  0.1125453E+00
         25   -1    0    0    0    0  0.00000000000E+00  0.00000000000E+00  0.99999998245E-14  0.12509000000E+03  0.12509000000E+03 0.  0.
        -11    1    3    3    0    0 -0.46753119438E+02 -0.35560871890E+02  0.66601335566E+01  0.59116724926E+02  0.51100000000E-03 0.  1.
         23    2    1    0    0    0 -0.12124709856E+02 -0.27010113097E+02 -0.41624100040E+00  0.95480406028E+02  0.90773233280E+02 0.  0.
         11    1    3    3    0    0  0.34628409583E+02  0.85507587926E+01 -0.70763745570E+01  0.36363681102E+02  0.51100000000E-03 0. -1.
         22    1    1    0    0    0  0.12124709856E+02  0.27010113097E+02  0.41624100040E+00  0.29609593972E+02  0.00000000000E+00 0.  1.
</event>
<event>
 5    1  0.1046082E-009  0.9118800E+02  0.7561462E-02  0.1125453E+00
         25   -1    0    0    0    0  0.00000000000E+00  0.00000000000E+00  0.99999998245E-14  0.12509000000E+03  0.12509000000E+03 0.  0.
        -11    1    3    3    0    0  0.11967463837E+02  0.53313236924E+02  0.39651761940E+01  0.54783611094E+02  0.51100000000E-03 0.  1.
         23    2    1    0    0    0 -0.11757108312E+02  0.23971368897E+02 -0.12077971939E+02  0.95785844513E+02  0.91193171236E+02 0.  0.
         11    1    3    3    0    0 -0.23724572150E+02 -0.29341868027E+02 -0.16043148133E+02  0.41002233418E+02  0.51100000000E-03 0. -1.
         22    1    1    0    0    0  0.11757108312E+02 -0.23971368897E+02  0.12077971939E+02  0.29304155487E+02  0.00000000000E+00 0.  1.
</event>
<event>
 5    1  0.1046082E-009  0.9118800E+02  0.7561462E-02  0.1125453E+00
         25   -1    0    0    0    0  0.00000000000E+00  0.00000000000E+00  0.99999998245E-14  0.12509000000E+03  0.12509000000E+03 0.  0.
        -11    1    3    3    0    0 -0.20742863428E+02 -0.53549862976E+02  0.61393526437E+00  0.57430228318E+02  0.51100000000E-03 0. -1.
         23    2    1    0    0    0  0.62359509434E+01 -0.28714237794E+02 -0.70048499086E+01  0.94883006464E+02  0.89946219805E+02 0.  0.
         11    1    3    3    0    0  0.26978814371E+02  0.24835625182E+02 -0.76187851729E+01  0.37452778146E+02  0.51100000000E-03 0.  1.
         22    1    1    0    0    0 -0.62359509434E+01  0.28714237794E+02  0.70048499086E+01  0.30206993536E+02  0.00000000000E+00 0. -1.
</event>
<event>
 5    1  0.1046082E-009  0.9118800E+02  0.7561462E-02  0.1125453E+00
         25   -1    0    0    0    0  0.00000000000E+00  0.00000000000E+00  0.99999998245E-14  0.12509000000E+03  0.12509000000E+03 0.  0.
        -11    1    3    3    0    0 -0.31519034052E+02 -0.28706579336E+02  0.56107497106E+01  0.42999973457E+02  0.51100000000E-03 0.  1.
         23    2    1    0    0    0 -0.40791346471E+01  0.21428323079E+02 -0.81806225204E+01  0.10179332740E+03  0.99091606853E+02 0.  0.
         11    1    3    3    0    0  0.27439899405E+02  0.50134902414E+02 -0.13791372231E+02  0.58793353942E+02  0.51100000000E-03 0. -1.
         22    1    1    0    0    0  0.40791346471E+01 -0.21428323079E+02  0.81806225204E+01  0.23296672601E+02  0.00000000000E+00 0. -1.
</event>
<event>
 5    1  0.1046082E-009  0.9118800E+02  0.7561462E-02  0.1125453E+00
         25   -1    0    0    0    0  0.00000000000E+00  0.00000000000E+00  0.99999998245E-14  0.12509000000E+03  0.12509000000E+03 0.  0.
        -11    1    3    3    0    0 -0.12096631680E+02 -0.52595819772E+01  0.51841620342E+02  0.53493413618E+02  0.51100000000E-03 0.  1.
         23    2    1    0    0    0  0.15986818499E+02  0.79620609278E+01  0.23875106410E+02  0.95274006204E+02  0.90488357108E+02 0.  0.
         11    1    3    3    0    0  0.28083450179E+02  0.13221642905E+02 -0.27966513931E+02  0.41780592586E+02  0.51100000000E-03 0. -1.
         22    1    1    0    0    0 -0.15986818499E+02 -0.79620609278E+01 -0.23875106410E+02  0.29815993796E+02  0.00000000000E+00 0.  1.
</event>
<event>
 5    1  0.1046082E-009  0.9118800E+02  0.7561462E-02  0.1125453E+00
         25   -1    0    0    0    0  0.00000000000E+00  0.00000000000E+00  0.99999998245E-14  0.12509000000E+03  0.12509000000E+03 0.  0.
        -11    1    3    3    0    0  0.11626179847E+02  0.20657907419E+02  0.20482703083E+02  0.31328235230E+02  0.51100000000E-03 0. -1.
         23    2    1    0    0    0 -0.33035722723E+02 -0.28549708962E+01 -0.10202521827E+02  0.90397042699E+02  0.83474691030E+02 0.  0.
         11    1    3    3    0    0 -0.44661902570E+02 -0.23512878315E+02 -0.30685224910E+02  0.59068807469E+02  0.51100000000E-03 0.  1.
         22    1    1    0    0    0  0.33035722723E+02  0.28549708962E+01  0.10202521827E+02  0.34692957301E+02  0.00000000000E+00 0.  1.
</event>
<event>
 5    1  0.1046082E-009  0.9118800E+02  0.7561462E-02  0.1125453E+00
         25   -1    0    0    0    0  0.00000000000E+00  0.00000000000E+00  0.99999998245E-14  0.12509000000E+03  0.12509000000E+03 0.  0.
        -11    1    3    3    0    0  0.55744916928E+02  0.83696009649E+01 -0.22506896774E+02  0.60696840002E+02  0.51100000000E-03 0.  1.
         23    2    1    0    0    0  0.28943732288E+02  0.17926894660E+01 -0.34779499167E+00  0.96088718379E+02  0.91607682342E+02 0.  0.
         11    1    3    3    0    0 -0.26801184640E+02 -0.65769114989E+01  0.22159101783E+02  0.35391878377E+02  0.51100000000E-03 0. -1.
         22    1    1    0    0    0 -0.28943732288E+02 -0.17926894660E+01  0.34779499167E+00  0.29001281621E+02  0.00000000000E+00 0.  1.
</event>
<event>
 5    1  0.1046082E-009  0.9118800E+02  0.7561462E-02  0.1125453E+00
         25   -1    0    0    0    0  0.00000000000E+00  0.00000000000E+00  0.99999998245E-14  0.12509000000E+03  0.12509000000E+03 0.  0.
        -11    1    3    3    0    0 -0.41175046999E+01 -0.22073534843E+02  0.28621494880E+02  0.36378355582E+02  0.51100000000E-03 0.  1.
         23    2    1    0    0    0  0.22790116031E+02  0.14415536101E+02 -0.10391566653E+02  0.96190489151E+02  0.91746544763E+02 0.  0.
         11    1    3    3    0    0  0.26907620731E+02  0.36489070944E+02 -0.39013061532E+02  0.59812133570E+02  0.51100000000E-03 0. -1.
         22    1    1    0    0    0 -0.22790116031E+02 -0.14415536101E+02  0.10391566653E+02  0.28899510849E+02  0.00000000000E+00 0. -1.
</event>
<event>
 5    1  0.1046082E-009  0.9118800E+02  0.7561462E-02  0.1125453E+00
         25   -1    0    0    0    0  0.00000000000E+00  0.00000000000E+00  0.99999998245E-14  0.12509000000E+03  0.12509000000E+03 0.  0.
        -11    1    3    3    0    0  0.16514118202E+02 -0.28722432308E+02 -0.98789373816E+01  0.34572931923E+02  0.51100000000E-03 0.  1.
         23    2    1    0    0    0 -0.55592440466E+01  0.18001212102E+02  0.22645823919E+02  0.95631857281E+02  0.90981701207E+02 0.  0.
         11    1    3    3    0    0 -0.22073362249E+02  0.46723644410E+02  0.32524761300E+02  0.61058925358E+02  0.51100000000E-03 0. -1.
         22    1    1    0    0    0  0.55592440466E+01 -0.18001212102E+02 -0.22645823919E+02  0.29458142719E+02  0.00000000000E+00 0. -1.
</event>
<event>
 5    1  0.1046082E-009  0.9118800E+02  0.7561462E-02  0.1125453E+00
         25   -1    0    0    0    0  0.00000000000E+00  0.00000000000E+00  0.99999998245E-14  0.12509000000E+03  0.12509000000E+03 0.  0.
        -11    1    3    3    0    0  0.48341957715E+02 -0.47508062578E+01 -0.35341420737E+02  0.60071050064E+02  0.51100000000E-03 0. -1.
         23    2    1    0    0    0  0.26382635232E+02  0.97689127520E+01 -0.20376167846E+02  0.90352940334E+02  0.83408575775E+02 0.  0.
         11    1    3    3    0    0 -0.21959322483E+02  0.14519719010E+02  0.14965252891E+02  0.30281890271E+02  0.51100000000E-03 0.  1.
         22    1    1    0    0    0 -0.26382635232E+02 -0.97689127520E+01  0.20376167846E+02  0.34737059666E+02  0.00000000000E+00 0. -1.
</event>
<event>
 5    1  0.1046082E-009  0.9118800E+02  0.7561462E-02  0.1125453E+00
         25   -1    0    0    0    0  0.00000000000E+00  0.00000000000E+00  0.99999998245E-14  0.12509000000E+03  0.12509000000E+03 0.  0.
        -11    1    3    3    0    0 -0.32754861862E+02 -0.39097593300E+02  0.32673963818E+02  0.60573019483E+02  0.51100000000E-03 0.  1.
         23    2    1    0    0    0 -0.75042204317E+01 -0.16729260245E+02  0.23019646510E+02  0.95660667726E+02  0.91021303835E+02 0.  0.
         11    1    3    3    0    0  0.25250641431E+02  0.22368333055E+02 -0.96543173082E+01  0.35087648243E+02  0.51100000000E-03 0. -1.
         22    1    1    0    0    0  0.75042204317E+01  0.16729260245E+02 -0.23019646510E+02  0.29429332274E+02  0.00000000000E+00 0.  1.
</event>
<event>
 4    1  0.1046082E-009  0.9118800E+02  0.7561462E-02  0.1125453E+00
         25   -1    0    0    0    0  0.00000000000E+00  0.00000000000E+00  0.99999998245E-14  0.12509000000E+03  0.12509000000E+03 0.  0.
        -11    1    1    0    0    0 -0.34198843463E+02 -0.38074873036E+02 -0.10770359794E+02  0.52299689303E+02  0.51100000000E-03 0.  1.
         11    1    1    0    0    0 -0.56843074521E+01 -0.24697852584E+01  0.14526572378E+02  0.15793432045E+02  0.51100000000E-03 0. -1.
         22    1    1    0    0    0  0.39883150915E+02  0.40544658294E+02 -0.37562125838E+01  0.56996878652E+02  0.00000000000E+00 0.  1.
</event>
<event>
 5    1  0.1046082E-009  0.9118800E+02  0.7561462E-02  0.1125453E+00
         25   -1    0    0    0    0  0.00000000000E+00  0.00000000000E+00  0.99999998245E-14  0.12509000000E+03  0.12509000000E+03 0.  0.
        -11    1    3    3    0    0 -0.43057000073E+02 -0.18990765977E+02  0.41074764086E+02  0.62463514892E+02  0.51100000000E-03 0.  1.
         23    2    1    0    0    0 -0.21731197357E+02 -0.83234416021E+01  0.17718702696E+02  0.95841460825E+02  0.91269428447E+02 0.  0.
         11    1    3    3    0    0  0.21325802716E+02  0.10667324375E+02 -0.23356061390E+02  0.33377945933E+02  0.51100000000E-03 0. -1.
         22    1    1    0    0    0  0.21731197357E+02  0.83234416021E+01 -0.17718702696E+02  0.29248539175E+02  0.00000000000E+00 0.  1.
</event>
<event>
 5    1  0.1046082E-009  0.9118800E+02  0.7561462E-02  0.1125453E+00
         25   -1    0    0    0    0  0.00000000000E+00  0.00000000000E+00  0.99999998245E-14  0.12509000000E+03  0.12509000000E+03 0.  0.
        -11    1    3    3    0    0 -0.19000761831E+02 -0.32637699353E+02  0.10999070250E+02  0.39334818111E+02  0.51100000000E-03 0. -1.
         23    2    1    0    0    0 -0.11044750895E+02  0.11474087774E+02 -0.24057057374E+02  0.96238947643E+02  0.91812590757E+02 0.  0.
         11    1    3    3    0    0  0.79560109360E+01  0.44111787128E+02 -0.35056127624E+02  0.56904129532E+02  0.51100000000E-03 0.  1.
         22    1    1    0    0    0  0.11044750895E+02 -0.11474087774E+02  0.24057057374E+02  0.28851052357E+02  0.00000000000E+00 0. -1.
</event>
<event>
 5    1  0.1046082E-009  0.9118800E+02  0.7561462E-02  0.1125453E+00
         25   -1    0    0    0    0  0.00000000000E+00  0.00000000000E+00  0.99999998245E-14  0.12509000000E+03  0.12509000000E+03 0.  0.
        -11    1    3    3    0    0  0.30218565812E+02  0.42852648887E+02  0.32261271744E+02  0.61565419605E+02  0.51100000000E-03 0. -1.
         23    2    1    0    0    0  0.17146147175E+02  0.22667091808E+02  0.83766115932E+01  0.95459693965E+02  0.90744686545E+02 0.  0.
         11    1    3    3    0    0 -0.13072418637E+02 -0.20185557079E+02 -0.23884660150E+02  0.33894274360E+02  0.51100000000E-03 0.  1.
         22    1    1    0    0    0 -0.17146147175E+02 -0.22667091808E+02 -0.83766115932E+01  0.29630306035E+02  0.00000000000E+00 0. -1.
</event>
<event>
 5    1  0.1046082E-009  0.9118800E+02  0.7561462E-02  0.1125453E+00
         25   -1    0    0    0    0  0.00000000000E+00  0.00000000000E+00  0.99999998245E-14  0.12509000000E+03  0.12509000000E+03 0.  0.
        -11    1    3    3    0    0 -0.85177934370E+01  0.26840184305E+02  0.15691780981E+02  0.32236319411E+02  0.51100000000E-03 0. -1.
         23    2    1    0    0    0  0.25202798639E+02 -0.19979689476E+02 -0.27503819344E+01  0.92811002935E+02  0.87016944408E+02 0.  0.
         11    1    3    3    0    0  0.33720592076E+02 -0.46819873781E+02 -0.18442162915E+02  0.60574683524E+02  0.51100000000E-03 0.  1.
         22    1    1    0    0    0 -0.25202798639E+02  0.19979689476E+02  0.27503819344E+01  0.32278997065E+02  0.00000000000E+00 0.  1.
</event>
<event>
 5    1  0.1046082E-009  0.9118800E+02  0.7561462E-02  0.1125453E+00
         25   -1    0    0    0    0  0.00000000000E+00  0.00000000000E+00  0.99999998245E-14  0.12509000000E+03  0.12509000000E+03 0.  0.
        -11    1    3    3    0    0 -0.39618001760E+02 -0.63169017006E+01 -0.22875419140E+02  0.46181967386E+02  0.51100000000E-03 0.  1.
         23    2    1    0    0    0 -0.25351212357E+02  0.28343649234E+02 -0.10858010992E+02  0.85543283037E+02  0.75853216478E+02 0.  0.
         11    1    3    3    0    0  0.14266789402E+02  0.34660550934E+02  0.12017408147E+02  0.39361315651E+02  0.51100000000E-03 0. -1.
         22    1    1    0    0    0  0.25351212357E+02 -0.28343649234E+02  0.10858010992E+02  0.39546716963E+02  0.00000000000E+00 0.  1.
</event>
<event>
 5    1  0.1046082E-009  0.9118800E+02  0.7561462E-02  0.1125453E+00
         25   -1    0    0    0    0  0.00000000000E+00  0.00000000000E+00  0.99999998245E-14  0.12509000000E+03  0.12509000000E+03 0.  0.
        -11    1    3    3    0    0  0.20247983946E+02 -0.56402934082E+02 -0.77984591716E+01  0.60432506093E+02  0.51100000000E-03 0.  1.
         23    2    1    0    0    0  0.15249687228E+02 -0.26125504318E+02  0.62790914345E+01  0.94194661749E+02  0.88983775917E+02 0.  0.
         11    1    3    3    0    0 -0.49982967181E+01  0.30277429764E+02  0.14077550606E+02  0.33762155656E+02  0.51100000000E-03 0. -1.
         22    1    1    0    0    0 -0.15249687228E+02  0.26125504318E+02 -0.62790914345E+01  0.30895338251E+02  0.00000000000E+00 0.  1.
</event>
<event>
 5    1  0.1046082E-009  0.9118800E+02  0.7561462E-02  0.1125453E+00
         25   -1    0    0    0    0  0.00000000000E+00  0.00000000000E+00  0.99999998245E-14  0.12509000000E+03  0.12509000000E+03 0.  0.
        -11    1    3    3    0    0  0.39881365707E+02  0.30214874067E+02  0.25395338305E+02  0.56110472761E+02  0.51100000000E-03 0.  1.
         23    2    1    0    0    0  0.28957874371E+02 -0.12135689203E+00  0.17788939744E+01  0.96077284179E+02  0.91592067647E+02 0.  0.
         11    1    3    3    0    0 -0.10923491337E+02 -0.30336230959E+02 -0.23616444331E+02  0.39966811417E+02  0.51100000000E-03 0. -1.
         22    1    1    0    0    0 -0.28957874371E+02  0.12135689203E+00 -0.17788939744E+01  0.29012715821E+02  0.00000000000E+00 0. -1.
</event>
<event>
 5    1  0.1046082E-009  0.9118800E+02  0.7561462E-02  0.1125453E+00
         25   -1    0    0    0    0  0.00000000000E+00  0.00000000000E+00  0.99999998245E-14  0.12509000000E+03  0.12509000000E+03 0.  0.
        -11    1    3    3    0    0  0.37159939132E+02  0.24169500156E+01 -0.20617222659E+02  0.42564922109E+02  0.51100000000E-03 0.  1.
         23    2    1    0    0    0 -0.16063339878E+02 -0.66165723295E+01 -0.22598318795E+02  0.96585720851E+02  0.92283842261E+02 0.  0.
         11    1    3    3    0    0 -0.53223279010E+02 -0.90335223451E+01 -0.19810961356E+01  0.54020798742E+02  0.51100000000E-03 0. -1.
         22    1    1    0    0    0  0.16063339878E+02  0.66165723295E+01  0.22598318795E+02  0.28504279149E+02  0.00000000000E+00 0. -1.
</event>
<event>
 5    1  0.1046082E-009  0.9118800E+02  0.7561462E-02  0.1125453E+00
         25   -1    0    0    0    0  0.00000000000E+00  0.00000000000E+00  0.99999998245E-14  0.12509000000E+03  0.12509000000E+03 0.  0.
        -11    1    3    3    0    0 -0.59353367844E+01 -0.25073508281E+02 -0.26338605067E+02  0.36846046700E+02  0.51100000000E-03 0.  1.
         23    2    1    0    0    0  0.15600433012E+01  0.29287850456E+02 -0.83422853078E+01  0.94597285402E+02  0.89547980222E+02 0.  0.
         11    1    3    3    0    0  0.74953800856E+01  0.54361358737E+02  0.17996319760E+02  0.57751238701E+02  0.51100000000E-03 0. -1.
         22    1    1    0    0    0 -0.15600433012E+01 -0.29287850456E+02  0.83422853078E+01  0.30492714598E+02  0.00000000000E+00 0. -1.
</event>
<event>
 5    1  0.1046082E-009  0.9118800E+02  0.7561462E-02  0.1125453E+00
         25   -1    0    0    0    0  0.00000000000E+00  0.00000000000E+00  0.99999998245E-14  0.12509000000E+03  0.12509000000E+03 0.  0.
        -11    1    3    3    0    0  0.47525346440E+02  0.34305559849E+02 -0.19215046690E+02  0.61682639457E+02  0.51100000000E-03 0.  1.
         23    2    1    0    0    0  0.17713859474E+02  0.21787891520E+02 -0.95813780471E+01  0.95420220094E+02  0.90690256164E+02 0.  0.
         11    1    3    3    0    0 -0.29811486965E+02 -0.12517668329E+02  0.96336686432E+01  0.33737580637E+02  0.51100000000E-03 0. -1.
         22    1    1    0    0    0 -0.17713859474E+02 -0.21787891520E+02  0.95813780471E+01  0.29669779906E+02  0.00000000000E+00 0.  1.
</event>
<event>
 5    1  0.1046082E-009  0.9118800E+02  0.7561462E-02  0.1125453E+00
         25   -1    0    0    0    0  0.00000000000E+00  0.00000000000E+00  0.99999998245E-14  0.12509000000E+03  0.12509000000E+03 0.  0.
        -11    1    3    3    0    0  0.11105791968E+02  0.29411839445E+02  0.52178870289E+02  0.60918219111E+02  0.51100000000E-03 0.  1.
         23    2    1    0    0    0  0.14661959580E+02  0.10954136614E+02  0.21999382485E+02  0.96472889779E+02  0.92130773713E+02 0.  0.
         11    1    3    3    0    0  0.35561676117E+01 -0.18457702831E+02 -0.30179487805E+02  0.35554670668E+02  0.51100000000E-03 0. -1.
         22    1    1    0    0    0 -0.14661959580E+02 -0.10954136614E+02 -0.21999382485E+02  0.28617110221E+02  0.00000000000E+00 0.  1.
</event>
<event>
 5    1  0.1046082E-009  0.9118800E+02  0.7561462E-02  0.1125453E+00
         25   -1    0    0    0    0  0.00000000000E+00  0.00000000000E+00  0.99999998245E-14  0.12509000000E+03  0.12509000000E+03 0.  0.
        -11    1    3    3    0    0 -0.29838407541E+02 -0.31754566395E+02  0.25212579538E+02  0.50342399811E+02  0.51100000000E-03 0.  1.
         23    2    1    0    0    0 -0.30918082815E+01 -0.24438048898E+02 -0.12749404453E+02  0.97353294602E+02  0.93318482326E+02 0.  0.
         11    1    3    3    0    0  0.26746599260E+02  0.73165174973E+01 -0.37961983991E+02  0.47010894791E+02  0.51100000000E-03 0. -1.
         22    1    1    0    0    0  0.30918082815E+01  0.24438048898E+02  0.12749404453E+02  0.27736705398E+02  0.00000000000E+00 0. -1.
</event>
<event>
 5    1  0.1046082E-009  0.9118800E+02  0.7561462E-02  0.1125453E+00
         25   -1    0    0    0    0  0.00000000000E+00  0.00000000000E+00  0.99999998245E-14  0.12509000000E+03  0.12509000000E+03 0.  0.
        -11    1    3    3    0    0  0.33724811860E+02  0.21366110383E+02  0.29513802792E+02  0.49648143605E+02  0.51100000000E-03 0.  1.
         23    2    1    0    0    0  0.23961950392E+02  0.12135941507E+02 -0.13725262063E+02  0.94926463046E+02  0.90006635449E+02 0.  0.
         11    1    3    3    0    0 -0.97628614683E+01 -0.92301688762E+01 -0.43239064856E+02  0.45278319441E+02  0.51100000000E-03 0. -1.
         22    1    1    0    0    0 -0.23961950392E+02 -0.12135941507E+02  0.13725262063E+02  0.30163536954E+02  0.00000000000E+00 0.  1.
</event>
<event>
 5    1  0.1046082E-009  0.9118800E+02  0.7561462E-02  0.1125453E+00
         25   -1    0    0    0    0  0.00000000000E+00  0.00000000000E+00  0.99999998245E-14  0.12509000000E+03  0.12509000000E+03 0.  0.
        -11    1    3    3    0    0 -0.45243274129E+02 -0.19357465068E+02 -0.64000962833E+01  0.49624858091E+02  0.51100000000E-03 0.  1.
         23    2    1    0    0    0 -0.43526227762E+00 -0.23180071398E+02 -0.17615203505E+02  0.95972985081E+02  0.91449512342E+02 0.  0.
         11    1    3    3    0    0  0.44808011852E+02 -0.38226063295E+01 -0.11215107222E+02  0.46348126990E+02  0.51100000000E-03 0. -1.
         22    1    1    0    0    0  0.43526227762E+00  0.23180071398E+02  0.17615203505E+02  0.29117014919E+02  0.00000000000E+00 0.  1.
</event>
<event>
 5    1  0.1046082E-009  0.9118800E+02  0.7561462E-02  0.1125453E+00
         25   -1    0    0    0    0  0.00000000000E+00  0.00000000000E+00  0.99999998245E-14  0.12509000000E+03  0.12509000000E+03 0.  0.
        -11    1    3    3    0    0  0.30880997837E+02 -0.14621363856E+02  0.49602182735E+01  0.34525701644E+02  0.51100000000E-03 0.  1.
         23    2    1    0    0    0 -0.18328587604E+02 -0.12266987844E+02  0.28439801682E+02  0.89100578859E+02  0.81508740139E+02 0.  0.
         11    1    3    3    0    0 -0.49209585441E+02  0.23543760121E+01  0.23479583409E+02  0.54574877215E+02  0.51100000000E-03 0. -1.
         22    1    1    0    0    0  0.18328587604E+02  0.12266987844E+02 -0.28439801682E+02  0.35989421141E+02  0.00000000000E+00 0.  1.
</event>
<event>
 5    1  0.1046082E-009  0.9118800E+02  0.7561462E-02  0.1125453E+00
         25   -1    0    0    0    0  0.00000000000E+00  0.00000000000E+00  0.99999998245E-14  0.12509000000E+03  0.12509000000E+03 0.  0.
        -11    1    3    3    0    0  0.60615154169E+01 -0.12804563871E+02 -0.31226272604E+02  0.34289632924E+02  0.51100000000E-03 0.  1.
         23    2    1    0    0    0  0.99844245437E+01 -0.10303118395E+02  0.27962826343E+02  0.93661308662E+02  0.88230822852E+02 0.  0.
         11    1    3    3    0    0  0.39229091267E+01  0.25014454753E+01  0.59189098947E+02  0.59371675738E+02  0.51100000000E-03 0. -1.
         22    1    1    0    0    0 -0.99844245437E+01  0.10303118395E+02 -0.27962826343E+02  0.31428691338E+02  0.00000000000E+00 0. -1.
</event>
<event>
 5    1  0.1046082E-009  0.9118800E+02  0.7561462E-02  0.1125453E+00
         25   -1    0    0    0    0  0.00000000000E+00  0.00000000000E+00  0.99999998245E-14  0.12509000000E+03  0.12509000000E+03 0.  0.
        -11    1    3    3    0    0 -0.11412761309E+02  0.45995501170E+02  0.14382663729E+02  0.49524723773E+02  0.51100000000E-03 0. -1.
         23    2    1    0    0    0  0.13320125525E+02  0.91256420907E+01  0.25144697230E+02  0.95207582321E+02  0.90396486906E+02 0.  0.
         11    1    3    3    0    0  0.24732886834E+02 -0.36869859080E+02  0.10762033501E+02  0.45682858547E+02  0.51100000000E-03 0.  1.
         22    1    1    0    0    0 -0.13320125525E+02 -0.91256420907E+01 -0.25144697230E+02  0.29882417679E+02  0.00000000000E+00 0. -1.
</event>
<event>
 5    1  0.1046082E-009  0.9118800E+02  0.7561462E-02  0.1125453E+00
         25   -1    0    0    0    0  0.00000000000E+00  0.00000000000E+00  0.99999998245E-14  0.12509000000E+03  0.12509000000E+03 0.  0.
        -11    1    3    3    0    0 -0.56506080528E+02  0.10359611783E+02  0.38620031155E+01  0.57577545634E+02  0.51100000000E-03 0.  1.
         23    2    1    0    0    0 -0.20067261896E+02  0.16953805393E+02  0.13087682249E+02  0.95740145760E+02  0.91130464534E+02 0.  0.
         11    1    3    3    0    0  0.36438818632E+02  0.65941936093E+01  0.92256791330E+01  0.38162600126E+02  0.51100000000E-03 0. -1.
         22    1    1    0    0    0  0.20067261896E+02 -0.16953805393E+02 -0.13087682249E+02  0.29349854240E+02  0.00000000000E+00 0.  1.
</event>
<event>
 5    1  0.1046082E-009  0.9118800E+02  0.7561462E-02  0.1125453E+00
         25   -1    0    0    0    0  0.00000000000E+00  0.00000000000E+00  0.99999998245E-14  0.12509000000E+03  0.12509000000E+03 0.  0.
        -11    1    3    3    0    0  0.31133174357E+02  0.28756859809E+02  0.86850389294E+01  0.43262702563E+02  0.51100000000E-03 0. -1.
         23    2    1    0    0    0 -0.14470851997E+02  0.21243279384E+02 -0.15137787365E+02  0.95259896366E+02  0.90468849737E+02 0.  0.
         11    1    3    3    0    0 -0.45604026354E+02 -0.75135804244E+01 -0.23822826294E+02  0.51997193803E+02  0.51100000000E-03 0.  1.
         22    1    1    0    0    0  0.14470851997E+02 -0.21243279384E+02  0.15137787365E+02  0.29830103634E+02  0.00000000000E+00 0. -1.
</event>
<event>
 5    1  0.1046082E-009  0.9118800E+02  0.7561462E-02  0.1125453E+00
         25   -1    0    0    0    0  0.00000000000E+00  0.00000000000E+00  0.99999998245E-14  0.12509000000E+03  0.12509000000E+03 0.  0.
        -11    1    3    3    0    0 -0.26537382887E+02  0.52643233663E+02 -0.17962341624E+02  0.61629444731E+02  0.51100000000E-03 0. -1.
         23    2    1    0    0    0 -0.59038463046E+01  0.28410403097E+02 -0.77378427292E+01  0.95058672766E+02  0.90190191554E+02 0.  0.
         11    1    3    3    0    0  0.20633536582E+02 -0.24232830565E+02  0.10224498894E+02  0.33429228035E+02  0.51100000000E-03 0.  1.
         22    1    1    0    0    0  0.59038463046E+01 -0.28410403097E+02  0.77378427292E+01  0.30031327234E+02  0.00000000000E+00 0. -1.
</event>
<event>
 5    1  0.1046082E-009  0.9118800E+02  0.7561462E-02  0.1125453E+00
         25   -1    0    0    0    0  0.00000000000E+00  0.00000000000E+00  0.99999998245E-14  0.12509000000E+03  0.12509000000E+03 0.  0.
        -11    1    3    3    0    0 -0.31552735467E+02 -0.34489628934E+02  0.61793094358E+01  0.47151813166E+02  0.51100000000E-03 0.  1.
         23    2    1    0    0    0 -0.55040902547E+01  0.11093661820E+01  0.28117434954E+02  0.96417437310E+02  0.92055452669E+02 0.  0.
         11    1    3    3    0    0  0.26048645213E+02  0.35598995116E+02  0.21938125518E+02  0.49265624143E+02  0.51100000000E-03 0. -1.
         22    1    1    0    0    0  0.55040902547E+01 -0.11093661820E+01 -0.28117434954E+02  0.28672562690E+02  0.00000000000E+00 0. -1.
</event>
<event>
 5    1  0.1046082E-009  0.9118800E+02  0.7561462E-02  0.1125453E+00
         25   -1    0    0    0    0  0.00000000000E+00  0.00000000000E+00  0.99999998245E-14  0.12509000000E+03  0.12509000000E+03 0.  0.
        -11    1    3    3    0    0 -0.19782566971E+02  0.23451319727E+02 -0.12858497030E+02  0.33266429009E+02  0.51100000000E-03 0.  1.
         23    2    1    0    0    0  0.18108904595E+02 -0.11538186393E+02  0.21074435556E+02  0.95003557790E+02  0.90113716979E+02 0.  0.
         11    1    3    3    0    0  0.37891471565E+02 -0.34989506120E+02  0.33932932586E+02  0.61737128781E+02  0.51100000000E-03 0. -1.
         22    1    1    0    0    0 -0.18108904595E+02  0.11538186393E+02 -0.21074435556E+02  0.30086442210E+02  0.00000000000E+00 0. -1.
</event>
<event>
 5    1  0.1046082E-009  0.9118800E+02  0.7561462E-02  0.1125453E+00
         25   -1    0    0    0    0  0.00000000000E+00  0.00000000000E+00  0.99999998245E-14  0.12509000000E+03  0.12509000000E+03 0.  0.
        -11    1    3    3    0    0  0.18385808077E+02  0.25042970093E+02  0.42753823495E+02  0.52849576285E+02  0.51100000000E-03 0. -1.
         23    2    1    0    0    0  0.78934519051E+01 -0.13345721756E+02  0.23187020477E+02  0.97196402334E+02  0.93107936481E+02 0.  0.
         11    1    3    3    0    0 -0.10492356172E+02 -0.38388691850E+02 -0.19566803018E+02  0.44346826049E+02  0.51100000000E-03 0.  1.
         22    1    1    0    0    0 -0.78934519051E+01  0.13345721756E+02 -0.23187020477E+02  0.27893597666E+02  0.00000000000E+00 0. -1.
</event>
<event>
 5    1  0.1046082E-009  0.9118800E+02  0.7561462E-02  0.1125453E+00
         25   -1    0    0    0    0  0.00000000000E+00  0.00000000000E+00  0.99999998245E-14  0.12509000000E+03  0.12509000000E+03 0.  0.
        -11    1    3    3    0    0 -0.44055396146E+02  0.24140050424E+02 -0.57404742840E+01  0.50562565296E+02  0.51100000000E-03 0. -1.
         23    2    1    0    0    0 -0.22465968802E+02 -0.15837786839E+02 -0.91358748530E+01  0.96124167446E+02  0.91656075149E+02 0.  0.
         11    1    3    3    0    0  0.21589427343E+02 -0.39977837263E+02 -0.33954005690E+01  0.45561602151E+02  0.51100000000E-03 0.  1.
         22    1    1    0    0    0  0.22465968802E+02  0.15837786839E+02  0.91358748530E+01  0.28965832554E+02  0.00000000000E+00 0. -1.
</event>
<event>
 5    1  0.1046082E-009  0.9118800E+02  0.7561462E-02  0.1125453E+00
         25   -1    0    0    0    0  0.00000000000E+00  0.00000000000E+00  0.99999998245E-14  0.12509000000E+03  0.12509000000E+03 0.  0.
        -11    1    3    3    0    0  0.22943774222E+02 -0.36771722304E+02  0.68363323238E-01  0.43342600413E+02  0.51100000000E-03 0.  1.
         23    2    1    0    0    0 -0.23216910134E+02 -0.14813359180E+02  0.10683118969E+02  0.95550373102E+02  0.90869600212E+02 0.  0.
         11    1    3    3    0    0 -0.46160684357E+02  0.21958363125E+02  0.10614755646E+02  0.52207772688E+02  0.51100000000E-03 0. -1.
         22    1    1    0    0    0  0.23216910134E+02  0.14813359180E+02 -0.10683118969E+02  0.29539626898E+02  0.00000000000E+00 0. -1.
</event>
<event>
 5    1  0.1046082E-009  0.9118800E+02  0.7561462E-02  0.1125453E+00
         25   -1    0    0    0    0  0.00000000000E+00  0.00000000000E+00  0.99999998245E-14  0.12509000000E+03  0.12509000000E+03 0.  0.
        -11    1    3    3    0    0  0.14724376791E+02  0.25648932664E+02 -0.16099516420E+02  0.33672978008E+02  0.51100000000E-03 0.  1.
         23    2    1    0    0    0 -0.16399749071E+02 -0.16418538613E+02  0.17643595414E+02  0.95938385312E+02  0.91402172498E+02 0.  0.
         11    1    3    3    0    0 -0.31124125862E+02 -0.42067471277E+02  0.33743111834E+02  0.62265407305E+02  0.51100000000E-03 0. -1.
         22    1    1    0    0    0  0.16399749071E+02  0.16418538613E+02 -0.17643595414E+02  0.29151614688E+02  0.00000000000E+00 0. -1.
</event>
<event>
 5    1  0.1046082E-009  0.9118800E+02  0.7561462E-02  0.1125453E+00
         25   -1    0    0    0    0  0.00000000000E+00  0.00000000000E+00  0.99999998245E-14  0.12509000000E+03  0.12509000000E+03 0.  0.
        -11    1    3    3    0    0 -0.23333288107E+02  0.40496877197E+01 -0.32425225108E+02  0.40152677720E+02  0.51100000000E-03 0.  1.
         23    2    1    0    0    0  0.26942632966E+02 -0.44590741594E+01 -0.14255251616E+02  0.94284139971E+02  0.89109472212E+02 0.  0.
         11    1    3    3    0    0  0.50275921073E+02 -0.85087618791E+01  0.18169973492E+02  0.54131462251E+02  0.51100000000E-03 0. -1.
         22    1    1    0    0    0 -0.26942632966E+02  0.44590741594E+01  0.14255251616E+02  0.30805860029E+02  0.00000000000E+00 0. -1.
</event>
<event>
 5    1  0.1046082E-009  0.9118800E+02  0.7561462E-02  0.1125453E+00
         25   -1    0    0    0    0  0.00000000000E+00  0.00000000000E+00  0.99999998245E-14  0.12509000000E+03  0.12509000000E+03 0.  0.
        -11    1    3    3    0    0  0.33844828435E+02  0.65942168520E+01  0.19547337011E+02  0.39636529770E+02  0.51100000000E-03 0.  1.
         23    2    1    0    0    0 -0.96475223517E+00 -0.26521478255E+02 -0.10771437847E+02  0.96448361971E+02  0.92097465209E+02 0.  0.
         11    1    3    3    0    0 -0.34809580670E+02 -0.33115695107E+02 -0.30318774858E+02  0.56811832201E+02  0.51100000000E-03 0. -1.
         22    1    1    0    0    0  0.96475223517E+00  0.26521478255E+02  0.10771437847E+02  0.28641638029E+02  0.00000000000E+00 0. -1.
</event>
<event>
 5    1  0.1046082E-009  0.9118800E+02  0.7561462E-02  0.1125453E+00
         25   -1    0    0    0    0  0.00000000000E+00  0.00000000000E+00  0.99999998245E-14  0.12509000000E+03  0.12509000000E+03 0.  0.
        -11    1    3    3    0    0 -0.59894739324E+00  0.98112867763E+00 -0.47902617746E+02  0.47916407823E+02  0.51100000000E-03 0.  1.
         23    2    1    0    0    0 -0.13426995148E+02 -0.25010553092E+02 -0.11467456523E+02  0.94474407179E+02  0.89376166219E+02 0.  0.
         11    1    3    3    0    0 -0.12828047755E+02 -0.25991681770E+02  0.36435161223E+02  0.46557999356E+02  0.51100000000E-03 0. -1.
         22    1    1    0    0    0  0.13426995148E+02  0.25010553092E+02  0.11467456523E+02  0.30615592821E+02  0.00000000000E+00 0.  1.
</event>
<event>
 5    1  0.1046082E-009  0.9118800E+02  0.7561462E-02  0.1125453E+00
         25   -1    0    0    0    0  0.00000000000E+00  0.00000000000E+00  0.99999998245E-14  0.12509000000E+03  0.12509000000E+03 0.  0.
        -11    1    3    3    0    0  0.28884197926E+02 -0.52510615100E+02 -0.22508144051E+00  0.59930895621E+02  0.51100000000E-03 0.  1.
         23    2    1    0    0    0  0.42888048304E+01 -0.33260380083E+02 -0.36729885055E+01  0.91353705380E+02  0.84896183142E+02 0.  0.
         11    1    3    3    0    0 -0.24595393095E+02  0.19250235018E+02 -0.34479070649E+01  0.31422809759E+02  0.51100000000E-03 0. -1.
         22    1    1    0    0    0 -0.42888048304E+01  0.33260380083E+02  0.36729885055E+01  0.33736294620E+02  0.00000000000E+00 0.  1.
</event>
<event>
 5    1  0.1046082E-009  0.9118800E+02  0.7561462E-02  0.1125453E+00
         25   -1    0    0    0    0  0.00000000000E+00  0.00000000000E+00  0.99999998245E-14  0.12509000000E+03  0.12509000000E+03 0.  0.
        -11    1    3    3    0    0 -0.13942813462E+02  0.38150299557E+02  0.78477477045E+00  0.40625894147E+02  0.51100000000E-03 0. -1.
         23    2    1    0    0    0  0.25546108684E+02  0.37765921666E+01 -0.14896418299E+02  0.95277760980E+02  0.90493547515E+02 0.  0.
         11    1    3    3    0    0  0.39488922145E+02 -0.34373707391E+02 -0.15681193069E+02  0.54651866833E+02  0.51100000000E-03 0.  1.
         22    1    1    0    0    0 -0.25546108684E+02 -0.37765921666E+01  0.14896418299E+02  0.29812239020E+02  0.00000000000E+00 0. -1.
</event>
<event>
 5    1  0.1046082E-009  0.9118800E+02  0.7561462E-02  0.1125453E+00
         25   -1    0    0    0    0  0.00000000000E+00  0.00000000000E+00  0.99999998245E-14  0.12509000000E+03  0.12509000000E+03 0.  0.
        -11    1    3    3    0    0  0.16200318239E+02  0.26258857350E+02 -0.16412479988E+02  0.34947781045E+02  0.51100000000E-03 0.  1.
         23    2    1    0    0    0 -0.27745284541E+02 -0.95960480603E+01  0.44841626806E+01  0.95391638638E+02  0.90650824897E+02 0.  0.
         11    1    3    3    0    0 -0.43945602780E+02 -0.35854905410E+02  0.20896642668E+02  0.60443857593E+02  0.51100000000E-03 0. -1.
         22    1    1    0    0    0  0.27745284541E+02  0.95960480603E+01 -0.44841626806E+01  0.29698361362E+02  0.00000000000E+00 0. -1.
</event>
<event>
 5    1  0.1046082E-009  0.9118800E+02  0.7561462E-02  0.1125453E+00
         25   -1    0    0    0    0  0.00000000000E+00  0.00000000000E+00  0.99999998245E-14  0.12509000000E+03  0.12509000000E+03 0.  0.
        -11    1    3    3    0    0 -0.12234645867E+02 -0.29583878863E+02 -0.23063008035E+02  0.39456238898E+02  0.51100000000E-03 0. -1.
         23    2    1    0    0    0  0.14659899870E+01 -0.27455739475E+01  0.27012370722E+02  0.97898908168E+02  0.94047013486E+02 0.  0.
         11    1    3    3    0    0  0.13700635854E+02  0.26838304915E+02  0.50075378758E+02  0.58442669271E+02  0.51100000000E-03 0.  1.
         22    1    1    0    0    0 -0.14659899870E+01  0.27455739475E+01 -0.27012370722E+02  0.27191091832E+02  0.00000000000E+00 0.  1.
</event>
<event>
 5    1  0.1046082E-009  0.9118800E+02  0.7561462E-02  0.1125453E+00
         25   -1    0    0    0    0  0.00000000000E+00  0.00000000000E+00  0.99999998245E-14  0.12509000000E+03  0.12509000000E+03 0.  0.
        -11    1    3    3    0    0  0.32929045745E+02 -0.28571714497E+02  0.44977586578E+00  0.43598936014E+02  0.51100000000E-03 0. -1.
         23    2    1    0    0    0  0.18400340371E+02  0.18912705432E+02 -0.13870214671E+02  0.95279837177E+02  0.90496417416E+02 0.  0.
         11    1    3    3    0    0 -0.14528705375E+02  0.47484419928E+02 -0.14319990536E+02  0.51680901163E+02  0.51100000000E-03 0.  1.
         22    1    1    0    0    0 -0.18400340371E+02 -0.18912705432E+02  0.13870214671E+02  0.29810162823E+02  0.00000000000E+00 0.  1.
</event>
<event>
 5    1  0.1046082E-009  0.9118800E+02  0.7561462E-02  0.1125453E+00
         25   -1    0    0    0    0  0.00000000000E+00  0.00000000000E+00  0.99999998245E-14  0.12509000000E+03  0.12509000000E+03 0.  0.
        -11    1    3    3    0    0  0.36015617564E+02  0.27552405445E+02  0.22404074966E+02  0.50578674653E+02  0.51100000000E-03 0.  1.
         23    2    1    0    0    0 -0.89954616258E+01  0.11294051150E+02  0.22404407628E+02  0.98436080919E+02  0.94758802358E+02 0.  0.
         11    1    3    3    0    0 -0.45011079189E+02 -0.16258354295E+02  0.33266172444E-03  0.47857406266E+02  0.51100000000E-03 0. -1.
         22    1    1    0    0    0  0.89954616258E+01 -0.11294051150E+02 -0.22404407628E+02  0.26653919081E+02  0.00000000000E+00 0. -1.
</event>
<event>
 5    1  0.1046082E-009  0.9118800E+02  0.7561462E-02  0.1125453E+00
         25   -1    0    0    0    0  0.00000000000E+00  0.00000000000E+00  0.99999998245E-14  0.12509000000E+03  0.12509000000E+03 0.  0.
        -11    1    3    3    0    0 -0.18510461366E+02 -0.29350227387E+02  0.13293181359E+02  0.37158871062E+02  0.51100000000E-03 0.  1.
         23    2    1    0    0    0  0.19443817548E+02 -0.70119852868E+01 -0.22956850021E+02  0.94199112325E+02  0.88990032146E+02 0.  0.
         11    1    3    3    0    0  0.37954278914E+02  0.22338242101E+02 -0.36250031380E+02  0.57040241263E+02  0.51100000000E-03 0. -1.
         22    1    1    0    0    0 -0.19443817548E+02  0.70119852868E+01  0.22956850021E+02  0.30890887675E+02  0.00000000000E+00 0. -1.
</event>
<event>
 5    1  0.1046082E-009  0.9118800E+02  0.7561462E-02  0.1125453E+00
         25   -1    0    0    0    0  0.00000000000E+00  0.00000000000E+00  0.99999998245E-14  0.12509000000E+03  0.12509000000E+03 0.  0.
        -11    1    3    3    0    0 -0.14542394815E+02  0.14326376221E+02  0.57431574744E+02  0.60951719258E+02  0.51100000000E-03 0.  1.
         23    2    1    0    0    0 -0.13598493896E+02 -0.49681402840E+00  0.24879834153E+02  0.96732073279E+02  0.92482009023E+02 0.  0.
         11    1    3    3    0    0  0.94390091906E+00 -0.14823190250E+02 -0.32551740591E+02  0.35780354022E+02  0.51100000000E-03 0. -1.
         22    1    1    0    0    0  0.13598493896E+02  0.49681402840E+00 -0.24879834153E+02  0.28357926721E+02  0.00000000000E+00 0.  1.
</event>
<event>
 5    1  0.1046082E-009  0.9118800E+02  0.7561462E-02  0.1125453E+00
         25   -1    0    0    0    0  0.00000000000E+00  0.00000000000E+00  0.99999998245E-14  0.12509000000E+03  0.12509000000E+03 0.  0.
        -11    1    3    3    0    0 -0.27903090696E+02  0.29333555096E+02 -0.27294194346E+02  0.48826355283E+02  0.51100000000E-03 0.  1.
         23    2    1    0    0    0 -0.27258005071E+02 -0.34768684096E+01  0.74505403164E+01  0.96618997113E+02  0.92328936947E+02 0.  0.
         11    1    3    3    0    0  0.64508562502E+00 -0.32810423505E+02  0.34744734663E+02  0.47792641830E+02  0.51100000000E-03 0. -1.
         22    1    1    0    0    0  0.27258005071E+02  0.34768684096E+01 -0.74505403164E+01  0.28471002887E+02  0.00000000000E+00 0.  1.
</event>
<event>
 5    1  0.1046082E-009  0.9118800E+02  0.7561462E-02  0.1125453E+00
         25   -1    0    0    0    0  0.00000000000E+00  0.00000000000E+00  0.99999998245E-14  0.12509000000E+03  0.12509000000E+03 0.  0.
        -11    1    3    3    0    0  0.61537267658E+01 -0.28450251069E+02  0.42705150387E+02  0.51681863442E+02  0.51100000000E-03 0.  1.
         23    2    1    0    0    0  0.23534196883E+02 -0.17442777885E+02  0.39869235635E+01  0.95526433185E+02  0.90836638832E+02 0.  0.
         11    1    3    3    0    0  0.17380470117E+02  0.11007473183E+02 -0.38718226823E+02  0.43844569744E+02  0.51100000000E-03 0. -1.
         22    1    1    0    0    0 -0.23534196883E+02  0.17442777885E+02 -0.39869235635E+01  0.29563566815E+02  0.00000000000E+00 0. -1.
</event>
<event>
 5    1  0.1046082E-009  0.9118800E+02  0.7561462E-02  0.1125453E+00
         25   -1    0    0    0    0  0.00000000000E+00  0.00000000000E+00  0.99999998245E-14  0.12509000000E+03  0.12509000000E+03 0.  0.
        -11    1    3    3    0    0 -0.49808479899E+02 -0.29285535997E+02  0.68333866888E+00  0.57784031016E+02  0.51100000000E-03 0. -1.
         23    2    1    0    0    0 -0.21583801949E+02 -0.20674262975E+02 -0.15481434250E+02  0.91430521951E+02  0.85009292914E+02 0.  0.
         11    1    3    3    0    0  0.28224677950E+02  0.86112730227E+01 -0.16164772919E+02  0.33646490935E+02  0.51100000000E-03 0.  1.
         22    1    1    0    0    0  0.21583801949E+02  0.20674262975E+02  0.15481434250E+02  0.33659478049E+02  0.00000000000E+00 0. -1.
</event>
<event>
 5    1  0.1046082E-009  0.9118800E+02  0.7561462E-02  0.1125453E+00
         25   -1    0    0    0    0  0.00000000000E+00  0.00000000000E+00  0.99999998245E-14  0.12509000000E+03  0.12509000000E+03 0.  0.
        -11    1    3    3    0    0 -0.41151996646E+02 -0.16374926679E+02 -0.24143855554E+02  0.50443540845E+02  0.51100000000E-03 0. -1.
         23    2    1    0    0    0 -0.19469576671E+02  0.20203057290E+02 -0.11043000108E+02  0.94937457968E+02  0.90021914745E+02 0.  0.
         11    1    3    3    0    0  0.21682419975E+02  0.36577983970E+02  0.13100855446E+02  0.44493917123E+02  0.51100000000E-03 0.  1.
         22    1    1    0    0    0  0.19469576671E+02 -0.20203057290E+02  0.11043000108E+02  0.30152542032E+02  0.00000000000E+00 0. -1.
</event>
<event>
 5    1  0.1046082E-009  0.9118800E+02  0.7561462E-02  0.1125453E+00
         25   -1    0    0    0    0  0.00000000000E+00  0.00000000000E+00  0.99999998245E-14  0.12509000000E+03  0.12509000000E+03 0.  0.
        -11    1    3    3    0    0  0.30201504325E+02  0.80201031373E+01  0.11043796460E+02  0.33142395181E+02  0.51100000000E-03 0.  1.
         23    2    1    0    0    0 -0.27005515628E+02  0.76236907610E+01 -0.11675498490E+02  0.94696977772E+02  0.89687132851E+02 0.  0.
         11    1    3    3    0    0 -0.57207019953E+02 -0.39641237625E+00 -0.22719294950E+02  0.61554582591E+02  0.51100000000E-03 0. -1.
         22    1    1    0    0    0  0.27005515628E+02 -0.76236907610E+01  0.11675498490E+02  0.30393022228E+02  0.00000000000E+00 0. -1.
</event>
<event>
 5    1  0.1046082E-009  0.9118800E+02  0.7561462E-02  0.1125453E+00
         25   -1    0    0    0    0  0.00000000000E+00  0.00000000000E+00  0.99999998245E-14  0.12509000000E+03  0.12509000000E+03 0.  0.
        -11    1    3    3    0    0  0.30283865701E+02 -0.17724001746E+02 -0.36682006690E+00  0.35091128749E+02  0.51100000000E-03 0.  1.
         23    2    1    0    0    0 -0.18126581765E+02  0.17249411057E+02 -0.14095477291E+02  0.96370709821E+02  0.91991934881E+02 0.  0.
         11    1    3    3    0    0 -0.48410447466E+02  0.34973412803E+02 -0.13728657224E+02  0.61279581072E+02  0.51100000000E-03 0. -1.
         22    1    1    0    0    0  0.18126581765E+02 -0.17249411057E+02  0.14095477291E+02  0.28719290179E+02  0.00000000000E+00 0. -1.
</event>
<event>
 5    1  0.1046082E-009  0.9118800E+02  0.7561462E-02  0.1125453E+00
         25   -1    0    0    0    0  0.00000000000E+00  0.00000000000E+00  0.99999998245E-14  0.12509000000E+03  0.12509000000E+03 0.  0.
        -11    1    3    3    0    0  0.37214170917E+02  0.37019015235E+02 -0.23428169363E+02  0.57482006975E+02  0.51100000000E-03 0. -1.
         23    2    1    0    0    0  0.79892502735E+01  0.10436139954E+02 -0.24811404407E+02  0.97012483627E+02  0.92860513964E+02 0.  0.
         11    1    3    3    0    0 -0.29224920643E+02 -0.26582875281E+02 -0.13832350441E+01  0.39530476651E+02  0.51100000000E-03 0.  1.
         22    1    1    0    0    0 -0.79892502735E+01 -0.10436139954E+02  0.24811404407E+02  0.28077516373E+02  0.00000000000E+00 0. -1.
</event>
<event>
 5    1  0.1046082E-009  0.9118800E+02  0.7561462E-02  0.1125453E+00
         25   -1    0    0    0    0  0.00000000000E+00  0.00000000000E+00  0.99999998245E-14  0.12509000000E+03  0.12509000000E+03 0.  0.
        -11    1    3    3    0    0  0.40645663187E+02 -0.95647586241E+01 -0.39270948469E+02  0.57321566075E+02  0.51100000000E-03 0. -1.
         23    2    1    0    0    0  0.11911989385E+02  0.10971548068E+02 -0.24759173563E+02  0.95504749729E+02  0.90806773905E+02 0.  0.
         11    1    3    3    0    0 -0.28733673802E+02  0.20536306692E+02  0.14511774906E+02  0.38183183653E+02  0.51100000000E-03 0.  1.
         22    1    1    0    0    0 -0.11911989385E+02 -0.10971548068E+02  0.24759173563E+02  0.29585250271E+02  0.00000000000E+00 0. -1.
</event>
<event>
 5    1  0.1046082E-009  0.9118800E+02  0.7561462E-02  0.1125453E+00
         25   -1    0    0    0    0  0.00000000000E+00  0.00000000000E+00  0.99999998245E-14  0.12509000000E+03  0.12509000000E+03 0.  0.
        -11    1    3    3    0    0  0.16878805417E+02 -0.33474220810E+02 -0.17725999839E+02  0.41468404861E+02  0.51100000000E-03 0. -1.
         23    2    1    0    0    0 -0.89398278073E+01 -0.13714345676E+02  0.25029949474E+02  0.95181770878E+02  0.90360762161E+02 0.  0.
         11    1    3    3    0    0 -0.25818633225E+02  0.19759875135E+02  0.42755949313E+02  0.53713366017E+02  0.51100000000E-03 0.  1.
         22    1    1    0    0    0  0.89398278073E+01  0.13714345676E+02 -0.25029949474E+02  0.29908229122E+02  0.00000000000E+00 0.  1.
</event>
<event>
 5    1  0.1046082E-009  0.9118800E+02  0.7561462E-02  0.1125453E+00
         25   -1    0    0    0    0  0.00000000000E+00  0.00000000000E+00  0.99999998245E-14  0.12509000000E+03  0.12509000000E+03 0.  0.
        -11    1    3    3    0    0  0.23105231076E+02  0.32650988445E+02 -0.37088529738E+02  0.54548123596E+02  0.51100000000E-03 0.  1.
         23    2    1    0    0    0  0.17031401410E+02  0.31513918847E+02 -0.30548236432E+01  0.89138259255E+02  0.81566547067E+02 0.  0.
         11    1    3    3    0    0 -0.60738296663E+01 -0.11370695974E+01  0.34033706095E+02  0.34590135659E+02  0.51100000000E-03 0. -1.
         22    1    1    0    0    0 -0.17031401410E+02 -0.31513918847E+02  0.30548236432E+01  0.35951740745E+02  0.00000000000E+00 0.  1.
</event>
<event>
 5    1  0.1046082E-009  0.9118800E+02  0.7561462E-02  0.1125453E+00
         25   -1    0    0    0    0  0.00000000000E+00  0.00000000000E+00  0.99999998245E-14  0.12509000000E+03  0.12509000000E+03 0.  0.
        -11    1    3    3    0    0  0.88712190590E+01  0.39923784351E+02  0.28424304314E+02  0.49805101751E+02  0.51100000000E-03 0.  1.
         23    2    1    0    0    0  0.14611250276E+01  0.28302751053E+02 -0.13326979795E+02  0.93772449106E+02  0.88388252711E+02 0.  0.
         11    1    3    3    0    0 -0.74100940314E+01 -0.11621033297E+02 -0.41751284109E+02  0.43967347355E+02  0.51100000000E-03 0. -1.
         22    1    1    0    0    0 -0.14611250276E+01 -0.28302751053E+02  0.13326979795E+02  0.31317550894E+02  0.00000000000E+00 0.  1.
</event>
<event>
 5    1  0.1046082E-009  0.9118800E+02  0.7561462E-02  0.1125453E+00
         25   -1    0    0    0    0  0.00000000000E+00  0.00000000000E+00  0.99999998245E-14  0.12509000000E+03  0.12509000000E+03 0.  0.
        -11    1    3    3    0    0  0.62283505542E+01  0.31313415429E+02  0.12374135950E+02  0.34240934234E+02  0.51100000000E-03 0. -1.
         23    2    1    0    0    0 -0.16343750675E+02 -0.16639391489E+02 -0.18270459048E+02  0.95462357349E+02  0.90748357900E+02 0.  0.
         11    1    3    3    0    0 -0.22572101229E+02 -0.47952806918E+02 -0.30644594998E+02  0.61221423114E+02  0.51100000000E-03 0.  1.
         22    1    1    0    0    0  0.16343750675E+02  0.16639391489E+02  0.18270459048E+02  0.29627642651E+02  0.00000000000E+00 0.  1.
</event>
<event>
 5    1  0.1046082E-009  0.9118800E+02  0.7561462E-02  0.1125453E+00
         25   -1    0    0    0    0  0.00000000000E+00  0.00000000000E+00  0.99999998245E-14  0.12509000000E+03  0.12509000000E+03 0.  0.
        -11    1    3    3    0    0  0.35260028309E+02  0.33843731371E+02 -0.32181517140E+02  0.58517670794E+02  0.51100000000E-03 0.  1.
         23    2    1    0    0    0  0.26323902267E+02  0.33943803588E+01 -0.14399972111E+02  0.94893496140E+02  0.89960806823E+02 0.  0.
         11    1    3    3    0    0 -0.89361260419E+01 -0.30449351012E+02  0.17781545030E+02  0.36375825346E+02  0.51100000000E-03 0. -1.
         22    1    1    0    0    0 -0.26323902267E+02 -0.33943803588E+01  0.14399972111E+02  0.30196503860E+02  0.00000000000E+00 0.  1.
</event>
<event>
 5    1  0.1046082E-009  0.9118800E+02  0.7561462E-02  0.1125453E+00
         25   -1    0    0    0    0  0.00000000000E+00  0.00000000000E+00  0.99999998245E-14  0.12509000000E+03  0.12509000000E+03 0.  0.
        -11    1    3    3    0    0  0.19784093049E+02  0.10170200734E+02 -0.52175464946E+02  0.56719683209E+02  0.51100000000E-03 0.  1.
         23    2    1    0    0    0  0.40381582369E+01  0.22528780818E+02 -0.19584219629E+02  0.94967013004E+02  0.90062973598E+02 0.  0.
         11    1    3    3    0    0 -0.15745934813E+02  0.12358580084E+02  0.32591245317E+02  0.38247329795E+02  0.51100000000E-03 0. -1.
         22    1    1    0    0    0 -0.40381582369E+01 -0.22528780818E+02  0.19584219629E+02  0.30122986996E+02  0.00000000000E+00 0.  1.
</event>
<event>
 5    1  0.1046082E-009  0.9118800E+02  0.7561462E-02  0.1125453E+00
         25   -1    0    0    0    0  0.00000000000E+00  0.00000000000E+00  0.99999998245E-14  0.12509000000E+03  0.12509000000E+03 0.  0.
        -11    1    3    3    0    0  0.80798091590E+00  0.40542414169E+02 -0.20254035831E+02  0.45327322307E+02  0.51100000000E-03 0.  1.
         23    2    1    0    0    0 -0.38562451250E+01  0.14318508203E+02  0.23941268570E+02  0.96928419001E+02  0.92747203546E+02 0.  0.
         11    1    3    3    0    0 -0.46642260409E+01 -0.26223905966E+02  0.44195304401E+02  0.51601096694E+02  0.51100000000E-03 0. -1.
         22    1    1    0    0    0  0.38562451250E+01 -0.14318508203E+02 -0.23941268570E+02  0.28161580999E+02  0.00000000000E+00 0. -1.
</event>
<event>
 5    1  0.1046082E-009  0.9118800E+02  0.7561462E-02  0.1125453E+00
         25   -1    0    0    0    0  0.00000000000E+00  0.00000000000E+00  0.99999998245E-14  0.12509000000E+03  0.12509000000E+03 0.  0.
        -11    1    3    3    0    0  0.37653984436E+02  0.13823441428E+02 -0.23777753069E+02  0.46629299996E+02  0.51100000000E-03 0. -1.
         23    2    1    0    0    0  0.17633541122E+02  0.50375221995E+01  0.21452842959E+02  0.96866908862E+02  0.92664206461E+02 0.  0.
         11    1    3    3    0    0 -0.20020443315E+02 -0.87859192285E+01  0.45230596028E+02  0.50237608865E+02  0.51100000000E-03 0.  1.
         22    1    1    0    0    0 -0.17633541122E+02 -0.50375221995E+01 -0.21452842959E+02  0.28223091138E+02  0.00000000000E+00 0.  1.
</event>
<event>
 5    1  0.1046082E-009  0.9118800E+02  0.7561462E-02  0.1125453E+00
         25   -1    0    0    0    0  0.00000000000E+00  0.00000000000E+00  0.99999998245E-14  0.12509000000E+03  0.12509000000E+03 0.  0.
        -11    1    3    3    0    0  0.10468842388E+02  0.33186849921E+02  0.11464031278E+02  0.36638609172E+02  0.51100000000E-03 0.  1.
         23    2    1    0    0    0  0.44557214551E+01 -0.26904591950E+02  0.48465202370E+01  0.97391637592E+02  0.93369865550E+02 0.  0.
         11    1    3    3    0    0 -0.60131209334E+01 -0.60091441871E+02 -0.66175110415E+01  0.60753028420E+02  0.51100000000E-03 0. -1.
         22    1    1    0    0    0 -0.44557214551E+01  0.26904591950E+02 -0.48465202370E+01  0.27698362408E+02  0.00000000000E+00 0. -1.
</event>
<event>
 5    1  0.1046082E-009  0.9118800E+02  0.7561462E-02  0.1125453E+00
         25   -1    0    0    0    0  0.00000000000E+00  0.00000000000E+00  0.99999998245E-14  0.12509000000E+03  0.12509000000E+03 0.  0.
        -11    1    3    3    0    0  0.38970842710E+02  0.23965816894E+02 -0.56174455346E+01  0.46093846178E+02  0.51100000000E-03 0. -1.
         23    2    1    0    0    0  0.12505851244E+02 -0.11379448038E+02 -0.25479564909E+02  0.94510654341E+02  0.89426883000E+02 0.  0.
         11    1    3    3    0    0 -0.26464991466E+02 -0.35345264931E+02 -0.19862119374E+02  0.48416808163E+02  0.51100000000E-03 0.  1.
         22    1    1    0    0    0 -0.12505851244E+02  0.11379448038E+02  0.25479564909E+02  0.30579345659E+02  0.00000000000E+00 0. -1.
</event>
<event>
 5    1  0.1046082E-009  0.9118800E+02  0.7561462E-02  0.1125453E+00
         25   -1    0    0    0    0  0.00000000000E+00  0.00000000000E+00  0.99999998245E-14  0.12509000000E+03  0.12509000000E+03 0.  0.
        -11    1    3    3    0    0 -0.11435500620E+02 -0.43754959693E+02  0.41419262725E+02  0.61325545225E+02  0.51100000000E-03 0. -1.
         23    2    1    0    0    0 -0.13318087520E+02 -0.20096340303E+02  0.26023898347E+02  0.89614971685E+02  0.82294383261E+02 0.  0.
         11    1    3    3    0    0 -0.18825868995E+01  0.23658619390E+02 -0.15395364378E+02  0.28289426461E+02  0.51100000000E-03 0.  1.
         22    1    1    0    0    0  0.13318087520E+02  0.20096340303E+02 -0.26023898347E+02  0.35475028315E+02  0.00000000000E+00 0. -1.
</event>
<event>
 5    1  0.1046082E-009  0.9118800E+02  0.7561462E-02  0.1125453E+00
         25   -1    0    0    0    0  0.00000000000E+00  0.00000000000E+00  0.99999998245E-14  0.12509000000E+03  0.12509000000E+03 0.  0.
        -11    1    3    3    0    0  0.17313615852E+01  0.20236417797E+02 -0.25336251142E+02  0.32472077858E+02  0.51100000000E-03 0.  1.
         23    2    1    0    0    0 -0.90675689672E+01 -0.12911866404E+02  0.26089159162E+02  0.94600963827E+02  0.89553118484E+02 0.  0.
         11    1    3    3    0    0 -0.10798930552E+02 -0.33148284201E+02  0.51425410304E+02  0.62128885969E+02  0.51100000000E-03 0. -1.
         22    1    1    0    0    0  0.90675689672E+01  0.12911866404E+02 -0.26089159162E+02  0.30489036173E+02  0.00000000000E+00 0. -1.
</event>
<event>
 5    1  0.1046082E-009  0.9118800E+02  0.7561462E-02  0.1125453E+00
         25   -1    0    0    0    0  0.00000000000E+00  0.00000000000E+00  0.99999998245E-14  0.12509000000E+03  0.12509000000E+03 0.  0.
        -11    1    3    3    0    0 -0.30426672568E+02 -0.34743919577E+02 -0.25075738356E+02  0.52552021897E+02  0.51100000000E-03 0.  1.
         23    2    1    0    0    0 -0.29015711328E+02 -0.85014325003E+00  0.20538662632E+01  0.95989267809E+02  0.91471782099E+02 0.  0.
         11    1    3    3    0    0  0.14109612395E+01  0.33893776327E+02  0.27129604620E+02  0.43437245912E+02  0.51100000000E-03 0. -1.
         22    1    1    0    0    0  0.29015711328E+02  0.85014325003E+00 -0.20538662632E+01  0.29100732191E+02  0.00000000000E+00 0.  1.
</event>
<event>
 5    1  0.1046082E-009  0.9118800E+02  0.7561462E-02  0.1125453E+00
         25   -1    0    0    0    0  0.00000000000E+00  0.00000000000E+00  0.99999998245E-14  0.12509000000E+03  0.12509000000E+03 0.  0.
        -11    1    3    3    0    0 -0.36966206803E+02  0.26518226463E+02 -0.15711622281E+02  0.48130778667E+02  0.51100000000E-03 0.  1.
         23    2    1    0    0    0 -0.22587035550E+02 -0.16881314367E+02  0.11693865360E+01  0.96867306745E+02  0.92664743573E+02 0.  0.
         11    1    3    3    0    0  0.14379171253E+02 -0.43399540830E+02  0.16881008817E+02  0.48736528078E+02  0.51100000000E-03 0. -1.
         22    1    1    0    0    0  0.22587035550E+02  0.16881314367E+02 -0.11693865360E+01  0.28222693255E+02  0.00000000000E+00 0.  1.
</event>
<event>
 5    1  0.1046082E-009  0.9118800E+02  0.7561462E-02  0.1125453E+00
         25   -1    0    0    0    0  0.00000000000E+00  0.00000000000E+00  0.99999998245E-14  0.12509000000E+03  0.12509000000E+03 0.  0.
        -11    1    3    3    0    0  0.94567644152E+01 -0.38264588277E+02  0.55401705738E+01  0.39803298852E+02  0.51100000000E-03 0. -1.
         23    2    1    0    0    0 -0.27758723298E+02  0.39228292738E+01 -0.36964298971E+01  0.96812820108E+02  0.92591161752E+02 0.  0.
         11    1    3    3    0    0 -0.37215487713E+02  0.42187417551E+02 -0.92366004709E+01  0.57009521256E+02  0.51100000000E-03 0.  1.
         22    1    1    0    0    0  0.27758723298E+02 -0.39228292738E+01  0.36964298971E+01  0.28277179892E+02  0.00000000000E+00 0.  1.
</event>
<event>
 5    1  0.1046082E-009  0.9118800E+02  0.7561462E-02  0.1125453E+00
         25   -1    0    0    0    0  0.00000000000E+00  0.00000000000E+00  0.99999998245E-14  0.12509000000E+03  0.12509000000E+03 0.  0.
        -11    1    3    3    0    0 -0.13212020137E+02  0.24129876475E+02  0.30782988101E+02  0.41284388956E+02  0.51100000000E-03 0.  1.
         23    2    1    0    0    0 -0.25682127557E+02 -0.10497374897E+02 -0.94200620653E+01  0.95789758962E+02  0.91198540543E+02 0.  0.
         11    1    3    3    0    0 -0.12470107420E+02 -0.34627251372E+02 -0.40203050166E+02  0.54505370006E+02  0.51100000000E-03 0. -1.
         22    1    1    0    0    0  0.25682127557E+02  0.10497374897E+02  0.94200620653E+01  0.29300241038E+02  0.00000000000E+00 0. -1.
</event>
<event>
 5    1  0.1046082E-009  0.9118800E+02  0.7561462E-02  0.1125453E+00
         25   -1    0    0    0    0  0.00000000000E+00  0.00000000000E+00  0.99999998245E-14  0.12509000000E+03  0.12509000000E+03 0.  0.
        -11    1    3    3    0    0  0.26238175406E+02 -0.14729055707E+02  0.11221647716E+02  0.32114051572E+02  0.51100000000E-03 0.  1.
         23    2    1    0    0    0 -0.14234311741E+02  0.80453224924E+01  0.36576725233E+02  0.85025056801E+02  0.74993737142E+02 0.  0.
         11    1    3    3    0    0 -0.40472487147E+02  0.22774378199E+02  0.25355077517E+02  0.52911005229E+02  0.51100000000E-03 0. -1.
         22    1    1    0    0    0  0.14234311741E+02 -0.80453224924E+01 -0.36576725233E+02  0.40064943199E+02  0.00000000000E+00 0. -1.
</event>
<event>
 5    1  0.1046082E-009  0.9118800E+02  0.7561462E-02  0.1125453E+00
         25   -1    0    0    0    0  0.00000000000E+00  0.00000000000E+00  0.99999998245E-14  0.12509000000E+03  0.12509000000E+03 0.  0.
        -11    1    3    3    0    0 -0.18704908738E+02 -0.15213139194E+02  0.35501211268E+02  0.42914440656E+02  0.51100000000E-03 0.  1.
         23    2    1    0    0    0 -0.17763776737E+02  0.70190130903E+00 -0.18626590624E+02  0.99341324156E+02  0.95946361981E+02 0.  0.
         11    1    3    3    0    0  0.94113200121E+00  0.15915040503E+02 -0.54127801892E+02  0.56426883501E+02  0.51100000000E-03 0. -1.
         22    1    1    0    0    0  0.17763776737E+02 -0.70190130903E+00  0.18626590624E+02  0.25748675844E+02  0.00000000000E+00 0. -1.
</event>
<event>
 5    1  0.1046082E-009  0.9118800E+02  0.7561462E-02  0.1125453E+00
         25   -1    0    0    0    0  0.00000000000E+00  0.00000000000E+00  0.99999998245E-14  0.12509000000E+03  0.12509000000E+03 0.  0.
        -11    1    3    3    0    0  0.29538737708E+02 -0.15536963758E+02  0.22554144022E+02  0.40281803348E+02  0.51100000000E-03 0.  1.
         23    2    1    0    0    0 -0.11682886055E+02 -0.25137952535E+02 -0.11964437016E+02  0.94898043499E+02  0.89967129679E+02 0.  0.
         11    1    3    3    0    0 -0.41221623763E+02 -0.96009887774E+01 -0.34518581037E+02  0.54616240151E+02  0.51100000000E-03 0. -1.
         22    1    1    0    0    0  0.11682886055E+02  0.25137952535E+02  0.11964437016E+02  0.30191956501E+02  0.00000000000E+00 0. -1.
</event>
<event>
 5    1  0.1046082E-009  0.9118800E+02  0.7561462E-02  0.1125453E+00
         25   -1    0    0    0    0  0.00000000000E+00  0.00000000000E+00  0.99999998245E-14  0.12509000000E+03  0.12509000000E+03 0.  0.
        -11    1    3    3    0    0  0.30180506129E+02 -0.42304055047E+02 -0.16792153029E+02  0.54612017242E+02  0.51100000000E-03 0.  1.
         23    2    1    0    0    0  0.76726266761E+01 -0.10502753428E+02 -0.27201098616E+02  0.94939099589E+02  0.90024195832E+02 0.  0.
         11    1    3    3    0    0 -0.22507879453E+02  0.31801301619E+02 -0.10408945587E+02  0.40327082347E+02  0.51100000000E-03 0. -1.
         22    1    1    0    0    0 -0.76726266761E+01  0.10502753428E+02  0.27201098616E+02  0.30150900411E+02  0.00000000000E+00 0.  1.
</event>
<event>
 5    1  0.1046082E-009  0.9118800E+02  0.7561462E-02  0.1125453E+00
         25   -1    0    0    0    0  0.00000000000E+00  0.00000000000E+00  0.99999998245E-14  0.12509000000E+03  0.12509000000E+03 0.  0.
        -11    1    3    3    0    0  0.44664659712E+02  0.99591724625E+01  0.29792868809E+01  0.45858402653E+02  0.51100000000E-03 0.  1.
         23    2    1    0    0    0  0.70798285962E+01 -0.34809546973E+01 -0.27755006098E+02  0.96235513658E+02  0.91807912006E+02 0.  0.
         11    1    3    3    0    0 -0.37584831115E+02 -0.13440127160E+02 -0.30734292979E+02  0.50377111005E+02  0.51100000000E-03 0. -1.
         22    1    1    0    0    0 -0.70798285962E+01  0.34809546973E+01  0.27755006098E+02  0.28854486342E+02  0.00000000000E+00 0.  1.
</event>
<event>
 5    1  0.1046082E-009  0.9118800E+02  0.7561462E-02  0.1125453E+00
         25   -1    0    0    0    0  0.00000000000E+00  0.00000000000E+00  0.99999998245E-14  0.12509000000E+03  0.12509000000E+03 0.  0.
        -11    1    3    3    0    0 -0.18800899489E+02 -0.12349518114E+02 -0.42360350010E+02  0.47962315128E+02  0.51100000000E-03 0.  1.
         23    2    1    0    0    0  0.17712856498E+02  0.95082525911E+01 -0.22477032943E+02  0.94934251583E+02  0.90017459201E+02 0.  0.
         11    1    3    3    0    0  0.36513755987E+02  0.21857770705E+02  0.19883317067E+02  0.46971936455E+02  0.51100000000E-03 0. -1.
         22    1    1    0    0    0 -0.17712856498E+02 -0.95082525911E+01  0.22477032943E+02  0.30155748417E+02  0.00000000000E+00 0.  1.
</event>
<event>
 5    1  0.1046082E-009  0.9118800E+02  0.7561462E-02  0.1125453E+00
         25   -1    0    0    0    0  0.00000000000E+00  0.00000000000E+00  0.99999998245E-14  0.12509000000E+03  0.12509000000E+03 0.  0.
        -11    1    3    3    0    0  0.78213489999E+01 -0.28591942811E+02 -0.24841597601E+02  0.38675284944E+02  0.51100000000E-03 0.  1.
         23    2    1    0    0    0  0.22142614907E+02  0.93459608096E+01  0.15990684237E+02  0.96222295541E+02  0.91789900308E+02 0.  0.
         11    1    3    3    0    0  0.14321265907E+02  0.37937903621E+02  0.40832281838E+02  0.57547010597E+02  0.51100000000E-03 0. -1.
         22    1    1    0    0    0 -0.22142614907E+02 -0.93459608096E+01 -0.15990684237E+02  0.28867704459E+02  0.00000000000E+00 0. -1.
</event>
<event>
 5    1  0.1046082E-009  0.9118800E+02  0.7561462E-02  0.1125453E+00
         25   -1    0    0    0    0  0.00000000000E+00  0.00000000000E+00  0.99999998245E-14  0.12509000000E+03  0.12509000000E+03 0.  0.
        -11    1    3    3    0    0 -0.63582796744E+01  0.10303285504E+02  0.18225622399E+02  0.21880555859E+02  0.51100000000E-03 0.  1.
         23    2    1    0    0    0  0.36316191827E+02 -0.17227055941E+02 -0.14572366380E+02  0.82334987345E+02  0.70363762221E+02 0.  0.
         11    1    3    3    0    0  0.42674471502E+02 -0.27530341446E+02 -0.32797988779E+02  0.60454431486E+02  0.51100000000E-03 0. -1.
         22    1    1    0    0    0 -0.36316191827E+02  0.17227055941E+02  0.14572366380E+02  0.42755012655E+02  0.00000000000E+00 0. -1.
</event>
<event>
 5    1  0.1046082E-009  0.9118800E+02  0.7561462E-02  0.1125453E+00
         25   -1    0    0    0    0  0.00000000000E+00  0.00000000000E+00  0.99999998245E-14  0.12509000000E+03  0.12509000000E+03 0.  0.
        -11    1    3    3    0    0  0.20235721567E+02 -0.53546510114E+01 -0.50369999104E+02  0.54546251244E+02  0.51100000000E-03 0.  1.
         23    2    1    0    0    0  0.25686211602E+02  0.70440543445E+01 -0.10836594983E+02  0.96335314140E+02  0.91943791479E+02 0.  0.
         11    1    3    3    0    0  0.54504900354E+01  0.12398705356E+02  0.39533404120E+02  0.41789062896E+02  0.51100000000E-03 0. -1.
         22    1    1    0    0    0 -0.25686211602E+02 -0.70440543445E+01  0.10836594983E+02  0.28754685860E+02  0.00000000000E+00 0.  1.
</event>
<event>
 4    1  0.1046082E-009  0.9118800E+02  0.7561462E-02  0.1125453E+00
         25   -1    0    0    0    0  0.00000000000E+00  0.00000000000E+00  0.99999998245E-14  0.12509000000E+03  0.12509000000E+03 0.  0.
        -11    1    1    0    0    0  0.20426433560E+02  0.37064985715E+02 -0.30152036423E+00  0.42321900581E+02  0.51100000000E-03 0.  1.
         11    1    1    0    0    0  0.15400462539E+02 -0.99570432972E+01 -0.25155212077E+02  0.31130397565E+02  0.51100000000E-03 0. -1.
         22    1    1    0    0    0 -0.35826896099E+02 -0.27107942417E+02  0.25456732442E+02  0.51637701854E+02  0.00000000000E+00 0.  1.
</event>
<event>
 5    1  0.1046082E-009  0.9118800E+02  0.7561462E-02  0.1125453E+00
         25   -1    0    0    0    0  0.00000000000E+00  0.00000000000E+00  0.99999998245E-14  0.12509000000E+03  0.12509000000E+03 0.  0.
        -11    1    3    3    0    0  0.14706125478E+02 -0.56912665013E+02  0.87663196761E+01  0.59432061434E+02  0.51100000000E-03 0. -1.
         23    2    1    0    0    0 -0.10448661880E+01 -0.24827729481E+02  0.15498637964E+02  0.95803216713E+02  0.91216997634E+02 0.  0.
         11    1    3    3    0    0 -0.15750991666E+02  0.32084935532E+02  0.67323182882E+01  0.36371155279E+02  0.51100000000E-03 0.  1.
         22    1    1    0    0    0  0.10448661880E+01  0.24827729481E+02 -0.15498637964E+02  0.29286783287E+02  0.00000000000E+00 0. -1.
</event>
<event>
 5    1  0.1046082E-009  0.9118800E+02  0.7561462E-02  0.1125453E+00
         25   -1    0    0    0    0  0.00000000000E+00  0.00000000000E+00  0.99999998245E-14  0.12509000000E+03  0.12509000000E+03 0.  0.
        -11    1    3    3    0    0  0.17265525972E+02 -0.10079189311E+01 -0.40175292094E+02  0.43739780324E+02  0.51100000000E-03 0.  1.
         23    2    1    0    0    0  0.17245322320E+02 -0.28418465369E+02 -0.64699954157E+00  0.91842008719E+02  0.85612648839E+02 0.  0.
         11    1    3    3    0    0 -0.20203651348E-01 -0.27410546437E+02  0.39528292553E+02  0.48102228395E+02  0.51100000000E-03 0. -1.
         22    1    1    0    0    0 -0.17245322320E+02  0.28418465369E+02  0.64699954157E+00  0.33247991281E+02  0.00000000000E+00 0. -1.
</event>
<event>
 5    1  0.1046082E-009  0.9118800E+02  0.7561462E-02  0.1125453E+00
         25   -1    0    0    0    0  0.00000000000E+00  0.00000000000E+00  0.99999998245E-14  0.12509000000E+03  0.12509000000E+03 0.  0.
        -11    1    3    3    0    0  0.39474145419E+02  0.85828365733E+01 -0.24119747995E+02  0.47049287814E+02  0.51100000000E-03 0. -1.
         23    2    1    0    0    0  0.76422375619E+00 -0.20224034947E+02 -0.21780129121E+02  0.95358372866E+02  0.90604909490E+02 0.  0.
         11    1    3    3    0    0 -0.38709921662E+02 -0.28806871520E+02  0.23396188735E+01  0.48309085053E+02  0.51100000000E-03 0.  1.
         22    1    1    0    0    0 -0.76422375619E+00  0.20224034947E+02  0.21780129121E+02  0.29731627134E+02  0.00000000000E+00 0.  1.
</event>
<event>
 5    1  0.1046082E-009  0.9118800E+02  0.7561462E-02  0.1125453E+00
         25   -1    0    0    0    0  0.00000000000E+00  0.00000000000E+00  0.99999998245E-14  0.12509000000E+03  0.12509000000E+03 0.  0.
        -11    1    3    3    0    0  0.14893812868E+02 -0.69043854049E+01  0.32471430671E+02  0.36385299361E+02  0.51100000000E-03 0.  1.
         23    2    1    0    0    0  0.11501052807E+02 -0.86160554517E+01 -0.26214965090E+02  0.95194598650E+02  0.90378518411E+02 0.  0.
         11    1    3    3    0    0 -0.33927600611E+01 -0.17116700468E+01 -0.58686395761E+02  0.58809299289E+02  0.51100000000E-03 0. -1.
         22    1    1    0    0    0 -0.11501052807E+02  0.86160554517E+01  0.26214965090E+02  0.29895401350E+02  0.00000000000E+00 0. -1.
</event>
<event>
 5    1  0.1046082E-009  0.9118800E+02  0.7561462E-02  0.1125453E+00
         25   -1    0    0    0    0  0.00000000000E+00  0.00000000000E+00  0.99999998245E-14  0.12509000000E+03  0.12509000000E+03 0.  0.
        -11    1    3    3    0    0 -0.38067463550E+02  0.16435321392E+02  0.15677836028E+02  0.44328840648E+02  0.51100000000E-03 0. -1.
         23    2    1    0    0    0 -0.32294592896E+01 -0.47367847862E+01 -0.23518807873E+02  0.10088254534E+03  0.97935116750E+02 0.  0.
         11    1    3    3    0    0  0.34838004260E+02 -0.21172106178E+02 -0.39196643901E+02  0.56553704691E+02  0.51100000000E-03 0.  1.
         22    1    1    0    0    0  0.32294592896E+01  0.47367847862E+01  0.23518807873E+02  0.24207454661E+02  0.00000000000E+00 0.  1.
</event>
<event>
 5    1  0.1046082E-009  0.9118800E+02  0.7561462E-02  0.1125453E+00
         25   -1    0    0    0    0  0.00000000000E+00  0.00000000000E+00  0.99999998245E-14  0.12509000000E+03  0.12509000000E+03 0.  0.
        -11    1    3    3    0    0  0.19170987194E+02  0.46086597216E+02 -0.89547034476E+01  0.50711812303E+02  0.51100000000E-03 0. -1.
         23    2    1    0    0    0  0.54760635981E+01  0.12967559668E+02  0.22601529258E+02  0.98463434299E+02  0.94794904361E+02 0.  0.
         11    1    3    3    0    0 -0.13694923595E+02 -0.33119037548E+02  0.31556232705E+02  0.47751621996E+02  0.51100000000E-03 0.  1.
         22    1    1    0    0    0 -0.54760635981E+01 -0.12967559668E+02 -0.22601529258E+02  0.26626565701E+02  0.00000000000E+00 0. -1.
</event>
<event>
 5    1  0.1046082E-009  0.9118800E+02  0.7561462E-02  0.1125453E+00
         25   -1    0    0    0    0  0.00000000000E+00  0.00000000000E+00  0.99999998245E-14  0.12509000000E+03  0.12509000000E+03 0.  0.
        -11    1    3    3    0    0 -0.16089394160E+02 -0.59480036948E+02  0.89314346791E+01  0.62261656945E+02  0.51100000000E-03 0.  1.
         23    2    1    0    0    0 -0.10511490369E+02 -0.36196720862E+02  0.13565469790E+01  0.87373501612E+02  0.78813669712E+02 0.  0.
         11    1    3    3    0    0  0.55779037909E+01  0.23283316087E+02 -0.75748877001E+01  0.25111844668E+02  0.51100000000E-03 0. -1.
         22    1    1    0    0    0  0.10511490369E+02  0.36196720862E+02 -0.13565469790E+01  0.37716498388E+02  0.00000000000E+00 0.  1.
</event>
<event>
 5    1  0.1046082E-009  0.9118800E+02  0.7561462E-02  0.1125453E+00
         25   -1    0    0    0    0  0.00000000000E+00  0.00000000000E+00  0.99999998245E-14  0.12509000000E+03  0.12509000000E+03 0.  0.
        -11    1    3    3    0    0  0.33746763691E+00  0.22736939894E+02 -0.54665570651E+02  0.59206477138E+02  0.51100000000E-03 0.  1.
         23    2    1    0    0    0  0.55339639151E+01 -0.21965652728E+01 -0.29441507883E+02  0.95052489416E+02  0.90181615101E+02 0.  0.
         11    1    3    3    0    0  0.51964962782E+01 -0.24933505167E+02  0.25224062768E+02  0.35846012279E+02  0.51100000000E-03 0. -1.
         22    1    1    0    0    0 -0.55339639151E+01  0.21965652728E+01  0.29441507883E+02  0.30037510584E+02  0.00000000000E+00 0.  1.
</event>
<event>
 5    1  0.1046082E-009  0.9118800E+02  0.7561462E-02  0.1125453E+00
         25   -1    0    0    0    0  0.00000000000E+00  0.00000000000E+00  0.99999998245E-14  0.12509000000E+03  0.12509000000E+03 0.  0.
        -11    1    3    3    0    0  0.28499308935E+02 -0.17279586477E+02  0.42073800763E+02  0.53674942287E+02  0.51100000000E-03 0. -1.
         23    2    1    0    0    0  0.28565462074E+02  0.49188061229E+01  0.68571509688E+01  0.95304083922E+02  0.90529926630E+02 0.  0.
         11    1    3    3    0    0  0.66153139768E-01  0.22198392600E+02 -0.35216649795E+02  0.41629141635E+02  0.51100000000E-03 0.  1.
         22    1    1    0    0    0 -0.28565462074E+02 -0.49188061229E+01 -0.68571509688E+01  0.29785916078E+02  0.00000000000E+00 0. -1.
</event>
<event>
 5    1  0.1046082E-009  0.9118800E+02  0.7561462E-02  0.1125453E+00
         25   -1    0    0    0    0  0.00000000000E+00  0.00000000000E+00  0.99999998245E-14  0.12509000000E+03  0.12509000000E+03 0.  0.
        -11    1    3    3    0    0 -0.45622397196E+02 -0.38000453990E+02  0.41511709098E+01  0.59520331397E+02  0.51100000000E-03 0.  1.
         23    2    1    0    0    0 -0.14285836539E+02 -0.25018903231E+02  0.11226952139E+02  0.94169535922E+02  0.88948447973E+02 0.  0.
         11    1    3    3    0    0  0.31336560657E+02  0.12981550759E+02  0.70757812293E+01  0.34649204525E+02  0.51100000000E-03 0. -1.
         22    1    1    0    0    0  0.14285836539E+02  0.25018903231E+02 -0.11226952139E+02  0.30920464078E+02  0.00000000000E+00 0.  1.
</event>
<event>
 5    1  0.1046082E-009  0.9118800E+02  0.7561462E-02  0.1125453E+00
         25   -1    0    0    0    0  0.00000000000E+00  0.00000000000E+00  0.99999998245E-14  0.12509000000E+03  0.12509000000E+03 0.  0.
        -11    1    3    3    0    0  0.28254790467E+02 -0.32268962456E+02 -0.42404042862E+00  0.42892877414E+02  0.51100000000E-03 0.  1.
         23    2    1    0    0    0  0.45690805374E+01  0.66356625670E+01  0.27577739204E+02  0.96359524643E+02  0.91976724094E+02 0.  0.
         11    1    3    3    0    0 -0.23685709930E+02  0.38904625023E+02  0.28001779632E+02  0.53466647229E+02  0.51100000000E-03 0. -1.
         22    1    1    0    0    0 -0.45690805374E+01 -0.66356625670E+01 -0.27577739204E+02  0.28730475357E+02  0.00000000000E+00 0. -1.
</event>
<event>
 5    1  0.1046082E-009  0.9118800E+02  0.7561462E-02  0.1125453E+00
         25   -1    0    0    0    0  0.00000000000E+00  0.00000000000E+00  0.99999998245E-14  0.12509000000E+03  0.12509000000E+03 0.  0.
        -11    1    3    3    0    0 -0.35890271716E+02 -0.72606105648E+01 -0.40331565620E+02  0.54474427535E+02  0.51100000000E-03 0.  1.
         23    2    1    0    0    0 -0.28433101011E+02  0.80841493423E+01 -0.31758344918E+01  0.95359870024E+02  0.90606976456E+02 0.  0.
         11    1    3    3    0    0  0.74571707052E+01  0.15344759907E+02  0.37155731128E+02  0.40885442488E+02  0.51100000000E-03 0. -1.
         22    1    1    0    0    0  0.28433101011E+02 -0.80841493423E+01  0.31758344918E+01  0.29730129976E+02  0.00000000000E+00 0.  1.
</event>
<event>
 5    1  0.1046082E-009  0.9118800E+02  0.7561462E-02  0.1125453E+00
         25   -1    0    0    0    0  0.00000000000E+00  0.00000000000E+00  0.99999998245E-14  0.12509000000E+03  0.12509000000E+03 0.  0.
        -11    1    3    3    0    0  0.16985978792E+02 -0.56381299752E+02 -0.53488600660E+01  0.59126852965E+02  0.51100000000E-03 0.  1.
         23    2    1    0    0    0 -0.59427100305E+01 -0.27635364684E+02 -0.71207402239E+01  0.95939800600E+02  0.91404109395E+02 0.  0.
         11    1    3    3    0    0 -0.22928688822E+02  0.28745935069E+02 -0.17718801579E+01  0.36812947636E+02  0.51100000000E-03 0. -1.
         22    1    1    0    0    0  0.59427100305E+01  0.27635364684E+02  0.71207402239E+01  0.29150199400E+02  0.00000000000E+00 0.  1.
</event>
<event>
 5    1  0.1046082E-009  0.9118800E+02  0.7561462E-02  0.1125453E+00
         25   -1    0    0    0    0  0.00000000000E+00  0.00000000000E+00  0.99999998245E-14  0.12509000000E+03  0.12509000000E+03 0.  0.
        -11    1    3    3    0    0 -0.10026325256E+02  0.18992663622E+02  0.32687222980E+02  0.39111417975E+02  0.51100000000E-03 0. -1.
         23    2    1    0    0    0 -0.66194938443E+01 -0.29097929866E+02  0.46323623145E+01  0.94891225160E+02  0.89957648983E+02 0.  0.
         11    1    3    3    0    0  0.34068314113E+01 -0.48090593488E+02 -0.28054860666E+02  0.55779807185E+02  0.51100000000E-03 0.  1.
         22    1    1    0    0    0  0.66194938443E+01  0.29097929866E+02 -0.46323623145E+01  0.30198774840E+02  0.00000000000E+00 0.  1.
</event>
<event>
 5    1  0.1046082E-009  0.9118800E+02  0.7561462E-02  0.1125453E+00
         25   -1    0    0    0    0  0.00000000000E+00  0.00000000000E+00  0.99999998245E-14  0.12509000000E+03  0.12509000000E+03 0.  0.
        -11    1    3    3    0    0 -0.14820843151E+02 -0.29256497075E+02 -0.16576420839E+02  0.36747486185E+02  0.51100000000E-03 0. -1.
         23    2    1    0    0    0  0.29884521114E+02  0.32514983315E+01  0.17412711518E+01  0.94978725220E+02  0.90079239426E+02 0.  0.
         11    1    3    3    0    0  0.44705364265E+02  0.32507995407E+02  0.18317691991E+02  0.58231239035E+02  0.51100000000E-03 0.  1.
         22    1    1    0    0    0 -0.29884521114E+02 -0.32514983315E+01 -0.17412711518E+01  0.30111274780E+02  0.00000000000E+00 0.  1.
</event>
<event>
 5    1  0.1046082E-009  0.9118800E+02  0.7561462E-02  0.1125453E+00
         25   -1    0    0    0    0  0.00000000000E+00  0.00000000000E+00  0.99999998245E-14  0.12509000000E+03  0.12509000000E+03 0.  0.
        -11    1    3    3    0    0  0.54911981507E+01 -0.20073847508E+02 -0.25027945572E+02  0.32550125510E+02  0.51100000000E-03 0.  1.
         23    2    1    0    0    0 -0.28140716336E+02  0.10303608235E+02  0.13677238041E+02  0.92148671870E+02  0.86059552801E+02 0.  0.
         11    1    3    3    0    0 -0.33631914487E+02  0.30377455743E+02  0.38705183613E+02  0.59598546360E+02  0.51100000000E-03 0. -1.
         22    1    1    0    0    0  0.28140716336E+02 -0.10303608235E+02 -0.13677238041E+02  0.32941328130E+02  0.00000000000E+00 0. -1.
</event>
<event>
 5    1  0.1046082E-009  0.9118800E+02  0.7561462E-02  0.1125453E+00
         25   -1    0    0    0    0  0.00000000000E+00  0.00000000000E+00  0.99999998245E-14  0.12509000000E+03  0.12509000000E+03 0.  0.
        -11    1    3    3    0    0  0.45253155541E+02 -0.41092180990E+02 -0.39848043436E+01  0.61255971879E+02  0.51100000000E-03 0.  1.
         23    2    1    0    0    0  0.18760216264E+02 -0.16588471327E+02 -0.10515062372E+02  0.97929557590E+02  0.94087770820E+02 0.  0.
         11    1    3    3    0    0 -0.26492939277E+02  0.24503709663E+02 -0.65302580281E+01  0.36673585711E+02  0.51100000000E-03 0. -1.
         22    1    1    0    0    0 -0.18760216264E+02  0.16588471327E+02  0.10515062372E+02  0.27160442410E+02  0.00000000000E+00 0.  1.
</event>
<event>
 5    1  0.1046082E-009  0.9118800E+02  0.7561462E-02  0.1125453E+00
         25   -1    0    0    0    0  0.00000000000E+00  0.00000000000E+00  0.99999998245E-14  0.12509000000E+03  0.12509000000E+03 0.  0.
        -11    1    3    3    0    0 -0.67958527058E+01  0.54083360557E+02  0.13389157010E+02  0.56128985639E+02  0.51100000000E-03 0.  1.
         23    2    1    0    0    0  0.10223720838E+02  0.28524226272E+02 -0.82394002503E+01  0.93688667724E+02  0.88269602873E+02 0.  0.
         11    1    3    3    0    0  0.17019573544E+02 -0.25559134285E+02 -0.21628557260E+02  0.37559682086E+02  0.51100000000E-03 0. -1.
         22    1    1    0    0    0 -0.10223720838E+02 -0.28524226272E+02  0.82394002503E+01  0.31401332276E+02  0.00000000000E+00 0. -1.
</event>
<event>
 5    1  0.1046082E-009  0.9118800E+02  0.7561462E-02  0.1125453E+00
         25   -1    0    0    0    0  0.00000000000E+00  0.00000000000E+00  0.99999998245E-14  0.12509000000E+03  0.12509000000E+03 0.  0.
        -11    1    3    3    0    0  0.56030635066E+02  0.23026115880E+02 -0.21937895796E+01  0.60617215305E+02  0.51100000000E-03 0. -1.
         23    2    1    0    0    0  0.21996991327E+02  0.16236030635E+02 -0.96193277814E+01  0.96107112201E+02  0.91632795605E+02 0.  0.
         11    1    3    3    0    0 -0.34033643739E+02 -0.67900852452E+01 -0.74255382019E+01  0.35489896896E+02  0.51100000000E-03 0.  1.
         22    1    1    0    0    0 -0.21996991327E+02 -0.16236030635E+02  0.96193277814E+01  0.28982887799E+02  0.00000000000E+00 0. -1.
</event>
<event>
 5    1  0.1046082E-009  0.9118800E+02  0.7561462E-02  0.1125453E+00
         25   -1    0    0    0    0  0.00000000000E+00  0.00000000000E+00  0.99999998245E-14  0.12509000000E+03  0.12509000000E+03 0.  0.
        -11    1    3    3    0    0  0.82102253166E+01  0.11338225707E+01  0.37842066408E+02  0.38739067408E+02  0.51100000000E-03 0.  1.
         23    2    1    0    0    0  0.16018782148E+02 -0.21322777781E+02 -0.13411175832E+02  0.95238335540E+02  0.90439032975E+02 0.  0.
         11    1    3    3    0    0  0.78085568317E+01 -0.22456600352E+02 -0.51253242240E+02  0.56499268132E+02  0.51100000000E-03 0. -1.
         22    1    1    0    0    0 -0.16018782148E+02  0.21322777781E+02  0.13411175832E+02  0.29851664460E+02  0.00000000000E+00 0. -1.
</event>
<event>
 5    1  0.1046082E-009  0.9118800E+02  0.7561462E-02  0.1125453E+00
         25   -1    0    0    0    0  0.00000000000E+00  0.00000000000E+00  0.99999998245E-14  0.12509000000E+03  0.12509000000E+03 0.  0.
        -11    1    3    3    0    0 -0.25931374272E+02  0.17841029716E+02  0.22736858370E+02  0.38829154533E+02  0.51100000000E-03 0.  1.
         23    2    1    0    0    0 -0.88410190742E+01 -0.26053426836E+02 -0.95841936693E+01  0.95955802973E+02  0.91426006626E+02 0.  0.
         11    1    3    3    0    0  0.17090355198E+02 -0.43894456552E+02 -0.32321052039E+02  0.57126648439E+02  0.51100000000E-03 0. -1.
         22    1    1    0    0    0  0.88410190742E+01  0.26053426836E+02  0.95841936693E+01  0.29134197027E+02  0.00000000000E+00 0. -1.
</event>
<event>
 5    1  0.1046082E-009  0.9118800E+02  0.7561462E-02  0.1125453E+00
         25   -1    0    0    0    0  0.00000000000E+00  0.00000000000E+00  0.99999998245E-14  0.12509000000E+03  0.12509000000E+03 0.  0.
        -11    1    3    3    0    0  0.30585957630E+02  0.27203492769E+02 -0.25221238987E+01  0.41010875780E+02  0.51100000000E-03 0.  1.
         23    2    1    0    0    0 -0.21236681056E+02  0.14384877893E+02 -0.14362523970E+02  0.95692662892E+02  0.91065263972E+02 0.  0.
         11    1    3    3    0    0 -0.51822638686E+02 -0.12818614876E+02 -0.11840400071E+02  0.54681787112E+02  0.51100000000E-03 0. -1.
         22    1    1    0    0    0  0.21236681056E+02 -0.14384877893E+02  0.14362523970E+02  0.29397337108E+02  0.00000000000E+00 0.  1.
</event>
<event>
 5    1  0.1046082E-009  0.9118800E+02  0.7561462E-02  0.1125453E+00
         25   -1    0    0    0    0  0.00000000000E+00  0.00000000000E+00  0.99999998245E-14  0.12509000000E+03  0.12509000000E+03 0.  0.
        -11    1    3    3    0    0 -0.49180575114E+01 -0.40245899971E+02  0.52657139207E+01  0.40885786008E+02  0.51100000000E-03 0. -1.
         23    2    1    0    0    0  0.25952448821E+02 -0.10273463467E+01 -0.15387839982E+02  0.94901083828E+02  0.89971356843E+02 0.  0.
         11    1    3    3    0    0  0.30870506332E+02  0.39218553624E+02 -0.20653553903E+02  0.54015297820E+02  0.51100000000E-03 0.  1.
         22    1    1    0    0    0 -0.25952448821E+02  0.10273463467E+01  0.15387839982E+02  0.30188916172E+02  0.00000000000E+00 0.  1.
</event>
<event>
 5    1  0.1046082E-009  0.9118800E+02  0.7561462E-02  0.1125453E+00
         25   -1    0    0    0    0  0.00000000000E+00  0.00000000000E+00  0.99999998245E-14  0.12509000000E+03  0.12509000000E+03 0.  0.
        -11    1    3    3    0    0 -0.21899719370E+02  0.21456079471E+02 -0.19956196178E+02  0.36581563948E+02  0.51100000000E-03 0. -1.
         23    2    1    0    0    0  0.20731892508E+02  0.56536319183E+01  0.18963080492E+02  0.96430388304E+02  0.92073049509E+02 0.  0.
         11    1    3    3    0    0  0.42631611878E+02 -0.15802447553E+02  0.38919276670E+02  0.59848824355E+02  0.51100000000E-03 0.  1.
         22    1    1    0    0    0 -0.20731892508E+02 -0.56536319183E+01 -0.18963080492E+02  0.28659611696E+02  0.00000000000E+00 0.  1.
</event>
<event>
 5    1  0.1046082E-009  0.9118800E+02  0.7561462E-02  0.1125453E+00
         25   -1    0    0    0    0  0.00000000000E+00  0.00000000000E+00  0.99999998245E-14  0.12509000000E+03  0.12509000000E+03 0.  0.
        -11    1    3    3    0    0  0.47527469656E+01 -0.23650487126E+02 -0.20354439708E+02  0.31563227989E+02  0.51100000000E-03 0. -1.
         23    2    1    0    0    0 -0.80550762987E+00  0.18283478692E+02  0.25340475289E+02  0.93831815096E+02  0.88472229545E+02 0.  0.
         11    1    3    3    0    0 -0.55582545955E+01  0.41933965818E+02  0.45694914997E+02  0.62268587106E+02  0.51100000000E-03 0.  1.
         22    1    1    0    0    0  0.80550762987E+00 -0.18283478692E+02 -0.25340475289E+02  0.31258184904E+02  0.00000000000E+00 0.  1.
</event>
<event>
 5    1  0.1046082E-009  0.9118800E+02  0.7561462E-02  0.1125453E+00
         25   -1    0    0    0    0  0.00000000000E+00  0.00000000000E+00  0.99999998245E-14  0.12509000000E+03  0.12509000000E+03 0.  0.
        -11    1    3    3    0    0 -0.26692782813E+02 -0.18082388007E+02 -0.19557032734E+02  0.37708817801E+02  0.51100000000E-03 0.  1.
         23    2    1    0    0    0 -0.24563271124E+01 -0.12325224975E+02  0.29663452077E+02  0.92874086189E+02  0.87107581661E+02 0.  0.
         11    1    3    3    0    0  0.24236455700E+02  0.57571630317E+01  0.49220484811E+02  0.55165268388E+02  0.51100000000E-03 0. -1.
         22    1    1    0    0    0  0.24563271124E+01  0.12325224975E+02 -0.29663452077E+02  0.32215913811E+02  0.00000000000E+00 0. -1.
</event>
<event>
 5    1  0.1046082E-009  0.9118800E+02  0.7561462E-02  0.1125453E+00
         25   -1    0    0    0    0  0.00000000000E+00  0.00000000000E+00  0.99999998245E-14  0.12509000000E+03  0.12509000000E+03 0.  0.
        -11    1    3    3    0    0  0.26771174656E+02  0.47495864959E+02  0.21767329910E+02  0.58705788746E+02  0.51100000000E-03 0. -1.
         23    2    1    0    0    0  0.17872091206E+01  0.20541038985E+02  0.21276840386E+02  0.95461764551E+02  0.90747540767E+02 0.  0.
         11    1    3    3    0    0 -0.24983965535E+02 -0.26954825973E+02 -0.49048952431E+00  0.36755975805E+02  0.51100000000E-03 0.  1.
         22    1    1    0    0    0 -0.17872091206E+01 -0.20541038985E+02 -0.21276840386E+02  0.29628235449E+02  0.00000000000E+00 0. -1.
</event>
<event>
 5    1  0.1046082E-009  0.9118800E+02  0.7561462E-02  0.1125453E+00
         25   -1    0    0    0    0  0.00000000000E+00  0.00000000000E+00  0.99999998245E-14  0.12509000000E+03  0.12509000000E+03 0.  0.
        -11    1    3    3    0    0 -0.42169188780E+02 -0.11540802021E+02  0.28753103069E+02  0.52327540837E+02  0.51100000000E-03 0.  1.
         23    2    1    0    0    0 -0.10945126768E+02  0.14876337599E+02  0.25836175924E+02  0.93331391613E+02  0.87761833696E+02 0.  0.
         11    1    3    3    0    0  0.31224062012E+02  0.26417139620E+02 -0.29169271454E+01  0.41003850776E+02  0.51100000000E-03 0. -1.
         22    1    1    0    0    0  0.10945126768E+02 -0.14876337599E+02 -0.25836175924E+02  0.31758608387E+02  0.00000000000E+00 0.  1.
</event>
<event>
 5    1  0.1046082E-009  0.9118800E+02  0.7561462E-02  0.1125453E+00
         25   -1    0    0    0    0  0.00000000000E+00  0.00000000000E+00  0.99999998245E-14  0.12509000000E+03  0.12509000000E+03 0.  0.
        -11    1    3    3    0    0 -0.13909307984E+01 -0.60569069781E+02 -0.99203292292E+01  0.61391854793E+02  0.51100000000E-03 0.  1.
         23    2    1    0    0    0 -0.56961259252E+01 -0.26487665885E+02  0.24095772197E+01  0.97889846380E+02  0.94034959815E+02 0.  0.
         11    1    3    3    0    0 -0.43051951268E+01  0.34081403896E+02  0.12329906449E+02  0.36497991587E+02  0.51100000000E-03 0. -1.
         22    1    1    0    0    0  0.56961259252E+01  0.26487665885E+02 -0.24095772197E+01  0.27200153620E+02  0.00000000000E+00 0.  1.
</event>
<event>
 5    1  0.1046082E-009  0.9118800E+02  0.7561462E-02  0.1125453E+00
         25   -1    0    0    0    0  0.00000000000E+00  0.00000000000E+00  0.99999998245E-14  0.12509000000E+03  0.12509000000E+03 0.  0.
        -11    1    3    3    0    0 -0.28293934164E+02 -0.86604414858E+01  0.99542866227E+01  0.31219189285E+02  0.51100000000E-03 0. -1.
         23    2    1    0    0    0  0.32060329015E+02 -0.45222927579E+01 -0.99009391661E+00  0.92697159521E+02  0.86853136207E+02 0.  0.
         11    1    3    3    0    0  0.60354263178E+02  0.41381487279E+01 -0.10944380539E+02  0.61477970236E+02  0.51100000000E-03 0.  1.
         22    1    1    0    0    0 -0.32060329015E+02  0.45222927579E+01  0.99009391661E+00  0.32392840479E+02  0.00000000000E+00 0.  1.
</event>
<event>
 5    1  0.1046082E-009  0.9118800E+02  0.7561462E-02  0.1125453E+00
         25   -1    0    0    0    0  0.00000000000E+00  0.00000000000E+00  0.99999998245E-14  0.12509000000E+03  0.12509000000E+03 0.  0.
        -11    1    3    3    0    0 -0.26351675681E+02 -0.24662184342E+02 -0.50541762089E+02  0.62105586407E+02  0.51100000000E-03 0.  1.
         23    2    1    0    0    0 -0.14473257320E+02 -0.11441671784E+02 -0.17310950402E+02  0.99790671265E+02  0.96530420267E+02 0.  0.
         11    1    3    3    0    0  0.11878418361E+02  0.13220512559E+02  0.33230811687E+02  0.37685084857E+02  0.51100000000E-03 0. -1.
         22    1    1    0    0    0  0.14473257320E+02  0.11441671784E+02  0.17310950402E+02  0.25299328735E+02  0.00000000000E+00 0.  1.
</event>
<event>
 5    1  0.1046082E-009  0.9118800E+02  0.7561462E-02  0.1125453E+00
         25   -1    0    0    0    0  0.00000000000E+00  0.00000000000E+00  0.99999998245E-14  0.12509000000E+03  0.12509000000E+03 0.  0.
        -11    1    3    3    0    0 -0.50514473066E+02 -0.12117001827E+02 -0.13479191268E+02  0.53667702763E+02  0.51100000000E-03 0.  1.
         23    2    1    0    0    0 -0.96799763360E+01 -0.25409406179E+02 -0.56214898182E+01  0.97324175467E+02  0.93279441027E+02 0.  0.
         11    1    3    3    0    0  0.40834496730E+02 -0.13292404352E+02  0.78577014497E+01  0.43656472704E+02  0.51100000000E-03 0. -1.
         22    1    1    0    0    0  0.96799763360E+01  0.25409406179E+02  0.56214898182E+01  0.27765824533E+02  0.00000000000E+00 0.  1.
</event>
<event>
 5    1  0.1046082E-009  0.9118800E+02  0.7561462E-02  0.1125453E+00
         25   -1    0    0    0    0  0.00000000000E+00  0.00000000000E+00  0.99999998245E-14  0.12509000000E+03  0.12509000000E+03 0.  0.
        -11    1    3    3    0    0  0.24056459309E+02  0.27329700389E+02  0.38160646263E+02  0.52743347271E+02  0.51100000000E-03 0.  1.
         23    2    1    0    0    0  0.26641432659E+02 -0.46702967704E+01  0.77751691354E+01  0.96946957145E+02  0.92772202941E+02 0.  0.
         11    1    3    3    0    0  0.25849733500E+01 -0.31999997159E+02 -0.30385477127E+02  0.44203609875E+02  0.51100000000E-03 0. -1.
         22    1    1    0    0    0 -0.26641432659E+02  0.46702967704E+01 -0.77751691354E+01  0.28143042855E+02  0.00000000000E+00 0.  1.
</event>
<event>
 5    1  0.1046082E-009  0.9118800E+02  0.7561462E-02  0.1125453E+00
         25   -1    0    0    0    0  0.00000000000E+00  0.00000000000E+00  0.99999998245E-14  0.12509000000E+03  0.12509000000E+03 0.  0.
        -11    1    3    3    0    0  0.10583995045E+02 -0.51460939352E+02  0.88321234139E+01  0.53275281645E+02  0.51100000000E-03 0. -1.
         23    2    1    0    0    0  0.87280061760E+01 -0.98723612094E+01  0.24104914025E+02  0.97618405801E+02  0.93673180064E+02 0.  0.
         11    1    3    3    0    0 -0.18559888692E+01  0.41588578142E+02  0.15272790612E+02  0.44343124156E+02  0.51100000000E-03 0.  1.
         22    1    1    0    0    0 -0.87280061760E+01  0.98723612094E+01 -0.24104914025E+02  0.27471594199E+02  0.00000000000E+00 0.  1.
</event>
<event>
 5    1  0.1046082E-009  0.9118800E+02  0.7561462E-02  0.1125453E+00
         25   -1    0    0    0    0  0.00000000000E+00  0.00000000000E+00  0.99999998245E-14  0.12509000000E+03  0.12509000000E+03 0.  0.
        -11    1    3    3    0    0 -0.49836592955E+02 -0.16422294648E+01 -0.32819479024E+02  0.59695067791E+02  0.51100000000E-03 0.  1.
         23    2    1    0    0    0 -0.12156803520E+02  0.29420216966E+01 -0.23010768314E+02  0.98899566214E+02  0.95368681313E+02 0.  0.
         11    1    3    3    0    0  0.37679789434E+02  0.45842511615E+01  0.98087107092E+01  0.39204498423E+02  0.51100000000E-03 0. -1.
         22    1    1    0    0    0  0.12156803520E+02 -0.29420216966E+01  0.23010768314E+02  0.26190433786E+02  0.00000000000E+00 0.  1.
</event>
<event>
 5    1  0.1046082E-009  0.9118800E+02  0.7561462E-02  0.1125453E+00
         25   -1    0    0    0    0  0.00000000000E+00  0.00000000000E+00  0.99999998245E-14  0.12509000000E+03  0.12509000000E+03 0.  0.
        -11    1    3    3    0    0  0.26189092425E+02 -0.27255534452E+02  0.26457418610E+01  0.37891063202E+02  0.51100000000E-03 0.  1.
         23    2    1    0    0    0  0.22351863386E+02  0.25140793838E+02 -0.53315112898E+01  0.91029901288E+02  0.84417726836E+02 0.  0.
         11    1    3    3    0    0 -0.38372290387E+01  0.52396328290E+02 -0.79772531508E+01  0.53138838086E+02  0.51100000000E-03 0. -1.
         22    1    1    0    0    0 -0.22351863386E+02 -0.25140793838E+02  0.53315112898E+01  0.34060098712E+02  0.00000000000E+00 0. -1.
</event>
<event>
 5    1  0.1046082E-009  0.9118800E+02  0.7561462E-02  0.1125453E+00
         25   -1    0    0    0    0  0.00000000000E+00  0.00000000000E+00  0.99999998245E-14  0.12509000000E+03  0.12509000000E+03 0.  0.
        -11    1    3    3    0    0 -0.27941885930E+01  0.38782021730E+02  0.46887476969E+02  0.60912135048E+02  0.51100000000E-03 0. -1.
         23    2    1    0    0    0  0.77559327556E+01  0.14351000343E+02  0.24327213068E+02  0.95799745658E+02  0.91212237494E+02 0.  0.
         11    1    3    3    0    0  0.10550121349E+02 -0.24431021388E+02 -0.22560263901E+02  0.34887610610E+02  0.51100000000E-03 0.  1.
         22    1    1    0    0    0 -0.77559327556E+01 -0.14351000343E+02 -0.24327213068E+02  0.29290254342E+02  0.00000000000E+00 0. -1.
</event>
<event>
 5    1  0.1046082E-009  0.9118800E+02  0.7561462E-02  0.1125453E+00
         25   -1    0    0    0    0  0.00000000000E+00  0.00000000000E+00  0.99999998245E-14  0.12509000000E+03  0.12509000000E+03 0.  0.
        -11    1    3    3    0    0  0.17498066819E+02 -0.41415497791E+02 -0.37305166750E+01  0.45114770914E+02  0.51100000000E-03 0.  1.
         23    2    1    0    0    0 -0.24922788753E+02 -0.14275676016E+02 -0.68216328994E+01  0.95569244583E+02  0.90895574754E+02 0.  0.
         11    1    3    3    0    0 -0.42420855572E+02  0.27139821775E+02 -0.30911162244E+01  0.50454473669E+02  0.51100000000E-03 0. -1.
         22    1    1    0    0    0  0.24922788753E+02  0.14275676016E+02  0.68216328994E+01  0.29520755417E+02  0.00000000000E+00 0. -1.
</event>
<event>
 5    1  0.1046082E-009  0.9118800E+02  0.7561462E-02  0.1125453E+00
         25   -1    0    0    0    0  0.00000000000E+00  0.00000000000E+00  0.99999998245E-14  0.12509000000E+03  0.12509000000E+03 0.  0.
        -11    1    3    3    0    0  0.57326148420E+02 -0.19922158852E+02  0.11580447059E+02  0.61784192641E+02  0.51100000000E-03 0. -1.
         23    2    1    0    0    0  0.27472002140E+02 -0.44371362039E+01  0.10225795532E+02  0.95442639687E+02  0.90721174468E+02 0.  0.
         11    1    3    3    0    0 -0.29854146280E+02  0.15485022648E+02 -0.13546515273E+01  0.33658447046E+02  0.51100000000E-03 0.  1.
         22    1    1    0    0    0 -0.27472002140E+02  0.44371362039E+01 -0.10225795532E+02  0.29647360313E+02  0.00000000000E+00 0. -1.
</event>
<event>
 5    1  0.1046082E-009  0.9118800E+02  0.7561462E-02  0.1125453E+00
         25   -1    0    0    0    0  0.00000000000E+00  0.00000000000E+00  0.99999998245E-14  0.12509000000E+03  0.12509000000E+03 0.  0.
        -11    1    3    3    0    0  0.34515650614E+02  0.35329912927E+01 -0.31755718615E+02  0.47034432385E+02  0.51100000000E-03 0. -1.
         23    2    1    0    0    0  0.59215351042E+01 -0.27972092263E+02 -0.15384084652E+02  0.92621975974E+02  0.86744785718E+02 0.  0.
         11    1    3    3    0    0 -0.28594115510E+02 -0.31505083556E+02  0.16371633963E+02  0.45587543589E+02  0.51100000000E-03 0.  1.
         22    1    1    0    0    0 -0.59215351042E+01  0.27972092263E+02  0.15384084652E+02  0.32468024026E+02  0.00000000000E+00 0. -1.
</event>
<event>
 5    1  0.1046082E-009  0.9118800E+02  0.7561462E-02  0.1125453E+00
         25   -1    0    0    0    0  0.00000000000E+00  0.00000000000E+00  0.99999998245E-14  0.12509000000E+03  0.12509000000E+03 0.  0.
        -11    1    3    3    0    0  0.99740898667E+00 -0.37329953184E+02  0.11897136992E+02  0.39192628111E+02  0.51100000000E-03 0. -1.
         23    2    1    0    0    0 -0.31729288497E+02  0.37090734747E+01 -0.55526333965E+00  0.93139831112E+02  0.87488369785E+02 0.  0.
         11    1    3    3    0    0 -0.32726697484E+02  0.41039026659E+02 -0.12452400332E+02  0.53947203001E+02  0.51100000000E-03 0.  1.
         22    1    1    0    0    0  0.31729288497E+02 -0.37090734747E+01  0.55526333965E+00  0.31950168888E+02  0.00000000000E+00 0.  1.
</event>
<event>
 5    1  0.1046082E-009  0.9118800E+02  0.7561462E-02  0.1125453E+00
         25   -1    0    0    0    0  0.00000000000E+00  0.00000000000E+00  0.99999998245E-14  0.12509000000E+03  0.12509000000E+03 0.  0.
        -11    1    3    3    0    0 -0.82999963768E+01  0.50556627125E+02  0.35665226971E+02  0.62424922117E+02  0.51100000000E-03 0. -1.
         23    2    1    0    0    0 -0.14431101547E+01  0.25606659767E+02  0.18114951246E+02  0.93690397296E+02  0.88272053876E+02 0.  0.
         11    1    3    3    0    0  0.68568862221E+01 -0.24949967358E+02 -0.17550275725E+02  0.31265475178E+02  0.51100000000E-03 0.  1.
         22    1    1    0    0    0  0.14431101547E+01 -0.25606659767E+02 -0.18114951246E+02  0.31399602704E+02  0.00000000000E+00 0. -1.
</event>
<event>
 5    1  0.1046082E-009  0.9118800E+02  0.7561462E-02  0.1125453E+00
         25   -1    0    0    0    0  0.00000000000E+00  0.00000000000E+00  0.99999998245E-14  0.12509000000E+03  0.12509000000E+03 0.  0.
        -11    1    3    3    0    0  0.40862414970E+02  0.28518089858E+01 -0.41943163308E+02  0.58626774772E+02  0.51100000000E-03 0.  1.
         23    2    1    0    0    0  0.77873235869E+01 -0.11905065737E+01 -0.30078035047E+02  0.93997430038E+02  0.88706081793E+02 0.  0.
         11    1    3    3    0    0 -0.33075091383E+02 -0.40423155595E+01  0.11865128261E+02  0.35370655266E+02  0.51100000000E-03 0. -1.
         22    1    1    0    0    0 -0.77873235869E+01  0.11905065737E+01  0.30078035047E+02  0.31092569962E+02  0.00000000000E+00 0.  1.
</event>
<event>
 5    1  0.1046082E-009  0.9118800E+02  0.7561462E-02  0.1125453E+00
         25   -1    0    0    0    0  0.00000000000E+00  0.00000000000E+00  0.99999998245E-14  0.12509000000E+03  0.12509000000E+03 0.  0.
        -11    1    3    3    0    0  0.96663463328E+01  0.11506478837E+02 -0.54714689352E+02  0.56740942341E+02  0.51100000000E-03 0.  1.
         23    2    1    0    0    0  0.21595268939E+02  0.64770603557E+01 -0.16325409453E+02  0.97254286515E+02  0.93185671111E+02 0.  0.
         11    1    3    3    0    0  0.11928922606E+02 -0.50294184811E+01  0.38389279898E+02  0.40513344174E+02  0.51100000000E-03 0. -1.
         22    1    1    0    0    0 -0.21595268939E+02 -0.64770603557E+01  0.16325409453E+02  0.27835713485E+02  0.00000000000E+00 0.  1.
</event>
<event>
 5    1  0.1046082E-009  0.9118800E+02  0.7561462E-02  0.1125453E+00
         25   -1    0    0    0    0  0.00000000000E+00  0.00000000000E+00  0.99999998245E-14  0.12509000000E+03  0.12509000000E+03 0.  0.
        -11    1    3    3    0    0  0.85902927456E+01 -0.40951044058E+02  0.44587243394E+02  0.61145755475E+02  0.51100000000E-03 0.  1.
         23    2    1    0    0    0  0.46723483895E+01 -0.12086898677E+02  0.26919413914E+02  0.95213942620E+02  0.90405287814E+02 0.  0.
         11    1    3    3    0    0 -0.39179443561E+01  0.28864145381E+02 -0.17667829480E+02  0.34068187145E+02  0.51100000000E-03 0. -1.
         22    1    1    0    0    0 -0.46723483895E+01  0.12086898677E+02 -0.26919413914E+02  0.29876057380E+02  0.00000000000E+00 0.  1.
</event>
<event>
 5    1  0.1046082E-009  0.9118800E+02  0.7561462E-02  0.1125453E+00
         25   -1    0    0    0    0  0.00000000000E+00  0.00000000000E+00  0.99999998245E-14  0.12509000000E+03  0.12509000000E+03 0.  0.
        -11    1    3    3    0    0 -0.13095395097E+02  0.36432189212E+02 -0.48872518227E+02  0.62348350593E+02  0.51100000000E-03 0.  1.
         23    2    1    0    0    0 -0.27261579233E+01  0.15847449499E+02 -0.23357979716E+02  0.96732129680E+02  0.92482085310E+02 0.  0.
         11    1    3    3    0    0  0.10369237174E+02 -0.20584739713E+02  0.25514538511E+02  0.34383779087E+02  0.51100000000E-03 0. -1.
         22    1    1    0    0    0  0.27261579233E+01 -0.15847449499E+02  0.23357979716E+02  0.28357870320E+02  0.00000000000E+00 0.  1.
</event>
<event>
 5    1  0.1046082E-009  0.9118800E+02  0.7561462E-02  0.1125453E+00
         25   -1    0    0    0    0  0.00000000000E+00  0.00000000000E+00  0.99999998245E-14  0.12509000000E+03  0.12509000000E+03 0.  0.
        -11    1    3    3    0    0  0.12617348377E+02  0.25714803441E+02 -0.23680221466E+02  0.37164519168E+02  0.51100000000E-03 0. -1.
         23    2    1    0    0    0 -0.19249716424E+02  0.49362401305E+01  0.21222234610E+02  0.96015934394E+02  0.91508242070E+02 0.  0.
         11    1    3    3    0    0 -0.31867064801E+02 -0.20778563310E+02  0.44902456075E+02  0.58851415226E+02  0.51100000000E-03 0.  1.
         22    1    1    0    0    0  0.19249716424E+02 -0.49362401305E+01 -0.21222234610E+02  0.29074065606E+02  0.00000000000E+00 0.  1.
</event>
<event>
 5    1  0.1046082E-009  0.9118800E+02  0.7561462E-02  0.1125453E+00
         25   -1    0    0    0    0  0.00000000000E+00  0.00000000000E+00  0.99999998245E-14  0.12509000000E+03  0.12509000000E+03 0.  0.
        -11    1    3    3    0    0 -0.77846242382E+01  0.38492882692E+02  0.39334871209E+02  0.55583581080E+02  0.51100000000E-03 0.  1.
         23    2    1    0    0    0  0.80284310797E+01  0.19121425988E+02 -0.23759475142E+01  0.10421585896E+03  0.10210394456E+03 0.  0.
         11    1    3    3    0    0  0.15813055318E+02 -0.19371456704E+02 -0.41710818723E+02  0.48632277883E+02  0.51100000000E-03 0. -1.
         22    1    1    0    0    0 -0.80284310797E+01 -0.19121425988E+02  0.23759475142E+01  0.20874141036E+02  0.00000000000E+00 0.  1.
</event>
<event>
 5    1  0.1046082E-009  0.9118800E+02  0.7561462E-02  0.1125453E+00
         25   -1    0    0    0    0  0.00000000000E+00  0.00000000000E+00  0.99999998245E-14  0.12509000000E+03  0.12509000000E+03 0.  0.
        -11    1    3    3    0    0 -0.25973527453E+02  0.14464456781E+02  0.17751665420E+02  0.34626092240E+02  0.51100000000E-03 0.  1.
         23    2    1    0    0    0  0.24583419422E+02 -0.15473228639E+02 -0.12720494414E+00  0.96042082758E+02  0.91543979400E+02 0.  0.
         11    1    3    3    0    0  0.50556946875E+02 -0.29937685419E+02 -0.17878870364E+02  0.61415990519E+02  0.51100000000E-03 0. -1.
         22    1    1    0    0    0 -0.24583419422E+02  0.15473228639E+02  0.12720494414E+00  0.29047917242E+02  0.00000000000E+00 0. -1.
</event>
<event>
 5    1  0.1046082E-009  0.9118800E+02  0.7561462E-02  0.1125453E+00
         25   -1    0    0    0    0  0.00000000000E+00  0.00000000000E+00  0.99999998245E-14  0.12509000000E+03  0.12509000000E+03 0.  0.
        -11    1    3    3    0    0  0.31788360494E+02 -0.87037088890E+01 -0.60780892126E+01  0.33514140002E+02  0.51100000000E-03 0. -1.
         23    2    1    0    0    0  0.22066107682E+00  0.29425868485E+02  0.20044229933E+02  0.89485202837E+02  0.82096893643E+02 0.  0.
         11    1    3    3    0    0 -0.31567699417E+02  0.38129577374E+02  0.26122319145E+02  0.55971062836E+02  0.51100000000E-03 0.  1.
         22    1    1    0    0    0 -0.22066107682E+00 -0.29425868485E+02 -0.20044229933E+02  0.35604797163E+02  0.00000000000E+00 0.  1.
</event>
<event>
 5    1  0.1046082E-009  0.9118800E+02  0.7561462E-02  0.1125453E+00
         25   -1    0    0    0    0  0.00000000000E+00  0.00000000000E+00  0.99999998245E-14  0.12509000000E+03  0.12509000000E+03 0.  0.
        -11    1    3    3    0    0 -0.26921064326E+02 -0.18007064995E+02  0.46164070794E+02  0.56392548504E+02  0.51100000000E-03 0.  1.
         23    2    1    0    0    0 -0.24432251896E+02  0.64447140103E+01  0.16517598400E+02  0.94902248705E+02  0.89972976392E+02 0.  0.
         11    1    3    3    0    0  0.24888124302E+01  0.24451779006E+02 -0.29646472395E+02  0.38509700201E+02  0.51100000000E-03 0. -1.
         22    1    1    0    0    0  0.24432251896E+02 -0.64447140103E+01 -0.16517598400E+02  0.30187751295E+02  0.00000000000E+00 0.  1.
</event>
<event>
 5    1  0.1046082E-009  0.9118800E+02  0.7561462E-02  0.1125453E+00
         25   -1    0    0    0    0  0.00000000000E+00  0.00000000000E+00  0.99999998245E-14  0.12509000000E+03  0.12509000000E+03 0.  0.
        -11    1    3    3    0    0  0.13808377160E+02 -0.37665785961E+01  0.34138429647E+02  0.37017438771E+02  0.51100000000E-03 0. -1.
         23    2    1    0    0    0 -0.27839286738E+02  0.10446124700E+02 -0.37923290804E+01  0.95114523904E+02  0.90267621495E+02 0.  0.
         11    1    3    3    0    0 -0.41647663898E+02  0.14212703296E+02 -0.37930758727E+02  0.58097085134E+02  0.51100000000E-03 0.  1.
         22    1    1    0    0    0  0.27839286738E+02 -0.10446124700E+02  0.37923290804E+01  0.29975476096E+02  0.00000000000E+00 0.  1.
</event>
<event>
 5    1  0.1046082E-009  0.9118800E+02  0.7561462E-02  0.1125453E+00
         25   -1    0    0    0    0  0.00000000000E+00  0.00000000000E+00  0.99999998245E-14  0.12509000000E+03  0.12509000000E+03 0.  0.
        -11    1    3    3    0    0 -0.35592926055E+02 -0.27734924564E+02 -0.37147475917E+02  0.58446705578E+02  0.51100000000E-03 0.  1.
         23    2    1    0    0    0 -0.10421206082E+02 -0.25149141020E+02 -0.87203572675E+01  0.96504593564E+02  0.92173809283E+02 0.  0.
         11    1    3    3    0    0  0.25171719973E+02  0.25857835437E+01  0.28427118649E+02  0.38057887985E+02  0.51100000000E-03 0. -1.
         22    1    1    0    0    0  0.10421206082E+02  0.25149141020E+02  0.87203572675E+01  0.28585406436E+02  0.00000000000E+00 0.  1.
</event>
<event>
 5    1  0.1046082E-009  0.9118800E+02  0.7561462E-02  0.1125453E+00
         25   -1    0    0    0    0  0.00000000000E+00  0.00000000000E+00  0.99999998245E-14  0.12509000000E+03  0.12509000000E+03 0.  0.
        -11    1    3    3    0    0  0.16546548614E+02  0.16727286491E+02 -0.50831051996E+02  0.56012375701E+02  0.51100000000E-03 0. -1.
         23    2    1    0    0    0 -0.97575934502E+01 -0.18251740106E+01 -0.27741600506E+02  0.95625813455E+02  0.90973391221E+02 0.  0.
         11    1    3    3    0    0 -0.26304142064E+02 -0.18552460502E+02  0.23089451489E+02  0.39613437755E+02  0.51100000000E-03 0.  1.
         22    1    1    0    0    0  0.97575934502E+01  0.18251740106E+01  0.27741600506E+02  0.29464186545E+02  0.00000000000E+00 0. -1.
</event>
<event>
 5    1  0.1046082E-009  0.9118800E+02  0.7561462E-02  0.1125453E+00
         25   -1    0    0    0    0  0.00000000000E+00  0.00000000000E+00  0.99999998245E-14  0.12509000000E+03  0.12509000000E+03 0.  0.
        -11    1    3    3    0    0 -0.28657441648E+02  0.29054555123E+02 -0.40876055248E+02  0.57760436530E+02  0.51100000000E-03 0.  1.
         23    2    1    0    0    0 -0.25955401701E+02  0.13415097664E+02 -0.71855494969E+01  0.95002131276E+02  0.90111736763E+02 0.  0.
         11    1    3    3    0    0  0.27020399473E+01 -0.15639457459E+02  0.33690505751E+02  0.37241694745E+02  0.51100000000E-03 0. -1.
         22    1    1    0    0    0  0.25955401701E+02 -0.13415097664E+02  0.71855494969E+01  0.30087868724E+02  0.00000000000E+00 0.  1.
</event>
<event>
 5    1  0.1046082E-009  0.9118800E+02  0.7561462E-02  0.1125453E+00
         25   -1    0    0    0    0  0.00000000000E+00  0.00000000000E+00  0.99999998245E-14  0.12509000000E+03  0.12509000000E+03 0.  0.
        -11    1    3    3    0    0  0.20044457629E+02  0.57077299403E+02  0.57113088694E+01  0.60763619363E+02  0.51100000000E-03 0.  1.
         23    2    1    0    0    0  0.13277792579E+02  0.22822756551E+02  0.11734427986E+02  0.96195800020E+02  0.91753785475E+02 0.  0.
         11    1    3    3    0    0 -0.67666650503E+01 -0.34254542853E+02  0.60231191163E+01  0.35432180657E+02  0.51100000000E-03 0. -1.
         22    1    1    0    0    0 -0.13277792579E+02 -0.22822756551E+02 -0.11734427986E+02  0.28894199980E+02  0.00000000000E+00 0.  1.
</event>
<event>
 5    1  0.1046082E-009  0.9118800E+02  0.7561462E-02  0.1125453E+00
         25   -1    0    0    0    0  0.00000000000E+00  0.00000000000E+00  0.99999998245E-14  0.12509000000E+03  0.12509000000E+03 0.  0.
        -11    1    3    3    0    0  0.24932214614E+02 -0.32409531282E+02 -0.19104185074E+02  0.45132725721E+02  0.51100000000E-03 0.  1.
         23    2    1    0    0    0  0.26776934557E+02  0.75943840740E+01  0.10927291610E+02  0.95188752607E+02  0.90370426729E+02 0.  0.
         11    1    3    3    0    0  0.18447199431E+01  0.40003915356E+02  0.30031476684E+02  0.50056026885E+02  0.51100000000E-03 0. -1.
         22    1    1    0    0    0 -0.26776934557E+02 -0.75943840740E+01 -0.10927291610E+02  0.29901247393E+02  0.00000000000E+00 0. -1.
</event>
<event>
 5    1  0.1046082E-009  0.9118800E+02  0.7561462E-02  0.1125453E+00
         25   -1    0    0    0    0  0.00000000000E+00  0.00000000000E+00  0.99999998245E-14  0.12509000000E+03  0.12509000000E+03 0.  0.
        -11    1    3    3    0    0 -0.42505081596E+01 -0.44662282356E+02 -0.11559996381E+02  0.46329470118E+02  0.51100000000E-03 0. -1.
         23    2    1    0    0    0  0.50865434860E+01 -0.12025921053E+02  0.25410848640E+02  0.96520664509E+02  0.92195616744E+02 0.  0.
         11    1    3    3    0    0  0.93370516456E+01  0.32636361303E+02  0.36970845021E+02  0.50191194390E+02  0.51100000000E-03 0.  1.
         22    1    1    0    0    0 -0.50865434860E+01  0.12025921053E+02 -0.25410848640E+02  0.28569335491E+02  0.00000000000E+00 0.  1.
</event>
<event>
 5    1  0.1046082E-009  0.9118800E+02  0.7561462E-02  0.1125453E+00
         25   -1    0    0    0    0  0.00000000000E+00  0.00000000000E+00  0.99999998245E-14  0.12509000000E+03  0.12509000000E+03 0.  0.
        -11    1    3    3    0    0  0.38855229436E+02  0.34298263381E+02  0.16015857657E+02  0.54245805572E+02  0.51100000000E-03 0.  1.
         23    2    1    0    0    0  0.20816535914E+02 -0.37683781272E+01  0.19241386702E+02  0.96493500155E+02  0.92158753077E+02 0.  0.
         11    1    3    3    0    0 -0.18038693522E+02 -0.38066641508E+02  0.32255290454E+01  0.42247694583E+02  0.51100000000E-03 0. -1.
         22    1    1    0    0    0 -0.20816535914E+02  0.37683781272E+01 -0.19241386702E+02  0.28596499845E+02  0.00000000000E+00 0.  1.
</event>
<event>
 5    1  0.1046082E-009  0.9118800E+02  0.7561462E-02  0.1125453E+00
         25   -1    0    0    0    0  0.00000000000E+00  0.00000000000E+00  0.99999998245E-14  0.12509000000E+03  0.12509000000E+03 0.  0.
        -11    1    3    3    0    0 -0.33185179787E+02  0.20277841966E+00 -0.67418013707E+01  0.33863685011E+02  0.51100000000E-03 0. -1.
         23    2    1    0    0    0  0.28579581952E+02  0.48183631951E+01 -0.64631081596E+00  0.96099883648E+02  0.91622927213E+02 0.  0.
         11    1    3    3    0    0  0.61764761738E+02  0.46155847754E+01  0.60954905547E+01  0.62236198637E+02  0.51100000000E-03 0.  1.
         22    1    1    0    0    0 -0.28579581952E+02 -0.48183631951E+01  0.64631081596E+00  0.28990116352E+02  0.00000000000E+00 0.  1.
</event>
<event>
 5    1  0.1046082E-009  0.9118800E+02  0.7561462E-02  0.1125453E+00
         25   -1    0    0    0    0  0.00000000000E+00  0.00000000000E+00  0.99999998245E-14  0.12509000000E+03  0.12509000000E+03 0.  0.
        -11    1    3    3    0    0 -0.38692417550E+01 -0.39289128603E+02  0.15475021037E+02  0.42403808019E+02  0.51100000000E-03 0.  1.
         23    2    1    0    0    0  0.33602391194E+02 -0.18256180220E+02  0.65568876618E+01  0.86290495029E+02  0.77075598903E+02 0.  0.
         11    1    3    3    0    0  0.37471632949E+02  0.21032948382E+02 -0.89181333755E+01  0.43886687010E+02  0.51100000000E-03 0. -1.
         22    1    1    0    0    0 -0.33602391194E+02  0.18256180220E+02 -0.65568876618E+01  0.38799504971E+02  0.00000000000E+00 0.  1.
</event>
<event>
 5    1  0.1046082E-009  0.9118800E+02  0.7561462E-02  0.1125453E+00
         25   -1    0    0    0    0  0.00000000000E+00  0.00000000000E+00  0.99999998245E-14  0.12509000000E+03  0.12509000000E+03 0.  0.
        -11    1    3    3    0    0  0.25913992967E+02 -0.20330067331E+02 -0.14736719297E+02  0.36083480501E+02  0.51100000000E-03 0.  1.
         23    2    1    0    0    0 -0.16429612301E+02 -0.14315880131E+01  0.23634371854E+02  0.96270472982E+02  0.91855532391E+02 0.  0.
         11    1    3    3    0    0 -0.42343605268E+02  0.18898479318E+02  0.38371091151E+02  0.60186992481E+02  0.51100000000E-03 0. -1.
         22    1    1    0    0    0  0.16429612301E+02  0.14315880131E+01 -0.23634371854E+02  0.28819527018E+02  0.00000000000E+00 0. -1.
</event>
<event>
 5    1  0.1046082E-009  0.9118800E+02  0.7561462E-02  0.1125453E+00
         25   -1    0    0    0    0  0.00000000000E+00  0.00000000000E+00  0.99999998245E-14  0.12509000000E+03  0.12509000000E+03 0.  0.
        -11    1    3    3    0    0  0.16236756117E+02  0.15900642404E+02  0.48398153761E+02  0.53468158429E+02  0.51100000000E-03 0.  1.
         23    2    1    0    0    0  0.23701335796E+02  0.15618090692E+02  0.65739523832E+01  0.95954198565E+02  0.91423811433E+02 0.  0.
         11    1    3    3    0    0  0.74645796788E+01 -0.28255171257E+00 -0.41824201378E+02  0.42486040136E+02  0.51100000000E-03 0. -1.
         22    1    1    0    0    0 -0.23701335796E+02 -0.15618090692E+02 -0.65739523832E+01  0.29135801435E+02  0.00000000000E+00 0.  1.
</event>
<event>
 5    1  0.1046082E-009  0.9118800E+02  0.7561462E-02  0.1125453E+00
         25   -1    0    0    0    0  0.00000000000E+00  0.00000000000E+00  0.99999998245E-14  0.12509000000E+03  0.12509000000E+03 0.  0.
        -11    1    3    3    0    0  0.12129644323E+02  0.45404933469E+02 -0.17549291491E+02  0.50166860444E+02  0.51100000000E-03 0. -1.
         23    2    1    0    0    0 -0.21562627005E+02  0.16080828489E+02 -0.13436622809E+02  0.95022030983E+02  0.90139356617E+02 0.  0.
         11    1    3    3    0    0 -0.33692271329E+02 -0.29324104980E+02  0.41126686816E+01  0.44855170539E+02  0.51100000000E-03 0.  1.
         22    1    1    0    0    0  0.21562627005E+02 -0.16080828489E+02  0.13436622809E+02  0.30067969017E+02  0.00000000000E+00 0. -1.
</event>
<event>
 5    1  0.1046082E-009  0.9118800E+02  0.7561462E-02  0.1125453E+00
         25   -1    0    0    0    0  0.00000000000E+00  0.00000000000E+00  0.99999998245E-14  0.12509000000E+03  0.12509000000E+03 0.  0.
        -11    1    3    3    0    0 -0.20312092853E+02  0.33254209367E+02  0.19264540294E+02  0.43468909231E+02  0.51100000000E-03 0. -1.
         23    2    1    0    0    0  0.23200340566E+02  0.60560049631E+01  0.18528346896E+02  0.94787679343E+02  0.89813548633E+02 0.  0.
         11    1    3    3    0    0  0.43512433419E+02 -0.27198204404E+02 -0.73619339776E+00  0.51318770112E+02  0.51100000000E-03 0.  1.
         22    1    1    0    0    0 -0.23200340566E+02 -0.60560049631E+01 -0.18528346896E+02  0.30302320657E+02  0.00000000000E+00 0.  1.
</event>
<event>
 5    1  0.1046082E-009  0.9118800E+02  0.7561462E-02  0.1125453E+00
         25   -1    0    0    0    0  0.00000000000E+00  0.00000000000E+00  0.99999998245E-14  0.12509000000E+03  0.12509000000E+03 0.  0.
        -11    1    3    3    0    0 -0.49707833681E+02 -0.12448904803E+02 -0.32048694477E+02  0.60439745019E+02  0.51100000000E-03 0.  1.
         23    2    1    0    0    0 -0.20888764996E+02 -0.16604666825E+02 -0.11754964912E+02  0.95931216357E+02  0.91392360777E+02 0.  0.
         11    1    3    3    0    0  0.28819068685E+02 -0.41557620219E+01  0.20293729565E+02  0.35491471338E+02  0.51100000000E-03 0. -1.
         22    1    1    0    0    0  0.20888764996E+02  0.16604666825E+02  0.11754964912E+02  0.29158783643E+02  0.00000000000E+00 0.  1.
</event>
<event>
 5    1  0.1046082E-009  0.9118800E+02  0.7561462E-02  0.1125453E+00
         25   -1    0    0    0    0  0.00000000000E+00  0.00000000000E+00  0.99999998245E-14  0.12509000000E+03  0.12509000000E+03 0.  0.
        -11    1    3    3    0    0  0.42250571242E+02  0.63543867304E+00 -0.24260272342E+02  0.48724484266E+02  0.51100000000E-03 0.  1.
         23    2    1    0    0    0  0.39158531341E+01 -0.25311614720E+02 -0.13010359793E+02  0.96362291990E+02  0.91980487660E+02 0.  0.
         11    1    3    3    0    0 -0.38334718108E+02 -0.25947053394E+02  0.11249912548E+02  0.47637807725E+02  0.51100000000E-03 0. -1.
         22    1    1    0    0    0 -0.39158531341E+01  0.25311614720E+02  0.13010359793E+02  0.28727708010E+02  0.00000000000E+00 0.  1.
</event>
<event>
 5    1  0.1046082E-009  0.9118800E+02  0.7561462E-02  0.1125453E+00
         25   -1    0    0    0    0  0.00000000000E+00  0.00000000000E+00  0.99999998245E-14  0.12509000000E+03  0.12509000000E+03 0.  0.
        -11    1    3    3    0    0 -0.40790027661E+02  0.42353703376E+01  0.81509519185E+01  0.41811514394E+02  0.51100000000E-03 0. -1.
         23    2    1    0    0    0  0.20809263393E+00 -0.90342038848E+01 -0.26490068199E+02  0.97101004742E+02  0.92979682008E+02 0.  0.
         11    1    3    3    0    0  0.40998120295E+02 -0.13269574222E+02 -0.34641020118E+02  0.55289490347E+02  0.51100000000E-03 0.  1.
         22    1    1    0    0    0 -0.20809263393E+00  0.90342038848E+01  0.26490068199E+02  0.27988995258E+02  0.00000000000E+00 0. -1.
</event>
<event>
 5    1  0.1046082E-009  0.9118800E+02  0.7561462E-02  0.1125453E+00
         25   -1    0    0    0    0  0.00000000000E+00  0.00000000000E+00  0.99999998245E-14  0.12509000000E+03  0.12509000000E+03 0.  0.
        -11    1    3    3    0    0 -0.40649714503E+02 -0.52621147421E+01  0.43298355327E+02  0.59622451435E+02  0.51100000000E-03 0.  1.
         23    2    1    0    0    0 -0.99121501667E+01 -0.11584476351E+02  0.24590001060E+02  0.96156991767E+02  0.91700862048E+02 0.  0.
         11    1    3    3    0    0  0.30737564337E+02 -0.63223616085E+01 -0.18708354267E+02  0.36534540332E+02  0.51100000000E-03 0. -1.
         22    1    1    0    0    0  0.99121501667E+01  0.11584476351E+02 -0.24590001060E+02  0.28933008233E+02  0.00000000000E+00 0.  1.
</event>
<event>
 5    1  0.1046082E-009  0.9118800E+02  0.7561462E-02  0.1125453E+00
         25   -1    0    0    0    0  0.00000000000E+00  0.00000000000E+00  0.99999998245E-14  0.12509000000E+03  0.12509000000E+03 0.  0.
        -11    1    3    3    0    0 -0.39508206456E+02  0.28732998338E+02 -0.98019061151E+00  0.48861481197E+02  0.51100000000E-03 0.  1.
         23    2    1    0    0    0 -0.15592306327E+02  0.14775332070E+02  0.28561506395E+02  0.89352203454E+02  0.81893993432E+02 0.  0.
         11    1    3    3    0    0  0.23915900129E+02 -0.13957666268E+02  0.29541697007E+02  0.40490722258E+02  0.51100000000E-03 0. -1.
         22    1    1    0    0    0  0.15592306327E+02 -0.14775332070E+02 -0.28561506395E+02  0.35737796546E+02  0.00000000000E+00 0. -1.
</event>
<event>
 5    1  0.1046082E-009  0.9118800E+02  0.7561462E-02  0.1125453E+00
         25   -1    0    0    0    0  0.00000000000E+00  0.00000000000E+00  0.99999998245E-14  0.12509000000E+03  0.12509000000E+03 0.  0.
        -11    1    3    3    0    0  0.10577714492E+01 -0.51647456644E+01  0.38566107331E+02  0.38924775056E+02  0.51100000000E-03 0. -1.
         23    2    1    0    0    0 -0.13449526933E+02  0.20337002525E+02 -0.12402644843E+02  0.97734762010E+02  0.93828432043E+02 0.  0.
         11    1    3    3    0    0 -0.14507298382E+02  0.25501748189E+02 -0.50968752174E+02  0.58809986954E+02  0.51100000000E-03 0.  1.
         22    1    1    0    0    0  0.13449526933E+02 -0.20337002525E+02  0.12402644843E+02  0.27355237990E+02  0.00000000000E+00 0.  1.
</event>
<event>
 5    1  0.1046082E-009  0.9118800E+02  0.7561462E-02  0.1125453E+00
         25   -1    0    0    0    0  0.00000000000E+00  0.00000000000E+00  0.99999998245E-14  0.12509000000E+03  0.12509000000E+03 0.  0.
        -11    1    3    3    0    0 -0.17700635383E+02  0.42427340439E+02 -0.36774553082E+02  0.58870701239E+02  0.51100000000E-03 0.  1.
         23    2    1    0    0    0 -0.13195221690E+02  0.61672276662E+01 -0.22890158465E+02  0.97958691018E+02  0.94126495839E+02 0.  0.
         11    1    3    3    0    0  0.45054136927E+01 -0.36260112773E+02  0.13884394617E+02  0.39087989780E+02  0.51100000000E-03 0. -1.
         22    1    1    0    0    0  0.13195221690E+02 -0.61672276662E+01  0.22890158465E+02  0.27131308982E+02  0.00000000000E+00 0.  1.
</event>
<event>
 5    1  0.1046082E-009  0.9118800E+02  0.7561462E-02  0.1125453E+00
         25   -1    0    0    0    0  0.00000000000E+00  0.00000000000E+00  0.99999998245E-14  0.12509000000E+03  0.12509000000E+03 0.  0.
        -11    1    3    3    0    0 -0.12387083788E+02 -0.25306923974E+02 -0.30852902556E+02  0.41782554280E+02  0.51100000000E-03 0. -1.
         23    2    1    0    0    0 -0.14586626634E+02 -0.16307755439E+02  0.21182735095E+02  0.94636415151E+02  0.89602624083E+02 0.  0.
         11    1    3    3    0    0 -0.21995428462E+01  0.89991685346E+01  0.52035637651E+02  0.52853860872E+02  0.51100000000E-03 0.  1.
         22    1    1    0    0    0  0.14586626634E+02  0.16307755439E+02 -0.21182735095E+02  0.30453584849E+02  0.00000000000E+00 0.  1.
</event>
<event>
 5    1  0.1046082E-009  0.9118800E+02  0.7561462E-02  0.1125453E+00
         25   -1    0    0    0    0  0.00000000000E+00  0.00000000000E+00  0.99999998245E-14  0.12509000000E+03  0.12509000000E+03 0.  0.
        -11    1    3    3    0    0  0.31838446315E+02 -0.25334648905E+02 -0.45249524776E+02  0.60852695845E+02  0.51100000000E-03 0. -1.
         23    2    1    0    0    0  0.22147550743E+02 -0.45384008689E+01 -0.21048269469E+02  0.94200831445E+02  0.88992448617E+02 0.  0.
         11    1    3    3    0    0 -0.96908955717E+01  0.20796248036E+02  0.24201255306E+02  0.33348135600E+02  0.51100000000E-03 0.  1.
         22    1    1    0    0    0 -0.22147550743E+02  0.45384008689E+01  0.21048269469E+02  0.30889168555E+02  0.00000000000E+00 0. -1.
</event>
<event>
 5    1  0.1046082E-009  0.9118800E+02  0.7561462E-02  0.1125453E+00
         25   -1    0    0    0    0  0.00000000000E+00  0.00000000000E+00  0.99999998245E-14  0.12509000000E+03  0.12509000000E+03 0.  0.
        -11    1    3    3    0    0  0.77521173147E+01 -0.13366030408E+02  0.57633895119E+02  0.59669187682E+02  0.51100000000E-03 0.  1.
         23    2    1    0    0    0  0.39713797280E+01 -0.17741683548E+02  0.18778826819E+02  0.98952220278E+02  0.95437719845E+02 0.  0.
         11    1    3    3    0    0 -0.37807375867E+01 -0.43756531408E+01 -0.38855068300E+02  0.39283032597E+02  0.51100000000E-03 0. -1.
         22    1    1    0    0    0 -0.39713797280E+01  0.17741683548E+02 -0.18778826819E+02  0.26137779722E+02  0.00000000000E+00 0.  1.
</event>
<event>
 5    1  0.1046082E-009  0.9118800E+02  0.7561462E-02  0.1125453E+00
         25   -1    0    0    0    0  0.00000000000E+00  0.00000000000E+00  0.99999998245E-14  0.12509000000E+03  0.12509000000E+03 0.  0.
        -11    1    3    3    0    0  0.28399586624E+02 -0.12202586726E+02  0.53637217412E+02  0.61906306102E+02  0.51100000000E-03 0.  1.
         23    2    1    0    0    0  0.83292593853E+01 -0.91628832594E+01  0.26905002775E+02  0.95472198497E+02  0.90761922192E+02 0.  0.
         11    1    3    3    0    0 -0.20070327239E+02  0.30397034663E+01 -0.26732214637E+02  0.33565892395E+02  0.51100000000E-03 0. -1.
         22    1    1    0    0    0 -0.83292593853E+01  0.91628832594E+01 -0.26905002775E+02  0.29617801503E+02  0.00000000000E+00 0.  1.
</event>
<event>
 5    1  0.1046082E-009  0.9118800E+02  0.7561462E-02  0.1125453E+00
         25   -1    0    0    0    0  0.00000000000E+00  0.00000000000E+00  0.99999998245E-14  0.12509000000E+03  0.12509000000E+03 0.  0.
        -11    1    3    3    0    0  0.16814975909E+02  0.70973724936E+01  0.17810632905E+02  0.25501661826E+02  0.51100000000E-03 0.  1.
         23    2    1    0    0    0 -0.40341639960E+02  0.18019304014E+01  0.42340981009E+01  0.84486767930E+02  0.74090427861E+02 0.  0.
         11    1    3    3    0    0 -0.57156615869E+02 -0.52954420923E+01 -0.13576534804E+02  0.58985106104E+02  0.51100000000E-03 0. -1.
         22    1    1    0    0    0  0.40341639960E+02 -0.18019304014E+01 -0.42340981009E+01  0.40603232070E+02  0.00000000000E+00 0. -1.
</event>
<event>
 5    1  0.1046082E-009  0.9118800E+02  0.7561462E-02  0.1125453E+00
         25   -1    0    0    0    0  0.00000000000E+00  0.00000000000E+00  0.99999998245E-14  0.12509000000E+03  0.12509000000E+03 0.  0.
        -11    1    3    3    0    0  0.53408846233E+02  0.12600013897E+01  0.15049594586E+02  0.55502997729E+02  0.51100000000E-03 0.  1.
         23    2    1    0    0    0  0.13894139154E+02  0.41023263634E+01  0.24860369317E+02  0.96316502698E+02  0.91918194852E+02 0.  0.
         11    1    3    3    0    0 -0.39514707079E+02  0.28423249737E+01  0.98107747305E+01  0.40813504969E+02  0.51100000000E-03 0. -1.
         22    1    1    0    0    0 -0.13894139154E+02 -0.41023263634E+01 -0.24860369317E+02  0.28773497302E+02  0.00000000000E+00 0.  1.
</event>
<event>
 5    1  0.1046082E-009  0.9118800E+02  0.7561462E-02  0.1125453E+00
         25   -1    0    0    0    0  0.00000000000E+00  0.00000000000E+00  0.99999998245E-14  0.12509000000E+03  0.12509000000E+03 0.  0.
        -11    1    3    3    0    0  0.70457477619E+01  0.28502160919E+02 -0.25221519115E+02  0.38705823403E+02  0.51100000000E-03 0. -1.
         23    2    1    0    0    0 -0.10612995378E+02 -0.34571924270E+01  0.23196026667E+02  0.99348137140E+02  0.95955243992E+02 0.  0.
         11    1    3    3    0    0 -0.17658743140E+02 -0.31959353346E+02  0.48417545782E+02  0.60642313737E+02  0.51100000000E-03 0.  1.
         22    1    1    0    0    0  0.10612995378E+02  0.34571924270E+01 -0.23196026667E+02  0.25741862860E+02  0.00000000000E+00 0.  1.
</event>
<event>
 4    1  0.1046082E-009  0.9118800E+02  0.7561462E-02  0.1125453E+00
         25   -1    0    0    0    0  0.00000000000E+00  0.00000000000E+00  0.99999998245E-14  0.12509000000E+03  0.12509000000E+03 0.  0.
        -11    1    1    0    0    0 -0.19646883043E+02  0.28467465240E+01  0.27763785170E+02  0.34131096471E+02  0.51100000000E-03 0.  1.
         11    1    1    0    0    0  0.32373317843E+02 -0.49419853593E+01  0.22064820205E+02  0.39488114901E+02  0.51100000000E-03 0. -1.
         22    1    1    0    0    0 -0.12726434800E+02  0.20952388353E+01 -0.49828605374E+02  0.51470788629E+02  0.00000000000E+00 0.  1.
</event>
<event>
 5    1  0.1046082E-009  0.9118800E+02  0.7561462E-02  0.1125453E+00
         25   -1    0    0    0    0  0.00000000000E+00  0.00000000000E+00  0.99999998245E-14  0.12509000000E+03  0.12509000000E+03 0.  0.
        -11    1    3    3    0    0  0.25709553237E+02 -0.46722526509E+02 -0.13817533553E+02  0.55089925075E+02  0.51100000000E-03 0.  1.
         23    2    1    0    0    0  0.28399968770E+02 -0.76605105235E+01 -0.45645761381E+01  0.95322954413E+02  0.90555997235E+02 0.  0.
         11    1    3    3    0    0  0.26904155333E+01  0.39062015985E+02  0.92529574152E+01  0.40233029339E+02  0.51100000000E-03 0. -1.
         22    1    1    0    0    0 -0.28399968770E+02  0.76605105235E+01  0.45645761381E+01  0.29767045587E+02  0.00000000000E+00 0.  1.
</event>
<event>
 5    1  0.1046082E-009  0.9118800E+02  0.7561462E-02  0.1125453E+00
         25   -1    0    0    0    0  0.00000000000E+00  0.00000000000E+00  0.99999998245E-14  0.12509000000E+03  0.12509000000E+03 0.  0.
        -11    1    3    3    0    0  0.56605528483E+00  0.15738488274E+02 -0.32256319067E+02  0.35895550584E+02  0.51100000000E-03 0.  1.
         23    2    1    0    0    0 -0.26546215356E+02 -0.19342117641E+02  0.23815648856E+01  0.92158390324E+02  0.86073677691E+02 0.  0.
         11    1    3    3    0    0 -0.27112270640E+02 -0.35080605914E+02  0.34637883953E+02  0.56262839740E+02  0.51100000000E-03 0. -1.
         22    1    1    0    0    0  0.26546215356E+02  0.19342117641E+02 -0.23815648856E+01  0.32931609676E+02  0.00000000000E+00 0. -1.
</event>
<event>
 5    1  0.1046082E-009  0.9118800E+02  0.7561462E-02  0.1125453E+00
         25   -1    0    0    0    0  0.00000000000E+00  0.00000000000E+00  0.99999998245E-14  0.12509000000E+03  0.12509000000E+03 0.  0.
        -11    1    3    3    0    0  0.39695309194E+02  0.34815698497E+02  0.12852198331E+02  0.54341783519E+02  0.51100000000E-03 0. -1.
         23    2    1    0    0    0  0.17896412700E+02  0.27846574021E+01  0.24336966403E+02  0.94753160381E+02  0.89765458636E+02 0.  0.
         11    1    3    3    0    0 -0.21798896494E+02 -0.32031041095E+02  0.11484768071E+02  0.40411376862E+02  0.51100000000E-03 0.  1.
         22    1    1    0    0    0 -0.17896412700E+02 -0.27846574021E+01 -0.24336966403E+02  0.30336839619E+02  0.00000000000E+00 0. -1.
</event>
<event>
 5    1  0.1046082E-009  0.9118800E+02  0.7561462E-02  0.1125453E+00
         25   -1    0    0    0    0  0.00000000000E+00  0.00000000000E+00  0.99999998245E-14  0.12509000000E+03  0.12509000000E+03 0.  0.
        -11    1    3    3    0    0 -0.79525379989E+01 -0.27870194632E+02 -0.25359881258E+02  0.38511221574E+02  0.51100000000E-03 0. -1.
         23    2    1    0    0    0 -0.25515843683E+02  0.16574167490E+02  0.36962012191E+01  0.94439988413E+02  0.89327981065E+02 0.  0.
         11    1    3    3    0    0 -0.17563305684E+02  0.44444362121E+02  0.29056082477E+02  0.55928766839E+02  0.51100000000E-03 0.  1.
         22    1    1    0    0    0  0.25515843683E+02 -0.16574167490E+02 -0.36962012191E+01  0.30650011587E+02  0.00000000000E+00 0. -1.
</event>
<event>
 5    1  0.1046082E-009  0.9118800E+02  0.7561462E-02  0.1125453E+00
         25   -1    0    0    0    0  0.00000000000E+00  0.00000000000E+00  0.99999998245E-14  0.12509000000E+03  0.12509000000E+03 0.  0.
        -11    1    3    3    0    0 -0.31438792775E+02  0.16136960224E+02 -0.11704998616E+02  0.37226417626E+02  0.51100000000E-03 0. -1.
         23    2    1    0    0    0  0.26477347624E+02  0.24180491692E+01 -0.97300418403E+01  0.96777977586E+02  0.92544077782E+02 0.  0.
         11    1    3    3    0    0  0.57916140398E+02 -0.13718911054E+02  0.19749567757E+01  0.59551559960E+02  0.51100000000E-03 0.  1.
         22    1    1    0    0    0 -0.26477347624E+02 -0.24180491692E+01  0.97300418403E+01  0.28312022414E+02  0.00000000000E+00 0.  1.
</event>
<event>
 5    1  0.1046082E-009  0.9118800E+02  0.7561462E-02  0.1125453E+00
         25   -1    0    0    0    0  0.00000000000E+00  0.00000000000E+00  0.99999998245E-14  0.12509000000E+03  0.12509000000E+03 0.  0.
        -11    1    3    3    0    0  0.39385247229E+02 -0.37054695613E+02  0.19632937530E+02  0.57529995677E+02  0.51100000000E-03 0.  1.
         23    2    1    0    0    0  0.49180411136E+01 -0.23967809646E+02  0.18500956382E+02  0.94415443529E+02  0.89293603143E+02 0.  0.
         11    1    3    3    0    0 -0.34467206115E+02  0.13086885968E+02 -0.11319811474E+01  0.36885447853E+02  0.51100000000E-03 0. -1.
         22    1    1    0    0    0 -0.49180411136E+01  0.23967809646E+02 -0.18500956382E+02  0.30674556471E+02  0.00000000000E+00 0.  1.
</event>
<event>
 5    1  0.1046082E-009  0.9118800E+02  0.7561462E-02  0.1125453E+00
         25   -1    0    0    0    0  0.00000000000E+00  0.00000000000E+00  0.99999998245E-14  0.12509000000E+03  0.12509000000E+03 0.  0.
        -11    1    3    3    0    0  0.55499112816E+02 -0.25095130729E+02 -0.12522231835E+02  0.62182983204E+02  0.51100000000E-03 0. -1.
         23    2    1    0    0    0  0.26663241487E+02 -0.68647131505E+01 -0.55894298249E+01  0.96995615169E+02  0.92837788120E+02 0.  0.
         11    1    3    3    0    0 -0.28835871329E+02  0.18230417579E+02  0.69328020103E+01  0.34812631966E+02  0.51100000000E-03 0.  1.
         22    1    1    0    0    0 -0.26663241487E+02  0.68647131505E+01  0.55894298249E+01  0.28094384831E+02  0.00000000000E+00 0. -1.
</event>
<event>
 5    1  0.1046082E-009  0.9118800E+02  0.7561462E-02  0.1125453E+00
         25   -1    0    0    0    0  0.00000000000E+00  0.00000000000E+00  0.99999998245E-14  0.12509000000E+03  0.12509000000E+03 0.  0.
        -11    1    3    3    0    0  0.26459317556E+01 -0.16358802928E+02 -0.45407571125E+02  0.48336931055E+02  0.51100000000E-03 0. -1.
         23    2    1    0    0    0 -0.25878256185E+02  0.38277635209E+01 -0.25518187896E+02  0.88545317347E+02  0.80652088589E+02 0.  0.
         11    1    3    3    0    0 -0.28524187941E+02  0.20186566449E+02  0.19889383229E+02  0.40208386292E+02  0.51100000000E-03 0.  1.
         22    1    1    0    0    0  0.25878256185E+02 -0.38277635209E+01  0.25518187896E+02  0.36544682653E+02  0.00000000000E+00 0.  1.
</event>
<event>
 5    1  0.1046082E-009  0.9118800E+02  0.7561462E-02  0.1125453E+00
         25   -1    0    0    0    0  0.00000000000E+00  0.00000000000E+00  0.99999998245E-14  0.12509000000E+03  0.12509000000E+03 0.  0.
        -11    1    3    3    0    0 -0.62141309595E+01 -0.23532968227E+02 -0.44093245475E+02  0.50364971100E+02  0.51100000000E-03 0. -1.
         23    2    1    0    0    0  0.21467297989E+02 -0.19647184297E+02 -0.10301729319E+02  0.94219587616E+02  0.89018808854E+02 0.  0.
         11    1    3    3    0    0  0.27681428949E+02  0.38857839298E+01  0.33791516156E+02  0.43854616516E+02  0.51100000000E-03 0.  1.
         22    1    1    0    0    0 -0.21467297989E+02  0.19647184297E+02  0.10301729319E+02  0.30870412384E+02  0.00000000000E+00 0. -1.
</event>
<event>
 5    1  0.1046082E-009  0.9118800E+02  0.7561462E-02  0.1125453E+00
         25   -1    0    0    0    0  0.00000000000E+00  0.00000000000E+00  0.99999998245E-14  0.12509000000E+03  0.12509000000E+03 0.  0.
        -11    1    3    3    0    0 -0.31396533209E+02  0.40212041328E+02 -0.16345940925E+01  0.51043339070E+02  0.51100000000E-03 0.  1.
         23    2    1    0    0    0 -0.15952150354E+02  0.27407245641E+01 -0.23082634361E+02  0.96897967773E+02  0.92706124271E+02 0.  0.
         11    1    3    3    0    0  0.15444382855E+02 -0.37471316764E+02 -0.21448040269E+02  0.45854628703E+02  0.51100000000E-03 0. -1.
         22    1    1    0    0    0  0.15952150354E+02 -0.27407245641E+01  0.23082634361E+02  0.28192032227E+02  0.00000000000E+00 0.  1.
</event>
<event>
 5    1  0.1046082E-009  0.9118800E+02  0.7561462E-02  0.1125453E+00
         25   -1    0    0    0    0  0.00000000000E+00  0.00000000000E+00  0.99999998245E-14  0.12509000000E+03  0.12509000000E+03 0.  0.
        -11    1    3    3    0    0 -0.26338731708E+02  0.26621659107E+02  0.28776633877E+02  0.47228552584E+02  0.51100000000E-03 0.  1.
         23    2    1    0    0    0  0.50953816893E+01 -0.94242215750E+01  0.28052958004E+02  0.95060892128E+02  0.90193269663E+02 0.  0.
         11    1    3    3    0    0  0.31434113397E+02 -0.36045880682E+02 -0.72367587304E+00  0.47832339544E+02  0.51100000000E-03 0. -1.
         22    1    1    0    0    0 -0.50953816893E+01  0.94242215750E+01 -0.28052958004E+02  0.30029107872E+02  0.00000000000E+00 0.  1.
</event>
<event>
 5    1  0.1046082E-009  0.9118800E+02  0.7561462E-02  0.1125453E+00
         25   -1    0    0    0    0  0.00000000000E+00  0.00000000000E+00  0.99999998245E-14  0.12509000000E+03  0.12509000000E+03 0.  0.
        -11    1    3    3    0    0 -0.29181690330E+02 -0.11822781512E+02 -0.26329354952E+02  0.41043685820E+02  0.51100000000E-03 0.  1.
         23    2    1    0    0    0  0.47291549845E+01  0.27476600702E+02 -0.10257207368E+02  0.95382445473E+02  0.90638138266E+02 0.  0.
         11    1    3    3    0    0  0.33910845315E+02  0.39299382214E+02  0.16072147585E+02  0.54338759653E+02  0.51100000000E-03 0. -1.
         22    1    1    0    0    0 -0.47291549845E+01 -0.27476600702E+02  0.10257207368E+02  0.29707554527E+02  0.00000000000E+00 0. -1.
</event>
<event>
 5    1  0.1046082E-009  0.9118800E+02  0.7561462E-02  0.1125453E+00
         25   -1    0    0    0    0  0.00000000000E+00  0.00000000000E+00  0.99999998245E-14  0.12509000000E+03  0.12509000000E+03 0.  0.
        -11    1    3    3    0    0 -0.16084090187E+01 -0.39520956516E+02 -0.15829620310E+01  0.39585335069E+02  0.51100000000E-03 0. -1.
         23    2    1    0    0    0  0.12639786618E+01  0.15519694684E+02 -0.21807143359E+02  0.98294290145E+02  0.94571440766E+02 0.  0.
         11    1    3    3    0    0  0.28723876805E+01  0.55040651199E+02 -0.20224181329E+02  0.58708955076E+02  0.51100000000E-03 0.  1.
         22    1    1    0    0    0 -0.12639786618E+01 -0.15519694684E+02  0.21807143359E+02  0.26795709855E+02  0.00000000000E+00 0.  1.
</event>
<event>
 5    1  0.1046082E-009  0.9118800E+02  0.7561462E-02  0.1125453E+00
         25   -1    0    0    0    0  0.00000000000E+00  0.00000000000E+00  0.99999998245E-14  0.12509000000E+03  0.12509000000E+03 0.  0.
        -11    1    3    3    0    0  0.13047329441E+02  0.16919934342E+02  0.25356287636E+02  0.33158080563E+02  0.51100000000E-03 0.  1.
         23    2    1    0    0    0 -0.66349402256E+01 -0.13619396762E+02 -0.25362432470E+02  0.95547431040E+02  0.90865550114E+02 0.  0.
         11    1    3    3    0    0 -0.19682269667E+02 -0.30539331103E+02 -0.50718720106E+02  0.62389350477E+02  0.51100000000E-03 0. -1.
         22    1    1    0    0    0  0.66349402256E+01  0.13619396762E+02  0.25362432470E+02  0.29542568960E+02  0.00000000000E+00 0. -1.
</event>
<event>
 5    1  0.1046082E-009  0.9118800E+02  0.7561462E-02  0.1125453E+00
         25   -1    0    0    0    0  0.00000000000E+00  0.00000000000E+00  0.99999998245E-14  0.12509000000E+03  0.12509000000E+03 0.  0.
        -11    1    3    3    0    0  0.46437516048E+02  0.14665343699E+02 -0.15433828615E+01  0.48722656264E+02  0.51100000000E-03 0.  1.
         23    2    1    0    0    0  0.17378897086E+02 -0.22266566081E+02  0.57111025453E+01  0.96272596903E+02  0.91858424726E+02 0.  0.
         11    1    3    3    0    0 -0.29058618961E+02 -0.36931909781E+02  0.72544854069E+01  0.47549940639E+02  0.51100000000E-03 0. -1.
         22    1    1    0    0    0 -0.17378897086E+02  0.22266566081E+02 -0.57111025453E+01  0.28817403097E+02  0.00000000000E+00 0. -1.
</event>
<event>
 5    1  0.1046082E-009  0.9118800E+02  0.7561462E-02  0.1125453E+00
         25   -1    0    0    0    0  0.00000000000E+00  0.00000000000E+00  0.99999998245E-14  0.12509000000E+03  0.12509000000E+03 0.  0.
        -11    1    3    3    0    0 -0.42970508514E+02  0.39122231530E+02  0.76299549416E+01  0.58610833594E+02  0.51100000000E-03 0. -1.
         23    2    1    0    0    0 -0.27313674219E+02  0.40599984973E+01  0.41283437995E+01  0.97169333645E+02  0.93071562743E+02 0.  0.
         11    1    3    3    0    0  0.15656834295E+02 -0.35062233033E+02 -0.35016111421E+01  0.38558500052E+02  0.51100000000E-03 0.  1.
         22    1    1    0    0    0  0.27313674219E+02 -0.40599984973E+01 -0.41283437995E+01  0.27920666355E+02  0.00000000000E+00 0. -1.
</event>
<event>
 5    1  0.1046082E-009  0.9118800E+02  0.7561462E-02  0.1125453E+00
         25   -1    0    0    0    0  0.00000000000E+00  0.00000000000E+00  0.99999998245E-14  0.12509000000E+03  0.12509000000E+03 0.  0.
        -11    1    3    3    0    0  0.25123060691E+02 -0.51279342964E+02  0.25476165833E+02  0.62528187396E+02  0.51100000000E-03 0.  1.
         23    2    1    0    0    0  0.11187749886E+02 -0.24829334457E+02  0.11565331721E+02  0.95502528075E+02  0.90803713437E+02 0.  0.
         11    1    3    3    0    0 -0.13935310805E+02  0.26450008507E+02 -0.13910834112E+02  0.32974340679E+02  0.51100000000E-03 0. -1.
         22    1    1    0    0    0 -0.11187749886E+02  0.24829334457E+02 -0.11565331721E+02  0.29587471925E+02  0.00000000000E+00 0.  1.
</event>
<event>
 5    1  0.1046082E-009  0.9118800E+02  0.7561462E-02  0.1125453E+00
         25   -1    0    0    0    0  0.00000000000E+00  0.00000000000E+00  0.99999998245E-14  0.12509000000E+03  0.12509000000E+03 0.  0.
        -11    1    3    3    0    0 -0.19806173200E+02 -0.31680509791E+02  0.26678902330E+02  0.45909726934E+02  0.51100000000E-03 0.  1.
         23    2    1    0    0    0  0.23713872099E+02 -0.14205456482E+02  0.10512862563E+02  0.95515297921E+02  0.90821303304E+02 0.  0.
         11    1    3    3    0    0  0.43520045299E+02  0.17475053308E+02 -0.16166039766E+02  0.49605570987E+02  0.51100000000E-03 0. -1.
         22    1    1    0    0    0 -0.23713872099E+02  0.14205456482E+02 -0.10512862563E+02  0.29574702079E+02  0.00000000000E+00 0. -1.
</event>
<event>
 5    1  0.1046082E-009  0.9118800E+02  0.7561462E-02  0.1125453E+00
         25   -1    0    0    0    0  0.00000000000E+00  0.00000000000E+00  0.99999998245E-14  0.12509000000E+03  0.12509000000E+03 0.  0.
        -11    1    3    3    0    0 -0.30785661634E+02  0.63446133626E+01 -0.68364243640E+01  0.32167495695E+02  0.51100000000E-03 0. -1.
         23    2    1    0    0    0  0.27845347361E+02 -0.92089344566E+01  0.81495120231E+01  0.94650184138E+02  0.89621844255E+02 0.  0.
         11    1    3    3    0    0  0.58631008994E+02 -0.15553547819E+02  0.14985936387E+02  0.62482688443E+02  0.51100000000E-03 0.  1.
         22    1    1    0    0    0 -0.27845347361E+02  0.92089344566E+01 -0.81495120231E+01  0.30439815862E+02  0.00000000000E+00 0.  1.
</event>
<event>
 5    1  0.1046082E-009  0.9118800E+02  0.7561462E-02  0.1125453E+00
         25   -1    0    0    0    0  0.00000000000E+00  0.00000000000E+00  0.99999998245E-14  0.12509000000E+03  0.12509000000E+03 0.  0.
        -11    1    3    3    0    0 -0.11587576024E+02 -0.30332697053E+02  0.17725859520E+02  0.36993925509E+02  0.51100000000E-03 0. -1.
         23    2    1    0    0    0 -0.80909847961E+01  0.26432984128E+02 -0.24457386245E+01  0.97338453696E+02  0.93298586514E+02 0.  0.
         11    1    3    3    0    0  0.34965912282E+01  0.56765681180E+02 -0.20171598144E+02  0.60344528186E+02  0.51100000000E-03 0.  1.
         22    1    1    0    0    0  0.80909847961E+01 -0.26432984128E+02  0.24457386245E+01  0.27751546304E+02  0.00000000000E+00 0.  1.
</event>
<event>
 5    1  0.1046082E-009  0.9118800E+02  0.7561462E-02  0.1125453E+00
         25   -1    0    0    0    0  0.00000000000E+00  0.00000000000E+00  0.99999998245E-14  0.12509000000E+03  0.12509000000E+03 0.  0.
        -11    1    3    3    0    0  0.22257257589E+02  0.37604996152E+02  0.39551812870E+02  0.58939521143E+02  0.51100000000E-03 0. -1.
         23    2    1    0    0    0  0.19943101958E+02  0.22171506358E+02  0.78834394688E+01  0.94244390462E+02  0.89053655207E+02 0.  0.
         11    1    3    3    0    0 -0.23141556306E+01 -0.15433489794E+02 -0.31668373401E+02  0.35304869319E+02  0.51100000000E-03 0.  1.
         22    1    1    0    0    0 -0.19943101958E+02 -0.22171506358E+02 -0.78834394688E+01  0.30845609538E+02  0.00000000000E+00 0. -1.
</event>
<event>
 5    1  0.1046082E-009  0.9118800E+02  0.7561462E-02  0.1125453E+00
         25   -1    0    0    0    0  0.00000000000E+00  0.00000000000E+00  0.99999998245E-14  0.12509000000E+03  0.12509000000E+03 0.  0.
        -11    1    3    3    0    0  0.49016716322E+02  0.14069262760E+01 -0.37171174981E+02  0.61533033163E+02  0.51100000000E-03 0. -1.
         23    2    1    0    0    0  0.13027979425E+02  0.13490933238E+01 -0.19431486884E+02  0.10165645603E+03  0.98918674013E+02 0.  0.
         11    1    3    3    0    0 -0.35988736897E+02 -0.57832952208E-01  0.17739688097E+02  0.40123422862E+02  0.51100000000E-03 0.  1.
         22    1    1    0    0    0 -0.13027979425E+02 -0.13490933238E+01  0.19431486884E+02  0.23433543975E+02  0.00000000000E+00 0. -1.
</event>
<event>
 5    1  0.1046082E-009  0.9118800E+02  0.7561462E-02  0.1125453E+00
         25   -1    0    0    0    0  0.00000000000E+00  0.00000000000E+00  0.99999998245E-14  0.12509000000E+03  0.12509000000E+03 0.  0.
        -11    1    3    3    0    0 -0.25280801594E+02  0.25438143405E+02  0.31072913674E+02  0.47452545069E+02  0.51100000000E-03 0. -1.
         23    2    1    0    0    0 -0.27046623068E+02  0.40219951814E+01 -0.11721767435E+02  0.95339435360E+02  0.90578760415E+02 0.  0.
         11    1    3    3    0    0 -0.17658214736E+01 -0.21416148224E+02 -0.42794681109E+02  0.47886890290E+02  0.51100000000E-03 0.  1.
         22    1    1    0    0    0  0.27046623068E+02 -0.40219951814E+01  0.11721767435E+02  0.29750564640E+02  0.00000000000E+00 0. -1.
</event>
<event>
 5    1  0.1046082E-009  0.9118800E+02  0.7561462E-02  0.1125453E+00
         25   -1    0    0    0    0  0.00000000000E+00  0.00000000000E+00  0.99999998245E-14  0.12509000000E+03  0.12509000000E+03 0.  0.
        -11    1    3    3    0    0 -0.14682526684E+02  0.15310688217E+02 -0.27521961584E+02  0.34748411952E+02  0.51100000000E-03 0. -1.
         23    2    1    0    0    0  0.52810933729E+01  0.87762940206E+01  0.28620489976E+02  0.94691879492E+02  0.89680021807E+02 0.  0.
         11    1    3    3    0    0  0.19963620057E+02 -0.65343941968E+01  0.56142451560E+02  0.59943467540E+02  0.51100000000E-03 0.  1.
         22    1    1    0    0    0 -0.52810933729E+01 -0.87762940206E+01 -0.28620489976E+02  0.30398120508E+02  0.00000000000E+00 0.  1.
</event>
<event>
 5    1  0.1046082E-009  0.9118800E+02  0.7561462E-02  0.1125453E+00
         25   -1    0    0    0    0  0.00000000000E+00  0.00000000000E+00  0.99999998245E-14  0.12509000000E+03  0.12509000000E+03 0.  0.
        -11    1    3    3    0    0 -0.15741621210E+02 -0.28266779759E+02  0.33648374113E+02  0.46680001682E+02  0.51100000000E-03 0.  1.
         23    2    1    0    0    0 -0.23112831897E+02 -0.15413063382E+02 -0.12115156819E+02  0.94782533167E+02  0.89806380886E+02 0.  0.
         11    1    3    3    0    0 -0.73712106871E+01  0.12853716378E+02 -0.45763530932E+02  0.48102531486E+02  0.51100000000E-03 0. -1.
         22    1    1    0    0    0  0.23112831897E+02  0.15413063382E+02  0.12115156819E+02  0.30307466833E+02  0.00000000000E+00 0.  1.
</event>
<event>
 5    1  0.1046082E-009  0.9118800E+02  0.7561462E-02  0.1125453E+00
         25   -1    0    0    0    0  0.00000000000E+00  0.00000000000E+00  0.99999998245E-14  0.12509000000E+03  0.12509000000E+03 0.  0.
        -11    1    3    3    0    0  0.10801351662E+02 -0.23556219028E+02 -0.31534359167E+02  0.40816423912E+02  0.51100000000E-03 0.  1.
         23    2    1    0    0    0  0.22676979872E+02 -0.65198693638E+01  0.18576070423E+02  0.95059606979E+02  0.90191487259E+02 0.  0.
         11    1    3    3    0    0  0.11875628210E+02  0.17036349665E+02  0.50110429590E+02  0.54243183067E+02  0.51100000000E-03 0. -1.
         22    1    1    0    0    0 -0.22676979872E+02  0.65198693638E+01 -0.18576070423E+02  0.30030393021E+02  0.00000000000E+00 0. -1.
</event>
<event>
 5    1  0.1046082E-009  0.9118800E+02  0.7561462E-02  0.1125453E+00
         25   -1    0    0    0    0  0.00000000000E+00  0.00000000000E+00  0.99999998245E-14  0.12509000000E+03  0.12509000000E+03 0.  0.
        -11    1    3    3    0    0  0.25562218836E+02 -0.25920422930E+01  0.37046173624E+02  0.45083973821E+02  0.51100000000E-03 0. -1.
         23    2    1    0    0    0 -0.67707785035E+01 -0.26808387508E+02  0.42541395804E+01  0.97114460937E+02  0.92997783507E+02 0.  0.
         11    1    3    3    0    0 -0.32332997340E+02 -0.24216345215E+02 -0.32792034043E+02  0.52030487116E+02  0.51100000000E-03 0.  1.
         22    1    1    0    0    0  0.67707785035E+01  0.26808387508E+02 -0.42541395804E+01  0.27975539063E+02  0.00000000000E+00 0.  1.
</event>
<event>
 5    1  0.1046082E-009  0.9118800E+02  0.7561462E-02  0.1125453E+00
         25   -1    0    0    0    0  0.00000000000E+00  0.00000000000E+00  0.99999998245E-14  0.12509000000E+03  0.12509000000E+03 0.  0.
        -11    1    3    3    0    0  0.67812728182E+01  0.18305312211E+02  0.26072134934E+02  0.32570329081E+02  0.51100000000E-03 0.  1.
         23    2    1    0    0    0 -0.89987460255E+01 -0.72210091818E+01 -0.28218880586E+02  0.94603517337E+02  0.89556685218E+02 0.  0.
         11    1    3    3    0    0 -0.15780018844E+02 -0.25526321393E+02 -0.54291015521E+02  0.62033188255E+02  0.51100000000E-03 0. -1.
         22    1    1    0    0    0  0.89987460255E+01  0.72210091818E+01  0.28218880586E+02  0.30486482663E+02  0.00000000000E+00 0. -1.
</event>
<event>
 5    1  0.1046082E-009  0.9118800E+02  0.7561462E-02  0.1125453E+00
         25   -1    0    0    0    0  0.00000000000E+00  0.00000000000E+00  0.99999998245E-14  0.12509000000E+03  0.12509000000E+03 0.  0.
        -11    1    3    3    0    0 -0.21959749928E+02  0.48279746350E+02  0.25987096701E+02  0.59063471959E+02  0.51100000000E-03 0. -1.
         23    2    1    0    0    0 -0.51920465686E+01  0.15713490324E+02  0.24246405303E+02  0.95734262983E+02  0.91122389197E+02 0.  0.
         11    1    3    3    0    0  0.16767703360E+02 -0.32566256026E+02 -0.17406913990E+01  0.36670791024E+02  0.51100000000E-03 0.  1.
         22    1    1    0    0    0  0.51920465686E+01 -0.15713490324E+02 -0.24246405303E+02  0.29355737017E+02  0.00000000000E+00 0. -1.
</event>
<event>
 5    1  0.1046082E-009  0.9118800E+02  0.7561462E-02  0.1125453E+00
         25   -1    0    0    0    0  0.00000000000E+00  0.00000000000E+00  0.99999998245E-14  0.12509000000E+03  0.12509000000E+03 0.  0.
        -11    1    3    3    0    0  0.63513934047E+00 -0.30943037192E+02  0.34153569045E+02  0.46090576384E+02  0.51100000000E-03 0.  1.
         23    2    1    0    0    0 -0.26736005802E+02 -0.13416470628E+02 -0.24921357330E+01  0.95072897693E+02  0.90209918772E+02 0.  0.
         11    1    3    3    0    0 -0.27371145143E+02  0.17526566564E+02 -0.36645704778E+02  0.48982321309E+02  0.51100000000E-03 0. -1.
         22    1    1    0    0    0  0.26736005802E+02  0.13416470628E+02  0.24921357330E+01  0.30017102307E+02  0.00000000000E+00 0. -1.
</event>
<event>
 5    1  0.1046082E-009  0.9118800E+02  0.7561462E-02  0.1125453E+00
         25   -1    0    0    0    0  0.00000000000E+00  0.00000000000E+00  0.99999998245E-14  0.12509000000E+03  0.12509000000E+03 0.  0.
        -11    1    3    3    0    0 -0.21499901972E+02 -0.15354622829E+02  0.25158991564E+02  0.36482668266E+02  0.51100000000E-03 0.  1.
         23    2    1    0    0    0  0.28419835107E+02  0.80300698616E+01  0.52421398726E+01  0.95095849238E+02  0.90241739026E+02 0.  0.
         11    1    3    3    0    0  0.49919737078E+02  0.23384692691E+02 -0.19916851691E+02  0.58613180973E+02  0.51100000000E-03 0. -1.
         22    1    1    0    0    0 -0.28419835107E+02 -0.80300698616E+01 -0.52421398726E+01  0.29994150762E+02  0.00000000000E+00 0. -1.
</event>
<event>
 5    1  0.1046082E-009  0.9118800E+02  0.7561462E-02  0.1125453E+00
         25   -1    0    0    0    0  0.00000000000E+00  0.00000000000E+00  0.99999998245E-14  0.12509000000E+03  0.12509000000E+03 0.  0.
        -11    1    3    3    0    0  0.12738212684E+02  0.61068637450E+01  0.41172514215E+02  0.43528516793E+02  0.51100000000E-03 0.  1.
         23    2    1    0    0    0 -0.27619906395E+02  0.57074393356E+01  0.79940182861E+01  0.95775525395E+02  0.91179015367E+02 0.  0.
         11    1    3    3    0    0 -0.40358119079E+02 -0.39942440933E+00 -0.33178495929E+02  0.52247008601E+02  0.51100000000E-03 0. -1.
         22    1    1    0    0    0  0.27619906395E+02 -0.57074393356E+01 -0.79940182861E+01  0.29314474605E+02  0.00000000000E+00 0. -1.
</event>
<event>
 5    1  0.1046082E-009  0.9118800E+02  0.7561462E-02  0.1125453E+00
         25   -1    0    0    0    0  0.00000000000E+00  0.00000000000E+00  0.99999998245E-14  0.12509000000E+03  0.12509000000E+03 0.  0.
        -11    1    3    3    0    0 -0.51503128044E+02  0.72022441879E+01 -0.29893358946E+02  0.59983809724E+02  0.51100000000E-03 0. -1.
         23    2    1    0    0    0 -0.19273710181E+02  0.13841331045E+02 -0.19144915858E+02  0.94600884689E+02  0.89553007942E+02 0.  0.
         11    1    3    3    0    0  0.32229417863E+02  0.66390868570E+01  0.10748443088E+02  0.34617074965E+02  0.51100000000E-03 0.  1.
         22    1    1    0    0    0  0.19273710181E+02 -0.13841331045E+02  0.19144915858E+02  0.30489115311E+02  0.00000000000E+00 0. -1.
</event>
<event>
 5    1  0.1046082E-009  0.9118800E+02  0.7561462E-02  0.1125453E+00
         25   -1    0    0    0    0  0.00000000000E+00  0.00000000000E+00  0.99999998245E-14  0.12509000000E+03  0.12509000000E+03 0.  0.
        -11    1    3    3    0    0 -0.40161232449E+02  0.35114437879E+02  0.24009886320E+02  0.58501478449E+02  0.51100000000E-03 0. -1.
         23    2    1    0    0    0 -0.83327601291E+01  0.19604399119E+02  0.22740709697E+02  0.93930615640E+02  0.88611812535E+02 0.  0.
         11    1    3    3    0    0  0.31828472320E+02 -0.15510038760E+02 -0.12691766228E+01  0.35429137191E+02  0.51100000000E-03 0.  1.
         22    1    1    0    0    0  0.83327601291E+01 -0.19604399119E+02 -0.22740709697E+02  0.31159384360E+02  0.00000000000E+00 0. -1.
</event>
<event>
 5    1  0.1046082E-009  0.9118800E+02  0.7561462E-02  0.1125453E+00
         25   -1    0    0    0    0  0.00000000000E+00  0.00000000000E+00  0.99999998245E-14  0.12509000000E+03  0.12509000000E+03 0.  0.
        -11    1    3    3    0    0 -0.14757045328E+02  0.50274414801E+02  0.24500777217E+02  0.57840947908E+02  0.51100000000E-03 0.  1.
         23    2    1    0    0    0 -0.17946528001E+02  0.12923888962E+02  0.19396895215E+02  0.95673264675E+02  0.91038614096E+02 0.  0.
         11    1    3    3    0    0 -0.31894826729E+01 -0.37350525840E+02 -0.51038820021E+01  0.37832316767E+02  0.51100000000E-03 0. -1.
         22    1    1    0    0    0  0.17946528001E+02 -0.12923888962E+02 -0.19396895215E+02  0.29416735325E+02  0.00000000000E+00 0.  1.
</event>
<event>
 5    1  0.1046082E-009  0.9118800E+02  0.7561462E-02  0.1125453E+00
         25   -1    0    0    0    0  0.00000000000E+00  0.00000000000E+00  0.99999998245E-14  0.12509000000E+03  0.12509000000E+03 0.  0.
        -11    1    3    3    0    0  0.23350370366E+02 -0.28250109972E+02  0.15010349133E+01  0.36681897657E+02  0.51100000000E-03 0.  1.
         23    2    1    0    0    0 -0.19717341165E+02  0.73937842792E+01  0.20475248351E+02  0.95718629865E+02  0.91100926008E+02 0.  0.
         11    1    3    3    0    0 -0.43067711531E+02  0.35643894252E+02  0.18974213438E+02  0.59036732208E+02  0.51100000000E-03 0. -1.
         22    1    1    0    0    0  0.19717341165E+02 -0.73937842792E+01 -0.20475248351E+02  0.29371370135E+02  0.00000000000E+00 0. -1.
</event>
<event>
 5    1  0.1046082E-009  0.9118800E+02  0.7561462E-02  0.1125453E+00
         25   -1    0    0    0    0  0.00000000000E+00  0.00000000000E+00  0.99999998245E-14  0.12509000000E+03  0.12509000000E+03 0.  0.
        -11    1    3    3    0    0 -0.19094799948E+02 -0.46967551520E+02  0.21276858648E+02  0.54984243153E+02  0.51100000000E-03 0.  1.
         23    2    1    0    0    0 -0.28973558215E+02 -0.13614709672E+02  0.10001721316E+02  0.91551040201E+02  0.85186449260E+02 0.  0.
         11    1    3    3    0    0 -0.98787582672E+01  0.33352841849E+02 -0.11275137332E+02  0.36566797049E+02  0.51100000000E-03 0. -1.
         22    1    1    0    0    0  0.28973558215E+02  0.13614709672E+02 -0.10001721316E+02  0.33538959799E+02  0.00000000000E+00 0.  1.
</event>
<event>
 5    1  0.1046082E-009  0.9118800E+02  0.7561462E-02  0.1125453E+00
         25   -1    0    0    0    0  0.00000000000E+00  0.00000000000E+00  0.99999998245E-14  0.12509000000E+03  0.12509000000E+03 0.  0.
        -11    1    3    3    0    0  0.47166619059E+02  0.13450344451E+01 -0.27500984522E+02  0.54615045739E+02  0.51100000000E-03 0. -1.
         23    2    1    0    0    0  0.16933279027E+02  0.22030529983E+02 -0.77006959661E+01  0.96256323365E+02  0.91836261244E+02 0.  0.
         11    1    3    3    0    0 -0.30233340032E+02  0.20685495538E+02  0.19800288556E+02  0.41641277626E+02  0.51100000000E-03 0.  1.
         22    1    1    0    0    0 -0.16933279027E+02 -0.22030529983E+02  0.77006959661E+01  0.28833676635E+02  0.00000000000E+00 0.  1.
</event>
<event>
 5    1  0.1046082E-009  0.9118800E+02  0.7561462E-02  0.1125453E+00
         25   -1    0    0    0    0  0.00000000000E+00  0.00000000000E+00  0.99999998245E-14  0.12509000000E+03  0.12509000000E+03 0.  0.
        -11    1    3    3    0    0  0.22693621000E+02 -0.25777356400E+02  0.17903419486E+02  0.38729897580E+02  0.51100000000E-03 0.  1.
         23    2    1    0    0    0  0.13833950606E+02  0.19777323078E+02 -0.15938421904E+02  0.96166756919E+02  0.91714181815E+02 0.  0.
         11    1    3    3    0    0 -0.88596703932E+01  0.45554679478E+02 -0.33841841390E+02  0.57436859339E+02  0.51100000000E-03 0. -1.
         22    1    1    0    0    0 -0.13833950606E+02 -0.19777323078E+02  0.15938421904E+02  0.28923243081E+02  0.00000000000E+00 0. -1.
</event>
<event>
 5    1  0.1046082E-009  0.9118800E+02  0.7561462E-02  0.1125453E+00
         25   -1    0    0    0    0  0.00000000000E+00  0.00000000000E+00  0.99999998245E-14  0.12509000000E+03  0.12509000000E+03 0.  0.
        -11    1    3    3    0    0 -0.26659586181E+02  0.10937746127E+02 -0.53480344953E+02  0.60749610058E+02  0.51100000000E-03 0. -1.
         23    2    1    0    0    0 -0.18558297096E+02 -0.20712243123E+01 -0.39074597489E+02  0.81782673481E+02  0.69374931722E+02 0.  0.
         11    1    3    3    0    0  0.81012890841E+01 -0.13008970439E+02  0.14405747464E+02  0.21033063423E+02  0.51100000000E-03 0.  1.
         22    1    1    0    0    0  0.18558297096E+02  0.20712243123E+01  0.39074597489E+02  0.43307326519E+02  0.00000000000E+00 0. -1.
</event>
<event>
 5    1  0.1046082E-009  0.9118800E+02  0.7561462E-02  0.1125453E+00
         25   -1    0    0    0    0  0.00000000000E+00  0.00000000000E+00  0.99999998245E-14  0.12509000000E+03  0.12509000000E+03 0.  0.
        -11    1    3    3    0    0  0.16612632580E+02  0.26973823154E+02  0.25640011714E+02  0.40755084318E+02  0.51100000000E-03 0. -1.
         23    2    1    0    0    0  0.25150166445E+02 -0.15721050686E+02 -0.63182982365E+01  0.94765039992E+02  0.89782011590E+02 0.  0.
         11    1    3    3    0    0  0.85375338650E+01 -0.42694873840E+02 -0.31958309951E+02  0.54009955674E+02  0.51100000000E-03 0.  1.
         22    1    1    0    0    0 -0.25150166445E+02  0.15721050686E+02  0.63182982365E+01  0.30324960008E+02  0.00000000000E+00 0. -1.
</event>
<event>
 5    1  0.1046082E-009  0.9118800E+02  0.7561462E-02  0.1125453E+00
         25   -1    0    0    0    0  0.00000000000E+00  0.00000000000E+00  0.99999998245E-14  0.12509000000E+03  0.12509000000E+03 0.  0.
        -11    1    3    3    0    0 -0.47819840123E+02  0.52536382066E+01  0.20768385535E+02  0.52399080734E+02  0.51100000000E-03 0.  1.
         23    2    1    0    0    0 -0.21702280631E+02 -0.21117982209E+02  0.25264280912E+00  0.94807629129E+02  0.89841329885E+02 0.  0.
         11    1    3    3    0    0  0.26117559491E+02 -0.26371620415E+02 -0.20515742726E+02  0.42408548395E+02  0.51100000000E-03 0. -1.
         22    1    1    0    0    0  0.21702280631E+02  0.21117982209E+02 -0.25264280912E+00  0.30282370871E+02  0.00000000000E+00 0.  1.
</event>
<event>
 5    1  0.1046082E-009  0.9118800E+02  0.7561462E-02  0.1125453E+00
         25   -1    0    0    0    0  0.00000000000E+00  0.00000000000E+00  0.99999998245E-14  0.12509000000E+03  0.12509000000E+03 0.  0.
        -11    1    3    3    0    0  0.18395244734E+02 -0.42065284511E+02  0.25494801352E+02  0.52515312872E+02  0.51100000000E-03 0.  1.
         23    2    1    0    0    0  0.27333470944E+02 -0.55816311657E+01  0.20633306535E+02  0.90391202054E+02  0.83465938142E+02 0.  0.
         11    1    3    3    0    0  0.89382262092E+01  0.36483653346E+02 -0.48614948167E+01  0.37875889182E+02  0.51100000000E-03 0. -1.
         22    1    1    0    0    0 -0.27333470944E+02  0.55816311657E+01 -0.20633306535E+02  0.34698797946E+02  0.00000000000E+00 0.  1.
</event>
<event>
 5    1  0.1046082E-009  0.9118800E+02  0.7561462E-02  0.1125453E+00
         25   -1    0    0    0    0  0.00000000000E+00  0.00000000000E+00  0.99999998245E-14  0.12509000000E+03  0.12509000000E+03 0.  0.
        -11    1    3    3    0    0 -0.27619980268E+02 -0.24420610346E+02  0.23249781903E+02  0.43586487339E+02  0.51100000000E-03 0. -1.
         23    2    1    0    0    0  0.19133197491E+02 -0.27660192109E+01  0.22911581326E+02  0.95112163731E+02  0.90264350783E+02 0.  0.
         11    1    3    3    0    0  0.46753177759E+02  0.21654591135E+02 -0.33820057704E+00  0.51525676393E+02  0.51100000000E-03 0.  1.
         22    1    1    0    0    0 -0.19133197491E+02  0.27660192109E+01 -0.22911581326E+02  0.29977836269E+02  0.00000000000E+00 0. -1.
</event>
<event>
 5    1  0.1046082E-009  0.9118800E+02  0.7561462E-02  0.1125453E+00
         25   -1    0    0    0    0  0.00000000000E+00  0.00000000000E+00  0.99999998245E-14  0.12509000000E+03  0.12509000000E+03 0.  0.
        -11    1    3    3    0    0 -0.24694632297E+02 -0.16661531929E+02  0.22744748945E+02  0.37480062905E+02  0.51100000000E-03 0.  1.
         23    2    1    0    0    0  0.26565006211E+02  0.79231844768E+01  0.62878412714E+01  0.96664424278E+02  0.92390462527E+02 0.  0.
         11    1    3    3    0    0  0.51259638508E+02  0.24584716405E+02 -0.16456907674E+02  0.59184361374E+02  0.51100000000E-03 0. -1.
         22    1    1    0    0    0 -0.26565006211E+02 -0.79231844768E+01 -0.62878412714E+01  0.28425575722E+02  0.00000000000E+00 0. -1.
</event>
<event>
 5    1  0.1046082E-009  0.9118800E+02  0.7561462E-02  0.1125453E+00
         25   -1    0    0    0    0  0.00000000000E+00  0.00000000000E+00  0.99999998245E-14  0.12509000000E+03  0.12509000000E+03 0.  0.
        -11    1    3    3    0    0 -0.30032996372E+02  0.38625375385E+02 -0.15734980911E+02  0.51395428972E+02  0.51100000000E-03 0. -1.
         23    2    1    0    0    0 -0.19146916102E+02  0.13506905965E+02  0.18503860061E+02  0.95233112317E+02  0.90431808228E+02 0.  0.
         11    1    3    3    0    0  0.10886080269E+02 -0.25118469420E+02  0.34238840972E+02  0.43837683345E+02  0.51100000000E-03 0.  1.
         22    1    1    0    0    0  0.19146916102E+02 -0.13506905965E+02 -0.18503860061E+02  0.29856887683E+02  0.00000000000E+00 0. -1.
</event>
<event>
 5    1  0.1046082E-009  0.9118800E+02  0.7561462E-02  0.1125453E+00
         25   -1    0    0    0    0  0.00000000000E+00  0.00000000000E+00  0.99999998245E-14  0.12509000000E+03  0.12509000000E+03 0.  0.
        -11    1    3    3    0    0  0.25809801775E+02  0.14481714585E+02  0.16801088172E+02  0.34031492606E+02  0.51100000000E-03 0. -1.
         23    2    1    0    0    0 -0.21872022267E+02 -0.20724971242E+02  0.76242373067E+01  0.94008835519E+02  0.88722163917E+02 0.  0.
         11    1    3    3    0    0 -0.47681824042E+02 -0.35206685826E+02 -0.91768508649E+01  0.59977342913E+02  0.51100000000E-03 0.  1.
         22    1    1    0    0    0  0.21872022267E+02  0.20724971242E+02 -0.76242373067E+01  0.31081164481E+02  0.00000000000E+00 0.  1.
</event>
<event>
 5    1  0.1046082E-009  0.9118800E+02  0.7561462E-02  0.1125453E+00
         25   -1    0    0    0    0  0.00000000000E+00  0.00000000000E+00  0.99999998245E-14  0.12509000000E+03  0.12509000000E+03 0.  0.
        -11    1    3    3    0    0 -0.15415841078E+02  0.40116928373E+02 -0.24073641372E+01  0.43044296958E+02  0.51100000000E-03 0. -1.
         23    2    1    0    0    0 -0.27626189841E+02 -0.71995947804E+00  0.19788153761E+02  0.91100358400E+02  0.84522065548E+02 0.  0.
         11    1    3    3    0    0 -0.12210348763E+02 -0.40836887851E+02  0.22195517899E+02  0.48056061442E+02  0.51100000000E-03 0.  1.
         22    1    1    0    0    0  0.27626189841E+02  0.71995947804E+00 -0.19788153761E+02  0.33989641600E+02  0.00000000000E+00 0.  1.
</event>
<event>
 5    1  0.1046082E-009  0.9118800E+02  0.7561462E-02  0.1125453E+00
         25   -1    0    0    0    0  0.00000000000E+00  0.00000000000E+00  0.99999998245E-14  0.12509000000E+03  0.12509000000E+03 0.  0.
        -11    1    3    3    0    0 -0.42519504207E+02  0.29454211552E+02 -0.30220910207E+02  0.59906278721E+02  0.51100000000E-03 0.  1.
         23    2    1    0    0    0 -0.97965616879E+01  0.18771857594E+02 -0.20364356179E+02  0.95712078681E+02  0.91091930183E+02 0.  0.
         11    1    3    3    0    0  0.32722942519E+02 -0.10682353958E+02  0.98565540285E+01  0.35805799960E+02  0.51100000000E-03 0. -1.
         22    1    1    0    0    0  0.97965616879E+01 -0.18771857594E+02  0.20364356179E+02  0.29377921319E+02  0.00000000000E+00 0.  1.
</event>
<event>
 5    1  0.1046082E-009  0.9118800E+02  0.7561462E-02  0.1125453E+00
         25   -1    0    0    0    0  0.00000000000E+00  0.00000000000E+00  0.99999998245E-14  0.12509000000E+03  0.12509000000E+03 0.  0.
        -11    1    3    3    0    0 -0.16396050104E+02  0.23705421685E+01 -0.31911106467E+02  0.35955092065E+02  0.51100000000E-03 0. -1.
         23    2    1    0    0    0  0.24165019216E+02  0.11684534943E+02  0.11316858249E+02  0.95960156348E+02  0.91431962765E+02 0.  0.
         11    1    3    3    0    0  0.40561069320E+02  0.93139927746E+01  0.43227964716E+02  0.60005064283E+02  0.51100000000E-03 0.  1.
         22    1    1    0    0    0 -0.24165019216E+02 -0.11684534943E+02 -0.11316858249E+02  0.29129843652E+02  0.00000000000E+00 0.  1.
</event>
<event>
 5    1  0.1046082E-009  0.9118800E+02  0.7561462E-02  0.1125453E+00
         25   -1    0    0    0    0  0.00000000000E+00  0.00000000000E+00  0.99999998245E-14  0.12509000000E+03  0.12509000000E+03 0.  0.
        -11    1    3    3    0    0  0.23484908425E+02 -0.11986173525E+02 -0.16346200083E+02  0.31022693901E+02  0.51100000000E-03 0.  1.
         23    2    1    0    0    0 -0.22651898497E+02  0.20431811585E+02  0.96233543717E+01  0.93102871659E+02  0.87435509557E+02 0.  0.
         11    1    3    3    0    0 -0.46136806922E+02  0.32417985110E+02  0.25969554455E+02  0.62080177757E+02  0.51100000000E-03 0. -1.
         22    1    1    0    0    0  0.22651898497E+02 -0.20431811585E+02 -0.96233543717E+01  0.31987128341E+02  0.00000000000E+00 0. -1.
</event>
<event>
 5    1  0.1046082E-009  0.9118800E+02  0.7561462E-02  0.1125453E+00
         25   -1    0    0    0    0  0.00000000000E+00  0.00000000000E+00  0.99999998245E-14  0.12509000000E+03  0.12509000000E+03 0.  0.
        -11    1    3    3    0    0  0.35663773461E+02  0.36385957371E+01  0.49580042302E+02  0.61182715789E+02  0.51100000000E-03 0.  1.
         23    2    1    0    0    0  0.16818011054E+02 -0.70868954357E+01  0.27110585390E+02  0.92408913377E+02  0.86436993519E+02 0.  0.
         11    1    3    3    0    0 -0.18845762407E+02 -0.10725491173E+02 -0.22469456912E+02  0.31226197588E+02  0.51100000000E-03 0. -1.
         22    1    1    0    0    0 -0.16818011054E+02  0.70868954357E+01 -0.27110585390E+02  0.32681086623E+02  0.00000000000E+00 0.  1.
</event>
<event>
 5    1  0.1046082E-009  0.9118800E+02  0.7561462E-02  0.1125453E+00
         25   -1    0    0    0    0  0.00000000000E+00  0.00000000000E+00  0.99999998245E-14  0.12509000000E+03  0.12509000000E+03 0.  0.
        -11    1    3    3    0    0 -0.24454755205E+02  0.20171827438E+02  0.77503864828E+01  0.32634432203E+02  0.51100000000E-03 0.  1.
         23    2    1    0    0    0  0.25745729010E+02 -0.83123816471E+01 -0.14381437639E+02  0.94450744143E+02  0.89343041529E+02 0.  0.
         11    1    3    3    0    0  0.50200484215E+02 -0.28484209085E+02 -0.22131824122E+02  0.61816311940E+02  0.51100000000E-03 0. -1.
         22    1    1    0    0    0 -0.25745729010E+02  0.83123816471E+01  0.14381437639E+02  0.30639255857E+02  0.00000000000E+00 0. -1.
</event>
<event>
 5    1  0.1046082E-009  0.9118800E+02  0.7561462E-02  0.1125453E+00
         25   -1    0    0    0    0  0.00000000000E+00  0.00000000000E+00  0.99999998245E-14  0.12509000000E+03  0.12509000000E+03 0.  0.
        -11    1    3    3    0    0 -0.45796886119E+02  0.30839618198E+02 -0.12762775133E+02  0.56668556168E+02  0.51100000000E-03 0. -1.
         23    2    1    0    0    0 -0.83103973097E+01  0.26958452909E+02 -0.12186989431E+02  0.94359825935E+02  0.89215655310E+02 0.  0.
         11    1    3    3    0    0  0.37486488809E+02 -0.38811652896E+01  0.57578570297E+00  0.37691269767E+02  0.51100000000E-03 0.  1.
         22    1    1    0    0    0  0.83103973097E+01 -0.26958452909E+02  0.12186989431E+02  0.30730174065E+02  0.00000000000E+00 0. -1.
</event>
<event>
 5    1  0.1046082E-009  0.9118800E+02  0.7561462E-02  0.1125453E+00
         25   -1    0    0    0    0  0.00000000000E+00  0.00000000000E+00  0.99999998245E-14  0.12509000000E+03  0.12509000000E+03 0.  0.
        -11    1    3    3    0    0 -0.17580031477E+02  0.59338535984E+02  0.28070149411E+01  0.61951583455E+02  0.51100000000E-03 0.  1.
         23    2    1    0    0    0 -0.48221332468E+01  0.24391223707E+02 -0.43832861088E+01  0.99843258426E+02  0.96598541879E+02 0.  0.
         11    1    3    3    0    0  0.12757898230E+02 -0.34947312277E+02 -0.71903010499E+01  0.37891674971E+02  0.51100000000E-03 0. -1.
         22    1    1    0    0    0  0.48221332468E+01 -0.24391223707E+02  0.43832861088E+01  0.25246741574E+02  0.00000000000E+00 0.  1.
</event>
<event>
 5    1  0.1046082E-009  0.9118800E+02  0.7561462E-02  0.1125453E+00
         25   -1    0    0    0    0  0.00000000000E+00  0.00000000000E+00  0.99999998245E-14  0.12509000000E+03  0.12509000000E+03 0.  0.
        -11    1    3    3    0    0  0.18885078855E+02 -0.48650286840E+01 -0.38258081183E+02  0.42941768519E+02  0.51100000000E-03 0. -1.
         23    2    1    0    0    0 -0.37879962027E+01  0.29031304324E+02 -0.53857102501E+01  0.95321368508E+02  0.90553806510E+02 0.  0.
         11    1    3    3    0    0 -0.22673075058E+02  0.33896333008E+02  0.32872370933E+02  0.52379599989E+02  0.51100000000E-03 0.  1.
         22    1    1    0    0    0  0.37879962027E+01 -0.29031304324E+02  0.53857102501E+01  0.29768631492E+02  0.00000000000E+00 0.  1.
</event>
<event>
 5    1  0.1046082E-009  0.9118800E+02  0.7561462E-02  0.1125453E+00
         25   -1    0    0    0    0  0.00000000000E+00  0.00000000000E+00  0.99999998245E-14  0.12509000000E+03  0.12509000000E+03 0.  0.
        -11    1    3    3    0    0  0.76884519889E+01  0.45404895586E+02 -0.23576763166E+02  0.51735680133E+02  0.51100000000E-03 0.  1.
         23    2    1    0    0    0  0.19168383116E+02  0.18635264462E+02  0.10324910444E+02  0.96431602129E+02  0.92074698591E+02 0.  0.
         11    1    3    3    0    0  0.11479931127E+02 -0.26769631124E+02  0.33901673610E+02  0.44695921996E+02  0.51100000000E-03 0. -1.
         22    1    1    0    0    0 -0.19168383116E+02 -0.18635264462E+02 -0.10324910444E+02  0.28658397871E+02  0.00000000000E+00 0. -1.
</event>
<event>
 5    1  0.1046082E-009  0.9118800E+02  0.7561462E-02  0.1125453E+00
         25   -1    0    0    0    0  0.00000000000E+00  0.00000000000E+00  0.99999998245E-14  0.12509000000E+03  0.12509000000E+03 0.  0.
        -11    1    3    3    0    0  0.28655788304E+02  0.20651688784E+02 -0.84004609357E+01  0.36307219629E+02  0.51100000000E-03 0.  1.
         23    2    1    0    0    0 -0.27900906054E+02  0.34116248461E+01  0.39377326606E+01  0.96706809882E+02  0.92447831756E+02 0.  0.
         11    1    3    3    0    0 -0.56556694358E+02 -0.17240063938E+02  0.12338193596E+02  0.60399590254E+02  0.51100000000E-03 0. -1.
         22    1    1    0    0    0  0.27900906054E+02 -0.34116248461E+01 -0.39377326606E+01  0.28383190118E+02  0.00000000000E+00 0. -1.
</event>
<event>
 5    1  0.1046082E-009  0.9118800E+02  0.7561462E-02  0.1125453E+00
         25   -1    0    0    0    0  0.00000000000E+00  0.00000000000E+00  0.99999998245E-14  0.12509000000E+03  0.12509000000E+03 0.  0.
        -11    1    3    3    0    0 -0.12300668947E+02 -0.21813375189E+02 -0.24175070282E+02  0.34807525294E+02  0.51100000000E-03 0.  1.
         23    2    1    0    0    0  0.16465627724E+02  0.23938942897E+02  0.40098320948E+01  0.95759663541E+02  0.91157251629E+02 0.  0.
         11    1    3    3    0    0  0.28766296671E+02  0.45752318087E+02  0.28184902377E+02  0.60952138246E+02  0.51100000000E-03 0. -1.
         22    1    1    0    0    0 -0.16465627724E+02 -0.23938942897E+02 -0.40098320948E+01  0.29330336459E+02  0.00000000000E+00 0. -1.
</event>
<event>
 5    1  0.1046082E-009  0.9118800E+02  0.7561462E-02  0.1125453E+00
         25   -1    0    0    0    0  0.00000000000E+00  0.00000000000E+00  0.99999998245E-14  0.12509000000E+03  0.12509000000E+03 0.  0.
        -11    1    3    3    0    0  0.27596264853E+00  0.41473255602E+02 -0.27276959597E+01  0.41563775227E+02  0.51100000000E-03 0.  1.
         23    2    1    0    0    0  0.78414311215E+01 -0.30024277147E+01  0.27808745719E+02  0.96041265903E+02  0.91542863204E+02 0.  0.
         11    1    3    3    0    0  0.75654684729E+01 -0.44475683317E+02  0.30536441678E+02  0.54477490676E+02  0.51100000000E-03 0. -1.
         22    1    1    0    0    0 -0.78414311215E+01  0.30024277147E+01 -0.27808745719E+02  0.29048734097E+02  0.00000000000E+00 0. -1.
</event>
<event>
 5    1  0.1046082E-009  0.9118800E+02  0.7561462E-02  0.1125453E+00
         25   -1    0    0    0    0  0.00000000000E+00  0.00000000000E+00  0.99999998245E-14  0.12509000000E+03  0.12509000000E+03 0.  0.
        -11    1    3    3    0    0  0.18059793043E+02  0.29429035782E+02  0.16043128916E+02  0.38073695086E+02  0.51100000000E-03 0.  1.
         23    2    1    0    0    0 -0.15789378836E+02 -0.18529334669E+02  0.14417304285E+02  0.96796902076E+02  0.92569654106E+02 0.  0.
         11    1    3    3    0    0 -0.33849171879E+02 -0.47958370451E+02 -0.16258246312E+01  0.58723206990E+02  0.51100000000E-03 0. -1.
         22    1    1    0    0    0  0.15789378836E+02  0.18529334669E+02 -0.14417304285E+02  0.28293097924E+02  0.00000000000E+00 0. -1.
</event>
<event>
 5    1  0.1046082E-009  0.9118800E+02  0.7561462E-02  0.1125453E+00
         25   -1    0    0    0    0  0.00000000000E+00  0.00000000000E+00  0.99999998245E-14  0.12509000000E+03  0.12509000000E+03 0.  0.
        -11    1    3    3    0    0  0.53989930776E+02  0.23095027936E+02  0.82278563705E+01  0.59295788731E+02  0.51100000000E-03 0.  1.
         23    2    1    0    0    0  0.25364526786E+02  0.11817097912E+02 -0.10371316207E+02  0.95247627071E+02  0.90451883566E+02 0.  0.
         11    1    3    3    0    0 -0.28625403990E+02 -0.11277930024E+02 -0.18599172578E+02  0.35951838340E+02  0.51100000000E-03 0. -1.
         22    1    1    0    0    0 -0.25364526786E+02 -0.11817097912E+02  0.10371316207E+02  0.29842372929E+02  0.00000000000E+00 0.  1.
</event>
<event>
 5    1  0.1046082E-009  0.9118800E+02  0.7561462E-02  0.1125453E+00
         25   -1    0    0    0    0  0.00000000000E+00  0.00000000000E+00  0.99999998245E-14  0.12509000000E+03  0.12509000000E+03 0.  0.
        -11    1    3    3    0    0 -0.31477165849E+02 -0.39632170904E+01  0.29228203490E+02  0.43137071518E+02  0.51100000000E-03 0. -1.
         23    2    1    0    0    0  0.24717442121E+01  0.24246192321E+02 -0.64342883969E+01  0.99883107516E+02  0.96650130566E+02 0.  0.
         11    1    3    3    0    0  0.33948910061E+02  0.28209409412E+02 -0.35662491887E+02  0.56746035998E+02  0.51100000000E-03 0.  1.
         22    1    1    0    0    0 -0.24717442121E+01 -0.24246192321E+02  0.64342883969E+01  0.25206892484E+02  0.00000000000E+00 0.  1.
</event>
<event>
 5    1  0.1046082E-009  0.9118800E+02  0.7561462E-02  0.1125453E+00
         25   -1    0    0    0    0  0.00000000000E+00  0.00000000000E+00  0.99999998245E-14  0.12509000000E+03  0.12509000000E+03 0.  0.
        -11    1    3    3    0    0  0.11087834231E+02  0.27159316420E+01  0.46294948782E+02  0.47681638348E+02  0.51100000000E-03 0.  1.
         23    2    1    0    0    0 -0.21085535350E+02  0.10799370091E+02  0.46101204355E+01  0.10095538988E+03  0.98028115045E+02 0.  0.
         11    1    3    3    0    0 -0.32173369581E+02  0.80834384487E+01 -0.41684828346E+02  0.53273751528E+02  0.51100000000E-03 0. -1.
         22    1    1    0    0    0  0.21085535350E+02 -0.10799370091E+02 -0.46101204355E+01  0.24134610123E+02  0.00000000000E+00 0.  1.
</event>
<event>
 5    1  0.1046082E-009  0.9118800E+02  0.7561462E-02  0.1125453E+00
         25   -1    0    0    0    0  0.00000000000E+00  0.00000000000E+00  0.99999998245E-14  0.12509000000E+03  0.12509000000E+03 0.  0.
        -11    1    3    3    0    0 -0.82867946250E+01 -0.38631043161E+02 -0.20150900334E+01  0.39561206364E+02  0.51100000000E-03 0.  1.
         23    2    1    0    0    0  0.21515304105E+02  0.10800877188E+02  0.10826908998E+02  0.98693234720E+02  0.95097662234E+02 0.  0.
         11    1    3    3    0    0  0.29802098730E+02  0.49431920349E+02  0.12841999031E+02  0.59132028356E+02  0.51100000000E-03 0. -1.
         22    1    1    0    0    0 -0.21515304105E+02 -0.10800877188E+02 -0.10826908998E+02  0.26396765280E+02  0.00000000000E+00 0. -1.
</event>
<event>
 5    1  0.1046082E-009  0.9118800E+02  0.7561462E-02  0.1125453E+00
         25   -1    0    0    0    0  0.00000000000E+00  0.00000000000E+00  0.99999998245E-14  0.12509000000E+03  0.12509000000E+03 0.  0.
        -11    1    3    3    0    0  0.21258323853E+02  0.36011969873E+02  0.42266645620E+02  0.59457948496E+02  0.51100000000E-03 0.  1.
         23    2    1    0    0    0  0.66648265923E+00  0.25632280678E+02  0.14211194548E+02  0.95774201147E+02  0.91177198591E+02 0.  0.
         11    1    3    3    0    0 -0.20591841194E+02 -0.10379689195E+02 -0.28055451071E+02  0.36316252651E+02  0.51100000000E-03 0. -1.
         22    1    1    0    0    0 -0.66648265923E+00 -0.25632280678E+02 -0.14211194548E+02  0.29315798853E+02  0.00000000000E+00 0.  1.
</event>
<event>
 5    1  0.1046082E-009  0.9118800E+02  0.7561462E-02  0.1125453E+00
         25   -1    0    0    0    0  0.00000000000E+00  0.00000000000E+00  0.99999998245E-14  0.12509000000E+03  0.12509000000E+03 0.  0.
        -11    1    3    3    0    0 -0.39022496536E+02  0.39765370475E+01 -0.21024807266E+02  0.44504051542E+02  0.51100000000E-03 0. -1.
         23    2    1    0    0    0 -0.12383958135E+02 -0.22207740988E+02  0.14302230505E+02  0.95916382187E+02  0.91372054785E+02 0.  0.
         11    1    3    3    0    0  0.26638538402E+02 -0.26184278035E+02  0.35327037771E+02  0.51412330645E+02  0.51100000000E-03 0.  1.
         22    1    1    0    0    0  0.12383958135E+02  0.22207740988E+02 -0.14302230505E+02  0.29173617813E+02  0.00000000000E+00 0.  1.
</event>
<event>
 5    1  0.1046082E-009  0.9118800E+02  0.7561462E-02  0.1125453E+00
         25   -1    0    0    0    0  0.00000000000E+00  0.00000000000E+00  0.99999998245E-14  0.12509000000E+03  0.12509000000E+03 0.  0.
        -11    1    3    3    0    0 -0.12403628449E+02 -0.48928446581E+02 -0.16369075366E+02  0.53064013344E+02  0.51100000000E-03 0.  1.
         23    2    1    0    0    0  0.29744952513E+01 -0.66657737486E+01 -0.25163364317E+02  0.98889330821E+02  0.95355255151E+02 0.  0.
         11    1    3    3    0    0  0.15378123701E+02  0.42262672832E+02 -0.87942889509E+01  0.45825317477E+02  0.51100000000E-03 0. -1.
         22    1    1    0    0    0 -0.29744952513E+01  0.66657737486E+01  0.25163364317E+02  0.26200669179E+02  0.00000000000E+00 0.  1.
</event>
<event>
 5    1  0.1046082E-009  0.9118800E+02  0.7561462E-02  0.1125453E+00
         25   -1    0    0    0    0  0.00000000000E+00  0.00000000000E+00  0.99999998245E-14  0.12509000000E+03  0.12509000000E+03 0.  0.
        -11    1    3    3    0    0  0.33250850172E+02  0.23564992796E+02 -0.20308071171E+01  0.40805049938E+02  0.51100000000E-03 0.  1.
         23    2    1    0    0    0  0.82114191609E+00 -0.25437011838E+02 -0.19339709518E+01  0.99566362153E+02  0.96239307891E+02 0.  0.
         11    1    3    3    0    0 -0.32429708256E+02 -0.49002004634E+02  0.96836165307E-01  0.58761312215E+02  0.51100000000E-03 0. -1.
         22    1    1    0    0    0 -0.82114191609E+00  0.25437011838E+02  0.19339709518E+01  0.25523637847E+02  0.00000000000E+00 0. -1.
</event>
<event>
 5    1  0.1046082E-009  0.9118800E+02  0.7561462E-02  0.1125453E+00
         25   -1    0    0    0    0  0.00000000000E+00  0.00000000000E+00  0.99999998245E-14  0.12509000000E+03  0.12509000000E+03 0.  0.
        -11    1    3    3    0    0 -0.21502780121E+02 -0.14110538785E+02 -0.41340735273E+02  0.48688122278E+02  0.51100000000E-03 0.  1.
         23    2    1    0    0    0 -0.28857930328E+02 -0.20778420477E+01  0.37338955058E+01  0.95917417905E+02  0.91373472691E+02 0.  0.
         11    1    3    3    0    0 -0.73551502077E+01  0.12032696737E+02  0.45074630779E+02  0.47229295628E+02  0.51100000000E-03 0. -1.
         22    1    1    0    0    0  0.28857930328E+02  0.20778420477E+01 -0.37338955058E+01  0.29172582095E+02  0.00000000000E+00 0.  1.
</event>
<event>
 5    1  0.1046082E-009  0.9118800E+02  0.7561462E-02  0.1125453E+00
         25   -1    0    0    0    0  0.00000000000E+00  0.00000000000E+00  0.99999998245E-14  0.12509000000E+03  0.12509000000E+03 0.  0.
        -11    1    3    3    0    0 -0.76500275860E+01  0.56188851783E+02 -0.19159776260E+02  0.59856553638E+02  0.51100000000E-03 0.  1.
         23    2    1    0    0    0 -0.11917929242E+02  0.20435353760E+02 -0.17057063597E+02  0.95925224340E+02  0.91384159051E+02 0.  0.
         11    1    3    3    0    0 -0.42679016558E+01 -0.35753498023E+02  0.21027126626E+01  0.36068670702E+02  0.51100000000E-03 0. -1.
         22    1    1    0    0    0  0.11917929242E+02 -0.20435353760E+02  0.17057063597E+02  0.29164775660E+02  0.00000000000E+00 0.  1.
</event>
<event>
 5    1  0.1046082E-009  0.9118800E+02  0.7561462E-02  0.1125453E+00
         25   -1    0    0    0    0  0.00000000000E+00  0.00000000000E+00  0.99999998245E-14  0.12509000000E+03  0.12509000000E+03 0.  0.
        -11    1    3    3    0    0  0.48205921759E+02 -0.84028469050E+00 -0.21039698396E+02  0.52604048132E+02  0.51100000000E-03 0. -1.
         23    2    1    0    0    0  0.77494822041E+01 -0.16784704798E+02 -0.22319947045E+02  0.96107922337E+02  0.91633901534E+02 0.  0.
         11    1    3    3    0    0 -0.40456439555E+02 -0.15944420107E+02 -0.12802486492E+01  0.43503874205E+02  0.51100000000E-03 0.  1.
         22    1    1    0    0    0 -0.77494822041E+01  0.16784704798E+02  0.22319947045E+02  0.28982077663E+02  0.00000000000E+00 0. -1.
</event>
<event>
 5    1  0.1046082E-009  0.9118800E+02  0.7561462E-02  0.1125453E+00
         25   -1    0    0    0    0  0.00000000000E+00  0.00000000000E+00  0.99999998245E-14  0.12509000000E+03  0.12509000000E+03 0.  0.
        -11    1    3    3    0    0 -0.22722759840E+02 -0.20283432930E+02  0.14016383533E+01  0.30491081589E+02  0.51100000000E-03 0. -1.
         23    2    1    0    0    0  0.18541442360E+02  0.60399041213E+01 -0.30481163281E+02  0.88904825666E+02  0.81207765547E+02 0.  0.
         11    1    3    3    0    0  0.41264202200E+02  0.26323337051E+02 -0.31882801635E+02  0.58413744077E+02  0.51100000000E-03 0.  1.
         22    1    1    0    0    0 -0.18541442360E+02 -0.60399041213E+01  0.30481163281E+02  0.36185174334E+02  0.00000000000E+00 0.  1.
</event>
<event>
 5    1  0.1046082E-009  0.9118800E+02  0.7561462E-02  0.1125453E+00
         25   -1    0    0    0    0  0.00000000000E+00  0.00000000000E+00  0.99999998245E-14  0.12509000000E+03  0.12509000000E+03 0.  0.
        -11    1    3    3    0    0 -0.11707323007E+02  0.50311228565E+02  0.73328779438E+01  0.52173290397E+02  0.51100000000E-03 0.  1.
         23    2    1    0    0    0  0.16309677501E+02  0.21755941886E+02 -0.10460898722E+02  0.95956565777E+02  0.91427050298E+02 0.  0.
         11    1    3    3    0    0  0.28017000508E+02 -0.28555286678E+02 -0.17793776666E+02  0.43783275380E+02  0.51100000000E-03 0. -1.
         22    1    1    0    0    0 -0.16309677501E+02 -0.21755941886E+02  0.10460898722E+02  0.29133434223E+02  0.00000000000E+00 0. -1.
</event>
<event>
 5    1  0.1046082E-009  0.9118800E+02  0.7561462E-02  0.1125453E+00
         25   -1    0    0    0    0  0.00000000000E+00  0.00000000000E+00  0.99999998245E-14  0.12509000000E+03  0.12509000000E+03 0.  0.
        -11    1    3    3    0    0  0.11953632144E+02  0.29267695990E+02  0.18949360159E+02  0.36858724892E+02  0.51100000000E-03 0. -1.
         23    2    1    0    0    0 -0.45888492710E+01 -0.26930698719E+02  0.93057460377E+01  0.96229698885E+02  0.91799988927E+02 0.  0.
         11    1    3    3    0    0 -0.16542481415E+02 -0.56198394709E+02 -0.96436141211E+01  0.59370973993E+02  0.51100000000E-03 0.  1.
         22    1    1    0    0    0  0.45888492710E+01  0.26930698719E+02 -0.93057460377E+01  0.28860301115E+02  0.00000000000E+00 0.  1.
</event>
<event>
 5    1  0.1046082E-009  0.9118800E+02  0.7561462E-02  0.1125453E+00
         25   -1    0    0    0    0  0.00000000000E+00  0.00000000000E+00  0.99999998245E-14  0.12509000000E+03  0.12509000000E+03 0.  0.
        -11    1    3    3    0    0  0.67275634026E+01  0.24140732770E+02 -0.41824319497E+02  0.48757653652E+02  0.51100000000E-03 0. -1.
         23    2    1    0    0    0 -0.14404025668E+02  0.11808810375E+02  0.84252487117E+01  0.10464718283E+03  0.10263100945E+03 0.  0.
         11    1    3    3    0    0 -0.21131589071E+02 -0.12331922395E+02  0.50249568208E+02  0.55889529180E+02  0.51100000000E-03 0.  1.
         22    1    1    0    0    0  0.14404025668E+02 -0.11808810375E+02 -0.84252487117E+01  0.20442817168E+02  0.00000000000E+00 0.  1.
</event>
<event>
 5    1  0.1046082E-009  0.9118800E+02  0.7561462E-02  0.1125453E+00
         25   -1    0    0    0    0  0.00000000000E+00  0.00000000000E+00  0.99999998245E-14  0.12509000000E+03  0.12509000000E+03 0.  0.
        -11    1    3    3    0    0 -0.23194804144E+02 -0.40892563463E+02 -0.34126871108E+02  0.58093407696E+02  0.51100000000E-03 0. -1.
         23    2    1    0    0    0 -0.42107712033E+01 -0.29286084708E+02 -0.44737946701E+01  0.95166427513E+02  0.90339519232E+02 0.  0.
         11    1    3    3    0    0  0.18984032940E+02  0.11606478756E+02  0.29653076438E+02  0.37073019816E+02  0.51100000000E-03 0.  1.
         22    1    1    0    0    0  0.42107712033E+01  0.29286084708E+02  0.44737946701E+01  0.29923572487E+02  0.00000000000E+00 0. -1.
</event>
<event>
 5    1  0.1046082E-009  0.9118800E+02  0.7561462E-02  0.1125453E+00
         25   -1    0    0    0    0  0.00000000000E+00  0.00000000000E+00  0.99999998245E-14  0.12509000000E+03  0.12509000000E+03 0.  0.
        -11    1    3    3    0    0 -0.33226963743E+02  0.11428475608E+02 -0.39970346093E+02  0.53219073097E+02  0.51100000000E-03 0. -1.
         23    2    1    0    0    0 -0.69454492025E+01  0.25512409491E+02 -0.68658899094E+01  0.97772189932E+02  0.93878316863E+02 0.  0.
         11    1    3    3    0    0  0.26281514540E+02  0.14083933884E+02  0.33104456184E+02  0.44553116834E+02  0.51100000000E-03 0.  1.
         22    1    1    0    0    0  0.69454492025E+01 -0.25512409491E+02  0.68658899094E+01  0.27317810068E+02  0.00000000000E+00 0. -1.
</event>
<event>
 5    1  0.1046082E-009  0.9118800E+02  0.7561462E-02  0.1125453E+00
         25   -1    0    0    0    0  0.00000000000E+00  0.00000000000E+00  0.99999998245E-14  0.12509000000E+03  0.12509000000E+03 0.  0.
        -11    1    3    3    0    0 -0.30200734687E+02  0.11260799976E+00 -0.14096156761E+02  0.33328646716E+02  0.51100000000E-03 0.  1.
         23    2    1    0    0    0 -0.99222624956E+01  0.42507215687E+02 -0.79149251345E+01  0.80728296715E+02  0.67446995279E+02 0.  0.
         11    1    3    3    0    0  0.20278472192E+02  0.42394607687E+02  0.61812316269E+01  0.47399649999E+02  0.51100000000E-03 0. -1.
         22    1    1    0    0    0  0.99222624956E+01 -0.42507215687E+02  0.79149251345E+01  0.44361703285E+02  0.00000000000E+00 0.  1.
</event>
<event>
 5    1  0.1046082E-009  0.9118800E+02  0.7561462E-02  0.1125453E+00
         25   -1    0    0    0    0  0.00000000000E+00  0.00000000000E+00  0.99999998245E-14  0.12509000000E+03  0.12509000000E+03 0.  0.
        -11    1    3    3    0    0 -0.11028577420E+02 -0.24283267804E+02 -0.45229185442E+02  0.52507007448E+02  0.51100000000E-03 0.  1.
         23    2    1    0    0    0  0.19066896794E+02 -0.35667143067E+01 -0.21795936797E+02  0.95912425304E+02  0.91366637580E+02 0.  0.
         11    1    3    3    0    0  0.30095474213E+02  0.20716553497E+02  0.23433248645E+02  0.43405417856E+02  0.51100000000E-03 0. -1.
         22    1    1    0    0    0 -0.19066896794E+02  0.35667143067E+01  0.21795936797E+02  0.29177574696E+02  0.00000000000E+00 0.  1.
</event>
<event>
 5    1  0.1046082E-009  0.9118800E+02  0.7561462E-02  0.1125453E+00
         25   -1    0    0    0    0  0.00000000000E+00  0.00000000000E+00  0.99999998245E-14  0.12509000000E+03  0.12509000000E+03 0.  0.
        -11    1    3    3    0    0  0.20658062141E+02 -0.26410259614E+02  0.67523030564E+00  0.33536745228E+02  0.51100000000E-03 0.  1.
         23    2    1    0    0    0 -0.24942847989E+02  0.15402866160E+02 -0.36053460212E+01  0.95553709243E+02  0.90874192588E+02 0.  0.
         11    1    3    3    0    0 -0.45600910130E+02  0.41813125774E+02 -0.42805763268E+01  0.62016964015E+02  0.51100000000E-03 0. -1.
         22    1    1    0    0    0  0.24942847989E+02 -0.15402866160E+02  0.36053460212E+01  0.29536290757E+02  0.00000000000E+00 0. -1.
</event>
<event>
 5    1  0.1046082E-009  0.9118800E+02  0.7561462E-02  0.1125453E+00
         25   -1    0    0    0    0  0.00000000000E+00  0.00000000000E+00  0.99999998245E-14  0.12509000000E+03  0.12509000000E+03 0.  0.
        -11    1    3    3    0    0  0.64293024073E+01  0.26953060639E+02 -0.40265808731E+02  0.48878817091E+02  0.51100000000E-03 0. -1.
         23    2    1    0    0    0  0.13253483581E+02  0.36588254591E+02 -0.52609729700E+01  0.85821271505E+02  0.76310271950E+02 0.  0.
         11    1    3    3    0    0  0.68241811739E+01  0.96351939524E+01  0.35004835761E+02  0.36942454414E+02  0.51100000000E-03 0.  1.
         22    1    1    0    0    0 -0.13253483581E+02 -0.36588254591E+02  0.52609729700E+01  0.39268728495E+02  0.00000000000E+00 0. -1.
</event>
<event>
 5    1  0.1046082E-009  0.9118800E+02  0.7561462E-02  0.1125453E+00
         25   -1    0    0    0    0  0.00000000000E+00  0.00000000000E+00  0.99999998245E-14  0.12509000000E+03  0.12509000000E+03 0.  0.
        -11    1    3    3    0    0  0.15563506525E+02  0.11638223985E+02  0.36224207855E+02  0.41107958206E+02  0.51100000000E-03 0. -1.
         23    2    1    0    0    0 -0.24723557240E+02  0.21090240421E+02  0.67852085070E+01  0.91892235344E+02  0.85686004332E+02 0.  0.
         11    1    3    3    0    0 -0.40287063766E+02  0.94520164362E+01 -0.29438999348E+02  0.50784277138E+02  0.51100000000E-03 0.  1.
         22    1    1    0    0    0  0.24723557240E+02 -0.21090240421E+02 -0.67852085070E+01  0.33197764656E+02  0.00000000000E+00 0.  1.
</event>
<event>
 5    1  0.1046082E-009  0.9118800E+02  0.7561462E-02  0.1125453E+00
         25   -1    0    0    0    0  0.00000000000E+00  0.00000000000E+00  0.99999998245E-14  0.12509000000E+03  0.12509000000E+03 0.  0.
        -11    1    3    3    0    0 -0.10189585129E+02 -0.94768930732E+00  0.48736707573E+02  0.49799522341E+02  0.51100000000E-03 0.  1.
         23    2    1    0    0    0  0.56029804162E+01 -0.25816234115E+02  0.14539662454E+02  0.94935844106E+02  0.90019672175E+02 0.  0.
         11    1    3    3    0    0  0.15792565545E+02 -0.24868544807E+02 -0.34197045119E+02  0.45136321765E+02  0.51100000000E-03 0. -1.
         22    1    1    0    0    0 -0.56029804162E+01  0.25816234115E+02 -0.14539662454E+02  0.30154155894E+02  0.00000000000E+00 0.  1.
</event>
<event>
 5    1  0.1046082E-009  0.9118800E+02  0.7561462E-02  0.1125453E+00
         25   -1    0    0    0    0  0.00000000000E+00  0.00000000000E+00  0.99999998245E-14  0.12509000000E+03  0.12509000000E+03 0.  0.
        -11    1    3    3    0    0  0.13075644627E+02  0.27923834455E+02  0.49524072012E+02  0.58338209794E+02  0.51100000000E-03 0.  1.
         23    2    1    0    0    0  0.73188198090E+01  0.24999457815E+02  0.12006530450E+02  0.96407343431E+02  0.92041735530E+02 0.  0.
         11    1    3    3    0    0 -0.57568248179E+01 -0.29243766396E+01 -0.37517541562E+02  0.38069133637E+02  0.51100000000E-03 0. -1.
         22    1    1    0    0    0 -0.73188198090E+01 -0.24999457815E+02 -0.12006530450E+02  0.28682656569E+02  0.00000000000E+00 0.  1.
</event>
<event>
 5    1  0.1046082E-009  0.9118800E+02  0.7561462E-02  0.1125453E+00
         25   -1    0    0    0    0  0.00000000000E+00  0.00000000000E+00  0.99999998245E-14  0.12509000000E+03  0.12509000000E+03 0.  0.
        -11    1    3    3    0    0  0.24678369652E+02  0.44907483698E+01 -0.19145559407E+02  0.31555367133E+02  0.51100000000E-03 0.  1.
         23    2    1    0    0    0 -0.21935833266E+02 -0.19493278085E+02  0.12940495972E+02  0.93017814113E+02  0.87313736804E+02 0.  0.
         11    1    3    3    0    0 -0.46614202918E+02 -0.23984026455E+02  0.32086055379E+02  0.61462446980E+02  0.51100000000E-03 0. -1.
         22    1    1    0    0    0  0.21935833266E+02  0.19493278085E+02 -0.12940495972E+02  0.32072185887E+02  0.00000000000E+00 0. -1.
</event>
<event>
 5    1  0.1046082E-009  0.9118800E+02  0.7561462E-02  0.1125453E+00
         25   -1    0    0    0    0  0.00000000000E+00  0.00000000000E+00  0.99999998245E-14  0.12509000000E+03  0.12509000000E+03 0.  0.
        -11    1    3    3    0    0  0.39212606134E+02  0.21892412995E+01  0.26518091982E+02  0.47388083523E+02  0.51100000000E-03 0.  1.
         23    2    1    0    0    0 -0.12048327534E+01 -0.23061860776E+02  0.18022692608E+02  0.95796340391E+02  0.91207567335E+02 0.  0.
         11    1    3    3    0    0 -0.40417438888E+02 -0.25251102075E+02 -0.84953993742E+01  0.48408256869E+02  0.51100000000E-03 0. -1.
         22    1    1    0    0    0  0.12048327534E+01  0.23061860776E+02 -0.18022692608E+02  0.29293659609E+02  0.00000000000E+00 0. -1.
</event>
<event>
 5    1  0.1046082E-009  0.9118800E+02  0.7561462E-02  0.1125453E+00
         25   -1    0    0    0    0  0.00000000000E+00  0.00000000000E+00  0.99999998245E-14  0.12509000000E+03  0.12509000000E+03 0.  0.
        -11    1    3    3    0    0 -0.18525009824E+01  0.24765799788E+02 -0.27185173476E+02  0.36821328822E+02  0.51100000000E-03 0.  1.
         23    2    1    0    0    0 -0.32393566383E+02 -0.68933242330E+01  0.53588755961E+01  0.91540356043E+02  0.85170758918E+02 0.  0.
         11    1    3    3    0    0 -0.30541065401E+02 -0.31659124021E+02  0.32544049073E+02  0.54719027220E+02  0.51100000000E-03 0. -1.
         22    1    1    0    0    0  0.32393566383E+02  0.68933242330E+01 -0.53588755961E+01  0.33549643957E+02  0.00000000000E+00 0. -1.
</event>
<event>
 5    1  0.1046082E-009  0.9118800E+02  0.7561462E-02  0.1125453E+00
         25   -1    0    0    0    0  0.00000000000E+00  0.00000000000E+00  0.99999998245E-14  0.12509000000E+03  0.12509000000E+03 0.  0.
        -11    1    3    3    0    0  0.54477993442E+00  0.12738244755E+02 -0.37255533411E+02  0.39376826112E+02  0.51100000000E-03 0.  1.
         23    2    1    0    0    0 -0.10910393755E+02  0.24580767024E+02  0.15088769171E+02  0.94252980778E+02  0.89065720853E+02 0.  0.
         11    1    3    3    0    0 -0.11455173689E+02  0.11842522270E+02  0.52344302582E+02  0.54876154667E+02  0.51100000000E-03 0. -1.
         22    1    1    0    0    0  0.10910393755E+02 -0.24580767024E+02 -0.15088769171E+02  0.30837019222E+02  0.00000000000E+00 0. -1.
</event>
<event>
 4    1  0.1046082E-009  0.9118800E+02  0.7561462E-02  0.1125453E+00
         25   -1    0    0    0    0  0.00000000000E+00  0.00000000000E+00  0.99999998245E-14  0.12509000000E+03  0.12509000000E+03 0.  0.
        -11    1    1    0    0    0  0.12549736713E+01  0.33574493731E+02 -0.27827214024E+02  0.43625398895E+02  0.51100000000E-03 0. -1.
         11    1    1    0    0    0  0.79033927676E+00  0.19900160748E+02  0.18424191257E+02  0.27131012839E+02  0.51100000000E-03 0.  1.
         22    1    1    0    0    0 -0.20453129481E+01 -0.53474654478E+02  0.94030227674E+01  0.54333588265E+02  0.00000000000E+00 0. -1.
</event>
<event>
 5    1  0.1046082E-009  0.9118800E+02  0.7561462E-02  0.1125453E+00
         25   -1    0    0    0    0  0.00000000000E+00  0.00000000000E+00  0.99999998245E-14  0.12509000000E+03  0.12509000000E+03 0.  0.
        -11    1    3    3    0    0  0.80100040576E+01 -0.29617597860E+02 -0.41167855637E+02  0.51343496239E+02  0.51100000000E-03 0.  1.
         23    2    1    0    0    0 -0.18011414707E+02  0.18905323949E+01 -0.22325757218E+02  0.96342398224E+02  0.91953428907E+02 0.  0.
         11    1    3    3    0    0 -0.26021418765E+02  0.31508130255E+02  0.18842098419E+02  0.44998901985E+02  0.51100000000E-03 0. -1.
         22    1    1    0    0    0  0.18011414707E+02 -0.18905323949E+01  0.22325757218E+02  0.28747601776E+02  0.00000000000E+00 0.  1.
</event>
<event>
 5    1  0.1046082E-009  0.9118800E+02  0.7561462E-02  0.1125453E+00
         25   -1    0    0    0    0  0.00000000000E+00  0.00000000000E+00  0.99999998245E-14  0.12509000000E+03  0.12509000000E+03 0.  0.
        -11    1    3    3    0    0  0.16220526654E+02 -0.50706208621E+01 -0.29070234811E+02  0.33673360882E+02  0.51100000000E-03 0.  1.
         23    2    1    0    0    0  0.17990215770E+01  0.14367837534E+02  0.26837420322E+02  0.94595437147E+02  0.89545398348E+02 0.  0.
         11    1    3    3    0    0 -0.14421505077E+02  0.19438458397E+02  0.55907655134E+02  0.60922076264E+02  0.51100000000E-03 0. -1.
         22    1    1    0    0    0 -0.17990215770E+01 -0.14367837534E+02 -0.26837420322E+02  0.30494562853E+02  0.00000000000E+00 0. -1.
</event>
<event>
 5    1  0.1046082E-009  0.9118800E+02  0.7561462E-02  0.1125453E+00
         25   -1    0    0    0    0  0.00000000000E+00  0.00000000000E+00  0.99999998245E-14  0.12509000000E+03  0.12509000000E+03 0.  0.
        -11    1    3    3    0    0  0.28235676328E+02 -0.21607904335E+02  0.47913053292E+02  0.59664190462E+02  0.51100000000E-03 0.  1.
         23    2    1    0    0    0  0.20379263096E+02  0.10099538236E+01  0.25180570931E+02  0.92680194023E+02  0.86828698255E+02 0.  0.
         11    1    3    3    0    0 -0.78564132320E+01  0.22617858158E+02 -0.22732482361E+02  0.33016003561E+02  0.51100000000E-03 0. -1.
         22    1    1    0    0    0 -0.20379263096E+02 -0.10099538236E+01 -0.25180570931E+02  0.32409805977E+02  0.00000000000E+00 0.  1.
</event>
<event>
 5    1  0.1046082E-009  0.9118800E+02  0.7561462E-02  0.1125453E+00
         25   -1    0    0    0    0  0.00000000000E+00  0.00000000000E+00  0.99999998245E-14  0.12509000000E+03  0.12509000000E+03 0.  0.
        -11    1    3    3    0    0  0.14954408424E+02 -0.23590260234E+01  0.31990903089E+02  0.35392332726E+02  0.51100000000E-03 0.  1.
         23    2    1    0    0    0 -0.82992029145E+01  0.23480885036E+02 -0.16616506376E+02  0.95151111990E+02  0.90318309870E+02 0.  0.
         11    1    3    3    0    0 -0.23253611339E+02  0.25839911060E+02 -0.48607409466E+02  0.59758779264E+02  0.51100000000E-03 0. -1.
         22    1    1    0    0    0  0.82992029145E+01 -0.23480885036E+02  0.16616506376E+02  0.29938888010E+02  0.00000000000E+00 0. -1.
</event>
<event>
 5    1  0.1046082E-009  0.9118800E+02  0.7561462E-02  0.1125453E+00
         25   -1    0    0    0    0  0.00000000000E+00  0.00000000000E+00  0.99999998245E-14  0.12509000000E+03  0.12509000000E+03 0.  0.
        -11    1    3    3    0    0 -0.16481777302E+01  0.17994902216E+02 -0.48298732610E+02  0.51568406681E+02  0.51100000000E-03 0.  1.
         23    2    1    0    0    0  0.24858534837E+02  0.80888589691E+01 -0.16305918000E+02  0.94279947169E+02  0.89103586250E+02 0.  0.
         11    1    3    3    0    0  0.26506712567E+02 -0.99060432472E+01  0.31992814610E+02  0.42711540488E+02  0.51100000000E-03 0. -1.
         22    1    1    0    0    0 -0.24858534837E+02 -0.80888589691E+01  0.16305918000E+02  0.30810052831E+02  0.00000000000E+00 0.  1.
</event>
<event>
 5    1  0.1046082E-009  0.9118800E+02  0.7561462E-02  0.1125453E+00
         25   -1    0    0    0    0  0.00000000000E+00  0.00000000000E+00  0.99999998245E-14  0.12509000000E+03  0.12509000000E+03 0.  0.
        -11    1    3    3    0    0  0.25400957369E+02  0.79709615793E+01 -0.12094138186E+02  0.29240606055E+02  0.51100000000E-03 0.  1.
         23    2    1    0    0    0 -0.17569180491E+02  0.10658088079E+02  0.29522116837E+02  0.89120202570E+02  0.81538850734E+02 0.  0.
         11    1    3    3    0    0 -0.42970137859E+02  0.26871264999E+01  0.41616255022E+02  0.59879596515E+02  0.51100000000E-03 0. -1.
         22    1    1    0    0    0  0.17569180491E+02 -0.10658088079E+02 -0.29522116837E+02  0.35969797430E+02  0.00000000000E+00 0. -1.
</event>
<event>
 5    1  0.1046082E-009  0.9118800E+02  0.7561462E-02  0.1125453E+00
         25   -1    0    0    0    0  0.00000000000E+00  0.00000000000E+00  0.99999998245E-14  0.12509000000E+03  0.12509000000E+03 0.  0.
        -11    1    3    3    0    0  0.74358719482E+01  0.60142366988E+02 -0.20976421414E+01  0.60636594573E+02  0.51100000000E-03 0. -1.
         23    2    1    0    0    0  0.48344352246E+01  0.21054759807E+02 -0.11056902207E+02  0.10082212492E+03  0.97857912876E+02 0.  0.
         11    1    3    3    0    0 -0.26014367235E+01 -0.39087607181E+02 -0.89592600653E+01  0.40185530347E+02  0.51100000000E-03 0.  1.
         22    1    1    0    0    0 -0.48344352246E+01 -0.21054759807E+02  0.11056902207E+02  0.24267875080E+02  0.00000000000E+00 0. -1.
</event>
<event>
 5    1  0.1046082E-009  0.9118800E+02  0.7561462E-02  0.1125453E+00
         25   -1    0    0    0    0  0.00000000000E+00  0.00000000000E+00  0.99999998245E-14  0.12509000000E+03  0.12509000000E+03 0.  0.
        -11    1    3    3    0    0  0.37083847826E+01 -0.25827916333E+02  0.40397997659E+02  0.48091907790E+02  0.51100000000E-03 0. -1.
         23    2    1    0    0    0 -0.20224126219E+02  0.96514324766E+01  0.17691152312E+02  0.96539302980E+02  0.92220901750E+02 0.  0.
         11    1    3    3    0    0 -0.23932511002E+02  0.35479348810E+02 -0.22706845346E+02  0.48447395190E+02  0.51100000000E-03 0.  1.
         22    1    1    0    0    0  0.20224126219E+02 -0.96514324766E+01 -0.17691152312E+02  0.28550697020E+02  0.00000000000E+00 0.  1.
</event>
<event>
 5    1  0.1046082E-009  0.9118800E+02  0.7561462E-02  0.1125453E+00
         25   -1    0    0    0    0  0.00000000000E+00  0.00000000000E+00  0.99999998245E-14  0.12509000000E+03  0.12509000000E+03 0.  0.
        -11    1    3    3    0    0  0.56193779243E+02  0.11253958677E+00 -0.18077708546E+02  0.59030136687E+02  0.51100000000E-03 0.  1.
         23    2    1    0    0    0  0.29569154667E+02  0.13158066618E+02 -0.22301190052E+01  0.92648621243E+02  0.86783200924E+02 0.  0.
         11    1    3    3    0    0 -0.26624624576E+02  0.13045527031E+02  0.15847589540E+02  0.33618484556E+02  0.51100000000E-03 0. -1.
         22    1    1    0    0    0 -0.29569154667E+02 -0.13158066618E+02  0.22301190052E+01  0.32441378757E+02  0.00000000000E+00 0.  1.
</event>
<event>
 5    1  0.1046082E-009  0.9118800E+02  0.7561462E-02  0.1125453E+00
         25   -1    0    0    0    0  0.00000000000E+00  0.00000000000E+00  0.99999998245E-14  0.12509000000E+03  0.12509000000E+03 0.  0.
        -11    1    3    3    0    0 -0.10548807541E+02 -0.34454983004E+02 -0.20363829549E+02  0.41389717908E+02  0.51100000000E-03 0. -1.
         23    2    1    0    0    0 -0.11893693956E+02 -0.94617535826E+00  0.24756733909E+02  0.97608168228E+02  0.93659507938E+02 0.  0.
         11    1    3    3    0    0 -0.13448864151E+01  0.33508807646E+02  0.45120563458E+02  0.56218450320E+02  0.51100000000E-03 0.  1.
         22    1    1    0    0    0  0.11893693956E+02  0.94617535826E+00 -0.24756733909E+02  0.27481831772E+02  0.00000000000E+00 0.  1.
</event>
<event>
 5    1  0.1046082E-009  0.9118800E+02  0.7561462E-02  0.1125453E+00
         25   -1    0    0    0    0  0.00000000000E+00  0.00000000000E+00  0.99999998245E-14  0.12509000000E+03  0.12509000000E+03 0.  0.
        -11    1    3    3    0    0  0.90026030961E+01 -0.30492853016E+02  0.34763941418E+01  0.31983531138E+02  0.51100000000E-03 0.  1.
         23    2    1    0    0    0 -0.57068282299E+01  0.27463853815E+02  0.15598517515E+02  0.92994129495E+02  0.87279798448E+02 0.  0.
         11    1    3    3    0    0 -0.14709431326E+02  0.57956706831E+02  0.12122123373E+02  0.61010598357E+02  0.51100000000E-03 0. -1.
         22    1    1    0    0    0  0.57068282299E+01 -0.27463853815E+02 -0.15598517515E+02  0.32095870505E+02  0.00000000000E+00 0. -1.
</event>
<event>
 5    1  0.1046082E-009  0.9118800E+02  0.7561462E-02  0.1125453E+00
         25   -1    0    0    0    0  0.00000000000E+00  0.00000000000E+00  0.99999998245E-14  0.12509000000E+03  0.12509000000E+03 0.  0.
        -11    1    3    3    0    0 -0.13460615737E+02 -0.14537495585E+02 -0.24265234714E+02  0.31326164302E+02  0.51100000000E-03 0.  1.
         23    2    1    0    0    0  0.69381207577E+01 -0.39372227098E+01  0.32002167845E+02  0.92108520513E+02  0.86001171864E+02 0.  0.
         11    1    3    3    0    0  0.20398736495E+02  0.10600272876E+02  0.56267402559E+02  0.60782356211E+02  0.51100000000E-03 0. -1.
         22    1    1    0    0    0 -0.69381207577E+01  0.39372227098E+01 -0.32002167845E+02  0.32981479487E+02  0.00000000000E+00 0. -1.
</event>
<event>
 5    1  0.1046082E-009  0.9118800E+02  0.7561462E-02  0.1125453E+00
         25   -1    0    0    0    0  0.00000000000E+00  0.00000000000E+00  0.99999998245E-14  0.12509000000E+03  0.12509000000E+03 0.  0.
        -11    1    3    3    0    0  0.51936877909E+02 -0.12396245485E+02  0.29536039765E+02  0.61020355901E+02  0.51100000000E-03 0. -1.
         23    2    1    0    0    0  0.24813124432E+02  0.35123528706E+01  0.16646868207E+02  0.95004355784E+02  0.90114824696E+02 0.  0.
         11    1    3    3    0    0 -0.27123753477E+02  0.15908598355E+02 -0.12889171558E+02  0.33983999883E+02  0.51100000000E-03 0.  1.
         22    1    1    0    0    0 -0.24813124432E+02 -0.35123528706E+01 -0.16646868207E+02  0.30085644216E+02  0.00000000000E+00 0. -1.
</event>
<event>
 5    1  0.1046082E-009  0.9118800E+02  0.7561462E-02  0.1125453E+00
         25   -1    0    0    0    0  0.00000000000E+00  0.00000000000E+00  0.99999998245E-14  0.12509000000E+03  0.12509000000E+03 0.  0.
        -11    1    3    3    0    0  0.25859212902E+01  0.10553482013E+02  0.46310256738E+02  0.47567876250E+02  0.51100000000E-03 0.  1.
         23    2    1    0    0    0  0.24678237465E+02 -0.12134286190E+02  0.98051180987E+01  0.95894167307E+02  0.91341637147E+02 0.  0.
         11    1    3    3    0    0  0.22092316175E+02 -0.22687768203E+02 -0.36505138639E+02  0.48326291057E+02  0.51100000000E-03 0. -1.
         22    1    1    0    0    0 -0.24678237465E+02  0.12134286190E+02 -0.98051180987E+01  0.29195832693E+02  0.00000000000E+00 0.  1.
</event>
<event>
 5    1  0.1046082E-009  0.9118800E+02  0.7561462E-02  0.1125453E+00
         25   -1    0    0    0    0  0.00000000000E+00  0.00000000000E+00  0.99999998245E-14  0.12509000000E+03  0.12509000000E+03 0.  0.
        -11    1    3    3    0    0  0.40330879780E+02 -0.34891458279E+02  0.25394997632E+02  0.59066908076E+02  0.51100000000E-03 0. -1.
         23    2    1    0    0    0  0.64711471546E+01 -0.13041121795E+02  0.20906474608E+02  0.99613986110E+02  0.96301188700E+02 0.  0.
         11    1    3    3    0    0 -0.33859732626E+02  0.21850336483E+02 -0.44885230238E+01  0.40547078034E+02  0.51100000000E-03 0.  1.
         22    1    1    0    0    0 -0.64711471546E+01  0.13041121795E+02 -0.20906474608E+02  0.25476013890E+02  0.00000000000E+00 0. -1.
</event>
<event>
 5    1  0.1046082E-009  0.9118800E+02  0.7561462E-02  0.1125453E+00
         25   -1    0    0    0    0  0.00000000000E+00  0.00000000000E+00  0.99999998245E-14  0.12509000000E+03  0.12509000000E+03 0.  0.
        -11    1    3    3    0    0 -0.19374566974E+02  0.25388018582E+02 -0.29110255144E+02  0.43212640370E+02  0.51100000000E-03 0. -1.
         23    2    1    0    0    0  0.23365483089E+02 -0.22882516391E+01 -0.18439246109E+02  0.95237233082E+02  0.90437508107E+02 0.  0.
         11    1    3    3    0    0  0.42740050063E+02 -0.27676270221E+02  0.10671009035E+02  0.52024592712E+02  0.51100000000E-03 0.  1.
         22    1    1    0    0    0 -0.23365483089E+02  0.22882516391E+01  0.18439246109E+02  0.29852766918E+02  0.00000000000E+00 0.  1.
</event>
<event>
 5    1  0.1046082E-009  0.9118800E+02  0.7561462E-02  0.1125453E+00
         25   -1    0    0    0    0  0.00000000000E+00  0.00000000000E+00  0.99999998245E-14  0.12509000000E+03  0.12509000000E+03 0.  0.
        -11    1    3    3    0    0  0.29603972106E+02 -0.49816742631E+02 -0.22096926008E+02  0.62019167602E+02  0.51100000000E-03 0. -1.
         23    2    1    0    0    0  0.98985718007E+01 -0.26566491007E+02 -0.77841287289E+01  0.95690121970E+02  0.91061773617E+02 0.  0.
         11    1    3    3    0    0 -0.19705400306E+02  0.23250251624E+02  0.14312797279E+02  0.33670954367E+02  0.51100000000E-03 0.  1.
         22    1    1    0    0    0 -0.98985718007E+01  0.26566491007E+02  0.77841287289E+01  0.29399878030E+02  0.00000000000E+00 0. -1.
</event>
<event>
 5    1  0.1046082E-009  0.9118800E+02  0.7561462E-02  0.1125453E+00
         25   -1    0    0    0    0  0.00000000000E+00  0.00000000000E+00  0.99999998245E-14  0.12509000000E+03  0.12509000000E+03 0.  0.
        -11    1    3    3    0    0 -0.10739023252E+02  0.37609783194E+02  0.18577270614E+02  0.43300547294E+02  0.51100000000E-03 0.  1.
         23    2    1    0    0    0  0.21352818876E+02 -0.12637055021E+01  0.22727474350E+02  0.93879778663E+02  0.88540018782E+02 0.  0.
         11    1    3    3    0    0  0.32091842128E+02 -0.38873488696E+02  0.41502037366E+01  0.50579231369E+02  0.51100000000E-03 0. -1.
         22    1    1    0    0    0 -0.21352818876E+02  0.12637055021E+01 -0.22727474350E+02  0.31210221337E+02  0.00000000000E+00 0. -1.
</event>
<event>
 5    1  0.1046082E-009  0.9118800E+02  0.7561462E-02  0.1125453E+00
         25   -1    0    0    0    0  0.00000000000E+00  0.00000000000E+00  0.99999998245E-14  0.12509000000E+03  0.12509000000E+03 0.  0.
        -11    1    3    3    0    0  0.35258589679E+02  0.24887222454E+02  0.30623848472E+02  0.52918447474E+02  0.51100000000E-03 0. -1.
         23    2    1    0    0    0  0.69684495915E+01 -0.62138637686E+01  0.28593925576E+02  0.95010372800E+02  0.90123176636E+02 0.  0.
         11    1    3    3    0    0 -0.28290140087E+02 -0.31101086223E+02 -0.20299228956E+01  0.42091925325E+02  0.51100000000E-03 0.  1.
         22    1    1    0    0    0 -0.69684495915E+01  0.62138637686E+01 -0.28593925576E+02  0.30079627200E+02  0.00000000000E+00 0. -1.
</event>
<event>
 5    1  0.1046082E-009  0.9118800E+02  0.7561462E-02  0.1125453E+00
         25   -1    0    0    0    0  0.00000000000E+00  0.00000000000E+00  0.99999998245E-14  0.12509000000E+03  0.12509000000E+03 0.  0.
        -11    1    3    3    0    0  0.32605940694E+02 -0.44232895610E+02  0.13347375693E+02  0.56549525734E+02  0.51100000000E-03 0.  1.
         23    2    1    0    0    0  0.26935831393E+02 -0.52181523949E+01  0.90091212862E+01  0.96212112377E+02  0.91776021784E+02 0.  0.
         11    1    3    3    0    0 -0.56701093012E+01  0.39014743215E+02 -0.43382544068E+01  0.39662586643E+02  0.51100000000E-03 0. -1.
         22    1    1    0    0    0 -0.26935831393E+02  0.52181523949E+01 -0.90091212862E+01  0.28877887623E+02  0.00000000000E+00 0.  1.
</event>
<event>
 5    1  0.1046082E-009  0.9118800E+02  0.7561462E-02  0.1125453E+00
         25   -1    0    0    0    0  0.00000000000E+00  0.00000000000E+00  0.99999998245E-14  0.12509000000E+03  0.12509000000E+03 0.  0.
        -11    1    3    3    0    0  0.60793798087E+01  0.70205584835E+01  0.43813765722E+02  0.44787198699E+02  0.51100000000E-03 0.  1.
         23    2    1    0    0    0  0.25993264591E+02 -0.12291317193E+02  0.36672662957E+00  0.96334813149E+02  0.91943109875E+02 0.  0.
         11    1    3    3    0    0  0.19913884782E+02 -0.19311875677E+02 -0.43447039093E+02  0.51547614450E+02  0.51100000000E-03 0. -1.
         22    1    1    0    0    0 -0.25993264591E+02  0.12291317193E+02 -0.36672662957E+00  0.28755186851E+02  0.00000000000E+00 0. -1.
</event>
<event>
 5    1  0.1046082E-009  0.9118800E+02  0.7561462E-02  0.1125453E+00
         25   -1    0    0    0    0  0.00000000000E+00  0.00000000000E+00  0.99999998245E-14  0.12509000000E+03  0.12509000000E+03 0.  0.
        -11    1    3    3    0    0 -0.52829716080E+01 -0.36111608685E+02  0.16835696661E+01  0.36534811864E+02  0.51100000000E-03 0. -1.
         23    2    1    0    0    0  0.35422135600E+02 -0.25133238356E+01  0.39247671440E+01  0.89362583576E+02  0.81909847144E+02 0.  0.
         11    1    3    3    0    0  0.40705107208E+02  0.33598284850E+02  0.22411974779E+01  0.52827771712E+02  0.51100000000E-03 0.  1.
         22    1    1    0    0    0 -0.35422135600E+02  0.25133238356E+01 -0.39247671440E+01  0.35727416424E+02  0.00000000000E+00 0.  1.
</event>
<event>
 5    1  0.1046082E-009  0.9118800E+02  0.7561462E-02  0.1125453E+00
         25   -1    0    0    0    0  0.00000000000E+00  0.00000000000E+00  0.99999998245E-14  0.12509000000E+03  0.12509000000E+03 0.  0.
        -11    1    3    3    0    0  0.78620329724E+01 -0.26131164822E+01 -0.36576432776E+02  0.37503004881E+02  0.51100000000E-03 0. -1.
         23    2    1    0    0    0  0.15640162201E+02 -0.28835037708E+02  0.93702635841E+01  0.90974374358E+02  0.84335407019E+02 0.  0.
         11    1    3    3    0    0  0.77781292290E+01 -0.26221921225E+02  0.45946696361E+02  0.53471369477E+02  0.51100000000E-03 0.  1.
         22    1    1    0    0    0 -0.15640162201E+02  0.28835037708E+02 -0.93702635841E+01  0.34115625642E+02  0.00000000000E+00 0.  1.
</event>
<event>
 5    1  0.1046082E-009  0.9118800E+02  0.7561462E-02  0.1125453E+00
         25   -1    0    0    0    0  0.00000000000E+00  0.00000000000E+00  0.99999998245E-14  0.12509000000E+03  0.12509000000E+03 0.  0.
        -11    1    3    3    0    0  0.86191806368E+01  0.23958229018E+02 -0.20039603861E+02  0.32401739702E+02  0.51100000000E-03 0.  1.
         23    2    1    0    0    0  0.13343695970E+02 -0.30875409933E+02  0.12965792293E+01  0.91429544293E+02  0.85007854292E+02 0.  0.
         11    1    3    3    0    0  0.47245153328E+01 -0.54833638951E+02  0.21336183090E+02  0.59027804592E+02  0.51100000000E-03 0. -1.
         22    1    1    0    0    0 -0.13343695970E+02  0.30875409933E+02 -0.12965792293E+01  0.33660455707E+02  0.00000000000E+00 0. -1.
</event>
<event>
 5    1  0.1046082E-009  0.9118800E+02  0.7561462E-02  0.1125453E+00
         25   -1    0    0    0    0  0.00000000000E+00  0.00000000000E+00  0.99999998245E-14  0.12509000000E+03  0.12509000000E+03 0.  0.
        -11    1    3    3    0    0  0.44990383379E+02 -0.25845159217E+02 -0.27211896536E+02  0.58588344958E+02  0.51100000000E-03 0.  1.
         23    2    1    0    0    0  0.29362384347E+02  0.10965232501E+01 -0.10874049807E+02  0.93759552557E+02  0.88369999200E+02 0.  0.
         11    1    3    3    0    0 -0.15627999032E+02  0.26941682467E+02  0.16337846730E+02  0.35171207599E+02  0.51100000000E-03 0. -1.
         22    1    1    0    0    0 -0.29362384347E+02 -0.10965232501E+01  0.10874049807E+02  0.31330447443E+02  0.00000000000E+00 0.  1.
</event>
<event>
 5    1  0.1046082E-009  0.9118800E+02  0.7561462E-02  0.1125453E+00
         25   -1    0    0    0    0  0.00000000000E+00  0.00000000000E+00  0.99999998245E-14  0.12509000000E+03  0.12509000000E+03 0.  0.
        -11    1    3    3    0    0  0.48608149750E+02  0.28408166227E+02  0.67337848529E+01  0.56702028088E+02  0.51100000000E-03 0. -1.
         23    2    1    0    0    0  0.16049534826E+02  0.14295253942E+02  0.21086534518E+02  0.94980470091E+02  0.90081662437E+02 0.  0.
         11    1    3    3    0    0 -0.32558614925E+02 -0.14112912286E+02  0.14352749665E+02  0.38278442003E+02  0.51100000000E-03 0.  1.
         22    1    1    0    0    0 -0.16049534826E+02 -0.14295253942E+02 -0.21086534518E+02  0.30109529909E+02  0.00000000000E+00 0. -1.
</event>
<event>
 5    1  0.1046082E-009  0.9118800E+02  0.7561462E-02  0.1125453E+00
         25   -1    0    0    0    0  0.00000000000E+00  0.00000000000E+00  0.99999998245E-14  0.12509000000E+03  0.12509000000E+03 0.  0.
        -11    1    3    3    0    0 -0.33359895129E+02 -0.22148760535E+01 -0.79386711046E+01  0.34362927380E+02  0.51100000000E-03 0.  1.
         23    2    1    0    0    0  0.14227660528E+02  0.16657746785E+02  0.22308164368E+02  0.93824027290E+02  0.88461217759E+02 0.  0.
         11    1    3    3    0    0  0.47587555657E+02  0.18872622838E+02  0.30246835473E+02  0.59461099910E+02  0.51100000000E-03 0. -1.
         22    1    1    0    0    0 -0.14227660528E+02 -0.16657746785E+02 -0.22308164368E+02  0.31265972710E+02  0.00000000000E+00 0. -1.
</event>
<event>
 5    1  0.1046082E-009  0.9118800E+02  0.7561462E-02  0.1125453E+00
         25   -1    0    0    0    0  0.00000000000E+00  0.00000000000E+00  0.99999998245E-14  0.12509000000E+03  0.12509000000E+03 0.  0.
        -11    1    3    3    0    0 -0.37648664836E+02  0.29083368309E+02  0.39017771266E+02  0.61527642169E+02  0.51100000000E-03 0. -1.
         23    2    1    0    0    0 -0.23474923855E+02  0.97877559823E+01  0.14422825492E+02  0.95851496065E+02  0.91283181285E+02 0.  0.
         11    1    3    3    0    0  0.14173740981E+02 -0.19295612326E+02 -0.24594945773E+02  0.34323853896E+02  0.51100000000E-03 0.  1.
         22    1    1    0    0    0  0.23474923855E+02 -0.97877559823E+01 -0.14422825492E+02  0.29238503935E+02  0.00000000000E+00 0. -1.
</event>
<event>
 5    1  0.1046082E-009  0.9118800E+02  0.7561462E-02  0.1125453E+00
         25   -1    0    0    0    0  0.00000000000E+00  0.00000000000E+00  0.99999998245E-14  0.12509000000E+03  0.12509000000E+03 0.  0.
        -11    1    3    3    0    0  0.31331726756E+02  0.57858797318E+01 -0.18370528711E+02  0.36778116199E+02  0.51100000000E-03 0.  1.
         23    2    1    0    0    0 -0.82774114802E+01  0.25104503055E+02  0.17320139331E+02  0.93487170366E+02  0.87983590413E+02 0.  0.
         11    1    3    3    0    0 -0.39609138236E+02  0.19318623323E+02  0.35690668042E+02  0.56709054166E+02  0.51100000000E-03 0. -1.
         22    1    1    0    0    0  0.82774114802E+01 -0.25104503055E+02 -0.17320139331E+02  0.31602829634E+02  0.00000000000E+00 0. -1.
</event>
<event>
 5    1  0.1046082E-009  0.9118800E+02  0.7561462E-02  0.1125453E+00
         25   -1    0    0    0    0  0.00000000000E+00  0.00000000000E+00  0.99999998245E-14  0.12509000000E+03  0.12509000000E+03 0.  0.
        -11    1    3    3    0    0 -0.23434848975E+02  0.26116342253E+02  0.13489859566E+02  0.37592975282E+02  0.51100000000E-03 0.  1.
         23    2    1    0    0    0 -0.12435769569E+01  0.27113391800E+01 -0.31776192313E+02  0.93174106753E+02  0.87537363037E+02 0.  0.
         11    1    3    3    0    0  0.22191272018E+02 -0.23405003073E+02 -0.45266051880E+02  0.55581131472E+02  0.51100000000E-03 0. -1.
         22    1    1    0    0    0  0.12435769569E+01 -0.27113391800E+01  0.31776192313E+02  0.31915893247E+02  0.00000000000E+00 0.  1.
</event>
<event>
 5    1  0.1046082E-009  0.9118800E+02  0.7561462E-02  0.1125453E+00
         25   -1    0    0    0    0  0.00000000000E+00  0.00000000000E+00  0.99999998245E-14  0.12509000000E+03  0.12509000000E+03 0.  0.
        -11    1    3    3    0    0 -0.95683354144E+00  0.36834316908E+02  0.50376651331E+02  0.62413856091E+02  0.51100000000E-03 0. -1.
         23    2    1    0    0    0 -0.15797422994E+01  0.15963293108E+02  0.26304869664E+02  0.94279799082E+02  0.89103378355E+02 0.  0.
         11    1    3    3    0    0 -0.62290875791E+00 -0.20871023800E+02 -0.24071781667E+02  0.31865942991E+02  0.51100000000E-03 0.  1.
         22    1    1    0    0    0  0.15797422994E+01 -0.15963293108E+02 -0.26304869664E+02  0.30810200918E+02  0.00000000000E+00 0. -1.
</event>
<event>
 5    1  0.1046082E-009  0.9118800E+02  0.7561462E-02  0.1125453E+00
         25   -1    0    0    0    0  0.00000000000E+00  0.00000000000E+00  0.99999998245E-14  0.12509000000E+03  0.12509000000E+03 0.  0.
        -11    1    3    3    0    0  0.36933579782E+02 -0.39552746576E+02 -0.21219962773E+02  0.58127410897E+02  0.51100000000E-03 0.  1.
         23    2    1    0    0    0  0.13832423071E+02 -0.17551015004E+02 -0.26459128169E+02  0.90456785897E+02  0.83564170526E+02 0.  0.
         11    1    3    3    0    0 -0.23101156711E+02  0.22001731572E+02 -0.52391653953E+01  0.32329375000E+02  0.51100000000E-03 0. -1.
         22    1    1    0    0    0 -0.13832423071E+02  0.17551015004E+02  0.26459128169E+02  0.34633214103E+02  0.00000000000E+00 0.  1.
</event>
<event>
 5    1  0.1046082E-009  0.9118800E+02  0.7561462E-02  0.1125453E+00
         25   -1    0    0    0    0  0.00000000000E+00  0.00000000000E+00  0.99999998245E-14  0.12509000000E+03  0.12509000000E+03 0.  0.
        -11    1    3    3    0    0 -0.23672022748E+02 -0.12780701959E+02 -0.19174539649E+02  0.33035949730E+02  0.51100000000E-03 0.  1.
         23    2    1    0    0    0  0.11862790128E+02  0.18504332739E+02  0.20671530958E+02  0.94916363960E+02  0.89992598781E+02 0.  0.
         11    1    3    3    0    0  0.35534812876E+02  0.31285034699E+02  0.39846070607E+02  0.61880414230E+02  0.51100000000E-03 0. -1.
         22    1    1    0    0    0 -0.11862790128E+02 -0.18504332739E+02 -0.20671530958E+02  0.30173636040E+02  0.00000000000E+00 0. -1.
</event>
<event>
 5    1  0.1046082E-009  0.9118800E+02  0.7561462E-02  0.1125453E+00
         25   -1    0    0    0    0  0.00000000000E+00  0.00000000000E+00  0.99999998245E-14  0.12509000000E+03  0.12509000000E+03 0.  0.
        -11    1    3    3    0    0 -0.22263325356E+02 -0.36189836421E+02 -0.45625247501E+02  0.62345995267E+02  0.51100000000E-03 0.  1.
         23    2    1    0    0    0 -0.79988692807E+01 -0.15257412031E+02 -0.23316535145E+02  0.96099806092E+02  0.91622821328E+02 0.  0.
         11    1    3    3    0    0  0.14264456075E+02  0.20932424390E+02  0.22308712356E+02  0.33753810825E+02  0.51100000000E-03 0. -1.
         22    1    1    0    0    0  0.79988692807E+01  0.15257412031E+02  0.23316535145E+02  0.28990193908E+02  0.00000000000E+00 0.  1.
</event>
<event>
 5    1  0.1046082E-009  0.9118800E+02  0.7561462E-02  0.1125453E+00
         25   -1    0    0    0    0  0.00000000000E+00  0.00000000000E+00  0.99999998245E-14  0.12509000000E+03  0.12509000000E+03 0.  0.
        -11    1    3    3    0    0  0.93352184424E+00 -0.23772281756E+02 -0.15477766932E+02  0.28382285186E+02  0.51100000000E-03 0.  1.
         23    2    1    0    0    0  0.52102684041E+01  0.26401496515E+02  0.21325818946E+02  0.90753773230E+02  0.84007564462E+02 0.  0.
         11    1    3    3    0    0  0.42767465598E+01  0.50173778271E+02  0.36803585878E+02  0.62371488044E+02  0.51100000000E-03 0. -1.
         22    1    1    0    0    0 -0.52102684041E+01 -0.26401496515E+02 -0.21325818946E+02  0.34336226770E+02  0.00000000000E+00 0. -1.
</event>
<event>
 5    1  0.1046082E-009  0.9118800E+02  0.7561462E-02  0.1125453E+00
         25   -1    0    0    0    0  0.00000000000E+00  0.00000000000E+00  0.99999998245E-14  0.12509000000E+03  0.12509000000E+03 0.  0.
        -11    1    3    3    0    0  0.19764759887E+02  0.26562098918E+02  0.60984660086E+01  0.33665741047E+02  0.51100000000E-03 0.  1.
         23    2    1    0    0    0 -0.27174791851E+02 -0.98228607657E+01 -0.87775752034E+01  0.94890600466E+02  0.89956780315E+02 0.  0.
         11    1    3    3    0    0 -0.46939551738E+02 -0.36384959684E+02 -0.14876041212E+02  0.61224859419E+02  0.51100000000E-03 0. -1.
         22    1    1    0    0    0  0.27174791851E+02  0.98228607657E+01  0.87775752034E+01  0.30199399534E+02  0.00000000000E+00 0. -1.
</event>
<event>
 5    1  0.1046082E-009  0.9118800E+02  0.7561462E-02  0.1125453E+00
         25   -1    0    0    0    0  0.00000000000E+00  0.00000000000E+00  0.99999998245E-14  0.12509000000E+03  0.12509000000E+03 0.  0.
        -11    1    3    3    0    0 -0.24443081927E+02 -0.99590856371E+01  0.22566614054E+02  0.34726066736E+02  0.51100000000E-03 0. -1.
         23    2    1    0    0    0  0.25240715460E+02  0.15127974119E+02 -0.20639077777E+01  0.95590694361E+02  0.90925089030E+02 0.  0.
         11    1    3    3    0    0  0.49683797387E+02  0.25087059756E+02 -0.24630521832E+02  0.60864627625E+02  0.51100000000E-03 0.  1.
         22    1    1    0    0    0 -0.25240715460E+02 -0.15127974119E+02  0.20639077777E+01  0.29499305639E+02  0.00000000000E+00 0.  1.
</event>
<event>
 5    1  0.1046082E-009  0.9118800E+02  0.7561462E-02  0.1125453E+00
         25   -1    0    0    0    0  0.00000000000E+00  0.00000000000E+00  0.99999998245E-14  0.12509000000E+03  0.12509000000E+03 0.  0.
        -11    1    3    3    0    0 -0.18091015573E+02 -0.44394378642E+02  0.56279929382E+01  0.48268209044E+02  0.51100000000E-03 0.  1.
         23    2    1    0    0    0 -0.24469550014E+02 -0.68269601247E+01 -0.18760371828E+02  0.93509660965E+02  0.88015560444E+02 0.  0.
         11    1    3    3    0    0 -0.63785344416E+01  0.37567418518E+02 -0.24388364766E+02  0.45241451921E+02  0.51100000000E-03 0. -1.
         22    1    1    0    0    0  0.24469550014E+02  0.68269601247E+01  0.18760371828E+02  0.31580339035E+02  0.00000000000E+00 0.  1.
</event>
<event>
 5    1  0.1046082E-009  0.9118800E+02  0.7561462E-02  0.1125453E+00
         25   -1    0    0    0    0  0.00000000000E+00  0.00000000000E+00  0.99999998245E-14  0.12509000000E+03  0.12509000000E+03 0.  0.
        -11    1    3    3    0    0 -0.49933960159E+01 -0.81953485307E+01  0.46143594065E+02  0.47130977231E+02  0.51100000000E-03 0. -1.
         23    2    1    0    0    0 -0.25948473515E+02  0.12365509617E+02  0.80206357027E+01  0.95247753052E+02  0.90452057790E+02 0.  0.
         11    1    3    3    0    0 -0.20955077499E+02  0.20560858148E+02 -0.38122958362E+02  0.48116775820E+02  0.51100000000E-03 0.  1.
         22    1    1    0    0    0  0.25948473515E+02 -0.12365509617E+02 -0.80206357027E+01  0.29842246948E+02  0.00000000000E+00 0. -1.
</event>
<event>
 5    1  0.1046082E-009  0.9118800E+02  0.7561462E-02  0.1125453E+00
         25   -1    0    0    0    0  0.00000000000E+00  0.00000000000E+00  0.99999998245E-14  0.12509000000E+03  0.12509000000E+03 0.  0.
        -11    1    3    3    0    0  0.50591536537E+01  0.22897029126E+02  0.48109304538E+02  0.53519848299E+02  0.51100000000E-03 0. -1.
         23    2    1    0    0    0 -0.20257369928E+02  0.14964436761E+02  0.15664269860E+02  0.95430857156E+02  0.90704926786E+02 0.  0.
         11    1    3    3    0    0 -0.25316523582E+02 -0.79325923656E+01 -0.32445034678E+02  0.41911008857E+02  0.51100000000E-03 0.  1.
         22    1    1    0    0    0  0.20257369928E+02 -0.14964436761E+02 -0.15664269860E+02  0.29659142844E+02  0.00000000000E+00 0. -1.
</event>
<event>
 5    1  0.1046082E-009  0.9118800E+02  0.7561462E-02  0.1125453E+00
         25   -1    0    0    0    0  0.00000000000E+00  0.00000000000E+00  0.99999998245E-14  0.12509000000E+03  0.12509000000E+03 0.  0.
        -11    1    3    3    0    0  0.36980662392E+02  0.21336448342E+02  0.10375957418E+02  0.43937158664E+02  0.51100000000E-03 0. -1.
         23    2    1    0    0    0 -0.11827465437E+02  0.25405689051E+02  0.15299987302E+02  0.93161523897E+02  0.87519380418E+02 0.  0.
         11    1    3    3    0    0 -0.48808127829E+02  0.40692407083E+01  0.49240298841E+01  0.49224365234E+02  0.51100000000E-03 0.  1.
         22    1    1    0    0    0  0.11827465437E+02 -0.25405689051E+02 -0.15299987302E+02  0.31928476103E+02  0.00000000000E+00 0.  1.
</event>
<event>
 5    1  0.1046082E-009  0.9118800E+02  0.7561462E-02  0.1125453E+00
         25   -1    0    0    0    0  0.00000000000E+00  0.00000000000E+00  0.99999998245E-14  0.12509000000E+03  0.12509000000E+03 0.  0.
        -11    1    3    3    0    0 -0.29536675069E+02 -0.75346238372E+00  0.21907230272E+02  0.36781919718E+02  0.51100000000E-03 0. -1.
         23    2    1    0    0    0  0.20164167131E+02  0.22783689291E+02  0.54822772525E+01  0.94174866204E+02  0.88955943741E+02 0.  0.
         11    1    3    3    0    0  0.49700842200E+02  0.23537151674E+02 -0.16424953019E+02  0.57392946485E+02  0.51100000000E-03 0.  1.
         22    1    1    0    0    0 -0.20164167131E+02 -0.22783689291E+02 -0.54822772525E+01  0.30915133796E+02  0.00000000000E+00 0.  1.
</event>
<event>
 5    1  0.1046082E-009  0.9118800E+02  0.7561462E-02  0.1125453E+00
         25   -1    0    0    0    0  0.00000000000E+00  0.00000000000E+00  0.99999998245E-14  0.12509000000E+03  0.12509000000E+03 0.  0.
        -11    1    3    3    0    0 -0.38352440333E+02 -0.43121978906E+01 -0.59040689665E+01  0.39043088515E+02  0.51100000000E-03 0.  1.
         23    2    1    0    0    0  0.66929443993E+01 -0.13267967410E+02  0.26124087464E+02  0.95035010236E+02  0.90157366647E+02 0.  0.
         11    1    3    3    0    0  0.45045384733E+02 -0.89557695193E+01  0.32028156430E+02  0.55991921721E+02  0.51100000000E-03 0. -1.
         22    1    1    0    0    0 -0.66929443993E+01  0.13267967410E+02 -0.26124087464E+02  0.30054989764E+02  0.00000000000E+00 0. -1.
</event>
<event>
 5    1  0.1046082E-009  0.9118800E+02  0.7561462E-02  0.1125453E+00
         25   -1    0    0    0    0  0.00000000000E+00  0.00000000000E+00  0.99999998245E-14  0.12509000000E+03  0.12509000000E+03 0.  0.
        -11    1    3    3    0    0  0.49294198058E+01  0.15367581888E+02 -0.56969610640E+02  0.59211470928E+02  0.51100000000E-03 0. -1.
         23    2    1    0    0    0  0.51468807282E+00  0.20364610377E+02 -0.20854022981E+02  0.95937426629E+02  0.91400860467E+02 0.  0.
         11    1    3    3    0    0 -0.44147317330E+01  0.49970284897E+01  0.36115587659E+02  0.36725955701E+02  0.51100000000E-03 0.  1.
         22    1    1    0    0    0 -0.51468807282E+00 -0.20364610377E+02  0.20854022981E+02  0.29152573371E+02  0.00000000000E+00 0. -1.
</event>
<event>
 5    1  0.1046082E-009  0.9118800E+02  0.7561462E-02  0.1125453E+00
         25   -1    0    0    0    0  0.00000000000E+00  0.00000000000E+00  0.99999998245E-14  0.12509000000E+03  0.12509000000E+03 0.  0.
        -11    1    3    3    0    0 -0.41686203735E+02 -0.98712636698E+01 -0.37062376126E+02  0.56646281013E+02  0.51100000000E-03 0.  1.
         23    2    1    0    0    0 -0.17552657464E+02  0.14458327795E+02 -0.19397316971E+02  0.95200287181E+02  0.90386391382E+02 0.  0.
         11    1    3    3    0    0  0.24133546271E+02  0.24329591465E+02  0.17665059154E+02  0.38554006169E+02  0.51100000000E-03 0. -1.
         22    1    1    0    0    0  0.17552657464E+02 -0.14458327795E+02  0.19397316971E+02  0.29889712819E+02  0.00000000000E+00 0.  1.
</event>
<event>
 5    1  0.1046082E-009  0.9118800E+02  0.7561462E-02  0.1125453E+00
         25   -1    0    0    0    0  0.00000000000E+00  0.00000000000E+00  0.99999998245E-14  0.12509000000E+03  0.12509000000E+03 0.  0.
        -11    1    3    3    0    0 -0.33749264718E+01 -0.35327423134E+02  0.28434219129E+01  0.35601994360E+02  0.51100000000E-03 0.  1.
         23    2    1    0    0    0  0.17115336569E+01  0.26922938848E+02  0.31847366359E+00  0.98110833795E+02  0.94328470245E+02 0.  0.
         11    1    3    3    0    0  0.50864601287E+01  0.62250361982E+02 -0.25249482494E+01  0.62508839434E+02  0.51100000000E-03 0. -1.
         22    1    1    0    0    0 -0.17115336569E+01 -0.26922938848E+02 -0.31847366359E+00  0.26979166205E+02  0.00000000000E+00 0. -1.
</event>
<event>
 5    1  0.1046082E-009  0.9118800E+02  0.7561462E-02  0.1125453E+00
         25   -1    0    0    0    0  0.00000000000E+00  0.00000000000E+00  0.99999998245E-14  0.12509000000E+03  0.12509000000E+03 0.  0.
        -11    1    3    3    0    0 -0.50615094399E+02  0.22433928053E+02 -0.23552075182E+02  0.60165348454E+02  0.51100000000E-03 0.  1.
         23    2    1    0    0    0 -0.27180289846E+02 -0.60072174099E+00 -0.67233247865E+01  0.97084069934E+02  0.92956896011E+02 0.  0.
         11    1    3    3    0    0  0.23434804554E+02 -0.23034649794E+02  0.16828750395E+02  0.36918721480E+02  0.51100000000E-03 0. -1.
         22    1    1    0    0    0  0.27180289846E+02  0.60072174099E+00  0.67233247865E+01  0.28005930066E+02  0.00000000000E+00 0.  1.
</event>
<event>
 5    1  0.1046082E-009  0.9118800E+02  0.7561462E-02  0.1125453E+00
         25   -1    0    0    0    0  0.00000000000E+00  0.00000000000E+00  0.99999998245E-14  0.12509000000E+03  0.12509000000E+03 0.  0.
        -11    1    3    3    0    0  0.17012968171E+02 -0.51236676552E+00  0.45695477292E+02  0.48762488153E+02  0.51100000000E-03 0.  1.
         23    2    1    0    0    0  0.27238959126E+02 -0.13022203080E+02  0.26009216937E+01  0.94786477746E+02  0.89811875064E+02 0.  0.
         11    1    3    3    0    0  0.10225990955E+02 -0.12509836314E+02 -0.43094555598E+02  0.46023989593E+02  0.51100000000E-03 0. -1.
         22    1    1    0    0    0 -0.27238959126E+02  0.13022203080E+02 -0.26009216937E+01  0.30303522254E+02  0.00000000000E+00 0.  1.
</event>
<event>
 5    1  0.1046082E-009  0.9118800E+02  0.7561462E-02  0.1125453E+00
         25   -1    0    0    0    0  0.00000000000E+00  0.00000000000E+00  0.99999998245E-14  0.12509000000E+03  0.12509000000E+03 0.  0.
        -11    1    3    3    0    0 -0.14097118869E+02 -0.39692228766E+02 -0.12970843525E+02  0.44073172870E+02  0.51100000000E-03 0. -1.
         23    2    1    0    0    0  0.75857257125E+01  0.49451841781E+01 -0.27788593905E+02  0.95863230894E+02  0.91299260704E+02 0.  0.
         11    1    3    3    0    0  0.21682844582E+02  0.44637412944E+02 -0.14817750380E+02  0.51790058024E+02  0.51100000000E-03 0.  1.
         22    1    1    0    0    0 -0.75857257125E+01 -0.49451841781E+01  0.27788593905E+02  0.29226769106E+02  0.00000000000E+00 0.  1.
</event>
<event>
 5    1  0.1046082E-009  0.9118800E+02  0.7561462E-02  0.1125453E+00
         25   -1    0    0    0    0  0.00000000000E+00  0.00000000000E+00  0.99999998245E-14  0.12509000000E+03  0.12509000000E+03 0.  0.
        -11    1    3    3    0    0 -0.14614358020E+02 -0.38809206504E+02 -0.14382921733E+02  0.43893079268E+02  0.51100000000E-03 0. -1.
         23    2    1    0    0    0 -0.25150855694E+02  0.11879306394E+02 -0.15510450742E+01  0.97231622385E+02  0.93155242409E+02 0.  0.
         11    1    3    3    0    0 -0.10536497674E+02  0.50688512897E+02  0.12831876659E+02  0.53338543117E+02  0.51100000000E-03 0.  1.
         22    1    1    0    0    0  0.25150855694E+02 -0.11879306394E+02  0.15510450742E+01  0.27858377615E+02  0.00000000000E+00 0.  1.
</event>
<event>
 5    1  0.1046082E-009  0.9118800E+02  0.7561462E-02  0.1125453E+00
         25   -1    0    0    0    0  0.00000000000E+00  0.00000000000E+00  0.99999998245E-14  0.12509000000E+03  0.12509000000E+03 0.  0.
        -11    1    3    3    0    0  0.51267989483E+01 -0.35838014349E+02 -0.43682353366E+02  0.56734428135E+02  0.51100000000E-03 0.  1.
         23    2    1    0    0    0  0.10215150032E+01  0.40423468447E+00 -0.29026370660E+02  0.96042847088E+02  0.91545023811E+02 0.  0.
         11    1    3    3    0    0 -0.41052839451E+01  0.36242249034E+02  0.14655982706E+02  0.39308418954E+02  0.51100000000E-03 0. -1.
         22    1    1    0    0    0 -0.10215150032E+01 -0.40423468447E+00  0.29026370660E+02  0.29047152912E+02  0.00000000000E+00 0.  1.
</event>
<event>
 5    1  0.1046082E-009  0.9118800E+02  0.7561462E-02  0.1125453E+00
         25   -1    0    0    0    0  0.00000000000E+00  0.00000000000E+00  0.99999998245E-14  0.12509000000E+03  0.12509000000E+03 0.  0.
        -11    1    3    3    0    0 -0.12982859163E+02 -0.34739848067E+02 -0.32616853715E+02  0.49388974704E+02  0.51100000000E-03 0.  1.
         23    2    1    0    0    0 -0.11277360015E+02 -0.13381925093E+02  0.15278809732E+02  0.10185862477E+03  0.99174001865E+02 0.  0.
         11    1    3    3    0    0  0.17054991482E+01  0.21357922975E+02  0.47895663447E+02  0.52469650070E+02  0.51100000000E-03 0. -1.
         22    1    1    0    0    0  0.11277360015E+02  0.13381925093E+02 -0.15278809732E+02  0.23231375226E+02  0.00000000000E+00 0.  1.
</event>
<event>
 5    1  0.1046082E-009  0.9118800E+02  0.7561462E-02  0.1125453E+00
         25   -1    0    0    0    0  0.00000000000E+00  0.00000000000E+00  0.99999998245E-14  0.12509000000E+03  0.12509000000E+03 0.  0.
        -11    1    3    3    0    0  0.22195931768E+02  0.36184236186E+02  0.51319907140E+01  0.42758574162E+02  0.51100000000E-03 0. -1.
         23    2    1    0    0    0  0.20627157487E+02 -0.96281020747E+01  0.23711829269E+02  0.92220092442E+02  0.86163302091E+02 0.  0.
         11    1    3    3    0    0 -0.15687742804E+01 -0.45812338260E+02  0.18579838555E+02  0.49461518281E+02  0.51100000000E-03 0.  1.
         22    1    1    0    0    0 -0.20627157487E+02  0.96281020747E+01 -0.23711829269E+02  0.32869907558E+02  0.00000000000E+00 0. -1.
</event>
<event>
 5    1  0.1046082E-009  0.9118800E+02  0.7561462E-02  0.1125453E+00
         25   -1    0    0    0    0  0.00000000000E+00  0.00000000000E+00  0.99999998245E-14  0.12509000000E+03  0.12509000000E+03 0.  0.
        -11    1    3    3    0    0 -0.28513657976E+02  0.20152453912E+02 -0.30154971203E+02  0.46135370145E+02  0.51100000000E-03 0. -1.
         23    2    1    0    0    0  0.15174860502E+00 -0.19820665292E+02 -0.21080517368E+02  0.96154381591E+02  0.91697301413E+02 0.  0.
         11    1    3    3    0    0  0.28665406581E+02 -0.39973119204E+02  0.90744538360E+01  0.50019011446E+02  0.51100000000E-03 0.  1.
         22    1    1    0    0    0 -0.15174860502E+00  0.19820665292E+02  0.21080517368E+02  0.28935618409E+02  0.00000000000E+00 0.  1.
</event>
<event>
 5    1  0.1046082E-009  0.9118800E+02  0.7561462E-02  0.1125453E+00
         25   -1    0    0    0    0  0.00000000000E+00  0.00000000000E+00  0.99999998245E-14  0.12509000000E+03  0.12509000000E+03 0.  0.
        -11    1    3    3    0    0 -0.45108486415E+02 -0.11582732547E+01  0.95438247305E+01  0.46121597266E+02  0.51100000000E-03 0. -1.
         23    2    1    0    0    0 -0.56649323934E+01  0.28359230882E+02  0.62904102414E+01  0.95494279089E+02  0.90792349031E+02 0.  0.
         11    1    3    3    0    0  0.39443554022E+02  0.29517504136E+02 -0.32534144891E+01  0.49372681823E+02  0.51100000000E-03 0.  1.
         22    1    1    0    0    0  0.56649323934E+01 -0.28359230882E+02 -0.62904102414E+01  0.29595720911E+02  0.00000000000E+00 0. -1.
</event>
<event>
 5    1  0.1046082E-009  0.9118800E+02  0.7561462E-02  0.1125453E+00
         25   -1    0    0    0    0  0.00000000000E+00  0.00000000000E+00  0.99999998245E-14  0.12509000000E+03  0.12509000000E+03 0.  0.
        -11    1    3    3    0    0  0.27333371744E+02  0.99989780307E+01  0.38635794418E+02  0.48371658884E+02  0.51100000000E-03 0.  1.
         23    2    1    0    0    0 -0.13688880952E+02  0.19597144808E+02  0.17191827486E+02  0.95645263990E+02  0.91000132116E+02 0.  0.
         11    1    3    3    0    0 -0.41022252696E+02  0.95981667776E+01 -0.21443966932E+02  0.47273605107E+02  0.51100000000E-03 0. -1.
         22    1    1    0    0    0  0.13688880952E+02 -0.19597144808E+02 -0.17191827486E+02  0.29444736010E+02  0.00000000000E+00 0.  1.
</event>
<event>
 5    1  0.1046082E-009  0.9118800E+02  0.7561462E-02  0.1125453E+00
         25   -1    0    0    0    0  0.00000000000E+00  0.00000000000E+00  0.99999998245E-14  0.12509000000E+03  0.12509000000E+03 0.  0.
        -11    1    3    3    0    0 -0.12950601331E+02 -0.33813088804E+02 -0.16762579271E+02  0.39900214453E+02  0.51100000000E-03 0. -1.
         23    2    1    0    0    0  0.12044981292E+02  0.16287376237E+02 -0.20825781137E+02  0.96037059375E+02  0.91537114955E+02 0.  0.
         11    1    3    3    0    0  0.24995582623E+02  0.50100465042E+02 -0.40632018658E+01  0.56136844922E+02  0.51100000000E-03 0.  1.
         22    1    1    0    0    0 -0.12044981292E+02 -0.16287376237E+02  0.20825781137E+02  0.29052940625E+02  0.00000000000E+00 0.  1.
</event>
<event>
 5    1  0.1046082E-009  0.9118800E+02  0.7561462E-02  0.1125453E+00
         25   -1    0    0    0    0  0.00000000000E+00  0.00000000000E+00  0.99999998245E-14  0.12509000000E+03  0.12509000000E+03 0.  0.
        -11    1    3    3    0    0  0.21644990968E+02 -0.42161269756E+01  0.21665409854E+02  0.30913934481E+02  0.51100000000E-03 0. -1.
         23    2    1    0    0    0 -0.44015242498E+01  0.26111167588E+02 -0.22396795240E+02  0.90408839040E+02  0.83492366424E+02 0.  0.
         11    1    3    3    0    0 -0.26046515217E+02  0.30327294563E+02 -0.44062205094E+02  0.59494904559E+02  0.51100000000E-03 0.  1.
         22    1    1    0    0    0  0.44015242498E+01 -0.26111167588E+02  0.22396795240E+02  0.34681160960E+02  0.00000000000E+00 0.  1.
</event>
<event>
 5    1  0.1046082E-009  0.9118800E+02  0.7561462E-02  0.1125453E+00
         25   -1    0    0    0    0  0.00000000000E+00  0.00000000000E+00  0.99999998245E-14  0.12509000000E+03  0.12509000000E+03 0.  0.
        -11    1    3    3    0    0 -0.32836163018E+02  0.73583506899E+01  0.37322216210E+02  0.50252430287E+02  0.51100000000E-03 0.  1.
         23    2    1    0    0    0 -0.12778333102E+01  0.27092283515E+02  0.11090333884E+02  0.95787778417E+02  0.91195823942E+02 0.  0.
         11    1    3    3    0    0  0.31558329708E+02  0.19733932825E+02 -0.26231882326E+02  0.45535348130E+02  0.51100000000E-03 0. -1.
         22    1    1    0    0    0  0.12778333102E+01 -0.27092283515E+02 -0.11090333884E+02  0.29302221583E+02  0.00000000000E+00 0.  1.
</event>
<event>
 5    1  0.1046082E-009  0.9118800E+02  0.7561462E-02  0.1125453E+00
         25   -1    0    0    0    0  0.00000000000E+00  0.00000000000E+00  0.99999998245E-14  0.12509000000E+03  0.12509000000E+03 0.  0.
        -11    1    3    3    0    0  0.33754650280E+02 -0.13008329335E+02  0.11567567629E+00  0.36174665565E+02  0.51100000000E-03 0. -1.
         23    2    1    0    0    0 -0.18443548055E+02  0.12298291786E+01  0.23562816095E+02  0.95141990935E+02  0.90305676411E+02 0.  0.
         11    1    3    3    0    0 -0.52198198335E+02  0.14238158513E+02  0.23447140419E+02  0.58967325370E+02  0.51100000000E-03 0.  1.
         22    1    1    0    0    0  0.18443548055E+02 -0.12298291786E+01 -0.23562816095E+02  0.29948009065E+02  0.00000000000E+00 0.  1.
</event>
<event>
 5    1  0.1046082E-009  0.9118800E+02  0.7561462E-02  0.1125453E+00
         25   -1    0    0    0    0  0.00000000000E+00  0.00000000000E+00  0.99999998245E-14  0.12509000000E+03  0.12509000000E+03 0.  0.
        -11    1    3    3    0    0  0.83485889577E+01 -0.20832306683E+02  0.10112940740E+02  0.24616163592E+02  0.51100000000E-03 0. -1.
         23    2    1    0    0    0  0.21498617908E+02  0.34463511049E+02  0.15287531040E+02  0.81689161631E+02  0.69206115026E+02 0.  0.
         11    1    3    3    0    0  0.13150028950E+02  0.55295817733E+02  0.51745903000E+01  0.57072998039E+02  0.51100000000E-03 0.  1.
         22    1    1    0    0    0 -0.21498617908E+02 -0.34463511049E+02 -0.15287531040E+02  0.43400838369E+02  0.00000000000E+00 0.  1.
</event>
<event>
 5    1  0.1046082E-009  0.9118800E+02  0.7561462E-02  0.1125453E+00
         25   -1    0    0    0    0  0.00000000000E+00  0.00000000000E+00  0.99999998245E-14  0.12509000000E+03  0.12509000000E+03 0.  0.
        -11    1    3    3    0    0 -0.28882819774E+02  0.21351134814E+02  0.14536398987E+02  0.38747840349E+02  0.51100000000E-03 0. -1.
         23    2    1    0    0    0 -0.47853316425E+01 -0.28880518029E+02  0.28110606871E+01  0.95681059476E+02  0.91049323774E+02 0.  0.
         11    1    3    3    0    0  0.24097488132E+02 -0.50231652843E+02 -0.11725338300E+02  0.56933219127E+02  0.51100000000E-03 0.  1.
         22    1    1    0    0    0  0.47853316425E+01  0.28880518029E+02 -0.28110606871E+01  0.29408940524E+02  0.00000000000E+00 0.  1.
</event>
<event>
 5    1  0.1046082E-009  0.9118800E+02  0.7561462E-02  0.1125453E+00
         25   -1    0    0    0    0  0.00000000000E+00  0.00000000000E+00  0.99999998245E-14  0.12509000000E+03  0.12509000000E+03 0.  0.
        -11    1    3    3    0    0  0.15104706277E+02  0.34340921466E+02 -0.22362478979E+02  0.43675296281E+02  0.51100000000E-03 0.  1.
         23    2    1    0    0    0 -0.10158285152E+01 -0.14871941865E+02 -0.25496197680E+02  0.95555906844E+02  0.90877217575E+02 0.  0.
         11    1    3    3    0    0 -0.16120534792E+02 -0.49212863331E+02 -0.31337187011E+01  0.51880610563E+02  0.51100000000E-03 0. -1.
         22    1    1    0    0    0  0.10158285152E+01  0.14871941865E+02  0.25496197680E+02  0.29534093156E+02  0.00000000000E+00 0. -1.
</event>
<event>
 5    1  0.1046082E-009  0.9118800E+02  0.7561462E-02  0.1125453E+00
         25   -1    0    0    0    0  0.00000000000E+00  0.00000000000E+00  0.99999998245E-14  0.12509000000E+03  0.12509000000E+03 0.  0.
        -11    1    3    3    0    0 -0.74478578195E+01 -0.21464123430E+02  0.57677588612E+02  0.61990994580E+02  0.51100000000E-03 0.  1.
         23    2    1    0    0    0 -0.93674904232E+01 -0.92058345166E+01  0.27741688021E+02  0.94396376554E+02  0.89266888522E+02 0.  0.
         11    1    3    3    0    0 -0.19196326037E+01  0.12258288913E+02 -0.29935900591E+02  0.32405381974E+02  0.51100000000E-03 0. -1.
         22    1    1    0    0    0  0.93674904232E+01  0.92058345166E+01 -0.27741688021E+02  0.30693623446E+02  0.00000000000E+00 0.  1.
</event>
<event>
 5    1  0.1046082E-009  0.9118800E+02  0.7561462E-02  0.1125453E+00
         25   -1    0    0    0    0  0.00000000000E+00  0.00000000000E+00  0.99999998245E-14  0.12509000000E+03  0.12509000000E+03 0.  0.
        -11    1    3    3    0    0  0.23778874329E+02 -0.93459442635E+01  0.27005577557E+02  0.37176373653E+02  0.51100000000E-03 0.  1.
         23    2    1    0    0    0 -0.17826568182E+02 -0.20786227173E+02 -0.11859590147E+02  0.95248692192E+02  0.90453356559E+02 0.  0.
         11    1    3    3    0    0 -0.41605442511E+02 -0.11440282909E+02 -0.38865167704E+02  0.58072318539E+02  0.51100000000E-03 0. -1.
         22    1    1    0    0    0  0.17826568182E+02  0.20786227173E+02  0.11859590147E+02  0.29841307808E+02  0.00000000000E+00 0. -1.
</event>
<event>
 5    1  0.1046082E-009  0.9118800E+02  0.7561462E-02  0.1125453E+00
         25   -1    0    0    0    0  0.00000000000E+00  0.00000000000E+00  0.99999998245E-14  0.12509000000E+03  0.12509000000E+03 0.  0.
        -11    1    3    3    0    0  0.79426552484E+01 -0.25928080764E+02  0.27837289015E+02  0.38862138444E+02  0.51100000000E-03 0. -1.
         23    2    1    0    0    0 -0.20654331391E+02  0.41655821823E+00 -0.17090271768E+02  0.98278578645E+02  0.94550656822E+02 0.  0.
         11    1    3    3    0    0 -0.28596986640E+02  0.26344638982E+02 -0.44927560783E+02  0.59416440201E+02  0.51100000000E-03 0.  1.
         22    1    1    0    0    0  0.20654331391E+02 -0.41655821823E+00  0.17090271768E+02  0.26811421355E+02  0.00000000000E+00 0.  1.
</event>
<event>
 5    1  0.1046082E-009  0.9118800E+02  0.7561462E-02  0.1125453E+00
         25   -1    0    0    0    0  0.00000000000E+00  0.00000000000E+00  0.99999998245E-14  0.12509000000E+03  0.12509000000E+03 0.  0.
        -11    1    3    3    0    0  0.24232443117E+02  0.36311048298E+02  0.17461790259E+01  0.43689274077E+02  0.51100000000E-03 0.  1.
         23    2    1    0    0    0  0.14011182265E+02 -0.16976480994E+02  0.13583511473E+02  0.99224464642E+02  0.95793885318E+02 0.  0.
         11    1    3    3    0    0 -0.10221260852E+02 -0.53287529292E+02  0.11837332447E+02  0.55535190566E+02  0.51100000000E-03 0. -1.
         22    1    1    0    0    0 -0.14011182265E+02  0.16976480994E+02 -0.13583511473E+02  0.25865535358E+02  0.00000000000E+00 0. -1.
</event>
<event>
 5    1  0.1046082E-009  0.9118800E+02  0.7561462E-02  0.1125453E+00
         25   -1    0    0    0    0  0.00000000000E+00  0.00000000000E+00  0.99999998245E-14  0.12509000000E+03  0.12509000000E+03 0.  0.
        -11    1    3    3    0    0  0.86484868438E+01 -0.12046664547E+02 -0.38273514418E+02  0.41046076031E+02  0.51100000000E-03 0.  1.
         23    2    1    0    0    0  0.27693170858E+02  0.32660656124E+01  0.10254030095E+02  0.95379328012E+02  0.90633835747E+02 0.  0.
         11    1    3    3    0    0  0.19044684014E+02  0.15312730160E+02  0.48527544513E+02  0.54333251981E+02  0.51100000000E-03 0. -1.
         22    1    1    0    0    0 -0.27693170858E+02 -0.32660656124E+01 -0.10254030095E+02  0.29710671988E+02  0.00000000000E+00 0. -1.
</event>
<event>
 5    1  0.1046082E-009  0.9118800E+02  0.7561462E-02  0.1125453E+00
         25   -1    0    0    0    0  0.00000000000E+00  0.00000000000E+00  0.99999998245E-14  0.12509000000E+03  0.12509000000E+03 0.  0.
        -11    1    3    3    0    0  0.37360699384E+02  0.12106940331E+02  0.84323961739E-01  0.39273489448E+02  0.51100000000E-03 0. -1.
         23    2    1    0    0    0 -0.48265254406E+01 -0.24052061710E+02 -0.14335341043E+02  0.96676992008E+02  0.92407476757E+02 0.  0.
         11    1    3    3    0    0 -0.42187224825E+02 -0.36159002041E+02 -0.14419665005E+02  0.57403502560E+02  0.51100000000E-03 0.  1.
         22    1    1    0    0    0  0.48265254406E+01  0.24052061710E+02  0.14335341043E+02  0.28413007992E+02  0.00000000000E+00 0.  1.
</event>
<event>
 5    1  0.1046082E-009  0.9118800E+02  0.7561462E-02  0.1125453E+00
         25   -1    0    0    0    0  0.00000000000E+00  0.00000000000E+00  0.99999998245E-14  0.12509000000E+03  0.12509000000E+03 0.  0.
        -11    1    3    3    0    0  0.34791870510E+02  0.10764999972E+02 -0.39369893234E+02  0.53631594900E+02  0.51100000000E-03 0. -1.
         23    2    1    0    0    0  0.11690608422E+02  0.25949400977E+02 -0.78313732102E+01  0.95570986759E+02  0.90897972295E+02 0.  0.
         11    1    3    3    0    0 -0.23101262088E+02  0.15184401005E+02  0.31538520024E+02  0.41939391859E+02  0.51100000000E-03 0.  1.
         22    1    1    0    0    0 -0.11690608422E+02 -0.25949400977E+02  0.78313732102E+01  0.29519013241E+02  0.00000000000E+00 0. -1.
</event>
<event>
 5    1  0.1046082E-009  0.9118800E+02  0.7561462E-02  0.1125453E+00
         25   -1    0    0    0    0  0.00000000000E+00  0.00000000000E+00  0.99999998245E-14  0.12509000000E+03  0.12509000000E+03 0.  0.
        -11    1    3    3    0    0 -0.41465074474E+02 -0.34986496491E+02 -0.22426119753E+02  0.58705520910E+02  0.51100000000E-03 0. -1.
         23    2    1    0    0    0 -0.22163651808E+02 -0.10394245881E+02  0.47794462129E+01  0.10014784863E+03  0.96992168086E+02 0.  0.
         11    1    3    3    0    0  0.19301422666E+02  0.24592250610E+02  0.27205565966E+02  0.41442327719E+02  0.51100000000E-03 0.  1.
         22    1    1    0    0    0  0.22163651808E+02  0.10394245881E+02 -0.47794462129E+01  0.24942151371E+02  0.00000000000E+00 0. -1.
</event>
<event>
 5    1  0.1046082E-009  0.9118800E+02  0.7561462E-02  0.1125453E+00
         25   -1    0    0    0    0  0.00000000000E+00  0.00000000000E+00  0.99999998245E-14  0.12509000000E+03  0.12509000000E+03 0.  0.
        -11    1    3    3    0    0  0.99018101998E+01 -0.52745384017E+02 -0.16369469132E+02  0.56107761498E+02  0.51100000000E-03 0. -1.
         23    2    1    0    0    0 -0.74060653547E+01 -0.27630127228E+02  0.82645482094E+01  0.95314565632E+02  0.90544408606E+02 0.  0.
         11    1    3    3    0    0 -0.17307875555E+02  0.25115256789E+02  0.24634017342E+02  0.39206804134E+02  0.51100000000E-03 0.  1.
         22    1    1    0    0    0  0.74060653547E+01  0.27630127228E+02 -0.82645482094E+01  0.29775434368E+02  0.00000000000E+00 0. -1.
</event>
<event>
 5    1  0.1046082E-009  0.9118800E+02  0.7561462E-02  0.1125453E+00
         25   -1    0    0    0    0  0.00000000000E+00  0.00000000000E+00  0.99999998245E-14  0.12509000000E+03  0.12509000000E+03 0.  0.
        -11    1    3    3    0    0 -0.34840920621E+02  0.29307695805E+02  0.34661099985E+02  0.57220823444E+02  0.51100000000E-03 0. -1.
         23    2    1    0    0    0 -0.13208828911E+02  0.29338891402E+02  0.73057508579E+01  0.92095792850E+02  0.85982657293E+02 0.  0.
         11    1    3    3    0    0  0.21632091710E+02  0.31195596539E-01 -0.27355349127E+02  0.34874969406E+02  0.51100000000E-03 0.  1.
         22    1    1    0    0    0  0.13208828911E+02 -0.29338891402E+02 -0.73057508579E+01  0.32994207150E+02  0.00000000000E+00 0. -1.
</event>
<event>
 5    1  0.1046082E-009  0.9118800E+02  0.7561462E-02  0.1125453E+00
         25   -1    0    0    0    0  0.00000000000E+00  0.00000000000E+00  0.99999998245E-14  0.12509000000E+03  0.12509000000E+03 0.  0.
        -11    1    3    3    0    0  0.29231931012E+02  0.14533899934E+02  0.28438423400E+02  0.43295311106E+02  0.51100000000E-03 0. -1.
         23    2    1    0    0    0  0.94333697488E+01  0.33466153074E+02 -0.85124106117E+01  0.89292891167E+02  0.81803345971E+02 0.  0.
         11    1    3    3    0    0 -0.19798561264E+02  0.18932253140E+02 -0.36950834012E+02  0.45997580061E+02  0.51100000000E-03 0.  1.
         22    1    1    0    0    0 -0.94333697488E+01 -0.33466153074E+02  0.85124106117E+01  0.35797108833E+02  0.00000000000E+00 0.  1.
</event>
<event>
 5    1  0.1046082E-009  0.9118800E+02  0.7561462E-02  0.1125453E+00
         25   -1    0    0    0    0  0.00000000000E+00  0.00000000000E+00  0.99999998245E-14  0.12509000000E+03  0.12509000000E+03 0.  0.
        -11    1    3    3    0    0  0.67194101400E+01  0.15556207899E+02  0.51469511569E+02  0.54187237411E+02  0.51100000000E-03 0. -1.
         23    2    1    0    0    0 -0.19238057901E+02  0.11183572884E+02  0.26710095361E+02  0.90325012319E+02  0.83366680887E+02 0.  0.
         11    1    3    3    0    0 -0.25957468041E+02 -0.43726350145E+01 -0.24759416209E+02  0.36137774908E+02  0.51100000000E-03 0.  1.
         22    1    1    0    0    0  0.19238057901E+02 -0.11183572884E+02 -0.26710095361E+02  0.34764987681E+02  0.00000000000E+00 0.  1.
</event>
<event>
 5    1  0.1046082E-009  0.9118800E+02  0.7561462E-02  0.1125453E+00
         25   -1    0    0    0    0  0.00000000000E+00  0.00000000000E+00  0.99999998245E-14  0.12509000000E+03  0.12509000000E+03 0.  0.
        -11    1    3    3    0    0  0.15816669627E+02 -0.37601592420E+02 -0.29856014192E+01  0.40901841117E+02  0.51100000000E-03 0.  1.
         23    2    1    0    0    0 -0.52309747256E+01  0.23223790542E+01  0.28557595405E+02  0.95964533543E+02  0.91437951102E+02 0.  0.
         11    1    3    3    0    0 -0.21047644353E+02  0.39923971474E+02  0.31543196824E+02  0.55062692426E+02  0.51100000000E-03 0. -1.
         22    1    1    0    0    0  0.52309747256E+01 -0.23223790542E+01 -0.28557595405E+02  0.29125466457E+02  0.00000000000E+00 0. -1.
</event>
<event>
 5    1  0.1046082E-009  0.9118800E+02  0.7561462E-02  0.1125453E+00
         25   -1    0    0    0    0  0.00000000000E+00  0.00000000000E+00  0.99999998245E-14  0.12509000000E+03  0.12509000000E+03 0.  0.
        -11    1    3    3    0    0  0.65869511770E+01 -0.28530925460E+02 -0.17721579878E+02  0.34226539805E+02  0.51100000000E-03 0. -1.
         23    2    1    0    0    0  0.10458979998E+02  0.23326555813E+02  0.14790772247E+02  0.95555521634E+02  0.90876687342E+02 0.  0.
         11    1    3    3    0    0  0.38720288212E+01  0.51857481273E+02  0.32512352124E+02  0.61328981829E+02  0.51100000000E-03 0.  1.
         22    1    1    0    0    0 -0.10458979998E+02 -0.23326555813E+02 -0.14790772247E+02  0.29534478366E+02  0.00000000000E+00 0.  1.
</event>
<event>
 5    1  0.1046082E-009  0.9118800E+02  0.7561462E-02  0.1125453E+00
         25   -1    0    0    0    0  0.00000000000E+00  0.00000000000E+00  0.99999998245E-14  0.12509000000E+03  0.12509000000E+03 0.  0.
        -11    1    3    3    0    0  0.71697251003E+01  0.31851250050E+02  0.16165629583E+02  0.36431232039E+02  0.51100000000E-03 0.  1.
         23    2    1    0    0    0  0.88611287628E+01 -0.26725424976E+02  0.93231570748E+01  0.95430445031E+02  0.90704358428E+02 0.  0.
         11    1    3    3    0    0  0.16914036625E+01 -0.58576675026E+02 -0.68424725082E+01  0.58999212993E+02  0.51100000000E-03 0. -1.
         22    1    1    0    0    0 -0.88611287628E+01  0.26725424976E+02 -0.93231570748E+01  0.29659554969E+02  0.00000000000E+00 0. -1.
</event>
<event>
 5    1  0.1046082E-009  0.9118800E+02  0.7561462E-02  0.1125453E+00
         25   -1    0    0    0    0  0.00000000000E+00  0.00000000000E+00  0.99999998245E-14  0.12509000000E+03  0.12509000000E+03 0.  0.
        -11    1    3    3    0    0 -0.95495226018E+01 -0.15292266768E+02 -0.55091550872E+02  0.57966591952E+02  0.51100000000E-03 0.  1.
         23    2    1    0    0    0 -0.13606202768E+02  0.70916195825E+01 -0.26051840850E+02  0.94855611736E+02  0.89908113338E+02 0.  0.
         11    1    3    3    0    0 -0.40566801665E+01  0.22383886351E+02  0.29039710022E+02  0.36889019783E+02  0.51100000000E-03 0. -1.
         22    1    1    0    0    0  0.13606202768E+02 -0.70916195825E+01  0.26051840850E+02  0.30234388264E+02  0.00000000000E+00 0.  1.
</event>
<event>
 5    1  0.1046082E-009  0.9118800E+02  0.7561462E-02  0.1125453E+00
         25   -1    0    0    0    0  0.00000000000E+00  0.00000000000E+00  0.99999998245E-14  0.12509000000E+03  0.12509000000E+03 0.  0.
        -11    1    3    3    0    0  0.62815415090E+01 -0.33369332867E+02 -0.30507462113E+02  0.45647293288E+02  0.51100000000E-03 0. -1.
         23    2    1    0    0    0 -0.24776306573E+02  0.28606935420E+01 -0.15729863770E+02  0.95603095294E+02  0.90942147988E+02 0.  0.
         11    1    3    3    0    0 -0.31057848082E+02  0.36230026409E+02  0.14777598343E+02  0.49955802006E+02  0.51100000000E-03 0.  1.
         22    1    1    0    0    0  0.24776306573E+02 -0.28606935420E+01  0.15729863770E+02  0.29486904706E+02  0.00000000000E+00 0. -1.
</event>
<event>
 5    1  0.1046082E-009  0.9118800E+02  0.7561462E-02  0.1125453E+00
         25   -1    0    0    0    0  0.00000000000E+00  0.00000000000E+00  0.99999998245E-14  0.12509000000E+03  0.12509000000E+03 0.  0.
        -11    1    3    3    0    0  0.96758875618E+01  0.33933879928E+02 -0.41559023286E+02  0.54518652073E+02  0.51100000000E-03 0.  1.
         23    2    1    0    0    0 -0.15560954494E+02  0.22558890640E+02 -0.11536093767E+02  0.95355704799E+02  0.90601225857E+02 0.  0.
         11    1    3    3    0    0 -0.25236842056E+02 -0.11374989288E+02  0.30022929519E+02  0.40837052727E+02  0.51100000000E-03 0. -1.
         22    1    1    0    0    0  0.15560954494E+02 -0.22558890640E+02  0.11536093767E+02  0.29734295201E+02  0.00000000000E+00 0.  1.
</event>
<event>
 5    1  0.1046082E-009  0.9118800E+02  0.7561462E-02  0.1125453E+00
         25   -1    0    0    0    0  0.00000000000E+00  0.00000000000E+00  0.99999998245E-14  0.12509000000E+03  0.12509000000E+03 0.  0.
        -11    1    3    3    0    0 -0.31585587437E+02 -0.26610774143E+02  0.49327516416E+01  0.41594647170E+02  0.51100000000E-03 0. -1.
         23    2    1    0    0    0  0.18426686005E+02 -0.22484053859E+02  0.14378729860E+02  0.92658174466E+02  0.86796969923E+02 0.  0.
         11    1    3    3    0    0  0.50012273442E+02  0.41267202836E+01  0.94459782189E+01  0.51063527296E+02  0.51100000000E-03 0.  1.
         22    1    1    0    0    0 -0.18426686005E+02  0.22484053859E+02 -0.14378729860E+02  0.32431825534E+02  0.00000000000E+00 0.  1.
</event>
<event>
 5    1  0.1046082E-009  0.9118800E+02  0.7561462E-02  0.1125453E+00
         25   -1    0    0    0    0  0.00000000000E+00  0.00000000000E+00  0.99999998245E-14  0.12509000000E+03  0.12509000000E+03 0.  0.
        -11    1    3    3    0    0  0.73629717522E+01  0.45874046247E+02 -0.40566258984E+02  0.61678706539E+02  0.51100000000E-03 0. -1.
         23    2    1    0    0    0  0.41960476077E+01  0.26418638635E+02 -0.13598992047E+02  0.95081936625E+02  0.90222451778E+02 0.  0.
         11    1    3    3    0    0 -0.31669241445E+01 -0.19455407612E+02  0.26967266937E+02  0.33403230086E+02  0.51100000000E-03 0.  1.
         22    1    1    0    0    0 -0.41960476077E+01 -0.26418638635E+02  0.13598992047E+02  0.30008063375E+02  0.00000000000E+00 0. -1.
</event>
<event>
 5    1  0.1046082E-009  0.9118800E+02  0.7561462E-02  0.1125453E+00
         25   -1    0    0    0    0  0.00000000000E+00  0.00000000000E+00  0.99999998245E-14  0.12509000000E+03  0.12509000000E+03 0.  0.
        -11    1    3    3    0    0  0.36051773441E+02  0.39084897896E+02  0.73836084713E+00  0.53178047997E+02  0.51100000000E-03 0.  1.
         23    2    1    0    0    0  0.72789690803E+01  0.38395251921E+02 -0.11351982602E+02  0.84395451594E+02  0.73936093891E+02 0.  0.
         11    1    3    3    0    0 -0.28772804361E+02 -0.68964597483E+00 -0.12090343449E+02  0.31217403597E+02  0.51100000000E-03 0. -1.
         22    1    1    0    0    0 -0.72789690803E+01 -0.38395251921E+02  0.11351982602E+02  0.40694548406E+02  0.00000000000E+00 0.  1.
</event>
<event>
 5    1  0.1046082E-009  0.9118800E+02  0.7561462E-02  0.1125453E+00
         25   -1    0    0    0    0  0.00000000000E+00  0.00000000000E+00  0.99999998245E-14  0.12509000000E+03  0.12509000000E+03 0.  0.
        -11    1    3    3    0    0  0.62104581169E+01  0.35130567586E+02 -0.17532163500E+02  0.39750513534E+02  0.51100000000E-03 0.  1.
         23    2    1    0    0    0 -0.22150547196E+02 -0.14148578755E+02 -0.93451287342E+01  0.97194472528E+02  0.93105343762E+02 0.  0.
         11    1    3    3    0    0 -0.28361005313E+02 -0.49279146341E+02  0.81870347657E+01  0.57443958995E+02  0.51100000000E-03 0. -1.
         22    1    1    0    0    0  0.22150547196E+02  0.14148578755E+02  0.93451287342E+01  0.27895527472E+02  0.00000000000E+00 0. -1.
</event>
<event>
 5    1  0.1046082E-009  0.9118800E+02  0.7561462E-02  0.1125453E+00
         25   -1    0    0    0    0  0.00000000000E+00  0.00000000000E+00  0.99999998245E-14  0.12509000000E+03  0.12509000000E+03 0.  0.
        -11    1    3    3    0    0 -0.26432149975E+02 -0.43832203599E+01 -0.51963401705E+02  0.58464230860E+02  0.51100000000E-03 0.  1.
         23    2    1    0    0    0 -0.21267851463E+01 -0.14853866395E+02 -0.22231170758E+02  0.98268636963E+02  0.94537503115E+02 0.  0.
         11    1    3    3    0    0  0.24305364828E+02 -0.10470646035E+02  0.29732230947E+02  0.39804406103E+02  0.51100000000E-03 0. -1.
         22    1    1    0    0    0  0.21267851463E+01  0.14853866395E+02  0.22231170758E+02  0.26821363037E+02  0.00000000000E+00 0.  1.
</event>
<event>
 5    1  0.1046082E-009  0.9118800E+02  0.7561462E-02  0.1125453E+00
         25   -1    0    0    0    0  0.00000000000E+00  0.00000000000E+00  0.99999998245E-14  0.12509000000E+03  0.12509000000E+03 0.  0.
        -11    1    3    3    0    0  0.30538884007E+02 -0.34436366932E+01  0.13423394638E+02  0.33536093898E+02  0.51100000000E-03 0.  1.
         23    2    1    0    0    0 -0.28793012372E+02  0.43288608688E+01 -0.36060493631E+01  0.95750944291E+02  0.91145285905E+02 0.  0.
         11    1    3    3    0    0 -0.59331896379E+02  0.77724975621E+01 -0.17029444001E+02  0.62214850394E+02  0.51100000000E-03 0. -1.
         22    1    1    0    0    0  0.28793012372E+02 -0.43288608688E+01  0.36060493631E+01  0.29339055709E+02  0.00000000000E+00 0. -1.
</event>
<event>
 5    1  0.1046082E-009  0.9118800E+02  0.7561462E-02  0.1125453E+00
         25   -1    0    0    0    0  0.00000000000E+00  0.00000000000E+00  0.99999998245E-14  0.12509000000E+03  0.12509000000E+03 0.  0.
        -11    1    3    3    0    0  0.42693349557E+02  0.44388626178E+02 -0.53988917989E+01  0.61824107461E+02  0.51100000000E-03 0.  1.
         23    2    1    0    0    0  0.15152878123E+02  0.24895443679E+02 -0.46758137557E+01  0.95572952965E+02  0.90900678065E+02 0.  0.
         11    1    3    3    0    0 -0.27540471435E+02 -0.19493182498E+02  0.72307804323E+00  0.33748845504E+02  0.51100000000E-03 0. -1.
         22    1    1    0    0    0 -0.15152878123E+02 -0.24895443679E+02  0.46758137557E+01  0.29517047035E+02  0.00000000000E+00 0.  1.
</event>
<event>
 5    1  0.1046082E-009  0.9118800E+02  0.7561462E-02  0.1125453E+00
         25   -1    0    0    0    0  0.00000000000E+00  0.00000000000E+00  0.99999998245E-14  0.12509000000E+03  0.12509000000E+03 0.  0.
        -11    1    3    3    0    0  0.88949096837E+01  0.27549545044E+01 -0.59095563406E+02  0.59824700644E+02  0.51100000000E-03 0. -1.
         23    2    1    0    0    0  0.54206127458E+01 -0.11591030947E+02 -0.30767289086E+02  0.91767918452E+02  0.85504325846E+02 0.  0.
         11    1    3    3    0    0 -0.34742969379E+01 -0.14345985451E+02  0.28328274320E+02  0.31943217809E+02  0.51100000000E-03 0.  1.
         22    1    1    0    0    0 -0.54206127458E+01  0.11591030947E+02  0.30767289086E+02  0.33322081548E+02  0.00000000000E+00 0. -1.
</event>
<event>
 5    1  0.1046082E-009  0.9118800E+02  0.7561462E-02  0.1125453E+00
         25   -1    0    0    0    0  0.00000000000E+00  0.00000000000E+00  0.99999998245E-14  0.12509000000E+03  0.12509000000E+03 0.  0.
        -11    1    3    3    0    0  0.45900590557E+02  0.85595821472E+01  0.35373586870E+02  0.58578334803E+02  0.51100000000E-03 0.  1.
         23    2    1    0    0    0  0.20237598802E+02  0.18523014731E+02  0.10391100436E+02  0.95753377013E+02  0.91148624571E+02 0.  0.
         11    1    3    3    0    0 -0.25662991755E+02  0.99634325835E+01 -0.24982486434E+02  0.37175042210E+02  0.51100000000E-03 0. -1.
         22    1    1    0    0    0 -0.20237598802E+02 -0.18523014731E+02 -0.10391100436E+02  0.29336622987E+02  0.00000000000E+00 0.  1.
</event>
<event>
 5    1  0.1046082E-009  0.9118800E+02  0.7561462E-02  0.1125453E+00
         25   -1    0    0    0    0  0.00000000000E+00  0.00000000000E+00  0.99999998245E-14  0.12509000000E+03  0.12509000000E+03 0.  0.
        -11    1    3    3    0    0  0.11662852516E+02 -0.12358425234E+02  0.23595914714E+02  0.29077826510E+02  0.51100000000E-03 0.  1.
         23    2    1    0    0    0 -0.49664726398E+01  0.37844368429E+02  0.16619405340E+00  0.86920775581E+02  0.78091814776E+02 0.  0.
         11    1    3    3    0    0 -0.16629325156E+02  0.50202793663E+02 -0.23429720661E+02  0.57842949071E+02  0.51100000000E-03 0. -1.
         22    1    1    0    0    0  0.49664726398E+01 -0.37844368429E+02 -0.16619405340E+00  0.38169224419E+02  0.00000000000E+00 0. -1.
</event>
<event>
 5    1  0.1046082E-009  0.9118800E+02  0.7561462E-02  0.1125453E+00
         25   -1    0    0    0    0  0.00000000000E+00  0.00000000000E+00  0.99999998245E-14  0.12509000000E+03  0.12509000000E+03 0.  0.
        -11    1    3    3    0    0 -0.19991187698E+02 -0.30220879596E+02  0.23127737857E+02  0.42986525886E+02  0.51100000000E-03 0. -1.
         23    2    1    0    0    0  0.23150941584E+02 -0.15678723337E+02 -0.52601695138E+01  0.96639027345E+02  0.92356070516E+02 0.  0.
         11    1    3    3    0    0  0.43142129282E+02  0.14542156259E+02 -0.28387907371E+02  0.53652501459E+02  0.51100000000E-03 0.  1.
         22    1    1    0    0    0 -0.23150941584E+02  0.15678723337E+02  0.52601695138E+01  0.28450972655E+02  0.00000000000E+00 0.  1.
</event>
<event>
 5    1  0.1046082E-009  0.9118800E+02  0.7561462E-02  0.1125453E+00
         25   -1    0    0    0    0  0.00000000000E+00  0.00000000000E+00  0.99999998245E-14  0.12509000000E+03  0.12509000000E+03 0.  0.
        -11    1    3    3    0    0 -0.57740232225E+01  0.38931376974E+02 -0.98608810221E+01  0.40573740672E+02  0.51100000000E-03 0. -1.
         23    2    1    0    0    0 -0.16034570185E+02 -0.11738548595E+01  0.25451481703E+02  0.94985792700E+02  0.90089053262E+02 0.  0.
         11    1    3    3    0    0 -0.10260546963E+02 -0.40105231834E+02  0.35312362726E+02  0.54412052028E+02  0.51100000000E-03 0.  1.
         22    1    1    0    0    0  0.16034570185E+02  0.11738548595E+01 -0.25451481703E+02  0.30104207300E+02  0.00000000000E+00 0.  1.
</event>
<event>
 5    1  0.1046082E-009  0.9118800E+02  0.7561462E-02  0.1125453E+00
         25   -1    0    0    0    0  0.00000000000E+00  0.00000000000E+00  0.99999998245E-14  0.12509000000E+03  0.12509000000E+03 0.  0.
        -11    1    3    3    0    0 -0.42338358537E+02  0.40269258438E+02  0.64924464542E+01  0.58790319272E+02  0.51100000000E-03 0.  1.
         23    2    1    0    0    0 -0.98347541371E+01  0.21502364576E+02  0.14751939080E+02  0.97220773640E+02  0.93140673442E+02 0.  0.
         11    1    3    3    0    0  0.32503604400E+02 -0.18766893863E+02  0.82594926258E+01  0.38430454369E+02  0.51100000000E-03 0. -1.
         22    1    1    0    0    0  0.98347541371E+01 -0.21502364576E+02 -0.14751939080E+02  0.27869226360E+02  0.00000000000E+00 0.  1.
</event>
<event>
 5    1  0.1046082E-009  0.9118800E+02  0.7561462E-02  0.1125453E+00
         25   -1    0    0    0    0  0.00000000000E+00  0.00000000000E+00  0.99999998245E-14  0.12509000000E+03  0.12509000000E+03 0.  0.
        -11    1    3    3    0    0  0.38921151828E+02  0.10471094039E+02 -0.42343634709E+02  0.58459244527E+02  0.51100000000E-03 0. -1.
         23    2    1    0    0    0  0.27128524930E+02 -0.24960884610E+01 -0.85350388153E+01  0.96541195996E+02  0.92223469433E+02 0.  0.
         11    1    3    3    0    0 -0.11792626898E+02 -0.12967182500E+02  0.33808595894E+02  0.38081951469E+02  0.51100000000E-03 0.  1.
         22    1    1    0    0    0 -0.27128524930E+02  0.24960884610E+01  0.85350388153E+01  0.28548804004E+02  0.00000000000E+00 0. -1.
</event>
<event>
 5    1  0.1046082E-009  0.9118800E+02  0.7561462E-02  0.1125453E+00
         25   -1    0    0    0    0  0.00000000000E+00  0.00000000000E+00  0.99999998245E-14  0.12509000000E+03  0.12509000000E+03 0.  0.
        -11    1    3    3    0    0 -0.14955779963E+02  0.24144684753E+02  0.30851568353E+02  0.41934000838E+02  0.51100000000E-03 0. -1.
         23    2    1    0    0    0  0.19033950868E+02 -0.15600278122E+02  0.13414634658E+02  0.97061222179E+02  0.92926145216E+02 0.  0.
         11    1    3    3    0    0  0.33989730831E+02 -0.39744962875E+02 -0.17436933695E+02  0.55127221341E+02  0.51100000000E-03 0.  1.
         22    1    1    0    0    0 -0.19033950868E+02  0.15600278122E+02 -0.13414634658E+02  0.28028777821E+02  0.00000000000E+00 0.  1.
</event>
<event>
 5    1  0.1046082E-009  0.9118800E+02  0.7561462E-02  0.1125453E+00
         25   -1    0    0    0    0  0.00000000000E+00  0.00000000000E+00  0.99999998245E-14  0.12509000000E+03  0.12509000000E+03 0.  0.
        -11    1    3    3    0    0 -0.26701477681E+02 -0.43051429533E+02 -0.16210359924E+02  0.53189945143E+02  0.51100000000E-03 0. -1.
         23    2    1    0    0    0 -0.27356368045E+02 -0.57631715180E+00 -0.90528816765E+01  0.96268867463E+02  0.91853345948E+02 0.  0.
         11    1    3    3    0    0 -0.65489036412E+00  0.42475112381E+02  0.71574782473E+01  0.43078922320E+02  0.51100000000E-03 0.  1.
         22    1    1    0    0    0  0.27356368045E+02  0.57631715180E+00  0.90528816765E+01  0.28821132537E+02  0.00000000000E+00 0.  1.
</event>
<event>
 5    1  0.1046082E-009  0.9118800E+02  0.7561462E-02  0.1125453E+00
         25   -1    0    0    0    0  0.00000000000E+00  0.00000000000E+00  0.99999998245E-14  0.12509000000E+03  0.12509000000E+03 0.  0.
        -11    1    3    3    0    0 -0.66624434855E+01  0.12763794762E+02  0.28637891367E+02  0.32053571285E+02  0.51100000000E-03 0.  1.
         23    2    1    0    0    0  0.26237317715E+02 -0.44420315786E+01 -0.18957532103E+02  0.92417128855E+02  0.86448881988E+02 0.  0.
         11    1    3    3    0    0  0.32899761200E+02 -0.17205826341E+02 -0.47595423469E+02  0.60363557571E+02  0.51100000000E-03 0. -1.
         22    1    1    0    0    0 -0.26237317715E+02  0.44420315786E+01  0.18957532103E+02  0.32672871145E+02  0.00000000000E+00 0. -1.
</event>
<event>
 5    1  0.1046082E-009  0.9118800E+02  0.7561462E-02  0.1125453E+00
         25   -1    0    0    0    0  0.00000000000E+00  0.00000000000E+00  0.99999998245E-14  0.12509000000E+03  0.12509000000E+03 0.  0.
        -11    1    3    3    0    0 -0.38386178070E+01  0.32294047755E+02  0.32815127952E+02  0.46200358547E+02  0.51100000000E-03 0.  1.
         23    2    1    0    0    0 -0.19093797455E+02  0.90231479950E+01 -0.13352112765E+02  0.10010461995E+03  0.96936400382E+02 0.  0.
         11    1    3    3    0    0 -0.15255179648E+02 -0.23270899760E+02 -0.46167240717E+02  0.53904261403E+02  0.51100000000E-03 0. -1.
         22    1    1    0    0    0  0.19093797455E+02 -0.90231479950E+01  0.13352112765E+02  0.24985380051E+02  0.00000000000E+00 0. -1.
</event>
<event>
 5    1  0.1046082E-009  0.9118800E+02  0.7561462E-02  0.1125453E+00
         25   -1    0    0    0    0  0.00000000000E+00  0.00000000000E+00  0.99999998245E-14  0.12509000000E+03  0.12509000000E+03 0.  0.
        -11    1    3    3    0    0  0.20147052654E+02  0.33683351409E+02 -0.33474162487E+02  0.51584798607E+02  0.51100000000E-03 0.  1.
         23    2    1    0    0    0 -0.94027382068E+01  0.11289098149E+01 -0.27562217500E+02  0.95946188364E+02  0.91412850874E+02 0.  0.
         11    1    3    3    0    0 -0.29549790861E+02 -0.32554441594E+02  0.59119449872E+01  0.44361389758E+02  0.51100000000E-03 0. -1.
         22    1    1    0    0    0  0.94027382068E+01 -0.11289098149E+01  0.27562217500E+02  0.29143811636E+02  0.00000000000E+00 0. -1.
</event>
<event>
 5    1  0.1046082E-009  0.9118800E+02  0.7561462E-02  0.1125453E+00
         25   -1    0    0    0    0  0.00000000000E+00  0.00000000000E+00  0.99999998245E-14  0.12509000000E+03  0.12509000000E+03 0.  0.
        -11    1    3    3    0    0  0.17502665149E+02 -0.28497261983E+02  0.19334055629E+02  0.38629560380E+02  0.51100000000E-03 0.  1.
         23    2    1    0    0    0 -0.29303956358E+02 -0.13188327985E+01  0.11276931401E+01  0.95734713083E+02  0.91123007079E+02 0.  0.
         11    1    3    3    0    0 -0.46806621507E+02  0.27178429184E+02 -0.18206362489E+02  0.57105152702E+02  0.51100000000E-03 0. -1.
         22    1    1    0    0    0  0.29303956358E+02  0.13188327985E+01 -0.11276931401E+01  0.29355286917E+02  0.00000000000E+00 0. -1.
</event>
<event>
 5    1  0.1046082E-009  0.9118800E+02  0.7561462E-02  0.1125453E+00
         25   -1    0    0    0    0  0.00000000000E+00  0.00000000000E+00  0.99999998245E-14  0.12509000000E+03  0.12509000000E+03 0.  0.
        -11    1    3    3    0    0 -0.12171457588E+02 -0.25518857679E+02 -0.27305394607E+02  0.39305738156E+02  0.51100000000E-03 0.  1.
         23    2    1    0    0    0 -0.40059356462E+02 -0.90371728816E+01  0.33266535121E+01  0.83889403434E+02  0.73074912597E+02 0.  0.
         11    1    3    3    0    0 -0.27887898873E+02  0.16481684798E+02  0.30632048119E+02  0.44583665278E+02  0.51100000000E-03 0. -1.
         22    1    1    0    0    0  0.40059356462E+02  0.90371728816E+01 -0.33266535121E+01  0.41200596566E+02  0.00000000000E+00 0. -1.
</event>
<event>
 5    1  0.1046082E-009  0.9118800E+02  0.7561462E-02  0.1125453E+00
         25   -1    0    0    0    0  0.00000000000E+00  0.00000000000E+00  0.99999998245E-14  0.12509000000E+03  0.12509000000E+03 0.  0.
        -11    1    3    3    0    0 -0.22090727319E+02 -0.35677066409E+02 -0.92967484066E+01  0.42980028295E+02  0.51100000000E-03 0.  1.
         23    2    1    0    0    0 -0.15652939128E+02  0.18634006572E+02 -0.12434592275E+02  0.97761264403E+02  0.93863757800E+02 0.  0.
         11    1    3    3    0    0  0.64377881906E+01  0.54311072981E+02 -0.31378438683E+01  0.54781236108E+02  0.51100000000E-03 0. -1.
         22    1    1    0    0    0  0.15652939128E+02 -0.18634006572E+02  0.12434592275E+02  0.27328735597E+02  0.00000000000E+00 0. -1.
</event>
<event>
 5    1  0.1046082E-009  0.9118800E+02  0.7561462E-02  0.1125453E+00
         25   -1    0    0    0    0  0.00000000000E+00  0.00000000000E+00  0.99999998245E-14  0.12509000000E+03  0.12509000000E+03 0.  0.
        -11    1    3    3    0    0  0.22893001003E+00 -0.40982000086E+01  0.37838803257E+02  0.38060776194E+02  0.51100000000E-03 0.  1.
         23    2    1    0    0    0  0.25868012406E+02 -0.81843189788E+01 -0.12893420712E+02  0.95050402122E+02  0.90178719790E+02 0.  0.
         11    1    3    3    0    0  0.25639082396E+02 -0.40861189702E+01 -0.50732223969E+02  0.56989625929E+02  0.51100000000E-03 0. -1.
         22    1    1    0    0    0 -0.25868012406E+02  0.81843189788E+01  0.12893420712E+02  0.30039597878E+02  0.00000000000E+00 0. -1.
</event>
<event>
 5    1  0.1046082E-009  0.9118800E+02  0.7561462E-02  0.1125453E+00
         25   -1    0    0    0    0  0.00000000000E+00  0.00000000000E+00  0.99999998245E-14  0.12509000000E+03  0.12509000000E+03 0.  0.
        -11    1    3    3    0    0  0.85491266541E+01 -0.14292982102E+02  0.31119441800E+02  0.35295843411E+02  0.51100000000E-03 0. -1.
         23    2    1    0    0    0  0.12215508847E+02  0.13437149656E+01 -0.26909916146E+02  0.95506764658E+02  0.90809549510E+02 0.  0.
         11    1    3    3    0    0  0.36663821924E+01  0.15636697067E+02 -0.58029357946E+02  0.60210921247E+02  0.51100000000E-03 0.  1.
         22    1    1    0    0    0 -0.12215508847E+02 -0.13437149656E+01  0.26909916146E+02  0.29583235342E+02  0.00000000000E+00 0.  1.
</event>
<event>
 5    1  0.1046082E-009  0.9118800E+02  0.7561462E-02  0.1125453E+00
         25   -1    0    0    0    0  0.00000000000E+00  0.00000000000E+00  0.99999998245E-14  0.12509000000E+03  0.12509000000E+03 0.  0.
        -11    1    3    3    0    0  0.26220806599E+02 -0.22359938634E+02  0.25529985670E+01  0.34554527292E+02  0.51100000000E-03 0.  1.
         23    2    1    0    0    0 -0.15973655737E+02  0.19330885062E+02 -0.14304446929E+02  0.96220327386E+02  0.91787218094E+02 0.  0.
         11    1    3    3    0    0 -0.42194462336E+02  0.41690823696E+02 -0.16857445496E+02  0.61665800094E+02  0.51100000000E-03 0. -1.
         22    1    1    0    0    0  0.15973655737E+02 -0.19330885062E+02  0.14304446929E+02  0.28869672614E+02  0.00000000000E+00 0. -1.
</event>
<event>
 5    1  0.1046082E-009  0.9118800E+02  0.7561462E-02  0.1125453E+00
         25   -1    0    0    0    0  0.00000000000E+00  0.00000000000E+00  0.99999998245E-14  0.12509000000E+03  0.12509000000E+03 0.  0.
        -11    1    3    3    0    0  0.10965133432E+02  0.25436825613E+02  0.14652864229E+02  0.31336443302E+02  0.51100000000E-03 0.  1.
         23    2    1    0    0    0 -0.13002252189E+01 -0.19937979836E+02 -0.25178584495E+02  0.92946964320E+02  0.87212174801E+02 0.  0.
         11    1    3    3    0    0 -0.12265358651E+02 -0.45374805449E+02 -0.39831448724E+02  0.61610521018E+02  0.51100000000E-03 0. -1.
         22    1    1    0    0    0  0.13002252189E+01  0.19937979836E+02  0.25178584495E+02  0.32143035680E+02  0.00000000000E+00 0. -1.
</event>
<event>
 5    1  0.1046082E-009  0.9118800E+02  0.7561462E-02  0.1125453E+00
         25   -1    0    0    0    0  0.00000000000E+00  0.00000000000E+00  0.99999998245E-14  0.12509000000E+03  0.12509000000E+03 0.  0.
        -11    1    3    3    0    0  0.57697957798E+01  0.46559927732E+02  0.30504319282E+02  0.55960976661E+02  0.51100000000E-03 0.  1.
         23    2    1    0    0    0 -0.78490455238E+01  0.28900851576E+02 -0.16558325424E+01  0.95096525396E+02  0.90242676287E+02 0.  0.
         11    1    3    3    0    0 -0.13618841304E+02 -0.17659076156E+02 -0.32160151824E+02  0.39135548735E+02  0.51100000000E-03 0. -1.
         22    1    1    0    0    0  0.78490455238E+01 -0.28900851576E+02  0.16558325424E+01  0.29993474604E+02  0.00000000000E+00 0.  1.
</event>
<event>
 5    1  0.1046082E-009  0.9118800E+02  0.7561462E-02  0.1125453E+00
         25   -1    0    0    0    0  0.00000000000E+00  0.00000000000E+00  0.99999998245E-14  0.12509000000E+03  0.12509000000E+03 0.  0.
        -11    1    3    3    0    0  0.40703715286E+02  0.75106630556E+01 -0.30537416841E+02  0.51436721563E+02  0.51100000000E-03 0. -1.
         23    2    1    0    0    0 -0.15924756218E+01  0.17674218740E+02 -0.23717848645E+02  0.95468211886E+02  0.90756427594E+02 0.  0.
         11    1    3    3    0    0 -0.42296190907E+02  0.10163555685E+02  0.68195681955E+01  0.44031490323E+02  0.51100000000E-03 0.  1.
         22    1    1    0    0    0  0.15924756218E+01 -0.17674218740E+02  0.23717848645E+02  0.29621788114E+02  0.00000000000E+00 0. -1.
</event>
<event>
 5    1  0.1046082E-009  0.9118800E+02  0.7561462E-02  0.1125453E+00
         25   -1    0    0    0    0  0.00000000000E+00  0.00000000000E+00  0.99999998245E-14  0.12509000000E+03  0.12509000000E+03 0.  0.
        -11    1    3    3    0    0 -0.21162624952E+02 -0.27022377695E+02  0.48482788338E+02  0.59402410359E+02  0.51100000000E-03 0. -1.
         23    2    1    0    0    0 -0.21897968675E+02 -0.92044287237E+01  0.16026287626E+02  0.96435429068E+02  0.92079897612E+02 0.  0.
         11    1    3    3    0    0 -0.73534372302E+00  0.17817948971E+02 -0.32456500713E+02  0.37033018709E+02  0.51100000000E-03 0.  1.
         22    1    1    0    0    0  0.21897968675E+02  0.92044287237E+01 -0.16026287626E+02  0.28654570932E+02  0.00000000000E+00 0. -1.
</event>
<event>
 5    1  0.1046082E-009  0.9118800E+02  0.7561462E-02  0.1125453E+00
         25   -1    0    0    0    0  0.00000000000E+00  0.00000000000E+00  0.99999998245E-14  0.12509000000E+03  0.12509000000E+03 0.  0.
        -11    1    3    3    0    0 -0.68491201910E+00  0.56458599733E+02 -0.17235093949E+02  0.59034659751E+02  0.51100000000E-03 0.  1.
         23    2    1    0    0    0 -0.72065995419E+01  0.15488761712E+02 -0.17655807022E+02  0.10052245356E+03  0.97474095699E+02 0.  0.
         11    1    3    3    0    0 -0.65216875228E+01 -0.40969838021E+02 -0.42071307378E+00  0.41487793812E+02  0.51100000000E-03 0. -1.
         22    1    1    0    0    0  0.72065995419E+01 -0.15488761712E+02  0.17655807022E+02  0.24567546437E+02  0.00000000000E+00 0.  1.
</event>
<event>
 5    1  0.1046082E-009  0.9118800E+02  0.7561462E-02  0.1125453E+00
         25   -1    0    0    0    0  0.00000000000E+00  0.00000000000E+00  0.99999998245E-14  0.12509000000E+03  0.12509000000E+03 0.  0.
        -11    1    3    3    0    0  0.98731547735E+01  0.47641627889E+02  0.19215897745E+02  0.52311132845E+02  0.51100000000E-03 0.  1.
         23    2    1    0    0    0 -0.19537242324E+02  0.14224805243E+02  0.14075481819E+02  0.97122731448E+02  0.93008907388E+02 0.  0.
         11    1    3    3    0    0 -0.29410397098E+02 -0.33416822646E+02 -0.51404159252E+01  0.44811598603E+02  0.51100000000E-03 0. -1.
         22    1    1    0    0    0  0.19537242324E+02 -0.14224805243E+02 -0.14075481819E+02  0.27967268552E+02  0.00000000000E+00 0.  1.
</event>
<event>
 5    1  0.1046082E-009  0.9118800E+02  0.7561462E-02  0.1125453E+00
         25   -1    0    0    0    0  0.00000000000E+00  0.00000000000E+00  0.99999998245E-14  0.12509000000E+03  0.12509000000E+03 0.  0.
        -11    1    3    3    0    0  0.12336372722E+02  0.56698927797E+02 -0.10881043865E+02  0.59036866627E+02  0.51100000000E-03 0. -1.
         23    2    1    0    0    0 -0.72653518309E+01  0.24891049080E+02 -0.12223367587E+02  0.96423636842E+02  0.92063876549E+02 0.  0.
         11    1    3    3    0    0 -0.19601724553E+02 -0.31807878717E+02 -0.13423237219E+01  0.37386770216E+02  0.51100000000E-03 0.  1.
         22    1    1    0    0    0  0.72653518309E+01 -0.24891049080E+02  0.12223367587E+02  0.28666363158E+02  0.00000000000E+00 0. -1.
</event>
<event>
 5    1  0.1046082E-009  0.9118800E+02  0.7561462E-02  0.1125453E+00
         25   -1    0    0    0    0  0.00000000000E+00  0.00000000000E+00  0.99999998245E-14  0.12509000000E+03  0.12509000000E+03 0.  0.
        -11    1    3    3    0    0  0.28125627539E+02 -0.26114814485E+02  0.55602042604E+01  0.38780798492E+02  0.51100000000E-03 0. -1.
         23    2    1    0    0    0 -0.22486187306E+02 -0.70922091408E+01 -0.15573512318E+02  0.96832924143E+02  0.92618318178E+02 0.  0.
         11    1    3    3    0    0 -0.50611814845E+02  0.19022605344E+02 -0.21133716578E+02  0.58052125651E+02  0.51100000000E-03 0.  1.
         22    1    1    0    0    0  0.22486187306E+02  0.70922091408E+01  0.15573512318E+02  0.28257075857E+02  0.00000000000E+00 0.  1.
</event>
<event>
 5    1  0.1046082E-009  0.9118800E+02  0.7561462E-02  0.1125453E+00
         25   -1    0    0    0    0  0.00000000000E+00  0.00000000000E+00  0.99999998245E-14  0.12509000000E+03  0.12509000000E+03 0.  0.
        -11    1    3    3    0    0  0.47379536551E+02 -0.15201191897E+02  0.23290459025E+02  0.54939441213E+02  0.51100000000E-03 0. -1.
         23    2    1    0    0    0  0.31755644938E+02  0.37633947690E+01 -0.53411468125E+01  0.92669142903E+02  0.86812775970E+02 0.  0.
         11    1    3    3    0    0 -0.15623891614E+02  0.18964586666E+02 -0.28631605837E+02  0.37729701691E+02  0.51100000000E-03 0.  1.
         22    1    1    0    0    0 -0.31755644938E+02 -0.37633947690E+01  0.53411468125E+01  0.32420857097E+02  0.00000000000E+00 0. -1.
</event>
<event>
 5    1  0.1046082E-009  0.9118800E+02  0.7561462E-02  0.1125453E+00
         25   -1    0    0    0    0  0.00000000000E+00  0.00000000000E+00  0.99999998245E-14  0.12509000000E+03  0.12509000000E+03 0.  0.
        -11    1    3    3    0    0 -0.17648332070E+01  0.52978671928E+02  0.67689972227E+01  0.53438503339E+02  0.51100000000E-03 0.  1.
         23    2    1    0    0    0  0.21105905645E+02  0.19907491016E+02 -0.56704133300E+01  0.95527844480E+02  0.90838582288E+02 0.  0.
         11    1    3    3    0    0  0.22870738852E+02 -0.33071180912E+02 -0.12439410553E+02  0.42089341141E+02  0.51100000000E-03 0. -1.
         22    1    1    0    0    0 -0.21105905645E+02 -0.19907491016E+02  0.56704133300E+01  0.29562155520E+02  0.00000000000E+00 0.  1.
</event>
<event>
 5    1  0.1046082E-009  0.9118800E+02  0.7561462E-02  0.1125453E+00
         25   -1    0    0    0    0  0.00000000000E+00  0.00000000000E+00  0.99999998245E-14  0.12509000000E+03  0.12509000000E+03 0.  0.
        -11    1    3    3    0    0 -0.42977488806E+02  0.20115355830E+01 -0.11210710541E+02  0.44461116164E+02  0.51100000000E-03 0.  1.
         23    2    1    0    0    0 -0.23429586375E+01  0.27552934057E+02  0.82222310290E+01  0.96241105508E+02  0.91815530690E+02 0.  0.
         11    1    3    3    0    0  0.40634530169E+02  0.25541398474E+02  0.19432941570E+02  0.51779989343E+02  0.51100000000E-03 0. -1.
         22    1    1    0    0    0  0.23429586375E+01 -0.27552934057E+02 -0.82222310290E+01  0.28848894492E+02  0.00000000000E+00 0. -1.
</event>
<event>
 5    1  0.1046082E-009  0.9118800E+02  0.7561462E-02  0.1125453E+00
         25   -1    0    0    0    0  0.00000000000E+00  0.00000000000E+00  0.99999998245E-14  0.12509000000E+03  0.12509000000E+03 0.  0.
        -11    1    3    3    0    0  0.39147991023E+02  0.22026626455E+01 -0.37976237499E+02  0.54585818110E+02  0.51100000000E-03 0.  1.
         23    2    1    0    0    0  0.38169132408E+01 -0.14880505212E+02 -0.24676134143E+02  0.96022666818E+02  0.91517444701E+02 0.  0.
         11    1    3    3    0    0 -0.35331077782E+02 -0.17083167858E+02  0.13300103356E+02  0.41436848708E+02  0.51100000000E-03 0. -1.
         22    1    1    0    0    0 -0.38169132408E+01  0.14880505212E+02  0.24676134143E+02  0.29067333182E+02  0.00000000000E+00 0.  1.
</event>
<event>
 5    1  0.1046082E-009  0.9118800E+02  0.7561462E-02  0.1125453E+00
         25   -1    0    0    0    0  0.00000000000E+00  0.00000000000E+00  0.99999998245E-14  0.12509000000E+03  0.12509000000E+03 0.  0.
        -11    1    3    3    0    0  0.60775991475E+01 -0.12874111065E+02 -0.29106522102E+02  0.32401690948E+02  0.51100000000E-03 0. -1.
         23    2    1    0    0    0 -0.42421700172E+01  0.12355656262E+02  0.27175666701E+02  0.94937469281E+02  0.90021930465E+02 0.  0.
         11    1    3    3    0    0 -0.10319769165E+02  0.25229767327E+02  0.56282188803E+02  0.62535778333E+02  0.51100000000E-03 0.  1.
         22    1    1    0    0    0  0.42421700172E+01 -0.12355656262E+02 -0.27175666701E+02  0.30152530719E+02  0.00000000000E+00 0.  1.
</event>
<event>
 5    1  0.1046082E-009  0.9118800E+02  0.7561462E-02  0.1125453E+00
         25   -1    0    0    0    0  0.00000000000E+00  0.00000000000E+00  0.99999998245E-14  0.12509000000E+03  0.12509000000E+03 0.  0.
        -11    1    3    3    0    0  0.33582989081E+01  0.32490444604E+02  0.22366101482E+02  0.39587241100E+02  0.51100000000E-03 0.  1.
         23    2    1    0    0    0  0.11234311261E+02  0.26717691676E+01 -0.25824125231E+02  0.96801600541E+02  0.92576002956E+02 0.  0.
         11    1    3    3    0    0  0.78760123524E+01 -0.29818675436E+02 -0.48190226713E+02  0.57214359441E+02  0.51100000000E-03 0. -1.
         22    1    1    0    0    0 -0.11234311261E+02 -0.26717691676E+01  0.25824125231E+02  0.28288399459E+02  0.00000000000E+00 0. -1.
</event>
<event>
 5    1  0.1046082E-009  0.9118800E+02  0.7561462E-02  0.1125453E+00
         25   -1    0    0    0    0  0.00000000000E+00  0.00000000000E+00  0.99999998245E-14  0.12509000000E+03  0.12509000000E+03 0.  0.
        -11    1    3    3    0    0 -0.31080074807E+02 -0.23496164347E+02  0.12931552035E+02  0.41051989323E+02  0.51100000000E-03 0.  1.
         23    2    1    0    0    0  0.55405279317E+01  0.26514139176E+01 -0.24654447610E+02  0.99681945520E+02  0.96389423850E+02 0.  0.
         11    1    3    3    0    0  0.36620602739E+02  0.26147578265E+02 -0.37585999645E+02  0.58629956197E+02  0.51100000000E-03 0. -1.
         22    1    1    0    0    0 -0.55405279317E+01 -0.26514139176E+01  0.24654447610E+02  0.25408054480E+02  0.00000000000E+00 0. -1.
</event>
<event>
 5    1  0.1046082E-009  0.9118800E+02  0.7561462E-02  0.1125453E+00
         25   -1    0    0    0    0  0.00000000000E+00  0.00000000000E+00  0.99999998245E-14  0.12509000000E+03  0.12509000000E+03 0.  0.
        -11    1    3    3    0    0  0.20324863373E+02 -0.47139247005E+02  0.31088070015E+02  0.60013971513E+02  0.51100000000E-03 0.  1.
         23    2    1    0    0    0  0.12772754594E+02 -0.12082346096E+02  0.21847426664E+02  0.97046526625E+02  0.92906361090E+02 0.  0.
         11    1    3    3    0    0 -0.75521087788E+01  0.35056900908E+02 -0.92406433504E+01  0.37032555112E+02  0.51100000000E-03 0. -1.
         22    1    1    0    0    0 -0.12772754594E+02  0.12082346096E+02 -0.21847426664E+02  0.28043473375E+02  0.00000000000E+00 0.  1.
</event>
<event>
 5    1  0.1046082E-009  0.9118800E+02  0.7561462E-02  0.1125453E+00
         25   -1    0    0    0    0  0.00000000000E+00  0.00000000000E+00  0.99999998245E-14  0.12509000000E+03  0.12509000000E+03 0.  0.
        -11    1    3    3    0    0  0.35158955144E+02 -0.37190542124E+02 -0.17149928489E+02  0.53976000201E+02  0.51100000000E-03 0.  1.
         23    2    1    0    0    0  0.29122453226E+02  0.78574759501E-01  0.11765563926E+01  0.95943683924E+02  0.91409423716E+02 0.  0.
         11    1    3    3    0    0 -0.60365019187E+01  0.37269116883E+02  0.18326484881E+02  0.41967683722E+02  0.51100000000E-03 0. -1.
         22    1    1    0    0    0 -0.29122453226E+02 -0.78574759501E-01 -0.11765563926E+01  0.29146316076E+02  0.00000000000E+00 0.  1.
</event>
<event>
 5    1  0.1046082E-009  0.9118800E+02  0.7561462E-02  0.1125453E+00
         25   -1    0    0    0    0  0.00000000000E+00  0.00000000000E+00  0.99999998245E-14  0.12509000000E+03  0.12509000000E+03 0.  0.
        -11    1    3    3    0    0 -0.49778749677E+02  0.23069576216E+02 -0.20671537989E+02  0.58629700232E+02  0.51100000000E-03 0.  1.
         23    2    1    0    0    0 -0.30952111053E+02  0.12584062661E+01  0.37038860663E-01  0.94112296134E+02  0.88867914045E+02 0.  0.
         11    1    3    3    0    0  0.18826638625E+02 -0.21811169950E+02  0.20708576850E+02  0.35482595902E+02  0.51100000000E-03 0. -1.
         22    1    1    0    0    0  0.30952111053E+02 -0.12584062661E+01 -0.37038860663E-01  0.30977703866E+02  0.00000000000E+00 0.  1.
</event>
<event>
 5    1  0.1046082E-009  0.9118800E+02  0.7561462E-02  0.1125453E+00
         25   -1    0    0    0    0  0.00000000000E+00  0.00000000000E+00  0.99999998245E-14  0.12509000000E+03  0.12509000000E+03 0.  0.
        -11    1    3    3    0    0  0.22948892679E+02  0.25001419023E+02  0.12840614148E+02  0.36285038243E+02  0.51100000000E-03 0.  1.
         23    2    1    0    0    0 -0.15457708629E+02  0.25422083530E+01 -0.25596406257E+02  0.95080341677E+02  0.90220240416E+02 0.  0.
         11    1    3    3    0    0 -0.38406601308E+02 -0.22459210670E+02 -0.38437020405E+02  0.58795303434E+02  0.51100000000E-03 0. -1.
         22    1    1    0    0    0  0.15457708629E+02 -0.25422083530E+01  0.25596406257E+02  0.30009658323E+02  0.00000000000E+00 0. -1.
</event>
<event>
 5    1  0.1046082E-009  0.9118800E+02  0.7561462E-02  0.1125453E+00
         25   -1    0    0    0    0  0.00000000000E+00  0.00000000000E+00  0.99999998245E-14  0.12509000000E+03  0.12509000000E+03 0.  0.
        -11    1    3    3    0    0  0.22223497714E+02  0.53457964242E+02 -0.96733060228E+01  0.58695916734E+02  0.51100000000E-03 0. -1.
         23    2    1    0    0    0  0.29688967023E+01  0.23666797422E+02 -0.18091293256E+02  0.95152957068E+02  0.90320865249E+02 0.  0.
         11    1    3    3    0    0 -0.19254601012E+02 -0.29791166820E+02 -0.84179872329E+01  0.36457040335E+02  0.51100000000E-03 0.  1.
         22    1    1    0    0    0 -0.29688967023E+01 -0.23666797422E+02  0.18091293256E+02  0.29937042932E+02  0.00000000000E+00 0. -1.
</event>
<event>
 5    1  0.1046082E-009  0.9118800E+02  0.7561462E-02  0.1125453E+00
         25   -1    0    0    0    0  0.00000000000E+00  0.00000000000E+00  0.99999998245E-14  0.12509000000E+03  0.12509000000E+03 0.  0.
        -11    1    3    3    0    0 -0.39351499881E+02  0.10521874112E+02 -0.23960705105E+02  0.47258499417E+02  0.51100000000E-03 0.  1.
         23    2    1    0    0    0  0.29383505142E+01 -0.14495715707E+02 -0.24585858631E+02  0.96398117486E+02  0.92029196088E+02 0.  0.
         11    1    3    3    0    0  0.42289850395E+02 -0.25017589819E+02 -0.62515352548E+00  0.49139618069E+02  0.51100000000E-03 0. -1.
         22    1    1    0    0    0 -0.29383505142E+01  0.14495715707E+02  0.24585858631E+02  0.28691882514E+02  0.00000000000E+00 0. -1.
</event>
<event>
 5    1  0.1046082E-009  0.9118800E+02  0.7561462E-02  0.1125453E+00
         25   -1    0    0    0    0  0.00000000000E+00  0.00000000000E+00  0.99999998245E-14  0.12509000000E+03  0.12509000000E+03 0.  0.
        -11    1    3    3    0    0  0.20204189985E+02 -0.26845832525E+02 -0.32968560030E+02  0.47072645641E+02  0.51100000000E-03 0.  1.
         23    2    1    0    0    0 -0.15197924647E+02  0.98865010026E+00 -0.29066088749E+02  0.92275493181E+02  0.86243694170E+02 0.  0.
         11    1    3    3    0    0 -0.35402114632E+02  0.27834482625E+02  0.39024712815E+01  0.45202847541E+02  0.51100000000E-03 0. -1.
         22    1    1    0    0    0  0.15197924647E+02 -0.98865010026E+00  0.29066088749E+02  0.32814506819E+02  0.00000000000E+00 0. -1.
</event>
<event>
 5    1  0.1046082E-009  0.9118800E+02  0.7561462E-02  0.1125453E+00
         25   -1    0    0    0    0  0.00000000000E+00  0.00000000000E+00  0.99999998245E-14  0.12509000000E+03  0.12509000000E+03 0.  0.
        -11    1    3    3    0    0 -0.40975131159E+02  0.28555151141E+02 -0.24238279314E+02  0.55514432489E+02  0.51100000000E-03 0. -1.
         23    2    1    0    0    0 -0.30283689461E+02 -0.20003526925E+01 -0.22313594158E+01  0.94658400911E+02  0.89633312111E+02 0.  0.
         11    1    3    3    0    0  0.10691441698E+02 -0.30555503834E+02  0.22006919899E+02  0.39143968422E+02  0.51100000000E-03 0.  1.
         22    1    1    0    0    0  0.30283689461E+02  0.20003526925E+01  0.22313594158E+01  0.30431599089E+02  0.00000000000E+00 0. -1.
</event>
<event>
 5    1  0.1046082E-009  0.9118800E+02  0.7561462E-02  0.1125453E+00
         25   -1    0    0    0    0  0.00000000000E+00  0.00000000000E+00  0.99999998245E-14  0.12509000000E+03  0.12509000000E+03 0.  0.
        -11    1    3    3    0    0  0.22544799133E+02  0.20537110034E+02 -0.45744224954E+02  0.54977949883E+02  0.51100000000E-03 0.  1.
         23    2    1    0    0    0  0.63011758844E+01  0.26377941369E+02 -0.74773984003E+01  0.96957952523E+02  0.92787027446E+02 0.  0.
         11    1    3    3    0    0 -0.16243623249E+02  0.58408313348E+01  0.38266826553E+02  0.41980002640E+02  0.51100000000E-03 0. -1.
         22    1    1    0    0    0 -0.63011758844E+01 -0.26377941369E+02  0.74773984003E+01  0.28132047477E+02  0.00000000000E+00 0.  1.
</event>
<event>
 5    1  0.1046082E-009  0.9118800E+02  0.7561462E-02  0.1125453E+00
         25   -1    0    0    0    0  0.00000000000E+00  0.00000000000E+00  0.99999998245E-14  0.12509000000E+03  0.12509000000E+03 0.  0.
        -11    1    3    3    0    0  0.34748816153E+02 -0.21575179945E+02  0.49191938409E+01  0.41196687755E+02  0.51100000000E-03 0.  1.
         23    2    1    0    0    0 -0.18840706638E+02 -0.18992760531E+02  0.12815419482E+02  0.95426349589E+02  0.90698710246E+02 0.  0.
         11    1    3    3    0    0 -0.53589522791E+02  0.25824194135E+01  0.78962256406E+01  0.54229661834E+02  0.51100000000E-03 0. -1.
         22    1    1    0    0    0  0.18840706638E+02  0.18992760531E+02 -0.12815419482E+02  0.29663650411E+02  0.00000000000E+00 0. -1.
</event>
<event>
 5    1  0.1046082E-009  0.9118800E+02  0.7561462E-02  0.1125453E+00
         25   -1    0    0    0    0  0.00000000000E+00  0.00000000000E+00  0.99999998245E-14  0.12509000000E+03  0.12509000000E+03 0.  0.
        -11    1    3    3    0    0  0.74375092546E+01 -0.42623454988E+02 -0.24038726576E+00  0.43268155095E+02  0.51100000000E-03 0.  1.
         23    2    1    0    0    0  0.29359941010E+02 -0.35091419671E+00  0.13418229470E+02  0.92807215749E+02  0.87011500021E+02 0.  0.
         11    1    3    3    0    0  0.21922431756E+02  0.42272540791E+02  0.13658616736E+02  0.49539060654E+02  0.51100000000E-03 0. -1.
         22    1    1    0    0    0 -0.29359941010E+02  0.35091419671E+00 -0.13418229470E+02  0.32282784251E+02  0.00000000000E+00 0. -1.
</event>
<event>
 5    1  0.1046082E-009  0.9118800E+02  0.7561462E-02  0.1125453E+00
         25   -1    0    0    0    0  0.00000000000E+00  0.00000000000E+00  0.99999998245E-14  0.12509000000E+03  0.12509000000E+03 0.  0.
        -11    1    3    3    0    0 -0.10368428921E+02  0.37690430563E+01  0.41283543645E+02  0.42732200739E+02  0.51100000000E-03 0.  1.
         23    2    1    0    0    0  0.20649886703E+02  0.16490067171E+02 -0.32395061755E+01  0.98466053327E+02  0.94798360331E+02 0.  0.
         11    1    3    3    0    0  0.31018315624E+02  0.12721024115E+02 -0.44523049821E+02  0.55733852588E+02  0.51100000000E-03 0. -1.
         22    1    1    0    0    0 -0.20649886703E+02 -0.16490067171E+02  0.32395061755E+01  0.26623946673E+02  0.00000000000E+00 0.  1.
</event>
<event>
 5    1  0.1046082E-009  0.9118800E+02  0.7561462E-02  0.1125453E+00
         25   -1    0    0    0    0  0.00000000000E+00  0.00000000000E+00  0.99999998245E-14  0.12509000000E+03  0.12509000000E+03 0.  0.
        -11    1    3    3    0    0  0.11322864444E+02 -0.10972335492E+02 -0.55176902889E+02  0.57385451275E+02  0.51100000000E-03 0. -1.
         23    2    1    0    0    0  0.11376959636E+02  0.11839689236E+02 -0.23532839620E+02  0.96394913446E+02  0.92024840917E+02 0.  0.
         11    1    3    3    0    0  0.54095192481E-01  0.22812024727E+02  0.31644063269E+02  0.39009462171E+02  0.51100000000E-03 0.  1.
         22    1    1    0    0    0 -0.11376959636E+02 -0.11839689236E+02  0.23532839620E+02  0.28695086554E+02  0.00000000000E+00 0. -1.
</event>
<event>
 5    1  0.1046082E-009  0.9118800E+02  0.7561462E-02  0.1125453E+00
         25   -1    0    0    0    0  0.00000000000E+00  0.00000000000E+00  0.99999998245E-14  0.12509000000E+03  0.12509000000E+03 0.  0.
        -11    1    3    3    0    0 -0.16368946548E+02 -0.28683099987E+02  0.39914370966E+02  0.51805594735E+02  0.51100000000E-03 0.  1.
         23    2    1    0    0    0  0.14855918989E+02 -0.24027556059E+02  0.10507660365E+02  0.94949782590E+02  0.90039038801E+02 0.  0.
         11    1    3    3    0    0  0.31224865537E+02  0.46555439274E+01 -0.29406710601E+02  0.43144187855E+02  0.51100000000E-03 0. -1.
         22    1    1    0    0    0 -0.14855918989E+02  0.24027556059E+02 -0.10507660365E+02  0.30140217410E+02  0.00000000000E+00 0.  1.
</event>
<event>
 5    1  0.1046082E-009  0.9118800E+02  0.7561462E-02  0.1125453E+00
         25   -1    0    0    0    0  0.00000000000E+00  0.00000000000E+00  0.99999998245E-14  0.12509000000E+03  0.12509000000E+03 0.  0.
        -11    1    3    3    0    0  0.32397577836E+02  0.36437315044E+01  0.49591733644E+02  0.59348292941E+02  0.51100000000E-03 0.  1.
         23    2    1    0    0    0  0.22692594184E+02  0.10203810265E+02  0.14616203282E+02  0.96233372111E+02  0.91804994063E+02 0.  0.
         11    1    3    3    0    0 -0.97049836517E+01  0.65600787606E+01 -0.34975530362E+02  0.36885079170E+02  0.51100000000E-03 0. -1.
         22    1    1    0    0    0 -0.22692594184E+02 -0.10203810265E+02 -0.14616203282E+02  0.28856627889E+02  0.00000000000E+00 0.  1.
</event>
<event>
 5    1  0.1046082E-009  0.9118800E+02  0.7561462E-02  0.1125453E+00
         25   -1    0    0    0    0  0.00000000000E+00  0.00000000000E+00  0.99999998245E-14  0.12509000000E+03  0.12509000000E+03 0.  0.
        -11    1    3    3    0    0 -0.35121536230E+01  0.27368484233E+02  0.25477878535E+02  0.37556510051E+02  0.51100000000E-03 0.  1.
         23    2    1    0    0    0 -0.38424413971E+01  0.42785478653E+01 -0.28367895731E+02  0.96145089637E+02  0.91684624804E+02 0.  0.
         11    1    3    3    0    0 -0.33028777407E+00 -0.23089936368E+02 -0.53845774265E+02  0.58588579587E+02  0.51100000000E-03 0. -1.
         22    1    1    0    0    0  0.38424413971E+01 -0.42785478653E+01  0.28367895731E+02  0.28944910363E+02  0.00000000000E+00 0. -1.
</event>
<event>
 5    1  0.1046082E-009  0.9118800E+02  0.7561462E-02  0.1125453E+00
         25   -1    0    0    0    0  0.00000000000E+00  0.00000000000E+00  0.99999998245E-14  0.12509000000E+03  0.12509000000E+03 0.  0.
        -11    1    3    3    0    0 -0.27767579022E+02  0.13900179672E+02 -0.83888679651E+01  0.32165611228E+02  0.51100000000E-03 0.  1.
         23    2    1    0    0    0  0.19892095482E+02 -0.15185156862E+01  0.25551377689E+02  0.92672809277E+02  0.86818058749E+02 0.  0.
         11    1    3    3    0    0  0.47659674504E+02 -0.15418695359E+02  0.33940245655E+02  0.60507198049E+02  0.51100000000E-03 0. -1.
         22    1    1    0    0    0 -0.19892095482E+02  0.15185156862E+01 -0.25551377689E+02  0.32417190723E+02  0.00000000000E+00 0. -1.
</event>
<event>
 5    1  0.1046082E-009  0.9118800E+02  0.7561462E-02  0.1125453E+00
         25   -1    0    0    0    0  0.00000000000E+00  0.00000000000E+00  0.99999998245E-14  0.12509000000E+03  0.12509000000E+03 0.  0.
        -11    1    3    3    0    0  0.46675301771E+02  0.85185204496E+01 -0.25598379957E+02  0.53911279365E+02  0.51100000000E-03 0.  1.
         23    2    1    0    0    0  0.24366395467E+02 -0.21251354316E+00  0.11557471064E+02  0.98120729942E+02  0.94341592720E+02 0.  0.
         11    1    3    3    0    0 -0.22308906304E+02 -0.87310339927E+01  0.37155851020E+02  0.44209450578E+02  0.51100000000E-03 0. -1.
         22    1    1    0    0    0 -0.24366395467E+02  0.21251354316E+00 -0.11557471064E+02  0.26969270058E+02  0.00000000000E+00 0.  1.
</event>
<event>
 5    1  0.1046082E-009  0.9118800E+02  0.7561462E-02  0.1125453E+00
         25   -1    0    0    0    0  0.00000000000E+00  0.00000000000E+00  0.99999998245E-14  0.12509000000E+03  0.12509000000E+03 0.  0.
        -11    1    3    3    0    0 -0.82528822820E+01 -0.44965635669E+02 -0.32273245316E+02  0.55960529131E+02  0.51100000000E-03 0.  1.
         23    2    1    0    0    0  0.13350168510E+02 -0.25365739972E+02 -0.48082965803E+01  0.96025116040E+02  0.91520792342E+02 0.  0.
         11    1    3    3    0    0  0.21603050792E+02  0.19599895697E+02  0.27464948736E+02  0.40064586909E+02  0.51100000000E-03 0. -1.
         22    1    1    0    0    0 -0.13350168510E+02  0.25365739972E+02  0.48082965803E+01  0.29064883960E+02  0.00000000000E+00 0.  1.
</event>
<event>
 5    1  0.1046082E-009  0.9118800E+02  0.7561462E-02  0.1125453E+00
         25   -1    0    0    0    0  0.00000000000E+00  0.00000000000E+00  0.99999998245E-14  0.12509000000E+03  0.12509000000E+03 0.  0.
        -11    1    3    3    0    0  0.24316624756E+01  0.16061732628E+02 -0.28599302699E+02  0.32890915958E+02  0.51100000000E-03 0.  1.
         23    2    1    0    0    0 -0.17333208995E+02 -0.28311354820E+02  0.43829795491E+01  0.91605922358E+02  0.85267001562E+02 0.  0.
         11    1    3    3    0    0 -0.19764871471E+02 -0.44373087449E+02  0.32982282248E+02  0.58715006400E+02  0.51100000000E-03 0. -1.
         22    1    1    0    0    0  0.17333208995E+02  0.28311354820E+02 -0.43829795491E+01  0.33484077642E+02  0.00000000000E+00 0. -1.
</event>
<event>
 5    1  0.1046082E-009  0.9118800E+02  0.7561462E-02  0.1125453E+00
         25   -1    0    0    0    0  0.00000000000E+00  0.00000000000E+00  0.99999998245E-14  0.12509000000E+03  0.12509000000E+03 0.  0.
        -11    1    3    3    0    0 -0.48106532657E+02 -0.24190747229E+02 -0.26897431986E+02  0.60190552278E+02  0.51100000000E-03 0. -1.
         23    2    1    0    0    0 -0.15589202008E+02 -0.10156385523E+02 -0.22522386549E+02  0.95876419562E+02  0.91317328838E+02 0.  0.
         11    1    3    3    0    0  0.32517330648E+02  0.14034361707E+02  0.43750454375E+01  0.35685867285E+02  0.51100000000E-03 0.  1.
         22    1    1    0    0    0  0.15589202008E+02  0.10156385523E+02  0.22522386549E+02  0.29213580438E+02  0.00000000000E+00 0. -1.
</event>
<event>
 5    1  0.1046082E-009  0.9118800E+02  0.7561462E-02  0.1125453E+00
         25   -1    0    0    0    0  0.00000000000E+00  0.00000000000E+00  0.99999998245E-14  0.12509000000E+03  0.12509000000E+03 0.  0.
        -11    1    3    3    0    0  0.10512512373E+02 -0.40274649780E+02 -0.46597641347E+02  0.62481201258E+02  0.51100000000E-03 0.  1.
         23    2    1    0    0    0  0.63276339778E+01 -0.21624366560E+02 -0.22383273564E+02  0.93330542884E+02  0.87760623965E+02 0.  0.
         11    1    3    3    0    0 -0.41848783952E+01  0.18650283219E+02  0.24214367783E+02  0.30849341626E+02  0.51100000000E-03 0. -1.
         22    1    1    0    0    0 -0.63276339778E+01  0.21624366560E+02  0.22383273564E+02  0.31759457116E+02  0.00000000000E+00 0.  1.
</event>
<event>
 5    1  0.1046082E-009  0.9118800E+02  0.7561462E-02  0.1125453E+00
         25   -1    0    0    0    0  0.00000000000E+00  0.00000000000E+00  0.99999998245E-14  0.12509000000E+03  0.12509000000E+03 0.  0.
        -11    1    3    3    0    0  0.34558294548E+02 -0.38447552427E+02  0.12339760258E+02  0.53148468399E+02  0.51100000000E-03 0.  1.
         23    2    1    0    0    0  0.16299228048E+02 -0.17358659776E+01  0.24227284512E+02  0.95838685833E+02  0.91265625083E+02 0.  0.
         11    1    3    3    0    0 -0.18259066500E+02  0.36711686450E+02  0.11887524254E+02  0.42690217434E+02  0.51100000000E-03 0. -1.
         22    1    1    0    0    0 -0.16299228048E+02  0.17358659776E+01 -0.24227284512E+02  0.29251314167E+02  0.00000000000E+00 0.  1.
</event>
<event>
 5    1  0.1046082E-009  0.9118800E+02  0.7561462E-02  0.1125453E+00
         25   -1    0    0    0    0  0.00000000000E+00  0.00000000000E+00  0.99999998245E-14  0.12509000000E+03  0.12509000000E+03 0.  0.
        -11    1    3    3    0    0  0.41863228875E+02  0.28447033706E+02 -0.13823380790E+02  0.52467604436E+02  0.51100000000E-03 0. -1.
         23    2    1    0    0    0  0.21856529871E+02 -0.12052114694E+02 -0.11251100952E+02  0.97712114047E+02  0.93798233418E+02 0.  0.
         11    1    3    3    0    0 -0.20006699004E+02 -0.40499148400E+02  0.25722798382E+01  0.45244509612E+02  0.51100000000E-03 0.  1.
         22    1    1    0    0    0 -0.21856529871E+02  0.12052114694E+02  0.11251100952E+02  0.27377885953E+02  0.00000000000E+00 0. -1.
</event>
<event>
 5    1  0.1046082E-009  0.9118800E+02  0.7561462E-02  0.1125453E+00
         25   -1    0    0    0    0  0.00000000000E+00  0.00000000000E+00  0.99999998245E-14  0.12509000000E+03  0.12509000000E+03 0.  0.
        -11    1    3    3    0    0 -0.37366755012E+02  0.27219125321E+02  0.29587351541E+02  0.54886852113E+02  0.51100000000E-03 0.  1.
         23    2    1    0    0    0 -0.27799635186E+02 -0.56506770421E+01  0.70964334706E+01  0.95847749138E+02  0.91278046535E+02 0.  0.
         11    1    3    3    0    0  0.95671198258E+01 -0.32869802363E+02 -0.22490918070E+02  0.40960897025E+02  0.51100000000E-03 0. -1.
         22    1    1    0    0    0  0.27799635186E+02  0.56506770421E+01 -0.70964334706E+01  0.29242250862E+02  0.00000000000E+00 0.  1.
</event>
<event>
 5    1  0.1046082E-009  0.9118800E+02  0.7561462E-02  0.1125453E+00
         25   -1    0    0    0    0  0.00000000000E+00  0.00000000000E+00  0.99999998245E-14  0.12509000000E+03  0.12509000000E+03 0.  0.
        -11    1    3    3    0    0 -0.26368909549E+02  0.26246980790E+02 -0.51629609949E+01  0.37561676718E+02  0.51100000000E-03 0.  1.
         23    2    1    0    0    0 -0.52352404600E+01 -0.26948210817E+02  0.83913178548E+01  0.96384111679E+02  0.92010156830E+02 0.  0.
         11    1    3    3    0    0  0.21133669089E+02 -0.53195191607E+02  0.13554278850E+02  0.58822434961E+02  0.51100000000E-03 0. -1.
         22    1    1    0    0    0  0.52352404600E+01  0.26948210817E+02 -0.83913178548E+01  0.28705888321E+02  0.00000000000E+00 0. -1.
</event>
<event>
 5    1  0.1046082E-009  0.9118800E+02  0.7561462E-02  0.1125453E+00
         25   -1    0    0    0    0  0.00000000000E+00  0.00000000000E+00  0.99999998245E-14  0.12509000000E+03  0.12509000000E+03 0.  0.
        -11    1    3    3    0    0 -0.26015851071E+02  0.45182511644E+01 -0.49062872784E+02  0.55717183944E+02  0.51100000000E-03 0. -1.
         23    2    1    0    0    0  0.63496415781E+01  0.13919090110E+02 -0.13988262804E+02  0.10436005755E+03  0.10228045316E+03 0.  0.
         11    1    3    3    0    0  0.32365492649E+02  0.94008389454E+01  0.35074609980E+02  0.48642873607E+02  0.51100000000E-03 0.  1.
         22    1    1    0    0    0 -0.63496415781E+01 -0.13919090110E+02  0.13988262804E+02  0.20729942449E+02  0.00000000000E+00 0. -1.
</event>
<event>
 5    1  0.1046082E-009  0.9118800E+02  0.7561462E-02  0.1125453E+00
         25   -1    0    0    0    0  0.00000000000E+00  0.00000000000E+00  0.99999998245E-14  0.12509000000E+03  0.12509000000E+03 0.  0.
        -11    1    3    3    0    0  0.14926384146E+02 -0.37119266338E+02  0.13519121311E+02  0.42230362518E+02  0.51100000000E-03 0.  1.
         23    2    1    0    0    0  0.24082112587E+02  0.14799495273E+02  0.10146262506E+02  0.95058019548E+02  0.90189285564E+02 0.  0.
         11    1    3    3    0    0  0.91557284410E+01  0.51918761611E+02 -0.33728588043E+01  0.52827657030E+02  0.51100000000E-03 0. -1.
         22    1    1    0    0    0 -0.24082112587E+02 -0.14799495273E+02 -0.10146262506E+02  0.30031980452E+02  0.00000000000E+00 0. -1.
</event>
<event>
 5    1  0.1046082E-009  0.9118800E+02  0.7561462E-02  0.1125453E+00
         25   -1    0    0    0    0  0.00000000000E+00  0.00000000000E+00  0.99999998245E-14  0.12509000000E+03  0.12509000000E+03 0.  0.
        -11    1    3    3    0    0 -0.14488621290E+02  0.55280945229E+02  0.83043425475E+01  0.57748291384E+02  0.51100000000E-03 0.  1.
         23    2    1    0    0    0  0.94986949613E+01  0.31906949339E+02  0.29099397836E+01  0.91672244665E+02  0.85364243511E+02 0.  0.
         11    1    3    3    0    0  0.23987316251E+02 -0.23373995890E+02 -0.53944027639E+01  0.33923953281E+02  0.51100000000E-03 0. -1.
         22    1    1    0    0    0 -0.94986949613E+01 -0.31906949339E+02 -0.29099397836E+01  0.33417755335E+02  0.00000000000E+00 0.  1.
</event>
<event>
 5    1  0.1046082E-009  0.9118800E+02  0.7561462E-02  0.1125453E+00
         25   -1    0    0    0    0  0.00000000000E+00  0.00000000000E+00  0.99999998245E-14  0.12509000000E+03  0.12509000000E+03 0.  0.
        -11    1    3    3    0    0 -0.56626675302E+02 -0.17675648614E+01 -0.25481143539E+02  0.62120796176E+02  0.51100000000E-03 0.  1.
         23    2    1    0    0    0 -0.26888366001E+02 -0.52118955488E+01 -0.92090321425E+01  0.96194423273E+02  0.91751908505E+02 0.  0.
         11    1    3    3    0    0  0.29738309301E+02 -0.34443306875E+01  0.16272111396E+02  0.34073627096E+02  0.51100000000E-03 0. -1.
         22    1    1    0    0    0  0.26888366001E+02  0.52118955488E+01  0.92090321425E+01  0.28895576727E+02  0.00000000000E+00 0.  1.
</event>
<event>
 5    1  0.1046082E-009  0.9118800E+02  0.7561462E-02  0.1125453E+00
         25   -1    0    0    0    0  0.00000000000E+00  0.00000000000E+00  0.99999998245E-14  0.12509000000E+03  0.12509000000E+03 0.  0.
        -11    1    3    3    0    0 -0.48585795766E+02  0.13267944080E+02  0.32712346216E+02  0.60055936306E+02  0.51100000000E-03 0.  1.
         23    2    1    0    0    0 -0.29066744927E+02  0.27744691002E+01  0.51202886184E+01  0.95445595891E+02  0.90725250510E+02 0.  0.
         11    1    3    3    0    0  0.19519050840E+02 -0.10493474980E+02 -0.27592057598E+02  0.35389659586E+02  0.51100000000E-03 0. -1.
         22    1    1    0    0    0  0.29066744927E+02 -0.27744691002E+01 -0.51202886184E+01  0.29644404109E+02  0.00000000000E+00 0.  1.
</event>
<event>
 5    1  0.1046082E-009  0.9118800E+02  0.7561462E-02  0.1125453E+00
         25   -1    0    0    0    0  0.00000000000E+00  0.00000000000E+00  0.99999998245E-14  0.12509000000E+03  0.12509000000E+03 0.  0.
        -11    1    3    3    0    0 -0.24598656390E+01  0.55499666953E+02 -0.11951043748E+02  0.56825094965E+02  0.51100000000E-03 0. -1.
         23    2    1    0    0    0  0.17594427475E+02  0.22062360106E+02 -0.52460180496E+01  0.96387520718E+02  0.92014791382E+02 0.  0.
         11    1    3    3    0    0  0.20054293114E+02 -0.33437306848E+02  0.67050256983E+01  0.39562425752E+02  0.51100000000E-03 0.  1.
         22    1    1    0    0    0 -0.17594427475E+02 -0.22062360106E+02  0.52460180496E+01  0.28702479282E+02  0.00000000000E+00 0. -1.
</event>
<event>
 5    1  0.1046082E-009  0.9118800E+02  0.7561462E-02  0.1125453E+00
         25   -1    0    0    0    0  0.00000000000E+00  0.00000000000E+00  0.99999998245E-14  0.12509000000E+03  0.12509000000E+03 0.  0.
        -11    1    3    3    0    0 -0.20543610617E+02  0.67736100452E+01 -0.34440240139E+02  0.40670036530E+02  0.51100000000E-03 0. -1.
         23    2    1    0    0    0 -0.13754833667E+01 -0.27652220896E+02  0.55962632559E+01  0.96843665063E+02  0.92632823693E+02 0.  0.
         11    1    3    3    0    0  0.19168127250E+02 -0.34425830941E+02  0.40036503395E+02  0.56173628533E+02  0.51100000000E-03 0.  1.
         22    1    1    0    0    0  0.13754833667E+01  0.27652220896E+02 -0.55962632559E+01  0.28246334937E+02  0.00000000000E+00 0.  1.
</event>
<event>
 5    1  0.1046082E-009  0.9118800E+02  0.7561462E-02  0.1125453E+00
         25   -1    0    0    0    0  0.00000000000E+00  0.00000000000E+00  0.99999998245E-14  0.12509000000E+03  0.12509000000E+03 0.  0.
        -11    1    3    3    0    0  0.16684610530E+01 -0.47132953581E+02 -0.36206042800E+02  0.59457351195E+02  0.51100000000E-03 0.  1.
         23    2    1    0    0    0 -0.11857168664E+02 -0.17912678313E+02 -0.20936752232E+02  0.95093265393E+02  0.90238157317E+02 0.  0.
         11    1    3    3    0    0 -0.13525629717E+02  0.29220275268E+02  0.15269290569E+02  0.35635914198E+02  0.51100000000E-03 0. -1.
         22    1    1    0    0    0  0.11857168664E+02  0.17912678313E+02  0.20936752232E+02  0.29996734607E+02  0.00000000000E+00 0.  1.
</event>
<event>
 5    1  0.1046082E-009  0.9118800E+02  0.7561462E-02  0.1125453E+00
         25   -1    0    0    0    0  0.00000000000E+00  0.00000000000E+00  0.99999998245E-14  0.12509000000E+03  0.12509000000E+03 0.  0.
        -11    1    3    3    0    0 -0.31889899581E+02  0.21925458319E+02  0.49084531803E+02  0.62505861168E+02  0.51100000000E-03 0. -1.
         23    2    1    0    0    0 -0.14616487936E+02  0.11436193503E+02  0.21781681093E+02  0.96474097557E+02  0.92132413551E+02 0.  0.
         11    1    3    3    0    0  0.17273411644E+02 -0.10489264817E+02 -0.27302850710E+02  0.33968236389E+02  0.51100000000E-03 0.  1.
         22    1    1    0    0    0  0.14616487936E+02 -0.11436193503E+02 -0.21781681093E+02  0.28615902443E+02  0.00000000000E+00 0. -1.
</event>
<event>
 5    1  0.1046082E-009  0.9118800E+02  0.7561462E-02  0.1125453E+00
         25   -1    0    0    0    0  0.00000000000E+00  0.00000000000E+00  0.99999998245E-14  0.12509000000E+03  0.12509000000E+03 0.  0.
        -11    1    3    3    0    0 -0.15445358038E+02  0.17120767466E+02 -0.23562848828E+02  0.32967978535E+02  0.51100000000E-03 0. -1.
         23    2    1    0    0    0  0.86927192280E+01 -0.13497671117E+02  0.25082258569E+02  0.95309634185E+02  0.90537595398E+02 0.  0.
         11    1    3    3    0    0  0.24138077266E+02 -0.30618438583E+02  0.48645107396E+02  0.62341655650E+02  0.51100000000E-03 0.  1.
         22    1    1    0    0    0 -0.86927192280E+01  0.13497671117E+02 -0.25082258569E+02  0.29780365815E+02  0.00000000000E+00 0.  1.
</event>
<event>
 5    1  0.1046082E-009  0.9118800E+02  0.7561462E-02  0.1125453E+00
         25   -1    0    0    0    0  0.00000000000E+00  0.00000000000E+00  0.99999998245E-14  0.12509000000E+03  0.12509000000E+03 0.  0.
        -11    1    3    3    0    0  0.27571449992E+02  0.31811845733E+02 -0.17475366240E+02  0.45580333578E+02  0.51100000000E-03 0. -1.
         23    2    1    0    0    0 -0.19736453133E+02  0.21280726939E+02 -0.82472051576E+01  0.94916943903E+02  0.89993404901E+02 0.  0.
         11    1    3    3    0    0 -0.47307903125E+02 -0.10531118794E+02  0.92281610827E+01  0.49336610325E+02  0.51100000000E-03 0.  1.
         22    1    1    0    0    0  0.19736453133E+02 -0.21280726939E+02  0.82472051576E+01  0.30173056097E+02  0.00000000000E+00 0.  1.
</event>
<event>
 5    1  0.1046082E-009  0.9118800E+02  0.7561462E-02  0.1125453E+00
         25   -1    0    0    0    0  0.00000000000E+00  0.00000000000E+00  0.99999998245E-14  0.12509000000E+03  0.12509000000E+03 0.  0.
        -11    1    3    3    0    0  0.29046167999E+02 -0.16355507978E+02  0.20677113777E+02  0.39226592397E+02  0.51100000000E-03 0.  1.
         23    2    1    0    0    0 -0.18934520068E+02  0.16226547223E+02  0.10125707588E+02  0.98176307590E+02  0.94415255827E+02 0.  0.
         11    1    3    3    0    0 -0.47980688068E+02  0.32582055201E+02 -0.10551406188E+02  0.58949715193E+02  0.51100000000E-03 0. -1.
         22    1    1    0    0    0  0.18934520068E+02 -0.16226547223E+02 -0.10125707588E+02  0.26913692410E+02  0.00000000000E+00 0. -1.
</event>
<event>
 5    1  0.1046082E-009  0.9118800E+02  0.7561462E-02  0.1125453E+00
         25   -1    0    0    0    0  0.00000000000E+00  0.00000000000E+00  0.99999998245E-14  0.12509000000E+03  0.12509000000E+03 0.  0.
        -11    1    3    3    0    0 -0.60009019902E+01  0.27343854636E+02  0.23719365072E+02  0.36692035795E+02  0.51100000000E-03 0.  1.
         23    2    1    0    0    0  0.11775571537E+02  0.76395739811E+01 -0.27408153048E+02  0.94296591141E+02  0.89126949189E+02 0.  0.
         11    1    3    3    0    0  0.17776473527E+02 -0.19704280655E+02 -0.51127518121E+02  0.57604555346E+02  0.51100000000E-03 0. -1.
         22    1    1    0    0    0 -0.11775571537E+02 -0.76395739811E+01  0.27408153048E+02  0.30793408859E+02  0.00000000000E+00 0. -1.
</event>
<event>
 5    1  0.1046082E-009  0.9118800E+02  0.7561462E-02  0.1125453E+00
         25   -1    0    0    0    0  0.00000000000E+00  0.00000000000E+00  0.99999998245E-14  0.12509000000E+03  0.12509000000E+03 0.  0.
        -11    1    3    3    0    0  0.20212148057E+02 -0.62636329139E+00  0.35949158484E+02  0.41246396886E+02  0.51100000000E-03 0.  1.
         23    2    1    0    0    0 -0.26786412314E+02 -0.68936514772E+01  0.79498971357E+01  0.96310924619E+02  0.91910603421E+02 0.  0.
         11    1    3    3    0    0 -0.46998560371E+02 -0.62672881858E+01 -0.27999261349E+02  0.55064527733E+02  0.51100000000E-03 0. -1.
         22    1    1    0    0    0  0.26786412314E+02  0.68936514772E+01 -0.79498971357E+01  0.28779075381E+02  0.00000000000E+00 0. -1.
</event>
<event>
 5    1  0.1046082E-009  0.9118800E+02  0.7561462E-02  0.1125453E+00
         25   -1    0    0    0    0  0.00000000000E+00  0.00000000000E+00  0.99999998245E-14  0.12509000000E+03  0.12509000000E+03 0.  0.
        -11    1    3    3    0    0  0.47505465284E+02  0.20012677554E+01  0.40237595980E+02  0.62288349112E+02  0.51100000000E-03 0.  1.
         23    2    1    0    0    0  0.25488723807E+02 -0.21759800194E+01  0.24473656929E+02  0.89687036652E+02  0.82403851424E+02 0.  0.
         11    1    3    3    0    0 -0.22016741477E+02 -0.41772477748E+01 -0.15763939052E+02  0.27398687540E+02  0.51100000000E-03 0. -1.
         22    1    1    0    0    0 -0.25488723807E+02  0.21759800194E+01 -0.24473656929E+02  0.35402963348E+02  0.00000000000E+00 0.  1.
</event>
<event>
 5    1  0.1046082E-009  0.9118800E+02  0.7561462E-02  0.1125453E+00
         25   -1    0    0    0    0  0.00000000000E+00  0.00000000000E+00  0.99999998245E-14  0.12509000000E+03  0.12509000000E+03 0.  0.
        -11    1    3    3    0    0 -0.22927836424E+02 -0.23117850564E+02 -0.23093898144E+02  0.39918026373E+02  0.51100000000E-03 0.  1.
         23    2    1    0    0    0  0.89303641324E+01  0.18716370348E+02 -0.25089347662E+02  0.92539588503E+02  0.86625897696E+02 0.  0.
         11    1    3    3    0    0  0.31858200557E+02  0.41834220912E+02 -0.19954495181E+01  0.52621562130E+02  0.51100000000E-03 0. -1.
         22    1    1    0    0    0 -0.89303641324E+01 -0.18716370348E+02  0.25089347662E+02  0.32550411497E+02  0.00000000000E+00 0. -1.
</event>
<event>
 5    1  0.1046082E-009  0.9118800E+02  0.7561462E-02  0.1125453E+00
         25   -1    0    0    0    0  0.00000000000E+00  0.00000000000E+00  0.99999998245E-14  0.12509000000E+03  0.12509000000E+03 0.  0.
        -11    1    3    3    0    0  0.60299564516E+01  0.30457838572E+02 -0.17941849481E+02  0.35860148750E+02  0.51100000000E-03 0. -1.
         23    2    1    0    0    0 -0.24935182628E+02 -0.17367312766E+02 -0.48692879482E+01  0.94315061324E+02  0.89152868389E+02 0.  0.
         11    1    3    3    0    0 -0.30965139080E+02 -0.47825151338E+02  0.13072561533E+02  0.58454912574E+02  0.51100000000E-03 0.  1.
         22    1    1    0    0    0  0.24935182628E+02  0.17367312766E+02  0.48692879482E+01  0.30774938676E+02  0.00000000000E+00 0.  1.
</event>
<event>
 5    1  0.1046082E-009  0.9118800E+02  0.7561462E-02  0.1125453E+00
         25   -1    0    0    0    0  0.00000000000E+00  0.00000000000E+00  0.99999998245E-14  0.12509000000E+03  0.12509000000E+03 0.  0.
        -11    1    3    3    0    0  0.46393366599E+02 -0.10149124608E+02  0.19631811534E+02  0.51388298465E+02  0.51100000000E-03 0.  1.
         23    2    1    0    0    0  0.23272635183E+01 -0.76746330448E+01  0.27697546903E+02  0.96254774107E+02  0.91834150979E+02 0.  0.
         11    1    3    3    0    0 -0.44066103081E+02  0.24744915636E+01  0.80657353692E+01  0.44866475642E+02  0.51100000000E-03 0. -1.
         22    1    1    0    0    0 -0.23272635183E+01  0.76746330448E+01 -0.27697546903E+02  0.28835225893E+02  0.00000000000E+00 0. -1.
</event>
<event>
 5    1  0.1046082E-009  0.9118800E+02  0.7561462E-02  0.1125453E+00
         25   -1    0    0    0    0  0.00000000000E+00  0.00000000000E+00  0.99999998245E-14  0.12509000000E+03  0.12509000000E+03 0.  0.
        -11    1    3    3    0    0  0.51095686658E+01  0.37058152767E+02  0.45861879708E+02  0.59183835539E+02  0.51100000000E-03 0.  1.
         23    2    1    0    0    0  0.15438667914E+02  0.19799353392E+02  0.15564532800E+02  0.95549831703E+02  0.90868854926E+02 0.  0.
         11    1    3    3    0    0  0.10329099248E+02 -0.17258799376E+02 -0.30297346907E+02  0.36365996165E+02  0.51100000000E-03 0. -1.
         22    1    1    0    0    0 -0.15438667914E+02 -0.19799353392E+02 -0.15564532800E+02  0.29540168297E+02  0.00000000000E+00 0.  1.
</event>
<event>
 5    1  0.1046082E-009  0.9118800E+02  0.7561462E-02  0.1125453E+00
         25   -1    0    0    0    0  0.00000000000E+00  0.00000000000E+00  0.99999998245E-14  0.12509000000E+03  0.12509000000E+03 0.  0.
        -11    1    3    3    0    0 -0.14107722230E+02 -0.31916798049E+02 -0.16905778678E+02  0.38775187649E+02  0.51100000000E-03 0. -1.
         23    2    1    0    0    0  0.30758886012E+02 -0.56486539856E+01 -0.13940536181E+02  0.90850331346E+02  0.84151219814E+02 0.  0.
         11    1    3    3    0    0  0.44866608242E+02  0.26268144064E+02  0.29652424971E+01  0.52075143697E+02  0.51100000000E-03 0.  1.
         22    1    1    0    0    0 -0.30758886012E+02  0.56486539856E+01  0.13940536181E+02  0.34239668654E+02  0.00000000000E+00 0.  1.
</event>
<event>
 5    1  0.1046082E-009  0.9118800E+02  0.7561462E-02  0.1125453E+00
         25   -1    0    0    0    0  0.00000000000E+00  0.00000000000E+00  0.99999998245E-14  0.12509000000E+03  0.12509000000E+03 0.  0.
        -11    1    3    3    0    0 -0.45463865706E+01 -0.21548659182E+02 -0.56897931521E+02  0.61011383815E+02  0.51100000000E-03 0. -1.
         23    2    1    0    0    0  0.39607565245E+01 -0.17190800831E+02 -0.23781215806E+02  0.95479909648E+02  0.90772549241E+02 0.  0.
         11    1    3    3    0    0  0.85071430951E+01  0.43578583509E+01  0.33116715715E+02  0.34468525833E+02  0.51100000000E-03 0.  1.
         22    1    1    0    0    0 -0.39607565245E+01  0.17190800831E+02  0.23781215806E+02  0.29610090352E+02  0.00000000000E+00 0. -1.
</event>
<event>
 5    1  0.1046082E-009  0.9118800E+02  0.7561462E-02  0.1125453E+00
         25   -1    0    0    0    0  0.00000000000E+00  0.00000000000E+00  0.99999998245E-14  0.12509000000E+03  0.12509000000E+03 0.  0.
        -11    1    3    3    0    0 -0.10689145456E+00  0.35370204504E+02 -0.50229410165E+02  0.61433349560E+02  0.51100000000E-03 0.  1.
         23    2    1    0    0    0  0.81006520479E+01  0.15014733623E+02 -0.24197759942E+02  0.95482663484E+02  0.90776344113E+02 0.  0.
         11    1    3    3    0    0  0.82075435024E+01 -0.20355470881E+02  0.26031650223E+02  0.34049313924E+02  0.51100000000E-03 0. -1.
         22    1    1    0    0    0 -0.81006520479E+01 -0.15014733623E+02  0.24197759942E+02  0.29607336516E+02  0.00000000000E+00 0.  1.
</event>
<event>
 5    1  0.1046082E-009  0.9118800E+02  0.7561462E-02  0.1125453E+00
         25   -1    0    0    0    0  0.00000000000E+00  0.00000000000E+00  0.99999998245E-14  0.12509000000E+03  0.12509000000E+03 0.  0.
        -11    1    3    3    0    0  0.20105418619E+02 -0.36861409638E+02  0.38479546877E+02  0.56953199264E+02  0.51100000000E-03 0. -1.
         23    2    1    0    0    0  0.28804067643E+00 -0.27644196015E+02  0.49084742278E+01  0.97011936321E+02  0.92859776700E+02 0.  0.
         11    1    3    3    0    0 -0.19817377942E+02  0.92172136232E+01 -0.33571072649E+02  0.40058737056E+02  0.51100000000E-03 0.  1.
         22    1    1    0    0    0 -0.28804067643E+00  0.27644196015E+02 -0.49084742278E+01  0.28078063679E+02  0.00000000000E+00 0. -1.
</event>
<event>
 5    1  0.1046082E-009  0.9118800E+02  0.7561462E-02  0.1125453E+00
         25   -1    0    0    0    0  0.00000000000E+00  0.00000000000E+00  0.99999998245E-14  0.12509000000E+03  0.12509000000E+03 0.  0.
        -11    1    3    3    0    0 -0.71645904137E+01  0.21726903065E+02  0.33445769594E+02  0.40521712410E+02  0.51100000000E-03 0. -1.
         23    2    1    0    0    0 -0.30799663511E+02 -0.14630433546E+02  0.11639636078E+02  0.89060151455E+02  0.81446673297E+02 0.  0.
         11    1    3    3    0    0 -0.23635073097E+02 -0.36357336611E+02 -0.21806133516E+02  0.48538439046E+02  0.51100000000E-03 0.  1.
         22    1    1    0    0    0  0.30799663511E+02  0.14630433546E+02 -0.11639636078E+02  0.36029848545E+02  0.00000000000E+00 0. -1.
</event>
<event>
 5    1  0.1046082E-009  0.9118800E+02  0.7561462E-02  0.1125453E+00
         25   -1    0    0    0    0  0.00000000000E+00  0.00000000000E+00  0.99999998245E-14  0.12509000000E+03  0.12509000000E+03 0.  0.
        -11    1    3    3    0    0  0.51868367517E+02 -0.18640575936E+02  0.96274621487E+00  0.55124636059E+02  0.51100000000E-03 0.  1.
         23    2    1    0    0    0  0.14840902768E+02 -0.25620037832E+02  0.99383751013E+01  0.93858444913E+02  0.88509873169E+02 0.  0.
         11    1    3    3    0    0 -0.37027464750E+02 -0.69794618964E+01  0.89756288864E+01  0.38733808854E+02  0.51100000000E-03 0. -1.
         22    1    1    0    0    0 -0.14840902768E+02  0.25620037832E+02 -0.99383751013E+01  0.31231555087E+02  0.00000000000E+00 0.  1.
</event>
<event>
 5    1  0.1046082E-009  0.9118800E+02  0.7561462E-02  0.1125453E+00
         25   -1    0    0    0    0  0.00000000000E+00  0.00000000000E+00  0.99999998245E-14  0.12509000000E+03  0.12509000000E+03 0.  0.
        -11    1    3    3    0    0 -0.17583324010E+02  0.33501620504E+02 -0.23274155109E+00  0.37836305694E+02  0.51100000000E-03 0. -1.
         23    2    1    0    0    0 -0.12617509273E+02 -0.24268991776E+02 -0.85917926279E+01  0.96419380847E+02  0.92058093616E+02 0.  0.
         11    1    3    3    0    0  0.49658147365E+01 -0.57770612280E+02 -0.83590510768E+01  0.58583075153E+02  0.51100000000E-03 0.  1.
         22    1    1    0    0    0  0.12617509273E+02  0.24268991776E+02  0.85917926279E+01  0.28670619153E+02  0.00000000000E+00 0.  1.
</event>
<event>
 5    1  0.1046082E-009  0.9118800E+02  0.7561462E-02  0.1125453E+00
         25   -1    0    0    0    0  0.00000000000E+00  0.00000000000E+00  0.99999998245E-14  0.12509000000E+03  0.12509000000E+03 0.  0.
        -11    1    3    3    0    0 -0.46942145049E+02 -0.85116388598E+01  0.11945039573E+02  0.49180249578E+02  0.51100000000E-03 0. -1.
         23    2    1    0    0    0 -0.13247665311E+02 -0.17940030910E+02 -0.18925479680E+02  0.95840741439E+02  0.91268442483E+02 0.  0.
         11    1    3    3    0    0  0.33694479738E+02 -0.94283920501E+01 -0.30870519253E+02  0.46660491861E+02  0.51100000000E-03 0.  1.
         22    1    1    0    0    0  0.13247665311E+02  0.17940030910E+02  0.18925479680E+02  0.29249258561E+02  0.00000000000E+00 0. -1.
</event>
<event>
 5    1  0.1046082E-009  0.9118800E+02  0.7561462E-02  0.1125453E+00
         25   -1    0    0    0    0  0.00000000000E+00  0.00000000000E+00  0.99999998245E-14  0.12509000000E+03  0.12509000000E+03 0.  0.
        -11    1    3    3    0    0  0.45507971119E+02 -0.22174755971E+01  0.11057917853E+02  0.46884647604E+02  0.51100000000E-03 0.  1.
         23    2    1    0    0    0  0.87759886182E+00  0.93953475663E+00  0.29705275436E+02  0.95356915833E+02  0.90602897874E+02 0.  0.
         11    1    3    3    0    0 -0.44630372257E+02  0.31570103538E+01  0.18647357584E+02  0.48472268230E+02  0.51100000000E-03 0. -1.
         22    1    1    0    0    0 -0.87759886182E+00 -0.93953475663E+00 -0.29705275436E+02  0.29733084167E+02  0.00000000000E+00 0.  1.
</event>
<event>
 5    1  0.1046082E-009  0.9118800E+02  0.7561462E-02  0.1125453E+00
         25   -1    0    0    0    0  0.00000000000E+00  0.00000000000E+00  0.99999998245E-14  0.12509000000E+03  0.12509000000E+03 0.  0.
        -11    1    3    3    0    0 -0.21060018427E+02 -0.50608437376E+02  0.20877542263E+02  0.58656713861E+02  0.51100000000E-03 0. -1.
         23    2    1    0    0    0 -0.22792281290E+02 -0.14709979587E+02  0.90848123787E+01  0.96482214315E+02  0.92143433175E+02 0.  0.
         11    1    3    3    0    0 -0.17322628634E+01  0.35898457788E+02 -0.11792729884E+02  0.37825500454E+02  0.51100000000E-03 0.  1.
         22    1    1    0    0    0  0.22792281290E+02  0.14709979587E+02 -0.90848123787E+01  0.28607785685E+02  0.00000000000E+00 0. -1.
</event>
<event>
 5    1  0.1046082E-009  0.9118800E+02  0.7561462E-02  0.1125453E+00
         25   -1    0    0    0    0  0.00000000000E+00  0.00000000000E+00  0.99999998245E-14  0.12509000000E+03  0.12509000000E+03 0.  0.
        -11    1    3    3    0    0  0.10132031494E+02  0.14929777751E+01  0.55832602235E+02  0.56764130553E+02  0.51100000000E-03 0. -1.
         23    2    1    0    0    0 -0.13247988177E+02 -0.62589285919E+01  0.23224480316E+02  0.97629849531E+02  0.93688460632E+02 0.  0.
         11    1    3    3    0    0 -0.23380019671E+02 -0.77519063670E+01 -0.32608121920E+02  0.40865718977E+02  0.51100000000E-03 0.  1.
         22    1    1    0    0    0  0.13247988177E+02  0.62589285919E+01 -0.23224480316E+02  0.27460150469E+02  0.00000000000E+00 0.  1.
</event>
<event>
 5    1  0.1046082E-009  0.9118800E+02  0.7561462E-02  0.1125453E+00
         25   -1    0    0    0    0  0.00000000000E+00  0.00000000000E+00  0.99999998245E-14  0.12509000000E+03  0.12509000000E+03 0.  0.
        -11    1    3    3    0    0  0.21935539491E+02  0.27079124860E+01 -0.57759513112E+02  0.61843852063E+02  0.51100000000E-03 0. -1.
         23    2    1    0    0    0  0.52908616280E+01  0.51945207642E+01 -0.28919789096E+02  0.95234841918E+02  0.90434200671E+02 0.  0.
         11    1    3    3    0    0 -0.16644677863E+02  0.24866082783E+01  0.28839724016E+02  0.33390989855E+02  0.51100000000E-03 0.  1.
         22    1    1    0    0    0 -0.52908616280E+01 -0.51945207642E+01  0.28919789096E+02  0.29855158082E+02  0.00000000000E+00 0. -1.
</event>
<event>
 5    1  0.1046082E-009  0.9118800E+02  0.7561462E-02  0.1125453E+00
         25   -1    0    0    0    0  0.00000000000E+00  0.00000000000E+00  0.99999998245E-14  0.12509000000E+03  0.12509000000E+03 0.  0.
        -11    1    3    3    0    0  0.45268452794E+02  0.19438429201E+01 -0.43195258009E+01  0.45515597843E+02  0.51100000000E-03 0. -1.
         23    2    1    0    0    0  0.10107525261E+02 -0.11678822181E+02  0.26634569328E+02  0.94301085798E+02  0.89133257233E+02 0.  0.
         11    1    3    3    0    0 -0.35160927533E+02 -0.13622665102E+02  0.30954095129E+02  0.48785487954E+02  0.51100000000E-03 0.  1.
         22    1    1    0    0    0 -0.10107525261E+02  0.11678822181E+02 -0.26634569328E+02  0.30788914202E+02  0.00000000000E+00 0. -1.
</event>
<event>
 5    1  0.1046082E-009  0.9118800E+02  0.7561462E-02  0.1125453E+00
         25   -1    0    0    0    0  0.00000000000E+00  0.00000000000E+00  0.99999998245E-14  0.12509000000E+03  0.12509000000E+03 0.  0.
        -11    1    3    3    0    0 -0.26841616404E+02 -0.25442920977E+02 -0.29348208680E+02  0.47213683949E+02  0.51100000000E-03 0.  1.
         23    2    1    0    0    0  0.15275731295E+02 -0.22795275663E+02 -0.18401543486E+01  0.97588023213E+02  0.93632598743E+02 0.  0.
         11    1    3    3    0    0  0.42117347699E+02  0.26476453134E+01  0.27508054332E+02  0.50374339264E+02  0.51100000000E-03 0. -1.
         22    1    1    0    0    0 -0.15275731295E+02  0.22795275663E+02  0.18401543486E+01  0.27501976787E+02  0.00000000000E+00 0.  1.
</event>
<event>
 5    1  0.1046082E-009  0.9118800E+02  0.7561462E-02  0.1125453E+00
         25   -1    0    0    0    0  0.00000000000E+00  0.00000000000E+00  0.99999998245E-14  0.12509000000E+03  0.12509000000E+03 0.  0.
        -11    1    3    3    0    0  0.18103723276E+02 -0.24902180057E+02  0.39401826962E+02  0.50003673228E+02  0.51100000000E-03 0.  1.
         23    2    1    0    0    0 -0.19534263472E+02 -0.56957059063E+01  0.20203602315E+02  0.96415724740E+02  0.92053125507E+02 0.  0.
         11    1    3    3    0    0 -0.37637986748E+02  0.19206474151E+02 -0.19198224647E+02  0.46412051513E+02  0.51100000000E-03 0. -1.
         22    1    1    0    0    0  0.19534263472E+02  0.56957059063E+01 -0.20203602315E+02  0.28674275260E+02  0.00000000000E+00 0.  1.
</event>
<event>
 5    1  0.1046082E-009  0.9118800E+02  0.7561462E-02  0.1125453E+00
         25   -1    0    0    0    0  0.00000000000E+00  0.00000000000E+00  0.99999998245E-14  0.12509000000E+03  0.12509000000E+03 0.  0.
        -11    1    3    3    0    0 -0.57615271159E+01  0.57161282497E+01 -0.39901238844E+02  0.40718278186E+02  0.51100000000E-03 0. -1.
         23    2    1    0    0    0  0.12018435151E+02 -0.30041099136E+02 -0.81845305402E+01  0.91714905079E+02  0.85426733829E+02 0.  0.
         11    1    3    3    0    0  0.17779962267E+02 -0.35757227386E+02  0.31716708304E+02  0.50996626893E+02  0.51100000000E-03 0.  1.
         22    1    1    0    0    0 -0.12018435151E+02  0.30041099136E+02  0.81845305402E+01  0.33375094921E+02  0.00000000000E+00 0.  1.
</event>
<event>
 5    1  0.1046082E-009  0.9118800E+02  0.7561462E-02  0.1125453E+00
         25   -1    0    0    0    0  0.00000000000E+00  0.00000000000E+00  0.99999998245E-14  0.12509000000E+03  0.12509000000E+03 0.  0.
        -11    1    3    3    0    0 -0.18022495970E+02 -0.19967863593E+02 -0.24456655667E+02  0.36354558781E+02  0.51100000000E-03 0. -1.
         23    2    1    0    0    0  0.26115268452E+02  0.96360986891E+01  0.45231605000E+01  0.96888570512E+02  0.92693443515E+02 0.  0.
         11    1    3    3    0    0  0.44137764422E+02  0.29603962282E+02  0.28979816167E+02  0.60534011731E+02  0.51100000000E-03 0.  1.
         22    1    1    0    0    0 -0.26115268452E+02 -0.96360986891E+01 -0.45231605000E+01  0.28201429488E+02  0.00000000000E+00 0.  1.
</event>
<event>
 5    1  0.1046082E-009  0.9118800E+02  0.7561462E-02  0.1125453E+00
         25   -1    0    0    0    0  0.00000000000E+00  0.00000000000E+00  0.99999998245E-14  0.12509000000E+03  0.12509000000E+03 0.  0.
        -11    1    3    3    0    0  0.55287302851E+02 -0.23591684022E+02  0.21865335431E+01  0.60150098426E+02  0.51100000000E-03 0. -1.
         23    2    1    0    0    0  0.29776735494E+02  0.40573534905E+00 -0.78901468588E+00  0.95300049647E+02  0.90524352086E+02 0.  0.
         11    1    3    3    0    0 -0.25510567356E+02  0.23997419371E+02 -0.29755482290E+01  0.35149951221E+02  0.51100000000E-03 0.  1.
         22    1    1    0    0    0 -0.29776735494E+02 -0.40573534905E+00  0.78901468588E+00  0.29789950353E+02  0.00000000000E+00 0. -1.
</event>
<event>
 5    1  0.1046082E-009  0.9118800E+02  0.7561462E-02  0.1125453E+00
         25   -1    0    0    0    0  0.00000000000E+00  0.00000000000E+00  0.99999998245E-14  0.12509000000E+03  0.12509000000E+03 0.  0.
        -11    1    3    3    0    0  0.63523014872E+01 -0.32200396564E+02  0.35103997272E+02  0.48057339687E+02  0.51100000000E-03 0.  1.
         23    2    1    0    0    0 -0.21643984397E+02  0.23109255765E+01  0.21409510567E+02  0.94558547688E+02  0.89493850965E+02 0.  0.
         11    1    3    3    0    0 -0.27996285884E+02  0.34511322140E+02 -0.13694486705E+02  0.46501208001E+02  0.51100000000E-03 0. -1.
         22    1    1    0    0    0  0.21643984397E+02 -0.23109255765E+01 -0.21409510567E+02  0.30531452312E+02  0.00000000000E+00 0.  1.
</event>
<event>
 5    1  0.1046082E-009  0.9118800E+02  0.7561462E-02  0.1125453E+00
         25   -1    0    0    0    0  0.00000000000E+00  0.00000000000E+00  0.99999998245E-14  0.12509000000E+03  0.12509000000E+03 0.  0.
        -11    1    3    3    0    0 -0.14057356330E+02  0.49163768531E+01  0.32771513491E+02  0.35996557129E+02  0.51100000000E-03 0. -1.
         23    2    1    0    0    0  0.20270878329E+02 -0.37617815005E+00 -0.18312005021E+02  0.97770052231E+02  0.93875468399E+02 0.  0.
         11    1    3    3    0    0  0.34328234659E+02 -0.52925550031E+01 -0.51083518513E+02  0.61773495102E+02  0.51100000000E-03 0.  1.
         22    1    1    0    0    0 -0.20270878329E+02  0.37617815005E+00  0.18312005021E+02  0.27319947769E+02  0.00000000000E+00 0.  1.
</event>
<event>
 5    1  0.1046082E-009  0.9118800E+02  0.7561462E-02  0.1125453E+00
         25   -1    0    0    0    0  0.00000000000E+00  0.00000000000E+00  0.99999998245E-14  0.12509000000E+03  0.12509000000E+03 0.  0.
        -11    1    3    3    0    0 -0.31477858932E+02 -0.18352979497E+02  0.43584421266E+02  0.56809235488E+02  0.51100000000E-03 0.  1.
         23    2    1    0    0    0 -0.19246390626E+02 -0.25384807114E+02  0.12640762784E+02  0.90817549429E+02  0.84102475684E+02 0.  0.
         11    1    3    3    0    0  0.12231468306E+02 -0.70318276171E+01 -0.30943658483E+02  0.34008313941E+02  0.51100000000E-03 0. -1.
         22    1    1    0    0    0  0.19246390626E+02  0.25384807114E+02 -0.12640762784E+02  0.34272450571E+02  0.00000000000E+00 0.  1.
</event>
<event>
 5    1  0.1046082E-009  0.9118800E+02  0.7561462E-02  0.1125453E+00
         25   -1    0    0    0    0  0.00000000000E+00  0.00000000000E+00  0.99999998245E-14  0.12509000000E+03  0.12509000000E+03 0.  0.
        -11    1    3    3    0    0  0.27785023021E+02  0.21860822444E+02 -0.27403819458E+01  0.35460016296E+02  0.51100000000E-03 0. -1.
         23    2    1    0    0    0 -0.28079734503E+02 -0.45430904263E+00  0.63443189262E+01  0.96298885588E+02  0.91894216882E+02 0.  0.
         11    1    3    3    0    0 -0.55864757524E+02 -0.22315131487E+02  0.90847008720E+01  0.60838869292E+02  0.51100000000E-03 0.  1.
         22    1    1    0    0    0  0.28079734503E+02  0.45430904263E+00 -0.63443189262E+01  0.28791114412E+02  0.00000000000E+00 0.  1.
</event>
<event>
 5    1  0.1046082E-009  0.9118800E+02  0.7561462E-02  0.1125453E+00
         25   -1    0    0    0    0  0.00000000000E+00  0.00000000000E+00  0.99999998245E-14  0.12509000000E+03  0.12509000000E+03 0.  0.
        -11    1    3    3    0    0  0.38067247914E+02  0.28429196639E+02 -0.27991395871E+02  0.55143928300E+02  0.51100000000E-03 0.  1.
         23    2    1    0    0    0 -0.98464618521E+00  0.22262945895E+02 -0.19267691986E+02  0.95630667989E+02  0.90980066045E+02 0.  0.
         11    1    3    3    0    0 -0.39051894099E+02 -0.61662507438E+01  0.87237038856E+01  0.40486739689E+02  0.51100000000E-03 0. -1.
         22    1    1    0    0    0  0.98464618521E+00 -0.22262945895E+02  0.19267691986E+02  0.29459332011E+02  0.00000000000E+00 0.  1.
</event>
<event>
 5    1  0.1046082E-009  0.9118800E+02  0.7561462E-02  0.1125453E+00
         25   -1    0    0    0    0  0.00000000000E+00  0.00000000000E+00  0.99999998245E-14  0.12509000000E+03  0.12509000000E+03 0.  0.
        -11    1    3    3    0    0  0.11409661426E+02 -0.92830958881E+01 -0.32425401537E+02  0.35605658373E+02  0.51100000000E-03 0. -1.
         23    2    1    0    0    0 -0.27150839025E+02  0.45061129652E+01  0.11141593234E+02  0.95398111990E+02  0.90659757101E+02 0.  0.
         11    1    3    3    0    0 -0.38560500451E+02  0.13789208853E+02  0.43566994771E+02  0.59792453616E+02  0.51100000000E-03 0.  1.
         22    1    1    0    0    0  0.27150839025E+02 -0.45061129652E+01 -0.11141593234E+02  0.29691888010E+02  0.00000000000E+00 0.  1.
</event>
<event>
 5    1  0.1046082E-009  0.9118800E+02  0.7561462E-02  0.1125453E+00
         25   -1    0    0    0    0  0.00000000000E+00  0.00000000000E+00  0.99999998245E-14  0.12509000000E+03  0.12509000000E+03 0.  0.
        -11    1    3    3    0    0 -0.21811995769E+02  0.45665902909E+02  0.34490380304E+02  0.61243156203E+02  0.51100000000E-03 0. -1.
         23    2    1    0    0    0 -0.17897995192E+02  0.16633387486E+02  0.15569258565E+02  0.96117433262E+02  0.91646884035E+02 0.  0.
         11    1    3    3    0    0  0.39140005776E+01 -0.29032515422E+02 -0.18921121739E+02  0.34874277059E+02  0.51100000000E-03 0.  1.
         22    1    1    0    0    0  0.17897995192E+02 -0.16633387486E+02 -0.15569258565E+02  0.28972566738E+02  0.00000000000E+00 0. -1.
</event>
<event>
 5    1  0.1046082E-009  0.9118800E+02  0.7561462E-02  0.1125453E+00
         25   -1    0    0    0    0  0.00000000000E+00  0.00000000000E+00  0.99999998245E-14  0.12509000000E+03  0.12509000000E+03 0.  0.
        -11    1    3    3    0    0  0.20389591762E+02 -0.47039098393E+02 -0.13159911115E+01  0.51284930171E+02  0.51100000000E-03 0. -1.
         23    2    1    0    0    0 -0.12668719741E+02 -0.21456040134E+02 -0.15871010090E+02  0.95547706938E+02  0.90865929928E+02 0.  0.
         11    1    3    3    0    0 -0.33058311503E+02  0.25583058259E+02 -0.14555018979E+02  0.44262776766E+02  0.51100000000E-03 0.  1.
         22    1    1    0    0    0  0.12668719741E+02  0.21456040134E+02  0.15871010090E+02  0.29542293062E+02  0.00000000000E+00 0. -1.
</event>
<event>
 5    1  0.1046082E-009  0.9118800E+02  0.7561462E-02  0.1125453E+00
         25   -1    0    0    0    0  0.00000000000E+00  0.00000000000E+00  0.99999998245E-14  0.12509000000E+03  0.12509000000E+03 0.  0.
        -11    1    3    3    0    0 -0.21768018404E+02  0.20597834614E+02  0.23588387570E+01  0.30061296322E+02  0.51100000000E-03 0.  1.
         23    2    1    0    0    0  0.19534731196E+02 -0.25816431497E+02  0.54105572172E+01  0.92266715772E+02  0.86230962257E+02 0.  0.
         11    1    3    3    0    0  0.41302749600E+02 -0.46414266111E+02  0.30517184602E+01  0.62205419450E+02  0.51100000000E-03 0. -1.
         22    1    1    0    0    0 -0.19534731196E+02  0.25816431497E+02 -0.54105572172E+01  0.32823284228E+02  0.00000000000E+00 0. -1.
</event>
<event>
 5    1  0.1046082E-009  0.9118800E+02  0.7561462E-02  0.1125453E+00
         25   -1    0    0    0    0  0.00000000000E+00  0.00000000000E+00  0.99999998245E-14  0.12509000000E+03  0.12509000000E+03 0.  0.
        -11    1    3    3    0    0 -0.27283951896E+01 -0.12548536750E+02 -0.33041768896E+02  0.35449519135E+02  0.51100000000E-03 0.  1.
         23    2    1    0    0    0  0.11515887015E+02 -0.41863363787E+01  0.25779894378E+02  0.96546278797E+02  0.92230363381E+02 0.  0.
         11    1    3    3    0    0  0.14244282204E+02  0.83622003709E+01  0.58821663274E+02  0.61096759661E+02  0.51100000000E-03 0. -1.
         22    1    1    0    0    0 -0.11515887015E+02  0.41863363787E+01 -0.25779894378E+02  0.28543721203E+02  0.00000000000E+00 0. -1.
</event>
<event>
 5    1  0.1046082E-009  0.9118800E+02  0.7561462E-02  0.1125453E+00
         25   -1    0    0    0    0  0.00000000000E+00  0.00000000000E+00  0.99999998245E-14  0.12509000000E+03  0.12509000000E+03 0.  0.
        -11    1    3    3    0    0  0.10581849369E+02 -0.30154721993E+01  0.36404525514E+02  0.38031014802E+02  0.51100000000E-03 0. -1.
         23    2    1    0    0    0 -0.23418680402E+02 -0.98807636230E+01 -0.11513671248E+02  0.97186080792E+02  0.93094068514E+02 0.  0.
         11    1    3    3    0    0 -0.34000529772E+02 -0.68652914237E+01 -0.47918196763E+02  0.59155065990E+02  0.51100000000E-03 0.  1.
         22    1    1    0    0    0  0.23418680402E+02  0.98807636230E+01  0.11513671248E+02  0.27903919208E+02  0.00000000000E+00 0.  1.
</event>
<event>
 5    1  0.1046082E-009  0.9118800E+02  0.7561462E-02  0.1125453E+00
         25   -1    0    0    0    0  0.00000000000E+00  0.00000000000E+00  0.99999998245E-14  0.12509000000E+03  0.12509000000E+03 0.  0.
        -11    1    3    3    0    0 -0.49129100664E+02  0.24383985390E+02 -0.84042018232E+01  0.55487637218E+02  0.51100000000E-03 0. -1.
         23    2    1    0    0    0 -0.20259973186E+02  0.12542384767E+02  0.17077869051E+02  0.95773937159E+02  0.91176836414E+02 0.  0.
         11    1    3    3    0    0  0.28869127478E+02 -0.11841600622E+02  0.25482070875E+02  0.40286299941E+02  0.51100000000E-03 0.  1.
         22    1    1    0    0    0  0.20259973186E+02 -0.12542384767E+02 -0.17077869051E+02  0.29316062841E+02  0.00000000000E+00 0. -1.
</event>
<event>
 5    1  0.1046082E-009  0.9118800E+02  0.7561462E-02  0.1125453E+00
         25   -1    0    0    0    0  0.00000000000E+00  0.00000000000E+00  0.99999998245E-14  0.12509000000E+03  0.12509000000E+03 0.  0.
        -11    1    3    3    0    0  0.20816041205E+02  0.43697844426E+02  0.33334015523E+02  0.58770449804E+02  0.51100000000E-03 0. -1.
         23    2    1    0    0    0  0.23718422769E+02  0.14170462823E+02  0.14921209547E+02  0.93689234251E+02  0.88270405714E+02 0.  0.
         11    1    3    3    0    0  0.29023815645E+01 -0.29527381604E+02 -0.18412805976E+02  0.34918784448E+02  0.51100000000E-03 0.  1.
         22    1    1    0    0    0 -0.23718422769E+02 -0.14170462823E+02 -0.14921209547E+02  0.31400765749E+02  0.00000000000E+00 0. -1.
</event>
<event>
 5    1  0.1046082E-009  0.9118800E+02  0.7561462E-02  0.1125453E+00
         25   -1    0    0    0    0  0.00000000000E+00  0.00000000000E+00  0.99999998245E-14  0.12509000000E+03  0.12509000000E+03 0.  0.
        -11    1    3    3    0    0 -0.24448688021E+02 -0.14743977227E+02  0.41866008953E+02  0.50674312194E+02  0.51100000000E-03 0.  1.
         23    2    1    0    0    0  0.73865489424E+00 -0.29785881466E+02  0.10813537481E+02  0.93393360767E+02  0.87850116089E+02 0.  0.
         11    1    3    3    0    0  0.25187342915E+02 -0.15041904239E+02 -0.31052471472E+02  0.42719048574E+02  0.51100000000E-03 0. -1.
         22    1    1    0    0    0 -0.73865489424E+00  0.29785881466E+02 -0.10813537481E+02  0.31696639233E+02  0.00000000000E+00 0.  1.
</event>
<event>
 5    1  0.1046082E-009  0.9118800E+02  0.7561462E-02  0.1125453E+00
         25   -1    0    0    0    0  0.00000000000E+00  0.00000000000E+00  0.99999998245E-14  0.12509000000E+03  0.12509000000E+03 0.  0.
        -11    1    3    3    0    0  0.13152266426E+02 -0.31452880686E+02  0.57884969529E+01  0.34579943794E+02  0.51100000000E-03 0. -1.
         23    2    1    0    0    0  0.33939621780E+01  0.28935011139E+02  0.97450968123E+00  0.95940325594E+02  0.91404827865E+02 0.  0.
         11    1    3    3    0    0 -0.97583042475E+01  0.60387891825E+02 -0.48139872717E+01  0.61360381799E+02  0.51100000000E-03 0.  1.
         22    1    1    0    0    0 -0.33939621780E+01 -0.28935011139E+02 -0.97450968123E+00  0.29149674406E+02  0.00000000000E+00 0.  1.
</event>
<event>
 5    1  0.1046082E-009  0.9118800E+02  0.7561462E-02  0.1125453E+00
         25   -1    0    0    0    0  0.00000000000E+00  0.00000000000E+00  0.99999998245E-14  0.12509000000E+03  0.12509000000E+03 0.  0.
        -11    1    3    3    0    0  0.21240143183E+01  0.62264680083E+02 -0.52703830952E+01  0.62523425697E+02  0.51100000000E-03 0.  1.
         23    2    1    0    0    0  0.21045302463E+01  0.28643018917E+02 -0.26961255051E+01  0.96243498080E+02  0.91818790287E+02 0.  0.
         11    1    3    3    0    0 -0.19484071998E-01 -0.33621661165E+02  0.25742575901E+01  0.33720072384E+02  0.51100000000E-03 0. -1.
         22    1    1    0    0    0 -0.21045302463E+01 -0.28643018917E+02  0.26961255051E+01  0.28846501920E+02  0.00000000000E+00 0.  1.
</event>
<event>
 5    1  0.1046082E-009  0.9118800E+02  0.7561462E-02  0.1125453E+00
         25   -1    0    0    0    0  0.00000000000E+00  0.00000000000E+00  0.99999998245E-14  0.12509000000E+03  0.12509000000E+03 0.  0.
        -11    1    3    3    0    0  0.15591877264E+01  0.38145713939E+02 -0.14462872471E+01  0.38204951320E+02  0.51100000000E-03 0. -1.
         23    2    1    0    0    0  0.18879058014E+02 -0.14997555989E+02  0.15275760882E+02  0.96547148222E+02  0.92231542555E+02 0.  0.
         11    1    3    3    0    0  0.17319870287E+02 -0.53143269928E+02  0.16722048129E+02  0.58342196902E+02  0.51100000000E-03 0.  1.
         22    1    1    0    0    0 -0.18879058014E+02  0.14997555989E+02 -0.15275760882E+02  0.28542851778E+02  0.00000000000E+00 0.  1.
</event>
<event>
 5    1  0.1046082E-009  0.9118800E+02  0.7561462E-02  0.1125453E+00
         25   -1    0    0    0    0  0.00000000000E+00  0.00000000000E+00  0.99999998245E-14  0.12509000000E+03  0.12509000000E+03 0.  0.
        -11    1    3    3    0    0 -0.33507570832E+02  0.13062069269E+02  0.11175008345E+02  0.37659736702E+02  0.51100000000E-03 0. -1.
         23    2    1    0    0    0  0.24838003105E+02  0.13637400007E+02  0.25907199823E+01  0.96636232109E+02  0.92352284482E+02 0.  0.
         11    1    3    3    0    0  0.58345573937E+02  0.57533073782E+00 -0.85842883631E+01  0.58976495407E+02  0.51100000000E-03 0.  1.
         22    1    1    0    0    0 -0.24838003105E+02 -0.13637400007E+02 -0.25907199823E+01  0.28453767891E+02  0.00000000000E+00 0.  1.
</event>
<event>
 5    1  0.1046082E-009  0.9118800E+02  0.7561462E-02  0.1125453E+00
         25   -1    0    0    0    0  0.00000000000E+00  0.00000000000E+00  0.99999998245E-14  0.12509000000E+03  0.12509000000E+03 0.  0.
        -11    1    3    3    0    0  0.30210514798E+02 -0.47812089197E+02 -0.22878621837E+02  0.61009035520E+02  0.51100000000E-03 0.  1.
         23    2    1    0    0    0  0.89733852785E+01 -0.27626892630E+02 -0.42398920598E+01  0.95734531610E+02  0.91122757959E+02 0.  0.
         11    1    3    3    0    0 -0.21237129520E+02  0.20185196567E+02  0.18638729777E+02  0.34725496089E+02  0.51100000000E-03 0. -1.
         22    1    1    0    0    0 -0.89733852785E+01  0.27626892630E+02  0.42398920598E+01  0.29355468390E+02  0.00000000000E+00 0.  1.
</event>
<event>
 5    1  0.1046082E-009  0.9118800E+02  0.7561462E-02  0.1125453E+00
         25   -1    0    0    0    0  0.00000000000E+00  0.00000000000E+00  0.99999998245E-14  0.12509000000E+03  0.12509000000E+03 0.  0.
        -11    1    3    3    0    0 -0.96155438981E+01  0.30718659772E+02 -0.20685945427E+02  0.38262293202E+02  0.51100000000E-03 0.  1.
         23    2    1    0    0    0 -0.10781716525E+02 -0.64835995437E+01  0.24947233042E+02  0.97149940754E+02  0.93045494666E+02 0.  0.
         11    1    3    3    0    0 -0.11661726267E+01 -0.37202259315E+02  0.45633178468E+02  0.58887647551E+02  0.51100000000E-03 0. -1.
         22    1    1    0    0    0  0.10781716525E+02  0.64835995437E+01 -0.24947233042E+02  0.27940059246E+02  0.00000000000E+00 0. -1.
</event>
<event>
 5    1  0.1046082E-009  0.9118800E+02  0.7561462E-02  0.1125453E+00
         25   -1    0    0    0    0  0.00000000000E+00  0.00000000000E+00  0.99999998245E-14  0.12509000000E+03  0.12509000000E+03 0.  0.
        -11    1    3    3    0    0  0.44292851718E+02 -0.35247523269E+02  0.62362062206E+01  0.56948528323E+02  0.51100000000E-03 0.  1.
         23    2    1    0    0    0  0.63881655062E+01 -0.27536961295E+02 -0.28381530651E+01  0.96679649620E+02  0.92411074239E+02 0.  0.
         11    1    3    3    0    0 -0.37904686212E+02  0.77105619741E+01 -0.90743592856E+01  0.39731121297E+02  0.51100000000E-03 0. -1.
         22    1    1    0    0    0 -0.63881655062E+01  0.27536961295E+02  0.28381530651E+01  0.28410350380E+02  0.00000000000E+00 0.  1.
</event>
<event>
 5    1  0.1046082E-009  0.9118800E+02  0.7561462E-02  0.1125453E+00
         25   -1    0    0    0    0  0.00000000000E+00  0.00000000000E+00  0.99999998245E-14  0.12509000000E+03  0.12509000000E+03 0.  0.
        -11    1    3    3    0    0  0.27666716064E+02 -0.23838690198E+02 -0.18900656802E+02  0.41121346718E+02  0.51100000000E-03 0. -1.
         23    2    1    0    0    0 -0.24842610437E+02 -0.13245016383E+02 -0.46095098277E+01  0.96562235749E+02  0.92252002904E+02 0.  0.
         11    1    3    3    0    0 -0.52509326500E+02  0.10593673815E+02  0.14291146974E+02  0.55440889031E+02  0.51100000000E-03 0.  1.
         22    1    1    0    0    0  0.24842610437E+02  0.13245016383E+02  0.46095098277E+01  0.28527764251E+02  0.00000000000E+00 0.  1.
</event>
<event>
 5    1  0.1046082E-009  0.9118800E+02  0.7561462E-02  0.1125453E+00
         25   -1    0    0    0    0  0.00000000000E+00  0.00000000000E+00  0.99999998245E-14  0.12509000000E+03  0.12509000000E+03 0.  0.
        -11    1    3    3    0    0  0.13929746594E+02  0.28444818367E+02  0.22031062152E+02  0.38581254929E+02  0.51100000000E-03 0. -1.
         23    2    1    0    0    0 -0.88534239017E+01 -0.24313344434E+02  0.10337768162E+02  0.97226201212E+02  0.93147962507E+02 0.  0.
         11    1    3    3    0    0 -0.22783170495E+02 -0.52758162800E+02 -0.11693293990E+02  0.58644946283E+02  0.51100000000E-03 0.  1.
         22    1    1    0    0    0  0.88534239017E+01  0.24313344434E+02 -0.10337768162E+02  0.27863798788E+02  0.00000000000E+00 0.  1.
</event>
<event>
 5    1  0.1046082E-009  0.9118800E+02  0.7561462E-02  0.1125453E+00
         25   -1    0    0    0    0  0.00000000000E+00  0.00000000000E+00  0.99999998245E-14  0.12509000000E+03  0.12509000000E+03 0.  0.
        -11    1    3    3    0    0  0.10642038001E+02 -0.37265322337E+02 -0.12044575053E+02  0.40583605189E+02  0.51100000000E-03 0. -1.
         23    2    1    0    0    0  0.25592562399E+02  0.14735595117E+02 -0.38298795397E+01  0.95311064645E+02  0.90539571751E+02 0.  0.
         11    1    3    3    0    0  0.14950524398E+02  0.52000917454E+02  0.82146955136E+01  0.54727459455E+02  0.51100000000E-03 0.  1.
         22    1    1    0    0    0 -0.25592562399E+02 -0.14735595117E+02  0.38298795397E+01  0.29778935355E+02  0.00000000000E+00 0.  1.
</event>
<event>
 5    1  0.1046082E-009  0.9118800E+02  0.7561462E-02  0.1125453E+00
         25   -1    0    0    0    0  0.00000000000E+00  0.00000000000E+00  0.99999998245E-14  0.12509000000E+03  0.12509000000E+03 0.  0.
        -11    1    3    3    0    0 -0.98427761037E+01  0.95740546471E+01  0.31586615284E+02  0.34442082242E+02  0.51100000000E-03 0. -1.
         23    2    1    0    0    0  0.80430356032E+01  0.77427399309E+01 -0.27078418057E+02  0.95800391470E+02  0.91213123167E+02 0.  0.
         11    1    3    3    0    0  0.17885811707E+02 -0.18313147162E+01 -0.58665033342E+02  0.61358309227E+02  0.51100000000E-03 0.  1.
         22    1    1    0    0    0 -0.80430356032E+01 -0.77427399309E+01  0.27078418057E+02  0.29289608530E+02  0.00000000000E+00 0.  1.
</event>
<event>
 5    1  0.1046082E-009  0.9118800E+02  0.7561462E-02  0.1125453E+00
         25   -1    0    0    0    0  0.00000000000E+00  0.00000000000E+00  0.99999998245E-14  0.12509000000E+03  0.12509000000E+03 0.  0.
        -11    1    3    3    0    0 -0.42517928065E+02  0.14049680921E+02  0.75363802191E+01  0.45408862219E+02  0.51100000000E-03 0.  1.
         23    2    1    0    0    0  0.32601358570E+01  0.30156768641E+02 -0.12721307511E+01  0.94730858093E+02  0.89734374561E+02 0.  0.
         11    1    3    3    0    0  0.45778063922E+02  0.16107087719E+02 -0.88085109702E+01  0.49321995874E+02  0.51100000000E-03 0. -1.
         22    1    1    0    0    0 -0.32601358570E+01 -0.30156768641E+02  0.12721307511E+01  0.30359141907E+02  0.00000000000E+00 0. -1.
</event>
<event>
 5    1  0.1046082E-009  0.9118800E+02  0.7561462E-02  0.1125453E+00
         25   -1    0    0    0    0  0.00000000000E+00  0.00000000000E+00  0.99999998245E-14  0.12509000000E+03  0.12509000000E+03 0.  0.
        -11    1    3    3    0    0  0.11730020215E+02 -0.41919847522E+02 -0.26411368602E+02  0.50915885362E+02  0.51100000000E-03 0. -1.
         23    2    1    0    0    0 -0.21593627488E+02 -0.15047474153E+02 -0.12698644555E+02  0.95867289653E+02  0.91304821480E+02 0.  0.
         11    1    3    3    0    0 -0.33323647703E+02  0.26872373369E+02  0.13712724047E+02  0.44951404291E+02  0.51100000000E-03 0.  1.
         22    1    1    0    0    0  0.21593627488E+02  0.15047474153E+02  0.12698644555E+02  0.29222710347E+02  0.00000000000E+00 0.  1.
</event>
<event>
 5    1  0.1046082E-009  0.9118800E+02  0.7561462E-02  0.1125453E+00
         25   -1    0    0    0    0  0.00000000000E+00  0.00000000000E+00  0.99999998245E-14  0.12509000000E+03  0.12509000000E+03 0.  0.
        -11    1    3    3    0    0 -0.20787619989E+02 -0.28866721630E+01 -0.47298931663E+02  0.51745984942E+02  0.51100000000E-03 0.  1.
         23    2    1    0    0    0  0.14006358024E+02  0.98317416922E+01 -0.24364886733E+02  0.95316036285E+02  0.90546440337E+02 0.  0.
         11    1    3    3    0    0  0.34793978012E+02  0.12718413855E+02  0.22934044929E+02  0.43570051342E+02  0.51100000000E-03 0. -1.
         22    1    1    0    0    0 -0.14006358024E+02 -0.98317416922E+01  0.24364886733E+02  0.29773963715E+02  0.00000000000E+00 0.  1.
</event>
<event>
 5    1  0.1046082E-009  0.9118800E+02  0.7561462E-02  0.1125453E+00
         25   -1    0    0    0    0  0.00000000000E+00  0.00000000000E+00  0.99999998245E-14  0.12509000000E+03  0.12509000000E+03 0.  0.
        -11    1    3    3    0    0  0.17301035675E+02 -0.40209525210E+02 -0.38537144356E+02  0.58320178742E+02  0.51100000000E-03 0. -1.
         23    2    1    0    0    0  0.22884455349E+02 -0.17342671952E+02 -0.11523439875E+02  0.94150442253E+02  0.88921592107E+02 0.  0.
         11    1    3    3    0    0  0.55834196738E+01  0.22866853259E+02  0.27013704481E+02  0.35830263511E+02  0.51100000000E-03 0.  1.
         22    1    1    0    0    0 -0.22884455349E+02  0.17342671952E+02  0.11523439875E+02  0.30939557747E+02  0.00000000000E+00 0. -1.
</event>
<event>
 5    1  0.1046082E-009  0.9118800E+02  0.7561462E-02  0.1125453E+00
         25   -1    0    0    0    0  0.00000000000E+00  0.00000000000E+00  0.99999998245E-14  0.12509000000E+03  0.12509000000E+03 0.  0.
        -11    1    3    3    0    0 -0.44801954404E+02  0.39109080034E+02 -0.44978144467E+01  0.59640301764E+02  0.51100000000E-03 0. -1.
         23    2    1    0    0    0 -0.21790591592E+02  0.12381118951E+02 -0.14285338604E+02  0.96242246405E+02  0.91817085042E+02 0.  0.
         11    1    3    3    0    0  0.23011362812E+02 -0.26727961083E+02 -0.97875241576E+01  0.36601944641E+02  0.51100000000E-03 0.  1.
         22    1    1    0    0    0  0.21790591592E+02 -0.12381118951E+02  0.14285338604E+02  0.28847753595E+02  0.00000000000E+00 0. -1.
</event>
<event>
 5    1  0.1046082E-009  0.9118800E+02  0.7561462E-02  0.1125453E+00
         25   -1    0    0    0    0  0.00000000000E+00  0.00000000000E+00  0.99999998245E-14  0.12509000000E+03  0.12509000000E+03 0.  0.
        -11    1    3    3    0    0 -0.34536356523E+02 -0.14305651933E+02 -0.10478343649E+02  0.38822767611E+02  0.51100000000E-03 0.  1.
         23    2    1    0    0    0 -0.35327099965E+00  0.26728194812E+02  0.10730021999E+02  0.96286275060E+02  0.91877049335E+02 0.  0.
         11    1    3    3    0    0  0.34183085523E+02  0.41033846745E+02  0.21208365648E+02  0.57463507449E+02  0.51100000000E-03 0. -1.
         22    1    1    0    0    0  0.35327099965E+00 -0.26728194812E+02 -0.10730021999E+02  0.28803724940E+02  0.00000000000E+00 0. -1.
</event>
<event>
 5    1  0.1046082E-009  0.9118800E+02  0.7561462E-02  0.1125453E+00
         25   -1    0    0    0    0  0.00000000000E+00  0.00000000000E+00  0.99999998245E-14  0.12509000000E+03  0.12509000000E+03 0.  0.
        -11    1    3    3    0    0 -0.41513968142E+02  0.22784089786E+02 -0.78792788134E+01  0.48006325970E+02  0.51100000000E-03 0. -1.
         23    2    1    0    0    0 -0.27261022841E+01  0.22077145396E+02  0.19515384800E+02  0.95498071600E+02  0.90797574048E+02 0.  0.
         11    1    3    3    0    0  0.38787865858E+02 -0.70694438927E+00  0.27394663614E+02  0.47491745630E+02  0.51100000000E-03 0.  1.
         22    1    1    0    0    0  0.27261022841E+01 -0.22077145396E+02 -0.19515384800E+02  0.29591928400E+02  0.00000000000E+00 0. -1.
</event>
<event>
 5    1  0.1046082E-009  0.9118800E+02  0.7561462E-02  0.1125453E+00
         25   -1    0    0    0    0  0.00000000000E+00  0.00000000000E+00  0.99999998245E-14  0.12509000000E+03  0.12509000000E+03 0.  0.
        -11    1    3    3    0    0  0.19841140663E+02 -0.16716289895E+02 -0.24004537197E+02  0.35345763777E+02  0.51100000000E-03 0. -1.
         23    2    1    0    0    0 -0.37637515160E+01  0.46147869522E+01  0.28083775879E+02  0.96381803406E+02  0.92007018624E+02 0.  0.
         11    1    3    3    0    0 -0.23604892179E+02  0.21331076847E+02  0.52088313076E+02  0.61036039629E+02  0.51100000000E-03 0.  1.
         22    1    1    0    0    0  0.37637515160E+01 -0.46147869522E+01 -0.28083775879E+02  0.28708196594E+02  0.00000000000E+00 0.  1.
</event>
<event>
 5    1  0.1046082E-009  0.9118800E+02  0.7561462E-02  0.1125453E+00
         25   -1    0    0    0    0  0.00000000000E+00  0.00000000000E+00  0.99999998245E-14  0.12509000000E+03  0.12509000000E+03 0.  0.
        -11    1    3    3    0    0 -0.17477131417E+02  0.15554148373E+02  0.55538049488E+02  0.60264886920E+02  0.51100000000E-03 0.  1.
         23    2    1    0    0    0 -0.97963966376E+01 -0.44867972850E+01  0.27352579047E+02  0.95691627299E+02  0.91063841439E+02 0.  0.
         11    1    3    3    0    0  0.76807347793E+01 -0.20040945658E+02 -0.28185470441E+02  0.35426740379E+02  0.51100000000E-03 0. -1.
         22    1    1    0    0    0  0.97963966376E+01  0.44867972850E+01 -0.27352579047E+02  0.29398372701E+02  0.00000000000E+00 0.  1.
</event>
<event>
 5    1  0.1046082E-009  0.9118800E+02  0.7561462E-02  0.1125453E+00
         25   -1    0    0    0    0  0.00000000000E+00  0.00000000000E+00  0.99999998245E-14  0.12509000000E+03  0.12509000000E+03 0.  0.
        -11    1    3    3    0    0 -0.39588866358E+02 -0.33397816863E+02 -0.55555948242E+01  0.52091814566E+02  0.51100000000E-03 0.  1.
         23    2    1    0    0    0 -0.21175595445E+02 -0.21145138971E+01  0.19521455374E+02  0.96211561132E+02  0.91775270439E+02 0.  0.
         11    1    3    3    0    0  0.18413270912E+02  0.31283302966E+02  0.25077050199E+02  0.44119746566E+02  0.51100000000E-03 0. -1.
         22    1    1    0    0    0  0.21175595445E+02  0.21145138971E+01 -0.19521455374E+02  0.28878438868E+02  0.00000000000E+00 0.  1.
</event>
<event>
 5    1  0.1046082E-009  0.9118800E+02  0.7561462E-02  0.1125453E+00
         25   -1    0    0    0    0  0.00000000000E+00  0.00000000000E+00  0.99999998245E-14  0.12509000000E+03  0.12509000000E+03 0.  0.
        -11    1    3    3    0    0 -0.22860296520E+02  0.44853097258E+02  0.22073103147E+02  0.54969222056E+02  0.51100000000E-03 0.  1.
         23    2    1    0    0    0 -0.29429892136E+00  0.29402615376E+02 -0.69793734486E+01  0.94868946800E+02  0.89926664624E+02 0.  0.
         11    1    3    3    0    0  0.22565997598E+02 -0.15450481882E+02 -0.29052476596E+02  0.39899724744E+02  0.51100000000E-03 0. -1.
         22    1    1    0    0    0  0.29429892136E+00 -0.29402615376E+02  0.69793734486E+01  0.30221053200E+02  0.00000000000E+00 0.  1.
</event>
<event>
 5    1  0.1046082E-009  0.9118800E+02  0.7561462E-02  0.1125453E+00
         25   -1    0    0    0    0  0.00000000000E+00  0.00000000000E+00  0.99999998245E-14  0.12509000000E+03  0.12509000000E+03 0.  0.
        -11    1    3    3    0    0 -0.73911289714E+00 -0.26489344495E+02  0.25949759557E+02  0.37089374233E+02  0.51100000000E-03 0.  1.
         23    2    1    0    0    0 -0.19253502165E+02  0.23295183336E+02  0.38319460236E+01  0.94626140714E+02  0.89588279277E+02 0.  0.
         11    1    3    3    0    0 -0.18514389268E+02  0.49784527831E+02 -0.22117813534E+02  0.57536766481E+02  0.51100000000E-03 0. -1.
         22    1    1    0    0    0  0.19253502165E+02 -0.23295183336E+02 -0.38319460236E+01  0.30463859286E+02  0.00000000000E+00 0. -1.
</event>
<event>
 5    1  0.1046082E-009  0.9118800E+02  0.7561462E-02  0.1125453E+00
         25   -1    0    0    0    0  0.00000000000E+00  0.00000000000E+00  0.99999998245E-14  0.12509000000E+03  0.12509000000E+03 0.  0.
        -11    1    3    3    0    0 -0.34483014004E+01 -0.22071158993E+02  0.54296133138E+02  0.58711982728E+02  0.51100000000E-03 0.  1.
         23    2    1    0    0    0  0.85323678290E+01 -0.20272667689E+02  0.19015475847E+02  0.96014741142E+02  0.91506610903E+02 0.  0.
         11    1    3    3    0    0  0.11980669229E+02  0.17984913050E+01 -0.35280657291E+02  0.37302758414E+02  0.51100000000E-03 0. -1.
         22    1    1    0    0    0 -0.85323678290E+01  0.20272667689E+02 -0.19015475847E+02  0.29075258858E+02  0.00000000000E+00 0.  1.
</event>
<event>
 5    1  0.1046082E-009  0.9118800E+02  0.7561462E-02  0.1125453E+00
         25   -1    0    0    0    0  0.00000000000E+00  0.00000000000E+00  0.99999998245E-14  0.12509000000E+03  0.12509000000E+03 0.  0.
        -11    1    3    3    0    0  0.37209452017E+01  0.31368301262E+02 -0.10729726524E+02  0.33360797185E+02  0.51100000000E-03 0. -1.
         23    2    1    0    0    0  0.53361664187E+01 -0.26910945730E+02  0.10933017526E+02  0.95556890709E+02  0.90878571829E+02 0.  0.
         11    1    3    3    0    0  0.16152212170E+01 -0.58279246993E+02  0.21662744051E+02  0.62196093524E+02  0.51100000000E-03 0.  1.
         22    1    1    0    0    0 -0.53361664187E+01  0.26910945730E+02 -0.10933017526E+02  0.29533109291E+02  0.00000000000E+00 0.  1.
</event>
<event>
 5    1  0.1046082E-009  0.9118800E+02  0.7561462E-02  0.1125453E+00
         25   -1    0    0    0    0  0.00000000000E+00  0.00000000000E+00  0.99999998245E-14  0.12509000000E+03  0.12509000000E+03 0.  0.
        -11    1    3    3    0    0 -0.13543397049E+02  0.28552680791E+02 -0.25250067648E+02  0.40450526579E+02  0.51100000000E-03 0.  1.
         23    2    1    0    0    0 -0.29564485146E+02 -0.14080849764E+02 -0.38319418610E+00  0.92341321403E+02  0.86339120268E+02 0.  0.
         11    1    3    3    0    0 -0.16021088098E+02 -0.42633530555E+02  0.24866873462E+02  0.51890794824E+02  0.51100000000E-03 0. -1.
         22    1    1    0    0    0  0.29564485146E+02  0.14080849764E+02  0.38319418610E+00  0.32748678597E+02  0.00000000000E+00 0.  1.
</event>
<event>
 5    1  0.1046082E-009  0.9118800E+02  0.7561462E-02  0.1125453E+00
         25   -1    0    0    0    0  0.00000000000E+00  0.00000000000E+00  0.99999998245E-14  0.12509000000E+03  0.12509000000E+03 0.  0.
        -11    1    3    3    0    0  0.26800962572E+02  0.58588554621E+01  0.29199525062E+02  0.40065322240E+02  0.51100000000E-03 0.  1.
         23    2    1    0    0    0 -0.15602009325E+02 -0.23466533247E+02  0.81230078146E+01  0.95762808972E+02  0.91161567826E+02 0.  0.
         11    1    3    3    0    0 -0.42402971897E+02 -0.29325388710E+02 -0.21076517247E+02  0.55697486732E+02  0.51100000000E-03 0. -1.
         22    1    1    0    0    0  0.15602009325E+02  0.23466533247E+02 -0.81230078146E+01  0.29327191028E+02  0.00000000000E+00 0. -1.
</event>
<event>
 5    1  0.1046082E-009  0.9118800E+02  0.7561462E-02  0.1125453E+00
         25   -1    0    0    0    0  0.00000000000E+00  0.00000000000E+00  0.99999998245E-14  0.12509000000E+03  0.12509000000E+03 0.  0.
        -11    1    3    3    0    0 -0.52763731980E+01  0.24125326552E+02  0.29526661329E+02  0.38492794454E+02  0.51100000000E-03 0.  1.
         23    2    1    0    0    0 -0.12606546560E+02 -0.26542063231E+02  0.49090489834E+01  0.95298979564E+02  0.90522873392E+02 0.  0.
         11    1    3    3    0    0 -0.73301733621E+01 -0.50667389782E+02 -0.24617612346E+02  0.56806185110E+02  0.51100000000E-03 0. -1.
         22    1    1    0    0    0  0.12606546560E+02  0.26542063231E+02 -0.49090489834E+01  0.29791020436E+02  0.00000000000E+00 0. -1.
</event>
<event>
 5    1  0.1046082E-009  0.9118800E+02  0.7561462E-02  0.1125453E+00
         25   -1    0    0    0    0  0.00000000000E+00  0.00000000000E+00  0.99999998245E-14  0.12509000000E+03  0.12509000000E+03 0.  0.
        -11    1    3    3    0    0 -0.19138724241E+02 -0.28609246527E+02  0.41542279244E+02  0.53949427406E+02  0.51100000000E-03 0.  1.
         23    2    1    0    0    0 -0.27299475336E+02 -0.31519748959E+00  0.13417867098E+02  0.94669614392E+02  0.89648959997E+02 0.  0.
         11    1    3    3    0    0 -0.81607510952E+01  0.28294049038E+02 -0.28124412145E+02  0.40720186986E+02  0.51100000000E-03 0. -1.
         22    1    1    0    0    0  0.27299475336E+02  0.31519748959E+00 -0.13417867098E+02  0.30420385608E+02  0.00000000000E+00 0. -1.
</event>
<event>
 5    1  0.1046082E-009  0.9118800E+02  0.7561462E-02  0.1125453E+00
         25   -1    0    0    0    0  0.00000000000E+00  0.00000000000E+00  0.99999998245E-14  0.12509000000E+03  0.12509000000E+03 0.  0.
        -11    1    3    3    0    0  0.52611439445E+02  0.53074905927E+01 -0.24019276995E+02  0.58078039606E+02  0.51100000000E-03 0. -1.
         23    2    1    0    0    0  0.19585011851E+02 -0.13007527206E+02 -0.15904111986E+02  0.96704982274E+02  0.92445358810E+02 0.  0.
         11    1    3    3    0    0 -0.33026427594E+02 -0.18315017798E+02  0.81151650089E+01  0.38626942669E+02  0.51100000000E-03 0.  1.
         22    1    1    0    0    0 -0.19585011851E+02  0.13007527206E+02  0.15904111986E+02  0.28385017726E+02  0.00000000000E+00 0. -1.
</event>
<event>
 5    1  0.1046082E-009  0.9118800E+02  0.7561462E-02  0.1125453E+00
         25   -1    0    0    0    0  0.00000000000E+00  0.00000000000E+00  0.99999998245E-14  0.12509000000E+03  0.12509000000E+03 0.  0.
        -11    1    3    3    0    0  0.18326472545E+02 -0.24341858187E+02  0.43934573139E+02  0.53466179713E+02  0.51100000000E-03 0.  1.
         23    2    1    0    0    0  0.11457787978E+02  0.96096615374E+01  0.31412844987E+02  0.90299292471E+02  0.83328079843E+02 0.  0.
         11    1    3    3    0    0 -0.68686845669E+01  0.33951519725E+02 -0.12521728152E+02  0.36833112758E+02  0.51100000000E-03 0. -1.
         22    1    1    0    0    0 -0.11457787978E+02 -0.96096615374E+01 -0.31412844987E+02  0.34790707529E+02  0.00000000000E+00 0.  1.
</event>
<event>
 5    1  0.1046082E-009  0.9118800E+02  0.7561462E-02  0.1125453E+00
         25   -1    0    0    0    0  0.00000000000E+00  0.00000000000E+00  0.99999998245E-14  0.12509000000E+03  0.12509000000E+03 0.  0.
        -11    1    3    3    0    0  0.52301803862E+01  0.35110715551E+02 -0.81541443081E+01  0.36422619388E+02  0.51100000000E-03 0. -1.
         23    2    1    0    0    0 -0.17589756845E+02 -0.18867970773E+02 -0.14714644477E+02  0.95392851500E+02  0.90652498521E+02 0.  0.
         11    1    3    3    0    0 -0.22819937231E+02 -0.53978686325E+02 -0.65605001687E+01  0.58970232112E+02  0.51100000000E-03 0.  1.
         22    1    1    0    0    0  0.17589756845E+02  0.18867970773E+02  0.14714644477E+02  0.29697148500E+02  0.00000000000E+00 0.  1.
</event>
<event>
 5    1  0.1046082E-009  0.9118800E+02  0.7561462E-02  0.1125453E+00
         25   -1    0    0    0    0  0.00000000000E+00  0.00000000000E+00  0.99999998245E-14  0.12509000000E+03  0.12509000000E+03 0.  0.
        -11    1    3    3    0    0  0.56453965123E+02  0.11608758811E+02 -0.57708103212E+01  0.57923360670E+02  0.51100000000E-03 0.  1.
         23    2    1    0    0    0  0.27951673668E+02 -0.36685240467E+01  0.11568801633E+02  0.94617203923E+02  0.89575800177E+02 0.  0.
         11    1    3    3    0    0 -0.28502291455E+02 -0.15277282858E+02  0.17339611954E+02  0.36693843253E+02  0.51100000000E-03 0. -1.
         22    1    1    0    0    0 -0.27951673668E+02  0.36685240467E+01 -0.11568801633E+02  0.30472796077E+02  0.00000000000E+00 0.  1.
</event>
<event>
 5    1  0.1046082E-009  0.9118800E+02  0.7561462E-02  0.1125453E+00
         25   -1    0    0    0    0  0.00000000000E+00  0.00000000000E+00  0.99999998245E-14  0.12509000000E+03  0.12509000000E+03 0.  0.
        -11    1    3    3    0    0  0.31195802994E+02 -0.15235054606E+02 -0.60868834781E+01  0.35246775229E+02  0.51100000000E-03 0.  1.
         23    2    1    0    0    0 -0.26470482410E+02 -0.15613779134E+02  0.49517334786E+01  0.93961296168E+02  0.88655112516E+02 0.  0.
         11    1    3    3    0    0 -0.57666285404E+02 -0.37872452833E+00  0.11038616957E+02  0.58714520939E+02  0.51100000000E-03 0. -1.
         22    1    1    0    0    0  0.26470482410E+02  0.15613779134E+02 -0.49517334786E+01  0.31128703832E+02  0.00000000000E+00 0. -1.
</event>
<event>
 5    1  0.1046082E-009  0.9118800E+02  0.7561462E-02  0.1125453E+00
         25   -1    0    0    0    0  0.00000000000E+00  0.00000000000E+00  0.99999998245E-14  0.12509000000E+03  0.12509000000E+03 0.  0.
        -11    1    3    3    0    0  0.87041336180E+00  0.25804292293E+02 -0.47819144109E+02  0.54344177828E+02  0.51100000000E-03 0.  1.
         23    2    1    0    0    0  0.20102372503E+02  0.27711521247E+00 -0.20290046481E+02  0.96526594053E+02  0.92203661533E+02 0.  0.
         11    1    3    3    0    0  0.19231959141E+02 -0.25527177081E+02  0.27529097627E+02  0.42182416225E+02  0.51100000000E-03 0. -1.
         22    1    1    0    0    0 -0.20102372503E+02 -0.27711521247E+00  0.20290046481E+02  0.28563405947E+02  0.00000000000E+00 0.  1.
</event>
<event>
 5    1  0.1046082E-009  0.9118800E+02  0.7561462E-02  0.1125453E+00
         25   -1    0    0    0    0  0.00000000000E+00  0.00000000000E+00  0.99999998245E-14  0.12509000000E+03  0.12509000000E+03 0.  0.
        -11    1    3    3    0    0  0.23695486565E+02  0.42821793071E+02  0.34144686662E+02  0.59674464161E+02  0.51100000000E-03 0.  1.
         23    2    1    0    0    0  0.21938833964E+02  0.13310341038E+02  0.11227538001E+02  0.97080444063E+02  0.92952016630E+02 0.  0.
         11    1    3    3    0    0 -0.17566526017E+01 -0.29511452033E+02 -0.22917148660E+02  0.37405979902E+02  0.51100000000E-03 0. -1.
         22    1    1    0    0    0 -0.21938833964E+02 -0.13310341038E+02 -0.11227538001E+02  0.28009555937E+02  0.00000000000E+00 0.  1.
</event>
<event>
 5    1  0.1046082E-009  0.9118800E+02  0.7561462E-02  0.1125453E+00
         25   -1    0    0    0    0  0.00000000000E+00  0.00000000000E+00  0.99999998245E-14  0.12509000000E+03  0.12509000000E+03 0.  0.
        -11    1    3    3    0    0 -0.16899006772E+02  0.25700785921E+02 -0.24756481806E+02  0.39484050179E+02  0.51100000000E-03 0. -1.
         23    2    1    0    0    0 -0.15372862226E+02 -0.24046291075E+02  0.28663561954E+01  0.96406119417E+02  0.92040072010E+02 0.  0.
         11    1    3    3    0    0  0.15261445464E+01 -0.49747076996E+02  0.27622838001E+02  0.56922069238E+02  0.51100000000E-03 0.  1.
         22    1    1    0    0    0  0.15372862226E+02  0.24046291075E+02 -0.28663561954E+01  0.28683880583E+02  0.00000000000E+00 0.  1.
</event>
<event>
 5    1  0.1046082E-009  0.9118800E+02  0.7561462E-02  0.1125453E+00
         25   -1    0    0    0    0  0.00000000000E+00  0.00000000000E+00  0.99999998245E-14  0.12509000000E+03  0.12509000000E+03 0.  0.
        -11    1    3    3    0    0  0.33160300262E+02 -0.61865151100E+01  0.29497009336E+02  0.44810177892E+02  0.51100000000E-03 0.  1.
         23    2    1    0    0    0  0.17620923455E+02 -0.15794524081E+02 -0.17777803286E+02  0.95492462534E+02  0.90789846221E+02 0.  0.
         11    1    3    3    0    0 -0.15539376806E+02 -0.96080089706E+01 -0.47274812622E+02  0.50682284643E+02  0.51100000000E-03 0. -1.
         22    1    1    0    0    0 -0.17620923455E+02  0.15794524081E+02  0.17777803286E+02  0.29597537466E+02  0.00000000000E+00 0.  1.
</event>
<event>
 5    1  0.1046082E-009  0.9118800E+02  0.7561462E-02  0.1125453E+00
         25   -1    0    0    0    0  0.00000000000E+00  0.00000000000E+00  0.99999998245E-14  0.12509000000E+03  0.12509000000E+03 0.  0.
        -11    1    3    3    0    0  0.29724068333E+02 -0.30781303197E+01  0.19026499655E+02  0.35426018883E+02  0.51100000000E-03 0. -1.
         23    2    1    0    0    0 -0.27952362012E+02  0.40911114334E+01 -0.78159687061E+00  0.96829026406E+02  0.92613053758E+02 0.  0.
         11    1    3    3    0    0 -0.57676430345E+02  0.71692417531E+01 -0.19808096526E+02  0.61403007523E+02  0.51100000000E-03 0.  1.
         22    1    1    0    0    0  0.27952362012E+02 -0.40911114334E+01  0.78159687061E+00  0.28260973594E+02  0.00000000000E+00 0.  1.
</event>
<event>
 5    1  0.1046082E-009  0.9118800E+02  0.7561462E-02  0.1125453E+00
         25   -1    0    0    0    0  0.00000000000E+00  0.00000000000E+00  0.99999998245E-14  0.12509000000E+03  0.12509000000E+03 0.  0.
        -11    1    3    3    0    0 -0.24977714207E+02  0.62224639261E+01 -0.53853285578E+02  0.59689041140E+02  0.51100000000E-03 0.  1.
         23    2    1    0    0    0 -0.22859607390E+02  0.29013703751E+01 -0.17758802049E+02  0.95997824930E+02  0.91483483433E+02 0.  0.
         11    1    3    3    0    0  0.21181068171E+01 -0.33210935510E+01  0.36094483529E+02  0.36308783791E+02  0.51100000000E-03 0. -1.
         22    1    1    0    0    0  0.22859607390E+02 -0.29013703751E+01  0.17758802049E+02  0.29092175070E+02  0.00000000000E+00 0. -1.
</event>
<event>
 5    1  0.1046082E-009  0.9118800E+02  0.7561462E-02  0.1125453E+00
         25   -1    0    0    0    0  0.00000000000E+00  0.00000000000E+00  0.99999998245E-14  0.12509000000E+03  0.12509000000E+03 0.  0.
        -11    1    3    3    0    0  0.83590009626E+01 -0.33907798277E+02 -0.36527416451E+02  0.50535767867E+02  0.51100000000E-03 0.  1.
         23    2    1    0    0    0 -0.89987136170E+01  0.68879658631E+01 -0.26895041858E+02  0.95905000479E+02  0.91356471691E+02 0.  0.
         11    1    3    3    0    0 -0.17357714580E+02  0.40795764140E+02  0.96323745925E+01  0.45369232612E+02  0.51100000000E-03 0. -1.
         22    1    1    0    0    0  0.89987136170E+01 -0.68879658631E+01  0.26895041858E+02  0.29184999521E+02  0.00000000000E+00 0.  1.
</event>
<event>
 5    1  0.1046082E-009  0.9118800E+02  0.7561462E-02  0.1125453E+00
         25   -1    0    0    0    0  0.00000000000E+00  0.00000000000E+00  0.99999998245E-14  0.12509000000E+03  0.12509000000E+03 0.  0.
        -11    1    3    3    0    0  0.18157612994E+02  0.41243073316E+02 -0.37657444989E+02  0.58726256219E+02  0.51100000000E-03 0.  1.
         23    2    1    0    0    0 -0.41586338417E+01  0.14207810663E+02 -0.25073418810E+02  0.95972437429E+02  0.91448763228E+02 0.  0.
         11    1    3    3    0    0 -0.22316246836E+02 -0.27035262653E+02  0.12584026179E+02  0.37246181209E+02  0.51100000000E-03 0. -1.
         22    1    1    0    0    0  0.41586338417E+01 -0.14207810663E+02  0.25073418810E+02  0.29117562571E+02  0.00000000000E+00 0.  1.
</event>
<event>
 5    1  0.1046082E-009  0.9118800E+02  0.7561462E-02  0.1125453E+00
         25   -1    0    0    0    0  0.00000000000E+00  0.00000000000E+00  0.99999998245E-14  0.12509000000E+03  0.12509000000E+03 0.  0.
        -11    1    3    3    0    0  0.33578546093E+02  0.32630524529E+02  0.63765912330E+01  0.47253897244E+02  0.51100000000E-03 0.  1.
         23    2    1    0    0    0 -0.12495421360E+02  0.26350425161E+02 -0.58756670649E+01  0.95340984477E+02  0.90580899733E+02 0.  0.
         11    1    3    3    0    0 -0.46073967452E+02 -0.62800993677E+01 -0.12252258298E+02  0.48087087233E+02  0.51100000000E-03 0. -1.
         22    1    1    0    0    0  0.12495421360E+02 -0.26350425161E+02  0.58756670649E+01  0.29749015523E+02  0.00000000000E+00 0.  1.
</event>
<event>
 5    1  0.1046082E-009  0.9118800E+02  0.7561462E-02  0.1125453E+00
         25   -1    0    0    0    0  0.00000000000E+00  0.00000000000E+00  0.99999998245E-14  0.12509000000E+03  0.12509000000E+03 0.  0.
        -11    1    3    3    0    0  0.35396363897E+02 -0.65605265682E+01 -0.93190101183E+01  0.37185844563E+02  0.51100000000E-03 0. -1.
         23    2    1    0    0    0 -0.21664181267E+02  0.89819676213E+00 -0.19856815604E+02  0.95688696741E+02  0.91059815784E+02 0.  0.
         11    1    3    3    0    0 -0.57060545165E+02  0.74587233304E+01 -0.10537805486E+02  0.58502852178E+02  0.51100000000E-03 0.  1.
         22    1    1    0    0    0  0.21664181267E+02 -0.89819676213E+00  0.19856815604E+02  0.29401303259E+02  0.00000000000E+00 0.  1.
</event>
<event>
 5    1  0.1046082E-009  0.9118800E+02  0.7561462E-02  0.1125453E+00
         25   -1    0    0    0    0  0.00000000000E+00  0.00000000000E+00  0.99999998245E-14  0.12509000000E+03  0.12509000000E+03 0.  0.
        -11    1    3    3    0    0 -0.21828307101E+02  0.26211939805E+02 -0.21534642599E+02  0.40339578720E+02  0.51100000000E-03 0.  1.
         23    2    1    0    0    0  0.55053896638E+01 -0.22022155847E+02 -0.18401159580E+02  0.95868649289E+02  0.91306684198E+02 0.  0.
         11    1    3    3    0    0  0.27333696765E+02 -0.48234095651E+02  0.31334830190E+01  0.55529070569E+02  0.51100000000E-03 0. -1.
         22    1    1    0    0    0 -0.55053896638E+01  0.22022155847E+02  0.18401159580E+02  0.29221350711E+02  0.00000000000E+00 0. -1.
</event>
<event>
 5    1  0.1046082E-009  0.9118800E+02  0.7561462E-02  0.1125453E+00
         25   -1    0    0    0    0  0.00000000000E+00  0.00000000000E+00  0.99999998245E-14  0.12509000000E+03  0.12509000000E+03 0.  0.
        -11    1    3    3    0    0  0.13636629525E+02 -0.91881736186E+01 -0.32228052982E+02  0.36180486433E+02  0.51100000000E-03 0. -1.
         23    2    1    0    0    0 -0.19224005101E+02  0.18785514150E+02  0.98589318705E+01  0.96460357117E+02  0.92113755995E+02 0.  0.
         11    1    3    3    0    0 -0.32860634626E+02  0.27973687769E+02  0.42086984853E+02  0.60279870684E+02  0.51100000000E-03 0.  1.
         22    1    1    0    0    0  0.19224005101E+02 -0.18785514150E+02 -0.98589318705E+01  0.28629642883E+02  0.00000000000E+00 0.  1.
</event>
<event>
 5    1  0.1046082E-009  0.9118800E+02  0.7561462E-02  0.1125453E+00
         25   -1    0    0    0    0  0.00000000000E+00  0.00000000000E+00  0.99999998245E-14  0.12509000000E+03  0.12509000000E+03 0.  0.
        -11    1    3    3    0    0  0.43471317773E+02  0.31458350858E+01  0.32351474738E+02  0.54279551079E+02  0.51100000000E-03 0.  1.
         23    2    1    0    0    0  0.28979277482E+02 -0.96175777136E+01 -0.28434364414E+01  0.94424360349E+02  0.89306093700E+02 0.  0.
         11    1    3    3    0    0 -0.14492040292E+02 -0.12763412799E+02 -0.35194911180E+02  0.40144809270E+02  0.51100000000E-03 0. -1.
         22    1    1    0    0    0 -0.28979277482E+02  0.96175777136E+01  0.28434364414E+01  0.30665639651E+02  0.00000000000E+00 0.  1.
</event>
<event>
 5    1  0.1046082E-009  0.9118800E+02  0.7561462E-02  0.1125453E+00
         25   -1    0    0    0    0  0.00000000000E+00  0.00000000000E+00  0.99999998245E-14  0.12509000000E+03  0.12509000000E+03 0.  0.
        -11    1    3    3    0    0 -0.17947670745E+02  0.23730774540E+01  0.32277109882E+02  0.37007596577E+02  0.51100000000E-03 0.  1.
         23    2    1    0    0    0  0.21142346779E+01  0.21513151922E+02 -0.19651866315E+02  0.95875593561E+02  0.91316197343E+02 0.  0.
         11    1    3    3    0    0  0.20061905422E+02  0.19140074468E+02 -0.51928976197E+02  0.58867996985E+02  0.51100000000E-03 0. -1.
         22    1    1    0    0    0 -0.21142346779E+01 -0.21513151922E+02  0.19651866315E+02  0.29214406439E+02  0.00000000000E+00 0. -1.
</event>
<event>
 5    1  0.1046082E-009  0.9118800E+02  0.7561462E-02  0.1125453E+00
         25   -1    0    0    0    0  0.00000000000E+00  0.00000000000E+00  0.99999998245E-14  0.12509000000E+03  0.12509000000E+03 0.  0.
        -11    1    3    3    0    0  0.22207475614E+02  0.40111531331E+02 -0.33136323096E+00  0.45849936976E+02  0.51100000000E-03 0. -1.
         23    2    1    0    0    0 -0.16303917081E+02  0.20265099280E+02 -0.18851906825E+02  0.92967012095E+02  0.87240924948E+02 0.  0.
         11    1    3    3    0    0 -0.38511392695E+02 -0.19846432051E+02 -0.18520543594E+02  0.47117075119E+02  0.51100000000E-03 0.  1.
         22    1    1    0    0    0  0.16303917081E+02 -0.20265099280E+02  0.18851906825E+02  0.32122987905E+02  0.00000000000E+00 0.  1.
</event>
<event>
 5    1  0.1046082E-009  0.9118800E+02  0.7561462E-02  0.1125453E+00
         25   -1    0    0    0    0  0.00000000000E+00  0.00000000000E+00  0.99999998245E-14  0.12509000000E+03  0.12509000000E+03 0.  0.
        -11    1    3    3    0    0  0.39159291931E+02  0.84986770005E+01 -0.46804724127E+02  0.61614607491E+02  0.51100000000E-03 0.  1.
         23    2    1    0    0    0  0.20961508224E+02 -0.24246023641E+01 -0.18262704686E+02  0.97183192477E+02  0.93090187420E+02 0.  0.
         11    1    3    3    0    0 -0.18197783707E+02 -0.10923279365E+02  0.28542019441E+02  0.35568584987E+02  0.51100000000E-03 0. -1.
         22    1    1    0    0    0 -0.20961508224E+02  0.24246023641E+01  0.18262704686E+02  0.27906807523E+02  0.00000000000E+00 0.  1.
</event>
<event>
 5    1  0.1046082E-009  0.9118800E+02  0.7561462E-02  0.1125453E+00
         25   -1    0    0    0    0  0.00000000000E+00  0.00000000000E+00  0.99999998245E-14  0.12509000000E+03  0.12509000000E+03 0.  0.
        -11    1    3    3    0    0  0.20728006018E+02 -0.39630761889E+02 -0.39265661935E+02  0.59515037838E+02  0.51100000000E-03 0. -1.
         23    2    1    0    0    0 -0.17635122163E+01 -0.13902511166E+02 -0.24759402616E+02  0.96639730934E+02  0.92357023474E+02 0.  0.
         11    1    3    3    0    0 -0.22491518234E+02  0.25728250724E+02  0.14506259319E+02  0.37124693096E+02  0.51100000000E-03 0.  1.
         22    1    1    0    0    0  0.17635122163E+01  0.13902511166E+02  0.24759402616E+02  0.28450269066E+02  0.00000000000E+00 0. -1.
</event>
<event>
 5    1  0.1046082E-009  0.9118800E+02  0.7561462E-02  0.1125453E+00
         25   -1    0    0    0    0  0.00000000000E+00  0.00000000000E+00  0.99999998245E-14  0.12509000000E+03  0.12509000000E+03 0.  0.
        -11    1    3    3    0    0 -0.23603838513E+02 -0.16859803603E+02 -0.20176757724E+02  0.35334058960E+02  0.51100000000E-03 0. -1.
         23    2    1    0    0    0 -0.41047461947E+01  0.39806797592E+01  0.30803952506E+02  0.93759850900E+02  0.88370421511E+02 0.  0.
         11    1    3    3    0    0  0.19499092318E+02  0.20840483362E+02  0.50980710230E+02  0.58425791940E+02  0.51100000000E-03 0.  1.
         22    1    1    0    0    0  0.41047461947E+01 -0.39806797592E+01 -0.30803952506E+02  0.31330149100E+02  0.00000000000E+00 0.  1.
</event>
<event>
 5    1  0.1046082E-009  0.9118800E+02  0.7561462E-02  0.1125453E+00
         25   -1    0    0    0    0  0.00000000000E+00  0.00000000000E+00  0.99999998245E-14  0.12509000000E+03  0.12509000000E+03 0.  0.
        -11    1    3    3    0    0 -0.22547260117E+02  0.38478421017E+02  0.18659311090E+02  0.48343952190E+02  0.51100000000E-03 0.  1.
         23    2    1    0    0    0 -0.24615021965E+02 -0.86013954314E+01  0.13434617448E+02  0.95757897183E+02  0.91154827723E+02 0.  0.
         11    1    3    3    0    0 -0.20677618480E+01 -0.47079816448E+02 -0.52246936423E+01  0.47413944993E+02  0.51100000000E-03 0. -1.
         22    1    1    0    0    0  0.24615021965E+02  0.86013954314E+01 -0.13434617448E+02  0.29332102817E+02  0.00000000000E+00 0. -1.
</event>
<event>
 5    1  0.1046082E-009  0.9118800E+02  0.7561462E-02  0.1125453E+00
         25   -1    0    0    0    0  0.00000000000E+00  0.00000000000E+00  0.99999998245E-14  0.12509000000E+03  0.12509000000E+03 0.  0.
        -11    1    3    3    0    0 -0.26311405150E+01  0.17874241059E+02 -0.28190503195E+02  0.33483068326E+02  0.51100000000E-03 0. -1.
         23    2    1    0    0    0 -0.26328513815E+01 -0.19670464989E+02  0.21544333407E+02  0.95798065936E+02  0.91209933866E+02 0.  0.
         11    1    3    3    0    0 -0.17108665501E-02 -0.37544706048E+02  0.49734836601E+02  0.62314997610E+02  0.51100000000E-03 0.  1.
         22    1    1    0    0    0  0.26328513815E+01  0.19670464989E+02 -0.21544333407E+02  0.29291934064E+02  0.00000000000E+00 0.  1.
</event>
<event>
 5    1  0.1046082E-009  0.9118800E+02  0.7561462E-02  0.1125453E+00
         25   -1    0    0    0    0  0.00000000000E+00  0.00000000000E+00  0.99999998245E-14  0.12509000000E+03  0.12509000000E+03 0.  0.
        -11    1    3    3    0    0  0.39063397445E+02 -0.76297737788E+01 -0.40371395267E+02  0.56692257178E+02  0.51100000000E-03 0.  1.
         23    2    1    0    0    0  0.90510870876E-01  0.66767686007E+01 -0.22013923952E+02  0.10208564652E+03  0.99459936391E+02 0.  0.
         11    1    3    3    0    0 -0.38972886575E+02  0.14306542379E+02  0.18357471315E+02  0.45393389344E+02  0.51100000000E-03 0. -1.
         22    1    1    0    0    0 -0.90510870876E-01 -0.66767686007E+01  0.22013923952E+02  0.23004353478E+02  0.00000000000E+00 0.  1.
</event>
<event>
 5    1  0.1046082E-009  0.9118800E+02  0.7561462E-02  0.1125453E+00
         25   -1    0    0    0    0  0.00000000000E+00  0.00000000000E+00  0.99999998245E-14  0.12509000000E+03  0.12509000000E+03 0.  0.
        -11    1    3    3    0    0 -0.59884526402E+02  0.26677314779E+01  0.16910554312E+01  0.59967766028E+02  0.51100000000E-03 0. -1.
         23    2    1    0    0    0 -0.29220810437E+02 -0.97717345157E+01 -0.53977004567E+01  0.93809371358E+02  0.88440490875E+02 0.  0.
         11    1    3    3    0    0  0.30663715965E+02 -0.12439465994E+02 -0.70887558879E+01  0.33841605330E+02  0.51100000000E-03 0.  1.
         22    1    1    0    0    0  0.29220810437E+02  0.97717345157E+01  0.53977004567E+01  0.31280628642E+02  0.00000000000E+00 0. -1.
</event>
<event>
 5    1  0.1046082E-009  0.9118800E+02  0.7561462E-02  0.1125453E+00
         25   -1    0    0    0    0  0.00000000000E+00  0.00000000000E+00  0.99999998245E-14  0.12509000000E+03  0.12509000000E+03 0.  0.
        -11    1    3    3    0    0 -0.15836604793E+02  0.33334920703E+02 -0.82236805272E+01  0.37810632252E+02  0.51100000000E-03 0.  1.
         23    2    1    0    0    0  0.28954193638E+02 -0.53562915024E+00  0.54870704474E+01  0.95615601450E+02  0.90959348452E+02 0.  0.
         11    1    3    3    0    0  0.44790798431E+02 -0.33870549853E+02  0.13710750975E+02  0.57804969198E+02  0.51100000000E-03 0. -1.
         22    1    1    0    0    0 -0.28954193638E+02  0.53562915024E+00 -0.54870704474E+01  0.29474398550E+02  0.00000000000E+00 0. -1.
</event>
<event>
 5    1  0.1046082E-009  0.9118800E+02  0.7561462E-02  0.1125453E+00
         25   -1    0    0    0    0  0.00000000000E+00  0.00000000000E+00  0.99999998245E-14  0.12509000000E+03  0.12509000000E+03 0.  0.
        -11    1    3    3    0    0 -0.30629111761E+02 -0.16623899256E+02  0.45383031619E+02  0.57219892283E+02  0.51100000000E-03 0.  1.
         23    2    1    0    0    0 -0.17290861205E+02  0.90570478622E+01  0.27934761709E+02  0.91011342325E+02  0.84390221726E+02 0.  0.
         11    1    3    3    0    0  0.13338250556E+02  0.25680947119E+02 -0.17448269910E+02  0.33791450042E+02  0.51100000000E-03 0. -1.
         22    1    1    0    0    0  0.17290861205E+02 -0.90570478622E+01 -0.27934761709E+02  0.34078657675E+02  0.00000000000E+00 0.  1.
</event>
<event>
 5    1  0.1046082E-009  0.9118800E+02  0.7561462E-02  0.1125453E+00
         25   -1    0    0    0    0  0.00000000000E+00  0.00000000000E+00  0.99999998245E-14  0.12509000000E+03  0.12509000000E+03 0.  0.
        -11    1    3    3    0    0  0.10212267346E+01 -0.78459087836E+00  0.45680361323E+02  0.45698510892E+02  0.51100000000E-03 0.  1.
         23    2    1    0    0    0 -0.19010213680E+02  0.20273994991E+02  0.32789723807E+01  0.97104740363E+02  0.92984707582E+02 0.  0.
         11    1    3    3    0    0 -0.20031440415E+02  0.21058585869E+02 -0.42401388943E+02  0.51406229471E+02  0.51100000000E-03 0. -1.
         22    1    1    0    0    0  0.19010213680E+02 -0.20273994991E+02 -0.32789723807E+01  0.27985259637E+02  0.00000000000E+00 0. -1.
</event>
<event>
 5    1  0.1046082E-009  0.9118800E+02  0.7561462E-02  0.1125453E+00
         25   -1    0    0    0    0  0.00000000000E+00  0.00000000000E+00  0.99999998245E-14  0.12509000000E+03  0.12509000000E+03 0.  0.
        -11    1    3    3    0    0  0.35696275467E+02 -0.16028721917E+02  0.45773083316E+01  0.39396646562E+02  0.51100000000E-03 0. -1.
         23    2    1    0    0    0  0.76884373024E+01  0.27545176023E+02 -0.12417753975E+02  0.93912293155E+02  0.88585943589E+02 0.  0.
         11    1    3    3    0    0 -0.28007838165E+02  0.43573897940E+02 -0.16995062307E+02  0.54515646593E+02  0.51100000000E-03 0.  1.
         22    1    1    0    0    0 -0.76884373024E+01 -0.27545176023E+02  0.12417753975E+02  0.31177706845E+02  0.00000000000E+00 0.  1.
</event>
<event>
 5    1  0.1046082E-009  0.9118800E+02  0.7561462E-02  0.1125453E+00
         25   -1    0    0    0    0  0.00000000000E+00  0.00000000000E+00  0.99999998245E-14  0.12509000000E+03  0.12509000000E+03 0.  0.
        -11    1    3    3    0    0 -0.24152085044E+02 -0.37540513522E+02 -0.21755914958E+02  0.49658163512E+02  0.51100000000E-03 0.  1.
         23    2    1    0    0    0  0.11580634754E+01  0.31730049540E+01 -0.26996295396E+02  0.97883217085E+02  0.94026140782E+02 0.  0.
         11    1    3    3    0    0  0.25310148519E+02  0.40713518476E+02 -0.52403804384E+01  0.48225053574E+02  0.51100000000E-03 0. -1.
         22    1    1    0    0    0 -0.11580634754E+01 -0.31730049540E+01  0.26996295396E+02  0.27206782915E+02  0.00000000000E+00 0.  1.
</event>
<event>
 5    1  0.1046082E-009  0.9118800E+02  0.7561462E-02  0.1125453E+00
         25   -1    0    0    0    0  0.00000000000E+00  0.00000000000E+00  0.99999998245E-14  0.12509000000E+03  0.12509000000E+03 0.  0.
        -11    1    3    3    0    0  0.33152888774E+02 -0.40256817166E+02 -0.62731472869E+01  0.52526923949E+02  0.51100000000E-03 0. -1.
         23    2    1    0    0    0 -0.46725757245E+01 -0.27516402960E+02  0.97345874034E+01  0.95530778297E+02  0.90842622235E+02 0.  0.
         11    1    3    3    0    0 -0.37825464499E+02  0.12740414206E+02  0.16007734690E+02  0.43003854349E+02  0.51100000000E-03 0.  1.
         22    1    1    0    0    0  0.46725757245E+01  0.27516402960E+02 -0.97345874034E+01  0.29559221703E+02  0.00000000000E+00 0. -1.
</event>
<event>
 5    1  0.1046082E-009  0.9118800E+02  0.7561462E-02  0.1125453E+00
         25   -1    0    0    0    0  0.00000000000E+00  0.00000000000E+00  0.99999998245E-14  0.12509000000E+03  0.12509000000E+03 0.  0.
        -11    1    3    3    0    0  0.35844912641E+02 -0.27557994793E+01 -0.13238671317E+02  0.38310763651E+02  0.51100000000E-03 0. -1.
         23    2    1    0    0    0 -0.23420576583E+02 -0.77443364027E+01  0.36891021142E+01  0.10014791452E+03  0.96992253061E+02 0.  0.
         11    1    3    3    0    0 -0.59265489225E+02 -0.49885369234E+01  0.16927773431E+02  0.61837150866E+02  0.51100000000E-03 0.  1.
         22    1    1    0    0    0  0.23420576583E+02  0.77443364027E+01 -0.36891021142E+01  0.24942085483E+02  0.00000000000E+00 0.  1.
</event>
<event>
 5    1  0.1046082E-009  0.9118800E+02  0.7561462E-02  0.1125453E+00
         25   -1    0    0    0    0  0.00000000000E+00  0.00000000000E+00  0.99999998245E-14  0.12509000000E+03  0.12509000000E+03 0.  0.
        -11    1    3    3    0    0 -0.35749475358E+01  0.46770670679E+02 -0.23299229807E+02  0.52374898525E+02  0.51100000000E-03 0.  1.
         23    2    1    0    0    0  0.34945318041E+01  0.26888434385E+02  0.13504247759E+02  0.94798675107E+02  0.89828861945E+02 0.  0.
         11    1    3    3    0    0  0.70694793400E+01 -0.19882236294E+02  0.36803477567E+02  0.42423776582E+02  0.51100000000E-03 0. -1.
         22    1    1    0    0    0 -0.34945318041E+01 -0.26888434385E+02 -0.13504247759E+02  0.30291324893E+02  0.00000000000E+00 0.  1.
</event>
<event>
 5    1  0.1046082E-009  0.9118800E+02  0.7561462E-02  0.1125453E+00
         25   -1    0    0    0    0  0.00000000000E+00  0.00000000000E+00  0.99999998245E-14  0.12509000000E+03  0.12509000000E+03 0.  0.
        -11    1    3    3    0    0 -0.87292540552E+01  0.24990363121E+02 -0.54629538400E+02  0.60705062320E+02  0.51100000000E-03 0.  1.
         23    2    1    0    0    0 -0.18980076670E+01  0.21380000288E+01 -0.29867116259E+02  0.95086365039E+02  0.90228591397E+02 0.  0.
         11    1    3    3    0    0  0.68312463882E+01 -0.22852363092E+02  0.24762422141E+02  0.34381302719E+02  0.51100000000E-03 0. -1.
         22    1    1    0    0    0  0.18980076670E+01 -0.21380000288E+01  0.29867116259E+02  0.30003634961E+02  0.00000000000E+00 0.  1.
</event>
<event>
 5    1  0.1046082E-009  0.9118800E+02  0.7561462E-02  0.1125453E+00
         25   -1    0    0    0    0  0.00000000000E+00  0.00000000000E+00  0.99999998245E-14  0.12509000000E+03  0.12509000000E+03 0.  0.
        -11    1    3    3    0    0 -0.36535917253E+02  0.23998360117E+02  0.37671908690E+02  0.57705868353E+02  0.51100000000E-03 0.  1.
         23    2    1    0    0    0 -0.14049899752E+02 -0.37225212197E+01  0.26076852841E+02  0.95236037091E+02  0.90435853839E+02 0.  0.
         11    1    3    3    0    0  0.22486017501E+02 -0.27720881336E+02 -0.11595055849E+02  0.37530168738E+02  0.51100000000E-03 0. -1.
         22    1    1    0    0    0  0.14049899752E+02  0.37225212197E+01 -0.26076852841E+02  0.29853962909E+02  0.00000000000E+00 0.  1.
</event>
<event>
 5    1  0.1046082E-009  0.9118800E+02  0.7561462E-02  0.1125453E+00
         25   -1    0    0    0    0  0.00000000000E+00  0.00000000000E+00  0.99999998245E-14  0.12509000000E+03  0.12509000000E+03 0.  0.
        -11    1    3    3    0    0 -0.17176907318E+02 -0.27419046584E+02 -0.49018866523E+02  0.58734142847E+02  0.51100000000E-03 0.  1.
         23    2    1    0    0    0  0.75437131820E+01 -0.15535555602E+02 -0.20033480253E+02  0.98640020274E+02  0.95027638991E+02 0.  0.
         11    1    3    3    0    0  0.24720620500E+02  0.11883490981E+02  0.28985386269E+02  0.39905877427E+02  0.51100000000E-03 0. -1.
         22    1    1    0    0    0 -0.75437131820E+01  0.15535555602E+02  0.20033480253E+02  0.26449979726E+02  0.00000000000E+00 0.  1.
</event>
<event>
 5    1  0.1046082E-009  0.9118800E+02  0.7561462E-02  0.1125453E+00
         25   -1    0    0    0    0  0.00000000000E+00  0.00000000000E+00  0.99999998245E-14  0.12509000000E+03  0.12509000000E+03 0.  0.
        -11    1    3    3    0    0  0.40116577716E+02 -0.47252411591E+02  0.85671633230E+00  0.61990839420E+02  0.51100000000E-03 0. -1.
         23    2    1    0    0    0  0.16790663404E+02 -0.23617681904E+02  0.57227424232E+01  0.95552378957E+02  0.90872361405E+02 0.  0.
         11    1    3    3    0    0 -0.23325914312E+02  0.23634729687E+02  0.48660260909E+01  0.33561539537E+02  0.51100000000E-03 0.  1.
         22    1    1    0    0    0 -0.16790663404E+02  0.23617681904E+02 -0.57227424232E+01  0.29537621043E+02  0.00000000000E+00 0. -1.
</event>
<event>
 5    1  0.1046082E-009  0.9118800E+02  0.7561462E-02  0.1125453E+00
         25   -1    0    0    0    0  0.00000000000E+00  0.00000000000E+00  0.99999998245E-14  0.12509000000E+03  0.12509000000E+03 0.  0.
        -11    1    3    3    0    0  0.42659428845E+02 -0.20430198741E+02 -0.47622486482E+01  0.47538393982E+02  0.51100000000E-03 0. -1.
         23    2    1    0    0    0  0.55542312996E+01 -0.11814609680E+01 -0.28784858752E+02  0.95750377836E+02  0.91144508485E+02 0.  0.
         11    1    3    3    0    0 -0.37105197545E+02  0.19248737773E+02 -0.24022610104E+02  0.48211983854E+02  0.51100000000E-03 0.  1.
         22    1    1    0    0    0 -0.55542312996E+01  0.11814609680E+01  0.28784858752E+02  0.29339622164E+02  0.00000000000E+00 0. -1.
</event>
<event>
 5    1  0.1046082E-009  0.9118800E+02  0.7561462E-02  0.1125453E+00
         25   -1    0    0    0    0  0.00000000000E+00  0.00000000000E+00  0.99999998245E-14  0.12509000000E+03  0.12509000000E+03 0.  0.
        -11    1    3    3    0    0  0.18367579239E+02 -0.36167098521E+02 -0.40691641147E+02  0.57456389044E+02  0.51100000000E-03 0. -1.
         23    2    1    0    0    0 -0.10362302026E+02 -0.99224214367E+01 -0.16271102105E+02  0.10339713218E+03  0.10109592687E+03 0.  0.
         11    1    3    3    0    0 -0.28729881265E+02  0.26244677084E+02  0.24420539042E+02  0.45940743138E+02  0.51100000000E-03 0.  1.
         22    1    1    0    0    0  0.10362302026E+02  0.99224214367E+01  0.16271102105E+02  0.21692867817E+02  0.00000000000E+00 0. -1.
</event>
<event>
 5    1  0.1046082E-009  0.9118800E+02  0.7561462E-02  0.1125453E+00
         25   -1    0    0    0    0  0.00000000000E+00  0.00000000000E+00  0.99999998245E-14  0.12509000000E+03  0.12509000000E+03 0.  0.
        -11    1    3    3    0    0  0.13385324847E+02  0.35538976221E+02 -0.31403094614E+02  0.49278190954E+02  0.51100000000E-03 0. -1.
         23    2    1    0    0    0  0.22725289331E+02  0.26282267399E+02  0.68043598109E+01  0.89685259255E+02  0.82401153271E+02 0.  0.
         11    1    3    3    0    0  0.93399644833E+01 -0.92567088223E+01  0.38207454425E+02  0.40407068301E+02  0.51100000000E-03 0.  1.
         22    1    1    0    0    0 -0.22725289331E+02 -0.26282267399E+02 -0.68043598109E+01  0.35404740745E+02  0.00000000000E+00 0. -1.
</event>
<event>
 5    1  0.1046082E-009  0.9118800E+02  0.7561462E-02  0.1125453E+00
         25   -1    0    0    0    0  0.00000000000E+00  0.00000000000E+00  0.99999998245E-14  0.12509000000E+03  0.12509000000E+03 0.  0.
        -11    1    3    3    0    0 -0.25528133384E+02  0.33067603365E+02  0.16939426150E+02  0.45078777101E+02  0.51100000000E-03 0. -1.
         23    2    1    0    0    0  0.15119192065E+01 -0.84699984067E+01  0.27945889382E+02  0.95849625412E+02  0.91280617798E+02 0.  0.
         11    1    3    3    0    0  0.27040052590E+02 -0.41537601772E+02  0.11006463232E+02  0.50770848311E+02  0.51100000000E-03 0.  1.
         22    1    1    0    0    0 -0.15119192065E+01  0.84699984067E+01 -0.27945889382E+02  0.29240374588E+02  0.00000000000E+00 0. -1.
</event>
<event>
 5    1  0.1046082E-009  0.9118800E+02  0.7561462E-02  0.1125453E+00
         25   -1    0    0    0    0  0.00000000000E+00  0.00000000000E+00  0.99999998245E-14  0.12509000000E+03  0.12509000000E+03 0.  0.
        -11    1    3    3    0    0 -0.10755672547E+02  0.39124915791E+02 -0.29913212235E+01  0.40686503051E+02  0.51100000000E-03 0.  1.
         23    2    1    0    0    0 -0.26078584278E+02 -0.12649788319E+02 -0.82972648051E+01  0.94941130938E+02  0.90027018379E+02 0.  0.
         11    1    3    3    0    0 -0.15322911731E+02 -0.51774704110E+02 -0.53059435816E+01  0.54254627887E+02  0.51100000000E-03 0. -1.
         22    1    1    0    0    0  0.26078584278E+02  0.12649788319E+02  0.82972648051E+01  0.30148869062E+02  0.00000000000E+00 0. -1.
</event>
<event>
 5    1  0.1046082E-009  0.9118800E+02  0.7561462E-02  0.1125453E+00
         25   -1    0    0    0    0  0.00000000000E+00  0.00000000000E+00  0.99999998245E-14  0.12509000000E+03  0.12509000000E+03 0.  0.
        -11    1    3    3    0    0 -0.32907116061E+02 -0.19152110262E+02 -0.19554820352E+02  0.42802717369E+02  0.51100000000E-03 0.  1.
         23    2    1    0    0    0  0.48249505997E+01 -0.23669182178E+02  0.17015606195E+02  0.95542729611E+02  0.90859077665E+02 0.  0.
         11    1    3    3    0    0  0.37732066661E+02 -0.45170719160E+01  0.36570426546E+02  0.52740012242E+02  0.51100000000E-03 0. -1.
         22    1    1    0    0    0 -0.48249505997E+01  0.23669182178E+02 -0.17015606195E+02  0.29547270389E+02  0.00000000000E+00 0. -1.
</event>
<event>
 5    1  0.1046082E-009  0.9118800E+02  0.7561462E-02  0.1125453E+00
         25   -1    0    0    0    0  0.00000000000E+00  0.00000000000E+00  0.99999998245E-14  0.12509000000E+03  0.12509000000E+03 0.  0.
        -11    1    3    3    0    0 -0.57682673212E+02 -0.24234986721E+01  0.19521944295E+02  0.60944814743E+02  0.51100000000E-03 0. -1.
         23    2    1    0    0    0 -0.24131579322E+02 -0.10513480803E+02  0.11428224583E+02  0.96393820528E+02  0.92023355294E+02 0.  0.
         11    1    3    3    0    0  0.33551093890E+02 -0.80899821313E+01 -0.80937197122E+01  0.35449005785E+02  0.51100000000E-03 0.  1.
         22    1    1    0    0    0  0.24131579322E+02  0.10513480803E+02 -0.11428224583E+02  0.28696179472E+02  0.00000000000E+00 0. -1.
</event>
<event>
 5    1  0.1046082E-009  0.9118800E+02  0.7561462E-02  0.1125453E+00
         25   -1    0    0    0    0  0.00000000000E+00  0.00000000000E+00  0.99999998245E-14  0.12509000000E+03  0.12509000000E+03 0.  0.
        -11    1    3    3    0    0  0.32600373008E+02  0.36390746657E+02  0.36998584496E+02  0.61285936539E+02  0.51100000000E-03 0.  1.
         23    2    1    0    0    0  0.75767749997E+01  0.20167140487E+02  0.20419429035E+02  0.95407106661E+02  0.90672166868E+02 0.  0.
         11    1    3    3    0    0 -0.25023598008E+02 -0.16223606170E+02 -0.16579155461E+02  0.34121170122E+02  0.51100000000E-03 0. -1.
         22    1    1    0    0    0 -0.75767749997E+01 -0.20167140487E+02 -0.20419429035E+02  0.29682893339E+02  0.00000000000E+00 0.  1.
</event>
<event>
 5    1  0.1046082E-009  0.9118800E+02  0.7561462E-02  0.1125453E+00
         25   -1    0    0    0    0  0.00000000000E+00  0.00000000000E+00  0.99999998245E-14  0.12509000000E+03  0.12509000000E+03 0.  0.
        -11    1    3    3    0    0 -0.31935354875E+02  0.66033593539E+01  0.13422052218E+02  0.35265035542E+02  0.51100000000E-03 0.  1.
         23    2    1    0    0    0  0.19535548765E+02 -0.21560234587E+02 -0.19895381613E+01  0.95927701684E+02  0.91387550067E+02 0.  0.
         11    1    3    3    0    0  0.51470903640E+02 -0.28163593941E+02 -0.15411590379E+02  0.60662666142E+02  0.51100000000E-03 0. -1.
         22    1    1    0    0    0 -0.19535548765E+02  0.21560234587E+02  0.19895381613E+01  0.29162298316E+02  0.00000000000E+00 0. -1.
</event>
<event>
 5    1  0.1046082E-009  0.9118800E+02  0.7561462E-02  0.1125453E+00
         25   -1    0    0    0    0  0.00000000000E+00  0.00000000000E+00  0.99999998245E-14  0.12509000000E+03  0.12509000000E+03 0.  0.
        -11    1    3    3    0    0  0.44994190426E+01 -0.13344704743E+02  0.50722868136E+02  0.52641573576E+02  0.51100000000E-03 0. -1.
         23    2    1    0    0    0  0.20902046867E+02 -0.19864190179E+02  0.14773590578E+02  0.92690299488E+02  0.86843255500E+02 0.  0.
         11    1    3    3    0    0  0.16402627825E+02 -0.65194854360E+01 -0.35949277558E+02  0.40048725912E+02  0.51100000000E-03 0.  1.
         22    1    1    0    0    0 -0.20902046867E+02  0.19864190179E+02 -0.14773590578E+02  0.32399700512E+02  0.00000000000E+00 0. -1.
</event>
<event>
 5    1  0.1046082E-009  0.9118800E+02  0.7561462E-02  0.1125453E+00
         25   -1    0    0    0    0  0.00000000000E+00  0.00000000000E+00  0.99999998245E-14  0.12509000000E+03  0.12509000000E+03 0.  0.
        -11    1    3    3    0    0  0.29432657360E+02  0.24469224806E+01  0.51448844913E+02  0.59323287097E+02  0.51100000000E-03 0. -1.
         23    2    1    0    0    0  0.11511016884E+02 -0.12956676682E+02  0.21334452971E+02  0.97602950978E+02  0.93652539611E+02 0.  0.
         11    1    3    3    0    0 -0.17921640475E+02 -0.15403599163E+02 -0.30114391942E+02  0.38279663880E+02  0.51100000000E-03 0.  1.
         22    1    1    0    0    0 -0.11511016884E+02  0.12956676682E+02 -0.21334452971E+02  0.27487049022E+02  0.00000000000E+00 0. -1.
</event>
<event>
 5    1  0.1046082E-009  0.9118800E+02  0.7561462E-02  0.1125453E+00
         25   -1    0    0    0    0  0.00000000000E+00  0.00000000000E+00  0.99999998245E-14  0.12509000000E+03  0.12509000000E+03 0.  0.
        -11    1    3    3    0    0 -0.54093471607E+02 -0.27678048496E+02 -0.12483507088E+01  0.60776117174E+02  0.51100000000E-03 0.  1.
         23    2    1    0    0    0 -0.26471307834E+02 -0.98791548838E+01  0.93907935103E+01  0.95315600890E+02  0.90545838836E+02 0.  0.
         11    1    3    3    0    0  0.27622163774E+02  0.17798893612E+02  0.10639144219E+02  0.34539483715E+02  0.51100000000E-03 0. -1.
         22    1    1    0    0    0  0.26471307834E+02  0.98791548838E+01 -0.93907935103E+01  0.29774399110E+02  0.00000000000E+00 0. -1.
</event>
<event>
 5    1  0.1046082E-009  0.9118800E+02  0.7561462E-02  0.1125453E+00
         25   -1    0    0    0    0  0.00000000000E+00  0.00000000000E+00  0.99999998245E-14  0.12509000000E+03  0.12509000000E+03 0.  0.
        -11    1    3    3    0    0  0.27579293247E+02 -0.30671134328E+02 -0.18533320963E+01  0.41288869409E+02  0.51100000000E-03 0.  1.
         23    2    1    0    0    0  0.36009451694E+01  0.62988171330E+01  0.29074132576E+02  0.95124234727E+02  0.90281077441E+02 0.  0.
         11    1    3    3    0    0 -0.23978348078E+02  0.36969951461E+02  0.30927464672E+02  0.53835365317E+02  0.51100000000E-03 0. -1.
         22    1    1    0    0    0 -0.36009451694E+01 -0.62988171330E+01 -0.29074132576E+02  0.29965765273E+02  0.00000000000E+00 0. -1.
</event>
<event>
 5    1  0.1046082E-009  0.9118800E+02  0.7561462E-02  0.1125453E+00
         25   -1    0    0    0    0  0.00000000000E+00  0.00000000000E+00  0.99999998245E-14  0.12509000000E+03  0.12509000000E+03 0.  0.
        -11    1    3    3    0    0 -0.21068759491E+02  0.28904995821E+02  0.14664220474E+02  0.38657868181E+02  0.51100000000E-03 0.  1.
         23    2    1    0    0    0  0.60854987992E+01  0.34688332842E+01 -0.28556157875E+02  0.95687274743E+02  0.91057862346E+02 0.  0.
         11    1    3    3    0    0  0.27154258290E+02 -0.25436162537E+02 -0.43220378349E+02  0.57029406562E+02  0.51100000000E-03 0. -1.
         22    1    1    0    0    0 -0.60854987992E+01 -0.34688332842E+01  0.28556157875E+02  0.29402725257E+02  0.00000000000E+00 0. -1.
</event>
<event>
 5    1  0.1046082E-009  0.9118800E+02  0.7561462E-02  0.1125453E+00
         25   -1    0    0    0    0  0.00000000000E+00  0.00000000000E+00  0.99999998245E-14  0.12509000000E+03  0.12509000000E+03 0.  0.
        -11    1    3    3    0    0  0.16834169163E+02 -0.10691864505E+02 -0.28213834334E+02  0.34550335253E+02  0.51100000000E-03 0. -1.
         23    2    1    0    0    0 -0.35382557780E+01 -0.10187413467E+01  0.28900460826E+02  0.95955935336E+02  0.91426187727E+02 0.  0.
         11    1    3    3    0    0 -0.20372424941E+02  0.96731231579E+01  0.57114295160E+02  0.61405600083E+02  0.51100000000E-03 0.  1.
         22    1    1    0    0    0  0.35382557780E+01  0.10187413467E+01 -0.28900460826E+02  0.29134064664E+02  0.00000000000E+00 0.  1.
</event>
<event>
 5    1  0.1046082E-009  0.9118800E+02  0.7561462E-02  0.1125453E+00
         25   -1    0    0    0    0  0.00000000000E+00  0.00000000000E+00  0.99999998245E-14  0.12509000000E+03  0.12509000000E+03 0.  0.
        -11    1    3    3    0    0  0.13902483617E+02  0.18707754293E+02  0.20320087999E+02  0.30921919377E+02  0.51100000000E-03 0. -1.
         23    2    1    0    0    0  0.77996558030E+01 -0.14126151185E+02 -0.29830582485E+02  0.91174716877E+02  0.84632042208E+02 0.  0.
         11    1    3    3    0    0 -0.61028278142E+01 -0.32833905478E+02 -0.50150670484E+02  0.60252797500E+02  0.51100000000E-03 0.  1.
         22    1    1    0    0    0 -0.77996558030E+01  0.14126151185E+02  0.29830582485E+02  0.33915283123E+02  0.00000000000E+00 0.  1.
</event>
<event>
 5    1  0.1046082E-009  0.9118800E+02  0.7561462E-02  0.1125453E+00
         25   -1    0    0    0    0  0.00000000000E+00  0.00000000000E+00  0.99999998245E-14  0.12509000000E+03  0.12509000000E+03 0.  0.
        -11    1    3    3    0    0  0.44764406237E+02 -0.25323879253E+02  0.83591874416E+01  0.52105920404E+02  0.51100000000E-03 0. -1.
         23    2    1    0    0    0  0.24832010668E+02  0.61362563534E+01 -0.14383972925E+02  0.95744113185E+02  0.91135910247E+02 0.  0.
         11    1    3    3    0    0 -0.19932395569E+02  0.31460135607E+02 -0.22743160366E+02  0.43638192781E+02  0.51100000000E-03 0.  1.
         22    1    1    0    0    0 -0.24832010668E+02 -0.61362563534E+01  0.14383972925E+02  0.29345886815E+02  0.00000000000E+00 0. -1.
</event>
<event>
 5    1  0.1046082E-009  0.9118800E+02  0.7561462E-02  0.1125453E+00
         25   -1    0    0    0    0  0.00000000000E+00  0.00000000000E+00  0.99999998245E-14  0.12509000000E+03  0.12509000000E+03 0.  0.
        -11    1    3    3    0    0  0.38152865329E+02 -0.41403164017E+02  0.51672934591E+01  0.56538164504E+02  0.51100000000E-03 0.  1.
         23    2    1    0    0    0  0.18473299987E+02 -0.18075576386E+02 -0.16908312982E+02  0.94205046997E+02  0.88998373905E+02 0.  0.
         11    1    3    3    0    0 -0.19679565342E+02  0.23327587632E+02 -0.22075606441E+02  0.37666882494E+02  0.51100000000E-03 0. -1.
         22    1    1    0    0    0 -0.18473299987E+02  0.18075576386E+02  0.16908312982E+02  0.30884953003E+02  0.00000000000E+00 0.  1.
</event>
<event>
 5    1  0.1046082E-009  0.9118800E+02  0.7561462E-02  0.1125453E+00
         25   -1    0    0    0    0  0.00000000000E+00  0.00000000000E+00  0.99999998245E-14  0.12509000000E+03  0.12509000000E+03 0.  0.
        -11    1    3    3    0    0 -0.68593075190E+01  0.53046571854E+01 -0.52697890540E+02  0.53406527271E+02  0.51100000000E-03 0.  1.
         23    2    1    0    0    0  0.12264964948E+02 -0.15872393112E+02 -0.22033552506E+02  0.95293361527E+02  0.90515109715E+02 0.  0.
         11    1    3    3    0    0  0.19124272467E+02 -0.21177050297E+02  0.30664338034E+02  0.41886834256E+02  0.51100000000E-03 0. -1.
         22    1    1    0    0    0 -0.12264964948E+02  0.15872393112E+02  0.22033552506E+02  0.29796638473E+02  0.00000000000E+00 0.  1.
</event>
<event>
 5    1  0.1046082E-009  0.9118800E+02  0.7561462E-02  0.1125453E+00
         25   -1    0    0    0    0  0.00000000000E+00  0.00000000000E+00  0.99999998245E-14  0.12509000000E+03  0.12509000000E+03 0.  0.
        -11    1    3    3    0    0 -0.65839878505E+01  0.25049168089E+02  0.23716702833E+02  0.35118253252E+02  0.51100000000E-03 0.  1.
         23    2    1    0    0    0  0.81789728591E+01 -0.28850556329E+02  0.21317110701E+01  0.95026826687E+02  0.90146011562E+02 0.  0.
         11    1    3    3    0    0  0.14762960710E+02 -0.53899724419E+02 -0.21584991763E+02  0.59908573435E+02  0.51100000000E-03 0. -1.
         22    1    1    0    0    0 -0.81789728591E+01  0.28850556329E+02 -0.21317110701E+01  0.30063173313E+02  0.00000000000E+00 0. -1.
</event>
<event>
 5    1  0.1046082E-009  0.9118800E+02  0.7561462E-02  0.1125453E+00
         25   -1    0    0    0    0  0.00000000000E+00  0.00000000000E+00  0.99999998245E-14  0.12509000000E+03  0.12509000000E+03 0.  0.
        -11    1    3    3    0    0  0.18601378556E+02  0.30819928172E+02 -0.10572569298E+02  0.37518775014E+02  0.51100000000E-03 0.  1.
         23    2    1    0    0    0  0.12446367866E+02 -0.26443281093E+02 -0.56601491802E+01  0.95320947668E+02  0.90553225164E+02 0.  0.
         11    1    3    3    0    0 -0.61550106897E+01 -0.57263209265E+02  0.49124201176E+01  0.57802172654E+02  0.51100000000E-03 0. -1.
         22    1    1    0    0    0 -0.12446367866E+02  0.26443281093E+02  0.56601491802E+01  0.29769052332E+02  0.00000000000E+00 0. -1.
</event>
<event>
 5    1  0.1046082E-009  0.9118800E+02  0.7561462E-02  0.1125453E+00
         25   -1    0    0    0    0  0.00000000000E+00  0.00000000000E+00  0.99999998245E-14  0.12509000000E+03  0.12509000000E+03 0.  0.
        -11    1    3    3    0    0 -0.19115258718E+02 -0.22942534042E+02 -0.31057811482E+02  0.43085271711E+02  0.51100000000E-03 0.  1.
         23    2    1    0    0    0  0.25395818929E+02 -0.12319854307E+02 -0.31414505006E+01  0.96689381336E+02  0.92424246401E+02 0.  0.
         11    1    3    3    0    0  0.44511077647E+02  0.10622679734E+02  0.27916360981E+02  0.53604109625E+02  0.51100000000E-03 0. -1.
         22    1    1    0    0    0 -0.25395818929E+02  0.12319854307E+02  0.31414505006E+01  0.28400618664E+02  0.00000000000E+00 0. -1.
</event>
<event>
 5    1  0.1046082E-009  0.9118800E+02  0.7561462E-02  0.1125453E+00
         25   -1    0    0    0    0  0.00000000000E+00  0.00000000000E+00  0.99999998245E-14  0.12509000000E+03  0.12509000000E+03 0.  0.
        -11    1    3    3    0    0  0.24114636227E+01  0.55181291659E+02  0.56284528230E+01  0.55519992682E+02  0.51100000000E-03 0. -1.
         23    2    1    0    0    0 -0.16440149094E+02  0.21582341910E+02  0.13412862931E+02  0.94824824029E+02  0.89865267905E+02 0.  0.
         11    1    3    3    0    0 -0.18851612717E+02 -0.33598949749E+02  0.77844101076E+01  0.39304831347E+02  0.51100000000E-03 0.  1.
         22    1    1    0    0    0  0.16440149094E+02 -0.21582341910E+02 -0.13412862931E+02  0.30265175971E+02  0.00000000000E+00 0. -1.
</event>
<event>
 5    1  0.1046082E-009  0.9118800E+02  0.7561462E-02  0.1125453E+00
         25   -1    0    0    0    0  0.00000000000E+00  0.00000000000E+00  0.99999998245E-14  0.12509000000E+03  0.12509000000E+03 0.  0.
        -11    1    3    3    0    0 -0.73503494522E+01  0.71423922295E+01 -0.61342479017E+02  0.62192773986E+02  0.51100000000E-03 0. -1.
         23    2    1    0    0    0  0.14723505697E+01  0.38878286410E+01 -0.25749002163E+02  0.99007551109E+02  0.95510214304E+02 0.  0.
         11    1    3    3    0    0  0.88227000219E+01 -0.32545635885E+01  0.35593476854E+02  0.36814777123E+02  0.51100000000E-03 0.  1.
         22    1    1    0    0    0 -0.14723505697E+01 -0.38878286410E+01  0.25749002163E+02  0.26082448891E+02  0.00000000000E+00 0. -1.
</event>
<event>
 5    1  0.1046082E-009  0.9118800E+02  0.7561462E-02  0.1125453E+00
         25   -1    0    0    0    0  0.00000000000E+00  0.00000000000E+00  0.99999998245E-14  0.12509000000E+03  0.12509000000E+03 0.  0.
        -11    1    3    3    0    0  0.44077504615E+01 -0.36179554768E+02  0.52143335815E+01  0.36818171088E+02  0.51100000000E-03 0.  1.
         23    2    1    0    0    0  0.10766584040E+02  0.18870541868E+02 -0.17976568726E+02  0.96891175460E+02  0.92696958831E+02 0.  0.
         11    1    3    3    0    0  0.63588335782E+01  0.55050096636E+02 -0.23190902308E+02  0.60073004371E+02  0.51100000000E-03 0. -1.
         22    1    1    0    0    0 -0.10766584040E+02 -0.18870541868E+02  0.17976568726E+02  0.28198824540E+02  0.00000000000E+00 0. -1.
</event>
<event>
 5    1  0.1046082E-009  0.9118800E+02  0.7561462E-02  0.1125453E+00
         25   -1    0    0    0    0  0.00000000000E+00  0.00000000000E+00  0.99999998245E-14  0.12509000000E+03  0.12509000000E+03 0.  0.
        -11    1    3    3    0    0  0.24875901119E+01 -0.40857946430E+02  0.25751642618E+02  0.48360179785E+02  0.51100000000E-03 0.  1.
         23    2    1    0    0    0  0.15260041176E+02  0.28552381663E+01  0.27029729745E+02  0.93919059498E+02  0.88595497658E+02 0.  0.
         11    1    3    3    0    0  0.12772451064E+02  0.43713184596E+02  0.12780871271E+01  0.45558879713E+02  0.51100000000E-03 0. -1.
         22    1    1    0    0    0 -0.15260041176E+02 -0.28552381663E+01 -0.27029729745E+02  0.31170940502E+02  0.00000000000E+00 0.  1.
</event>
<event>
 5    1  0.1046082E-009  0.9118800E+02  0.7561462E-02  0.1125453E+00
         25   -1    0    0    0    0  0.00000000000E+00  0.00000000000E+00  0.99999998245E-14  0.12509000000E+03  0.12509000000E+03 0.  0.
        -11    1    3    3    0    0  0.16873957448E+01  0.48566861947E+01  0.57372617474E+02  0.57602534157E+02  0.51100000000E-03 0. -1.
         23    2    1    0    0    0 -0.55886084137E+01 -0.14124779995E+02  0.25646287970E+02  0.95282718330E+02  0.90500399843E+02 0.  0.
         11    1    3    3    0    0 -0.72760041585E+01 -0.18981466190E+02 -0.31726329504E+02  0.37680184173E+02  0.51100000000E-03 0.  1.
         22    1    1    0    0    0  0.55886084137E+01  0.14124779995E+02 -0.25646287970E+02  0.29807281670E+02  0.00000000000E+00 0. -1.
</event>
<event>
 5    1  0.1046082E-009  0.9118800E+02  0.7561462E-02  0.1125453E+00
         25   -1    0    0    0    0  0.00000000000E+00  0.00000000000E+00  0.99999998245E-14  0.12509000000E+03  0.12509000000E+03 0.  0.
        -11    1    3    3    0    0 -0.36179968709E+02 -0.40812197089E+02 -0.20510324840E+02  0.58269194197E+02  0.51100000000E-03 0. -1.
         23    2    1    0    0    0 -0.22106957517E+02 -0.26744007196E+02  0.43585272825E+01  0.90119208593E+02  0.83057302543E+02 0.  0.
         11    1    3    3    0    0  0.14073011192E+02  0.14068189893E+02  0.24868852122E+02  0.31850014396E+02  0.51100000000E-03 0.  1.
         22    1    1    0    0    0  0.22106957517E+02  0.26744007196E+02 -0.43585272825E+01  0.34970791407E+02  0.00000000000E+00 0. -1.
</event>
<event>
 5    1  0.1046082E-009  0.9118800E+02  0.7561462E-02  0.1125453E+00
         25   -1    0    0    0    0  0.00000000000E+00  0.00000000000E+00  0.99999998245E-14  0.12509000000E+03  0.12509000000E+03 0.  0.
        -11    1    3    3    0    0 -0.25905016724E+02  0.30048530529E+02 -0.45732115623E+02  0.60542633558E+02  0.51100000000E-03 0. -1.
         23    2    1    0    0    0 -0.70473215085E+01  0.78177842526E+01 -0.29189253163E+02  0.94061062034E+02  0.88795767915E+02 0.  0.
         11    1    3    3    0    0  0.18857695216E+02 -0.22230746277E+02  0.16542862460E+02  0.33518428476E+02  0.51100000000E-03 0.  1.
         22    1    1    0    0    0  0.70473215085E+01 -0.78177842526E+01  0.29189253163E+02  0.31028937966E+02  0.00000000000E+00 0. -1.
</event>
<event>
 5    1  0.1046082E-009  0.9118800E+02  0.7561462E-02  0.1125453E+00
         25   -1    0    0    0    0  0.00000000000E+00  0.00000000000E+00  0.99999998245E-14  0.12509000000E+03  0.12509000000E+03 0.  0.
        -11    1    3    3    0    0  0.76332077689E+00  0.74494673809E+01  0.37948505919E+02  0.38680309262E+02  0.51100000000E-03 0.  1.
         23    2    1    0    0    0 -0.29105295126E+02  0.57507791833E+01 -0.87665776631E+01  0.94153895696E+02  0.88926450088E+02 0.  0.
         11    1    3    3    0    0 -0.29868615903E+02 -0.16986881977E+01 -0.46715083582E+02  0.55473586434E+02  0.51100000000E-03 0. -1.
         22    1    1    0    0    0  0.29105295126E+02 -0.57507791833E+01  0.87665776631E+01  0.30936104304E+02  0.00000000000E+00 0. -1.
</event>
<event>
 5    1  0.1046082E-009  0.9118800E+02  0.7561462E-02  0.1125453E+00
         25   -1    0    0    0    0  0.00000000000E+00  0.00000000000E+00  0.99999998245E-14  0.12509000000E+03  0.12509000000E+03 0.  0.
        -11    1    3    3    0    0  0.32123911573E+02 -0.13910433942E+02 -0.13601649965E+02  0.37555968224E+02  0.51100000000E-03 0.  1.
         23    2    1    0    0    0 -0.69635944606E+01  0.28176368362E+02 -0.39824565995E+01  0.95793936400E+02  0.91204270233E+02 0.  0.
         11    1    3    3    0    0 -0.39087506034E+02  0.42086802303E+02  0.96191933656E+01  0.58237968176E+02  0.51100000000E-03 0. -1.
         22    1    1    0    0    0  0.69635944606E+01 -0.28176368362E+02  0.39824565995E+01  0.29296063600E+02  0.00000000000E+00 0. -1.
</event>
<event>
 5    1  0.1046082E-009  0.9118800E+02  0.7561462E-02  0.1125453E+00
         25   -1    0    0    0    0  0.00000000000E+00  0.00000000000E+00  0.99999998245E-14  0.12509000000E+03  0.12509000000E+03 0.  0.
        -11    1    3    3    0    0  0.34384005606E+02 -0.26282819942E+02 -0.30399792700E+02  0.52888504063E+02  0.51100000000E-03 0. -1.
         23    2    1    0    0    0 -0.58781490264E+01 -0.22358294411E+02 -0.19659496420E+02  0.94742977668E+02  0.89751267695E+02 0.  0.
         11    1    3    3    0    0 -0.40262154632E+02  0.39245255313E+01  0.10740296280E+02  0.41854473604E+02  0.51100000000E-03 0.  1.
         22    1    1    0    0    0  0.58781490264E+01  0.22358294411E+02  0.19659496420E+02  0.30347022332E+02  0.00000000000E+00 0. -1.
</event>
<event>
 5    1  0.1046082E-009  0.9118800E+02  0.7561462E-02  0.1125453E+00
         25   -1    0    0    0    0  0.00000000000E+00  0.00000000000E+00  0.99999998245E-14  0.12509000000E+03  0.12509000000E+03 0.  0.
        -11    1    3    3    0    0  0.32968724439E+02  0.47067962318E+02 -0.16050481393E+02  0.59665298299E+02  0.51100000000E-03 0.  1.
         23    2    1    0    0    0  0.24231924691E+02  0.27697877360E+02  0.29497041526E+01  0.88170366482E+02  0.80068434396E+02 0.  0.
         11    1    3    3    0    0 -0.87367997484E+01 -0.19370084958E+02  0.19000185546E+02  0.28505068183E+02  0.51100000000E-03 0. -1.
         22    1    1    0    0    0 -0.24231924691E+02 -0.27697877360E+02 -0.29497041526E+01  0.36919633518E+02  0.00000000000E+00 0.  1.
</event>
<event>
 5    1  0.1046082E-009  0.9118800E+02  0.7561462E-02  0.1125453E+00
         25   -1    0    0    0    0  0.00000000000E+00  0.00000000000E+00  0.99999998245E-14  0.12509000000E+03  0.12509000000E+03 0.  0.
        -11    1    3    3    0    0 -0.11627937118E+01 -0.49411468231E+02 -0.14963611009E+02  0.51640632613E+02  0.51100000000E-03 0.  1.
         23    2    1    0    0    0 -0.95789398143E+01 -0.29072033666E+02  0.16713520922E+02  0.90214779412E+02  0.83201114255E+02 0.  0.
         11    1    3    3    0    0 -0.84161461024E+01  0.20339434565E+02  0.31677131931E+02  0.38574146799E+02  0.51100000000E-03 0. -1.
         22    1    1    0    0    0  0.95789398143E+01  0.29072033666E+02 -0.16713520922E+02  0.34875220588E+02  0.00000000000E+00 0.  1.
</event>
<event>
 5    1  0.1046082E-009  0.9118800E+02  0.7561462E-02  0.1125453E+00
         25   -1    0    0    0    0  0.00000000000E+00  0.00000000000E+00  0.99999998245E-14  0.12509000000E+03  0.12509000000E+03 0.  0.
        -11    1    3    3    0    0  0.31414935189E+02  0.40159156000E+02 -0.12757610636E+02  0.52558658592E+02  0.51100000000E-03 0. -1.
         23    2    1    0    0    0  0.28469658157E+02  0.11726773727E+01  0.60754224559E+01  0.95955701213E+02  0.91425867398E+02 0.  0.
         11    1    3    3    0    0 -0.29452770324E+01 -0.38986478628E+02  0.18833033092E+02  0.43397042621E+02  0.51100000000E-03 0.  1.
         22    1    1    0    0    0 -0.28469658157E+02 -0.11726773727E+01 -0.60754224559E+01  0.29134298787E+02  0.00000000000E+00 0. -1.
</event>
<event>
 5    1  0.1046082E-009  0.9118800E+02  0.7561462E-02  0.1125453E+00
         25   -1    0    0    0    0  0.00000000000E+00  0.00000000000E+00  0.99999998245E-14  0.12509000000E+03  0.12509000000E+03 0.  0.
        -11    1    3    3    0    0 -0.25598396680E+02 -0.36427740756E+02 -0.42852655233E+02  0.61794888705E+02  0.51100000000E-03 0. -1.
         23    2    1    0    0    0 -0.16989975956E+02 -0.12462653638E+02 -0.20827786040E+02  0.95462754262E+02  0.90748905014E+02 0.  0.
         11    1    3    3    0    0  0.86084207247E+01  0.23965087119E+02  0.22024869193E+02  0.33667865557E+02  0.51100000000E-03 0.  1.
         22    1    1    0    0    0  0.16989975956E+02  0.12462653638E+02  0.20827786040E+02  0.29627245738E+02  0.00000000000E+00 0. -1.
</event>
<event>
 5    1  0.1046082E-009  0.9118800E+02  0.7561462E-02  0.1125453E+00
         25   -1    0    0    0    0  0.00000000000E+00  0.00000000000E+00  0.99999998245E-14  0.12509000000E+03  0.12509000000E+03 0.  0.
        -11    1    3    3    0    0 -0.12454373125E+02  0.42510051518E+02 -0.28597817251E+02  0.52726189335E+02  0.51100000000E-03 0.  1.
         23    2    1    0    0    0  0.18880777711E+02  0.20861834303E+02 -0.90664302292E+01  0.95528199403E+02  0.90839071035E+02 0.  0.
         11    1    3    3    0    0  0.31335150837E+02 -0.21648217216E+02  0.19531387021E+02  0.42802010068E+02  0.51100000000E-03 0. -1.
         22    1    1    0    0    0 -0.18880777711E+02 -0.20861834303E+02  0.90664302292E+01  0.29561800597E+02  0.00000000000E+00 0.  1.
</event>
<event>
 5    1  0.1046082E-009  0.9118800E+02  0.7561462E-02  0.1125453E+00
         25   -1    0    0    0    0  0.00000000000E+00  0.00000000000E+00  0.99999998245E-14  0.12509000000E+03  0.12509000000E+03 0.  0.
        -11    1    3    3    0    0 -0.38093234991E+02 -0.26076650888E+01  0.16294745767E+01  0.38217138262E+02  0.51100000000E-03 0. -1.
         23    2    1    0    0    0  0.16200677011E+02 -0.16368669316E+02  0.17192981878E+02  0.96349890456E+02  0.91963620493E+02 0.  0.
         11    1    3    3    0    0  0.54293912002E+02 -0.13761004227E+02  0.15563507301E+02  0.58132752193E+02  0.51100000000E-03 0.  1.
         22    1    1    0    0    0 -0.16200677011E+02  0.16368669316E+02 -0.17192981878E+02  0.28740109544E+02  0.00000000000E+00 0.  1.
</event>
<event>
 5    1  0.1046082E-009  0.9118800E+02  0.7561462E-02  0.1125453E+00
         25   -1    0    0    0    0  0.00000000000E+00  0.00000000000E+00  0.99999998245E-14  0.12509000000E+03  0.12509000000E+03 0.  0.
        -11    1    3    3    0    0  0.41069462151E+02 -0.26956375586E+02 -0.77309486563E+01  0.49730417991E+02  0.51100000000E-03 0.  1.
         23    2    1    0    0    0  0.57016348386E+01  0.10290171404E+02 -0.19399250183E+02  0.10240240041E+03  0.99857520675E+02 0.  0.
         11    1    3    3    0    0 -0.35367827313E+02  0.37246546990E+02 -0.11668301527E+02  0.52671982422E+02  0.51100000000E-03 0. -1.
         22    1    1    0    0    0 -0.57016348386E+01 -0.10290171404E+02  0.19399250183E+02  0.22687599587E+02  0.00000000000E+00 0. -1.
</event>
<event>
 5    1  0.1046082E-009  0.9118800E+02  0.7561462E-02  0.1125453E+00
         25   -1    0    0    0    0  0.00000000000E+00  0.00000000000E+00  0.99999998245E-14  0.12509000000E+03  0.12509000000E+03 0.  0.
        -11    1    3    3    0    0 -0.16254281929E+02 -0.22674989501E+02 -0.25227345563E+02  0.37613505478E+02  0.51100000000E-03 0.  1.
         23    2    1    0    0    0 -0.18815620719E+02  0.14966967879E+02  0.18048687366E+02  0.95026852690E+02  0.90146047645E+02 0.  0.
         11    1    3    3    0    0 -0.25613387897E+01  0.37641957380E+02  0.43276032929E+02  0.57413347212E+02  0.51100000000E-03 0. -1.
         22    1    1    0    0    0  0.18815620719E+02 -0.14966967879E+02 -0.18048687366E+02  0.30063147310E+02  0.00000000000E+00 0. -1.
</event>
<event>
 5    1  0.1046082E-009  0.9118800E+02  0.7561462E-02  0.1125453E+00
         25   -1    0    0    0    0  0.00000000000E+00  0.00000000000E+00  0.99999998245E-14  0.12509000000E+03  0.12509000000E+03 0.  0.
        -11    1    3    3    0    0  0.19309410742E+02 -0.28041627962E+02  0.18769493924E+02  0.38877758994E+02  0.51100000000E-03 0. -1.
         23    2    1    0    0    0 -0.21684884324E+02 -0.11108466227E+01 -0.15238418462E+02  0.98563078098E+02  0.94926301828E+02 0.  0.
         11    1    3    3    0    0 -0.40994295065E+02  0.26930781340E+02 -0.34007912386E+02  0.59685319104E+02  0.51100000000E-03 0.  1.
         22    1    1    0    0    0  0.21684884324E+02  0.11108466227E+01  0.15238418462E+02  0.26526921902E+02  0.00000000000E+00 0.  1.
</event>
<event>
 5    1  0.1046082E-009  0.9118800E+02  0.7561462E-02  0.1125453E+00
         25   -1    0    0    0    0  0.00000000000E+00  0.00000000000E+00  0.99999998245E-14  0.12509000000E+03  0.12509000000E+03 0.  0.
        -11    1    3    3    0    0 -0.14390105685E+02  0.33167203442E+02  0.17365403154E+02  0.40108549621E+02  0.51100000000E-03 0.  1.
         23    2    1    0    0    0  0.16311648164E+02  0.10566446199E+02 -0.22560581510E+02  0.95312500286E+02  0.90541555220E+02 0.  0.
         11    1    3    3    0    0  0.30701753849E+02 -0.22600757243E+02 -0.39925984664E+02  0.55203950665E+02  0.51100000000E-03 0. -1.
         22    1    1    0    0    0 -0.16311648164E+02 -0.10566446199E+02  0.22560581510E+02  0.29777499714E+02  0.00000000000E+00 0. -1.
</event>
<event>
 5    1  0.1046082E-009  0.9118800E+02  0.7561462E-02  0.1125453E+00
         25   -1    0    0    0    0  0.00000000000E+00  0.00000000000E+00  0.99999998245E-14  0.12509000000E+03  0.12509000000E+03 0.  0.
        -11    1    3    3    0    0 -0.33614285490E+02 -0.17882432471E+02 -0.96854369176E+01  0.39287520520E+02  0.51100000000E-03 0. -1.
         23    2    1    0    0    0 -0.20317464473E+02  0.25661639878E+02  0.12649306904E+02  0.89999772173E+02  0.82877227887E+02 0.  0.
         11    1    3    3    0    0  0.13296821017E+02  0.43544072349E+02  0.22334743822E+02  0.50712251653E+02  0.51100000000E-03 0.  1.
         22    1    1    0    0    0  0.20317464473E+02 -0.25661639878E+02 -0.12649306904E+02  0.35090227827E+02  0.00000000000E+00 0.  1.
</event>
<event>
 5    1  0.1046082E-009  0.9118800E+02  0.7561462E-02  0.1125453E+00
         25   -1    0    0    0    0  0.00000000000E+00  0.00000000000E+00  0.99999998245E-14  0.12509000000E+03  0.12509000000E+03 0.  0.
        -11    1    3    3    0    0  0.17290530944E+02 -0.47137749281E+02  0.25166886754E+02  0.56163173493E+02  0.51100000000E-03 0.  1.
         23    2    1    0    0    0  0.24409106265E+02 -0.16041352004E+02  0.15761913827E+01  0.95839122713E+02  0.91266223875E+02 0.  0.
         11    1    3    3    0    0  0.71185753202E+01  0.31096397277E+02 -0.23590695371E+02  0.39675949220E+02  0.51100000000E-03 0. -1.
         22    1    1    0    0    0 -0.24409106265E+02  0.16041352004E+02 -0.15761913827E+01  0.29250877287E+02  0.00000000000E+00 0.  1.
</event>
<event>
 5    1  0.1046082E-009  0.9118800E+02  0.7561462E-02  0.1125453E+00
         25   -1    0    0    0    0  0.00000000000E+00  0.00000000000E+00  0.99999998245E-14  0.12509000000E+03  0.12509000000E+03 0.  0.
        -11    1    3    3    0    0 -0.24731716510E+02 -0.42969177089E+02  0.60102633212E+01  0.49941277984E+02  0.51100000000E-03 0.  1.
         23    2    1    0    0    0  0.73280955522E+01 -0.21668717740E+02  0.23567271323E+02  0.92247183578E+02  0.86202623438E+02 0.  0.
         11    1    3    3    0    0  0.32059812062E+02  0.21300459349E+02  0.17557008001E+02  0.42305905594E+02  0.51100000000E-03 0. -1.
         22    1    1    0    0    0 -0.73280955522E+01  0.21668717740E+02 -0.23567271323E+02  0.32842816422E+02  0.00000000000E+00 0. -1.
</event>
<event>
 5    1  0.1046082E-009  0.9118800E+02  0.7561462E-02  0.1125453E+00
         25   -1    0    0    0    0  0.00000000000E+00  0.00000000000E+00  0.99999998245E-14  0.12509000000E+03  0.12509000000E+03 0.  0.
        -11    1    3    3    0    0  0.12877340137E+01 -0.10987981498E+02 -0.33991050000E+02  0.35746125338E+02  0.51100000000E-03 0.  1.
         23    2    1    0    0    0 -0.19964013013E+02  0.21732595470E+01  0.20927352941E+02  0.96085880056E+02  0.91603806538E+02 0.  0.
         11    1    3    3    0    0 -0.21251747027E+02  0.13161241045E+02  0.54918402941E+02  0.60339754718E+02  0.51100000000E-03 0. -1.
         22    1    1    0    0    0  0.19964013013E+02 -0.21732595470E+01 -0.20927352941E+02  0.29004119944E+02  0.00000000000E+00 0. -1.
</event>
<event>
 5    1  0.1046082E-009  0.9118800E+02  0.7561462E-02  0.1125453E+00
         25   -1    0    0    0    0  0.00000000000E+00  0.00000000000E+00  0.99999998245E-14  0.12509000000E+03  0.12509000000E+03 0.  0.
        -11    1    3    3    0    0 -0.30920849606E+02 -0.34957087737E+01  0.32030486042E+02  0.44657260961E+02  0.51100000000E-03 0. -1.
         23    2    1    0    0    0 -0.19572392649E+02  0.14569930024E+02 -0.15102777982E+02  0.96394088833E+02  0.92023720009E+02 0.  0.
         11    1    3    3    0    0  0.11348456957E+02  0.18065638798E+02 -0.47133264024E+02  0.51736827872E+02  0.51100000000E-03 0.  1.
         22    1    1    0    0    0  0.19572392649E+02 -0.14569930024E+02  0.15102777982E+02  0.28695911167E+02  0.00000000000E+00 0.  1.
</event>
<event>
 5    1  0.1046082E-009  0.9118800E+02  0.7561462E-02  0.1125453E+00
         25   -1    0    0    0    0  0.00000000000E+00  0.00000000000E+00  0.99999998245E-14  0.12509000000E+03  0.12509000000E+03 0.  0.
        -11    1    3    3    0    0 -0.44179682686E+02 -0.18516450270E+02  0.88944757077E+01  0.48721812273E+02  0.51100000000E-03 0. -1.
         23    2    1    0    0    0 -0.26592014092E+01 -0.31185740820E+02 -0.27605963255E+01  0.93669581882E+02  0.88242551501E+02 0.  0.
         11    1    3    3    0    0  0.41520481277E+02 -0.12669290550E+02 -0.11655072033E+02  0.44947769609E+02  0.51100000000E-03 0.  1.
         22    1    1    0    0    0  0.26592014092E+01  0.31185740820E+02  0.27605963255E+01  0.31420418118E+02  0.00000000000E+00 0. -1.
</event>
<event>
 5    1  0.1046082E-009  0.9118800E+02  0.7561462E-02  0.1125453E+00
         25   -1    0    0    0    0  0.00000000000E+00  0.00000000000E+00  0.99999998245E-14  0.12509000000E+03  0.12509000000E+03 0.  0.
        -11    1    3    3    0    0 -0.44430998696E+01  0.12129204758E+01 -0.48970220011E+02  0.49186326969E+02  0.51100000000E-03 0. -1.
         23    2    1    0    0    0 -0.27774561028E+02 -0.10702342421E+02 -0.16002171962E+02  0.91295978619E+02  0.84811083184E+02 0.  0.
         11    1    3    3    0    0 -0.23331461158E+02 -0.11915262897E+02  0.32968048048E+02  0.42109651650E+02  0.51100000000E-03 0.  1.
         22    1    1    0    0    0  0.27774561028E+02  0.10702342421E+02  0.16002171962E+02  0.33794021381E+02  0.00000000000E+00 0. -1.
</event>
<event>
 5    1  0.1046082E-009  0.9118800E+02  0.7561462E-02  0.1125453E+00
         25   -1    0    0    0    0  0.00000000000E+00  0.00000000000E+00  0.99999998245E-14  0.12509000000E+03  0.12509000000E+03 0.  0.
        -11    1    3    3    0    0 -0.26547109700E+02  0.32100140019E+02 -0.83718409716E+01  0.42488301263E+02  0.51100000000E-03 0. -1.
         23    2    1    0    0    0  0.19038872148E+02 -0.49443968222E+01  0.85864362035E+01  0.10362718100E+03  0.10138017579E+03 0.  0.
         11    1    3    3    0    0  0.45585981848E+02 -0.37044536842E+02  0.16958277175E+02  0.61138879740E+02  0.51100000000E-03 0.  1.
         22    1    1    0    0    0 -0.19038872148E+02  0.49443968222E+01 -0.85864362035E+01  0.21462818997E+02  0.00000000000E+00 0.  1.
</event>
<event>
 5    1  0.1046082E-009  0.9118800E+02  0.7561462E-02  0.1125453E+00
         25   -1    0    0    0    0  0.00000000000E+00  0.00000000000E+00  0.99999998245E-14  0.12509000000E+03  0.12509000000E+03 0.  0.
        -11    1    3    3    0    0  0.91608235336E+01 -0.44662653499E+02 -0.41215598591E+01  0.45778385307E+02  0.51100000000E-03 0. -1.
         23    2    1    0    0    0 -0.24963865741E+02 -0.10773983514E+02  0.10343174020E+02  0.95999545169E+02  0.91485835572E+02 0.  0.
         11    1    3    3    0    0 -0.34124689274E+02  0.33888669985E+02  0.14464733879E+02  0.50221159862E+02  0.51100000000E-03 0.  1.
         22    1    1    0    0    0  0.24963865741E+02  0.10773983514E+02 -0.10343174020E+02  0.29090454831E+02  0.00000000000E+00 0. -1.
</event>
<event>
 5    1  0.1046082E-009  0.9118800E+02  0.7561462E-02  0.1125453E+00
         25   -1    0    0    0    0  0.00000000000E+00  0.00000000000E+00  0.99999998245E-14  0.12509000000E+03  0.12509000000E+03 0.  0.
        -11    1    3    3    0    0 -0.29810006305E+02 -0.56952164341E+00  0.21350013193E+02  0.36671295238E+02  0.51100000000E-03 0. -1.
         23    2    1    0    0    0  0.47387140911E+01 -0.10437476867E+02 -0.26329614565E+02  0.96373368273E+02  0.91995549754E+02 0.  0.
         11    1    3    3    0    0  0.34548720396E+02 -0.98679552232E+01 -0.47679627758E+02  0.59702073035E+02  0.51100000000E-03 0.  1.
         22    1    1    0    0    0 -0.47387140911E+01  0.10437476867E+02  0.26329614565E+02  0.28716631727E+02  0.00000000000E+00 0.  1.
</event>
<event>
 5    1  0.1046082E-009  0.9118800E+02  0.7561462E-02  0.1125453E+00
         25   -1    0    0    0    0  0.00000000000E+00  0.00000000000E+00  0.99999998245E-14  0.12509000000E+03  0.12509000000E+03 0.  0.
        -11    1    3    3    0    0 -0.31960355516E+02 -0.16987550939E+02  0.24752244909E+02  0.43848772388E+02  0.51100000000E-03 0.  1.
         23    2    1    0    0    0  0.61543177288E+01  0.18462861967E+02  0.21628005961E+02  0.95994922400E+02  0.91479514570E+02 0.  0.
         11    1    3    3    0    0  0.38114673245E+02  0.35450412906E+02 -0.31242389488E+01  0.52146150012E+02  0.51100000000E-03 0. -1.
         22    1    1    0    0    0 -0.61543177288E+01 -0.18462861967E+02 -0.21628005961E+02  0.29095077600E+02  0.00000000000E+00 0.  1.
</event>
<event>
 5    1  0.1046082E-009  0.9118800E+02  0.7561462E-02  0.1125453E+00
         25   -1    0    0    0    0  0.00000000000E+00  0.00000000000E+00  0.99999998245E-14  0.12509000000E+03  0.12509000000E+03 0.  0.
        -11    1    3    3    0    0 -0.29644424432E+02  0.21274204907E+02  0.38900817376E+02  0.53335328696E+02  0.51100000000E-03 0.  1.
         23    2    1    0    0    0 -0.48288135585E+01  0.28763103758E+02  0.58413463176E+01  0.95345170113E+02  0.90586679810E+02 0.  0.
         11    1    3    3    0    0  0.24815610873E+02  0.74888988506E+01 -0.33059471058E+02  0.42009841417E+02  0.51100000000E-03 0. -1.
         22    1    1    0    0    0  0.48288135585E+01 -0.28763103758E+02 -0.58413463176E+01  0.29744829887E+02  0.00000000000E+00 0.  1.
</event>
<event>
 5    1  0.1046082E-009  0.9118800E+02  0.7561462E-02  0.1125453E+00
         25   -1    0    0    0    0  0.00000000000E+00  0.00000000000E+00  0.99999998245E-14  0.12509000000E+03  0.12509000000E+03 0.  0.
        -11    1    3    3    0    0  0.38116419523E+02  0.66805582791E+01 -0.19677346736E+01  0.38747429285E+02  0.51100000000E-03 0.  1.
         23    2    1    0    0    0  0.11542873859E+02 -0.17254289681E+02 -0.33003966140E+02  0.86100126567E+02  0.76766018293E+02 0.  0.
         11    1    3    3    0    0 -0.26573545663E+02 -0.23934847960E+02 -0.31036231467E+02  0.47352697282E+02  0.51100000000E-03 0. -1.
         22    1    1    0    0    0 -0.11542873859E+02  0.17254289681E+02  0.33003966140E+02  0.38989873433E+02  0.00000000000E+00 0. -1.
</event>
<event>
 5    1  0.1046082E-009  0.9118800E+02  0.7561462E-02  0.1125453E+00
         25   -1    0    0    0    0  0.00000000000E+00  0.00000000000E+00  0.99999998245E-14  0.12509000000E+03  0.12509000000E+03 0.  0.
        -11    1    3    3    0    0 -0.33740370694E+01 -0.48278449630E+01  0.26448357523E+02  0.27096269652E+02  0.51100000000E-03 0. -1.
         23    2    1    0    0    0  0.16598930001E+02 -0.22329652624E+02 -0.26711398804E+02  0.86520106436E+02  0.77447350685E+02 0.  0.
         11    1    3    3    0    0  0.19972967071E+02 -0.17501807661E+02 -0.53159756328E+02  0.59423836783E+02  0.51100000000E-03 0.  1.
         22    1    1    0    0    0 -0.16598930001E+02  0.22329652624E+02  0.26711398804E+02  0.38569893564E+02  0.00000000000E+00 0.  1.
</event>
<event>
 5    1  0.1046082E-009  0.9118800E+02  0.7561462E-02  0.1125453E+00
         25   -1    0    0    0    0  0.00000000000E+00  0.00000000000E+00  0.99999998245E-14  0.12509000000E+03  0.12509000000E+03 0.  0.
        -11    1    3    3    0    0 -0.39174428786E+02  0.17323645187E+01  0.44794979097E+01  0.39467744543E+02  0.51100000000E-03 0.  1.
         23    2    1    0    0    0  0.74731765271E+01 -0.28404312007E+02  0.63722733123E+01  0.95035729502E+02  0.90158364598E+02 0.  0.
         11    1    3    3    0    0  0.46647605313E+02 -0.30136676525E+02  0.18927754026E+01  0.55567984959E+02  0.51100000000E-03 0. -1.
         22    1    1    0    0    0 -0.74731765271E+01  0.28404312007E+02 -0.63722733123E+01  0.30054270498E+02  0.00000000000E+00 0. -1.
</event>
<event>
 5    1  0.1046082E-009  0.9118800E+02  0.7561462E-02  0.1125453E+00
         25   -1    0    0    0    0  0.00000000000E+00  0.00000000000E+00  0.99999998245E-14  0.12509000000E+03  0.12509000000E+03 0.  0.
        -11    1    3    3    0    0  0.17699121103E+02  0.49231209289E+02 -0.40583201245E+01  0.52473239069E+02  0.51100000000E-03 0.  1.
         23    2    1    0    0    0  0.87630637185E+01  0.16665631820E+02 -0.26179147094E+02  0.92842793729E+02  0.87062632829E+02 0.  0.
         11    1    3    3    0    0 -0.89360573845E+01 -0.32565577468E+02 -0.22120826969E+02  0.40369554661E+02  0.51100000000E-03 0. -1.
         22    1    1    0    0    0 -0.87630637185E+01 -0.16665631820E+02  0.26179147094E+02  0.32247206271E+02  0.00000000000E+00 0. -1.
</event>
<event>
 5    1  0.1046082E-009  0.9118800E+02  0.7561462E-02  0.1125453E+00
         25   -1    0    0    0    0  0.00000000000E+00  0.00000000000E+00  0.99999998245E-14  0.12509000000E+03  0.12509000000E+03 0.  0.
        -11    1    3    3    0    0 -0.25166979772E+02 -0.14907829724E+02 -0.24658101020E+02  0.38257577081E+02  0.51100000000E-03 0.  1.
         23    2    1    0    0    0 -0.11815127510E+02  0.13210995234E+02  0.23534053912E+02  0.95628511126E+02  0.90977100489E+02 0.  0.
         11    1    3    3    0    0  0.13351852262E+02  0.28118824958E+02  0.48192154933E+02  0.57370934045E+02  0.51100000000E-03 0. -1.
         22    1    1    0    0    0  0.11815127510E+02 -0.13210995234E+02 -0.23534053912E+02  0.29461488874E+02  0.00000000000E+00 0. -1.
</event>
<event>
 5    1  0.1046082E-009  0.9118800E+02  0.7561462E-02  0.1125453E+00
         25   -1    0    0    0    0  0.00000000000E+00  0.00000000000E+00  0.99999998245E-14  0.12509000000E+03  0.12509000000E+03 0.  0.
        -11    1    3    3    0    0  0.17187724546E+02  0.70688798337E+01 -0.29357654464E+02  0.34745630129E+02  0.51100000000E-03 0.  1.
         23    2    1    0    0    0  0.30384818099E+01  0.31979221720E+01  0.29427649839E+02  0.95333561151E+02  0.90570647721E+02 0.  0.
         11    1    3    3    0    0 -0.14149242736E+02 -0.38709576617E+01  0.58785304303E+02  0.60587931022E+02  0.51100000000E-03 0. -1.
         22    1    1    0    0    0 -0.30384818099E+01 -0.31979221720E+01 -0.29427649839E+02  0.29756438849E+02  0.00000000000E+00 0. -1.
</event>
<event>
 5    1  0.1046082E-009  0.9118800E+02  0.7561462E-02  0.1125453E+00
         25   -1    0    0    0    0  0.00000000000E+00  0.00000000000E+00  0.99999998245E-14  0.12509000000E+03  0.12509000000E+03 0.  0.
        -11    1    3    3    0    0  0.60989069616E+02 -0.24051071352E+01  0.35929067587E+01  0.61142130582E+02  0.51100000000E-03 0.  1.
         23    2    1    0    0    0  0.30005082231E+02 -0.60387691964E+00 -0.75938934511E+01  0.94132983917E+02  0.88897029288E+02 0.  0.
         11    1    3    3    0    0 -0.30983987384E+02  0.18012302155E+01 -0.11186800210E+02  0.32990853334E+02  0.51100000000E-03 0. -1.
         22    1    1    0    0    0 -0.30005082231E+02  0.60387691964E+00  0.75938934511E+01  0.30957016083E+02  0.00000000000E+00 0.  1.
</event>
<event>
 5    1  0.1046082E-009  0.9118800E+02  0.7561462E-02  0.1125453E+00
         25   -1    0    0    0    0  0.00000000000E+00  0.00000000000E+00  0.99999998245E-14  0.12509000000E+03  0.12509000000E+03 0.  0.
        -11    1    3    3    0    0 -0.10214545814E+01  0.13302748887E+02 -0.43960192496E+02  0.45940233151E+02  0.51100000000E-03 0.  1.
         23    2    1    0    0    0  0.13342335626E+02  0.25627374860E+02  0.24820960251E+01  0.96091016175E+02  0.91610819921E+02 0.  0.
         11    1    3    3    0    0  0.14363790208E+02  0.12324625973E+02  0.46442288522E+02  0.50150783024E+02  0.51100000000E-03 0. -1.
         22    1    1    0    0    0 -0.13342335626E+02 -0.25627374860E+02 -0.24820960251E+01  0.28998983825E+02  0.00000000000E+00 0.  1.
</event>
<event>
 5    1  0.1046082E-009  0.9118800E+02  0.7561462E-02  0.1125453E+00
         25   -1    0    0    0    0  0.00000000000E+00  0.00000000000E+00  0.99999998245E-14  0.12509000000E+03  0.12509000000E+03 0.  0.
        -11    1    3    3    0    0 -0.17474158456E+02 -0.30843515144E+02 -0.49544306955E+02  0.60920497306E+02  0.51100000000E-03 0.  1.
         23    2    1    0    0    0 -0.35393589978E+01 -0.69842578000E+01 -0.28166411151E+02  0.95855540260E+02  0.91288723084E+02 0.  0.
         11    1    3    3    0    0  0.13934799458E+02  0.23859257344E+02  0.21377895803E+02  0.34935042954E+02  0.51100000000E-03 0. -1.
         22    1    1    0    0    0  0.35393589978E+01  0.69842578000E+01  0.28166411151E+02  0.29234459740E+02  0.00000000000E+00 0.  1.
</event>
<event>
 5    1  0.1046082E-009  0.9118800E+02  0.7561462E-02  0.1125453E+00
         25   -1    0    0    0    0  0.00000000000E+00  0.00000000000E+00  0.99999998245E-14  0.12509000000E+03  0.12509000000E+03 0.  0.
        -11    1    3    3    0    0  0.39636690765E+02 -0.30762781444E+01 -0.33979760657E+01  0.39900839385E+02  0.51100000000E-03 0. -1.
         23    2    1    0    0    0  0.10592326041E+02 -0.32254836404E+02  0.18388868646E+02  0.86480126489E+02  0.77382749661E+02 0.  0.
         11    1    3    3    0    0 -0.29044364725E+02 -0.29178558260E+02  0.21786844712E+02  0.46579287104E+02  0.51100000000E-03 0.  1.
         22    1    1    0    0    0 -0.10592326041E+02  0.32254836404E+02 -0.18388868646E+02  0.38609873511E+02  0.00000000000E+00 0.  1.
</event>
<event>
 5    1  0.1046082E-009  0.9118800E+02  0.7561462E-02  0.1125453E+00
         25   -1    0    0    0    0  0.00000000000E+00  0.00000000000E+00  0.99999998245E-14  0.12509000000E+03  0.12509000000E+03 0.  0.
        -11    1    3    3    0    0 -0.18049450041E+02  0.24709677944E+02 -0.18547326533E+02  0.35782036732E+02  0.51100000000E-03 0. -1.
         23    2    1    0    0    0 -0.21393094106E+01 -0.29502931700E+02  0.79121967707E+00  0.95499027522E+02  0.90798890992E+02 0.  0.
         11    1    3    3    0    0  0.15910140631E+02 -0.54212609644E+02  0.19338546210E+02  0.59716990790E+02  0.51100000000E-03 0.  1.
         22    1    1    0    0    0  0.21393094106E+01  0.29502931700E+02 -0.79121967707E+00  0.29590972478E+02  0.00000000000E+00 0.  1.
</event>
<event>
 5    1  0.1046082E-009  0.9118800E+02  0.7561462E-02  0.1125453E+00
         25   -1    0    0    0    0  0.00000000000E+00  0.00000000000E+00  0.99999998245E-14  0.12509000000E+03  0.12509000000E+03 0.  0.
        -11    1    3    3    0    0  0.25486102261E+02 -0.85164868075E+01 -0.41290220699E+02  0.49264127736E+02  0.51100000000E-03 0. -1.
         23    2    1    0    0    0  0.42503103655E+02 -0.11699278557E+02 -0.20064105543E+02  0.76654937594E+02  0.59414006658E+02 0.  0.
         11    1    3    3    0    0  0.17017001394E+02 -0.31827917497E+01  0.21226115156E+02  0.27390809857E+02  0.51100000000E-03 0.  1.
         22    1    1    0    0    0 -0.42503103655E+02  0.11699278557E+02  0.20064105543E+02  0.48435062406E+02  0.00000000000E+00 0.  1.
</event>
<event>
 5    1  0.1046082E-009  0.9118800E+02  0.7561462E-02  0.1125453E+00
         25   -1    0    0    0    0  0.00000000000E+00  0.00000000000E+00  0.99999998245E-14  0.12509000000E+03  0.12509000000E+03 0.  0.
        -11    1    3    3    0    0 -0.51820853056E+02 -0.26408579201E+02 -0.19412191495E+02  0.61315960776E+02  0.51100000000E-03 0.  1.
         23    2    1    0    0    0 -0.25229997335E+02 -0.22370446733E+02 -0.87000513470E+01  0.90266436914E+02  0.83278743309E+02 0.  0.
         11    1    3    3    0    0  0.26590855722E+02  0.40381324681E+01  0.10712140148E+02  0.28950476139E+02  0.51100000000E-03 0. -1.
         22    1    1    0    0    0  0.25229997335E+02  0.22370446733E+02  0.87000513470E+01  0.34823563086E+02  0.00000000000E+00 0.  1.
</event>
<event>
 5    1  0.1046082E-009  0.9118800E+02  0.7561462E-02  0.1125453E+00
         25   -1    0    0    0    0  0.00000000000E+00  0.00000000000E+00  0.99999998245E-14  0.12509000000E+03  0.12509000000E+03 0.  0.
        -11    1    3    3    0    0 -0.42202840221E+02 -0.16682254102E+02  0.36144087806E+02  0.58015277370E+02  0.51100000000E-03 0.  1.
         23    2    1    0    0    0 -0.24219182682E+02 -0.17049043139E+02  0.35281274846E+01  0.95262389213E+02  0.90472296496E+02 0.  0.
         11    1    3    3    0    0  0.17983657539E+02 -0.36678903699E+00 -0.32615960322E+02  0.37247111843E+02  0.51100000000E-03 0. -1.
         22    1    1    0    0    0  0.24219182682E+02  0.17049043139E+02 -0.35281274846E+01  0.29827610787E+02  0.00000000000E+00 0.  1.
</event>
<event>
 5    1  0.1046082E-009  0.9118800E+02  0.7561462E-02  0.1125453E+00
         25   -1    0    0    0    0  0.00000000000E+00  0.00000000000E+00  0.99999998245E-14  0.12509000000E+03  0.12509000000E+03 0.  0.
        -11    1    3    3    0    0 -0.24725243179E+01  0.59424796374E+02  0.87466217899E+01  0.60115914645E+02  0.51100000000E-03 0.  1.
         23    2    1    0    0    0 -0.66837022895E+01  0.27148000713E+02 -0.69901912818E+01  0.96270760017E+02  0.91855923277E+02 0.  0.
         11    1    3    3    0    0 -0.42111779715E+01 -0.32276795660E+02 -0.15736813072E+02  0.36154845373E+02  0.51100000000E-03 0. -1.
         22    1    1    0    0    0  0.66837022895E+01 -0.27148000713E+02  0.69901912818E+01  0.28819239983E+02  0.00000000000E+00 0.  1.
</event>
<event>
 5    1  0.1046082E-009  0.9118800E+02  0.7561462E-02  0.1125453E+00
         25   -1    0    0    0    0  0.00000000000E+00  0.00000000000E+00  0.99999998245E-14  0.12509000000E+03  0.12509000000E+03 0.  0.
        -11    1    3    3    0    0  0.38770553185E+02  0.40653587321E+01 -0.66336794171E+01  0.39543503117E+02  0.51100000000E-03 0.  1.
         23    2    1    0    0    0 -0.92867012121E+01  0.20725364832E+02  0.18050203123E+02  0.96079770777E+02  0.91595463605E+02 0.  0.
         11    1    3    3    0    0 -0.48057254397E+02  0.16660006100E+02  0.24683882540E+02  0.56536267660E+02  0.51100000000E-03 0. -1.
         22    1    1    0    0    0  0.92867012121E+01 -0.20725364832E+02 -0.18050203123E+02  0.29010229223E+02  0.00000000000E+00 0. -1.
</event>
<event>
 5    1  0.1046082E-009  0.9118800E+02  0.7561462E-02  0.1125453E+00
         25   -1    0    0    0    0  0.00000000000E+00  0.00000000000E+00  0.99999998245E-14  0.12509000000E+03  0.12509000000E+03 0.  0.
        -11    1    3    3    0    0 -0.44025308318E+02 -0.40360490646E+02 -0.10459194436E+02  0.60634905180E+02  0.51100000000E-03 0.  1.
         23    2    1    0    0    0 -0.17827242099E+02 -0.17854875763E+02 -0.15409640364E+02  0.95525423806E+02  0.90835248818E+02 0.  0.
         11    1    3    3    0    0  0.26198066219E+02  0.22505614883E+02 -0.49504459279E+01  0.34890518627E+02  0.51100000000E-03 0. -1.
         22    1    1    0    0    0  0.17827242099E+02  0.17854875763E+02  0.15409640364E+02  0.29564576194E+02  0.00000000000E+00 0.  1.
</event>
<event>
 5    1  0.1046082E-009  0.9118800E+02  0.7561462E-02  0.1125453E+00
         25   -1    0    0    0    0  0.00000000000E+00  0.00000000000E+00  0.99999998245E-14  0.12509000000E+03  0.12509000000E+03 0.  0.
        -11    1    3    3    0    0  0.15897031540E+02  0.32865809348E+02  0.14302445328E+02  0.39210164224E+02  0.51100000000E-03 0. -1.
         23    2    1    0    0    0 -0.11778346230E+02 -0.91840942145E+01 -0.20001585942E+02  0.10012721837E+03  0.96965557762E+02 0.  0.
         11    1    3    3    0    0 -0.27675377770E+02 -0.42049903562E+02 -0.34304031270E+02  0.60917054147E+02  0.51100000000E-03 0.  1.
         22    1    1    0    0    0  0.11778346230E+02  0.91840942145E+01  0.20001585942E+02  0.24962781629E+02  0.00000000000E+00 0.  1.
</event>
<event>
 5    1  0.1046082E-009  0.9118800E+02  0.7561462E-02  0.1125453E+00
         25   -1    0    0    0    0  0.00000000000E+00  0.00000000000E+00  0.99999998245E-14  0.12509000000E+03  0.12509000000E+03 0.  0.
        -11    1    3    3    0    0 -0.31527629878E+02 -0.27629771926E+02  0.21165179183E+02  0.46961266513E+02  0.51100000000E-03 0.  1.
         23    2    1    0    0    0 -0.50121391329E+01  0.13146563712E+02  0.25678642224E+02  0.95809522842E+02  0.91225645104E+02 0.  0.
         11    1    3    3    0    0  0.26515490745E+02  0.40776335638E+02  0.45134630410E+01  0.48848256329E+02  0.51100000000E-03 0. -1.
         22    1    1    0    0    0  0.50121391329E+01 -0.13146563712E+02 -0.25678642224E+02  0.29280477158E+02  0.00000000000E+00 0.  1.
</event>
<event>
 5    1  0.1046082E-009  0.9118800E+02  0.7561462E-02  0.1125453E+00
         25   -1    0    0    0    0  0.00000000000E+00  0.00000000000E+00  0.99999998245E-14  0.12509000000E+03  0.12509000000E+03 0.  0.
        -11    1    3    3    0    0  0.27088672432E+02 -0.46829991714E+02  0.76534417288E+01  0.54638992200E+02  0.51100000000E-03 0. -1.
         23    2    1    0    0    0 -0.67935034782E+00 -0.19701011193E+02  0.21561129060E+02  0.95875728739E+02  0.91316382517E+02 0.  0.
         11    1    3    3    0    0 -0.27768022780E+02  0.27128980521E+02  0.13907687332E+02  0.41236736539E+02  0.51100000000E-03 0.  1.
         22    1    1    0    0    0  0.67935034782E+00  0.19701011193E+02 -0.21561129060E+02  0.29214271261E+02  0.00000000000E+00 0. -1.
</event>
<event>
 5    1  0.1046082E-009  0.9118800E+02  0.7561462E-02  0.1125453E+00
         25   -1    0    0    0    0  0.00000000000E+00  0.00000000000E+00  0.99999998245E-14  0.12509000000E+03  0.12509000000E+03 0.  0.
        -11    1    3    3    0    0 -0.32455714547E+02  0.10075547505E+02 -0.19581954687E+02  0.39221716101E+02  0.51100000000E-03 0. -1.
         23    2    1    0    0    0  0.78842607017E+01  0.21325190992E+02  0.18463011917E+02  0.95801638033E+02  0.91214832693E+02 0.  0.
         11    1    3    3    0    0  0.40339975249E+02  0.11249643487E+02  0.38044966604E+02  0.56579921932E+02  0.51100000000E-03 0.  1.
         22    1    1    0    0    0 -0.78842607017E+01 -0.21325190992E+02 -0.18463011917E+02  0.29288361967E+02  0.00000000000E+00 0.  1.
</event>
<event>
 5    1  0.1046082E-009  0.9118800E+02  0.7561462E-02  0.1125453E+00
         25   -1    0    0    0    0  0.00000000000E+00  0.00000000000E+00  0.99999998245E-14  0.12509000000E+03  0.12509000000E+03 0.  0.
        -11    1    3    3    0    0 -0.49940071987E+02 -0.87217820206E+01  0.25177994425E+02  0.56603989923E+02  0.51100000000E-03 0. -1.
         23    2    1    0    0    0 -0.14116940450E+02  0.59842970448E+01  0.25506492636E+02  0.95329607103E+02  0.90565186496E+02 0.  0.
         11    1    3    3    0    0  0.35823131538E+02  0.14706079065E+02  0.32849821109E+00  0.38725617180E+02  0.51100000000E-03 0.  1.
         22    1    1    0    0    0  0.14116940450E+02 -0.59842970448E+01 -0.25506492636E+02  0.29760392897E+02  0.00000000000E+00 0. -1.
</event>
<event>
 5    1  0.1046082E-009  0.9118800E+02  0.7561462E-02  0.1125453E+00
         25   -1    0    0    0    0  0.00000000000E+00  0.00000000000E+00  0.99999998245E-14  0.12509000000E+03  0.12509000000E+03 0.  0.
        -11    1    3    3    0    0  0.37621435341E+02  0.20889758339E+02  0.40384890171E+00  0.43033910986E+02  0.51100000000E-03 0. -1.
         23    2    1    0    0    0 -0.13647273409E+02  0.84395830600E+01  0.20118852509E+02  0.99355920262E+02  0.95965389756E+02 0.  0.
         11    1    3    3    0    0 -0.51268708750E+02 -0.12450175279E+02  0.19715003607E+02  0.56322009275E+02  0.51100000000E-03 0.  1.
         22    1    1    0    0    0  0.13647273409E+02 -0.84395830600E+01 -0.20118852509E+02  0.25734079738E+02  0.00000000000E+00 0.  1.
</event>
<event>
 5    1  0.1046082E-009  0.9118800E+02  0.7561462E-02  0.1125453E+00
         25   -1    0    0    0    0  0.00000000000E+00  0.00000000000E+00  0.99999998245E-14  0.12509000000E+03  0.12509000000E+03 0.  0.
        -11    1    3    3    0    0  0.31946869431E+02 -0.12796234763E+02  0.54636845941E+01  0.34845343163E+02  0.51100000000E-03 0. -1.
         23    2    1    0    0    0 -0.28233028913E+02 -0.94397213848E+01  0.60086687529E+00  0.95314619189E+02  0.90544482597E+02 0.  0.
         11    1    3    3    0    0 -0.60179898344E+02  0.33565133784E+01 -0.48628177188E+01  0.60469276026E+02  0.51100000000E-03 0.  1.
         22    1    1    0    0    0  0.28233028913E+02  0.94397213848E+01 -0.60086687529E+00  0.29775380811E+02  0.00000000000E+00 0.  1.
</event>
<event>
 5    1  0.1046082E-009  0.9118800E+02  0.7561462E-02  0.1125453E+00
         25   -1    0    0    0    0  0.00000000000E+00  0.00000000000E+00  0.99999998245E-14  0.12509000000E+03  0.12509000000E+03 0.  0.
        -11    1    3    3    0    0  0.14738825269E+02  0.37566542409E+02  0.19264882508E+02  0.44717041239E+02  0.51100000000E-03 0.  1.
         23    2    1    0    0    0 -0.10467650889E+02 -0.50526502031E+01  0.27795788993E+02  0.94961825894E+02  0.90055768844E+02 0.  0.
         11    1    3    3    0    0 -0.25206476158E+02 -0.42619192612E+02  0.85309064856E+01  0.50244784655E+02  0.51100000000E-03 0. -1.
         22    1    1    0    0    0  0.10467650889E+02  0.50526502031E+01 -0.27795788993E+02  0.30128174106E+02  0.00000000000E+00 0.  1.
</event>
<event>
 5    1  0.1046082E-009  0.9118800E+02  0.7561462E-02  0.1125453E+00
         25   -1    0    0    0    0  0.00000000000E+00  0.00000000000E+00  0.99999998245E-14  0.12509000000E+03  0.12509000000E+03 0.  0.
        -11    1    3    3    0    0  0.39552565651E+02  0.22943783169E+01 -0.12726616416E+02  0.41612935334E+02  0.51100000000E-03 0. -1.
         23    2    1    0    0    0  0.43868152094E+00  0.23475208716E+02  0.17855615321E+02  0.95592527833E+02  0.90927611391E+02 0.  0.
         11    1    3    3    0    0 -0.39113884130E+02  0.21180830399E+02  0.30582231737E+02  0.53979592499E+02  0.51100000000E-03 0.  1.
         22    1    1    0    0    0 -0.43868152094E+00 -0.23475208716E+02 -0.17855615321E+02  0.29497472167E+02  0.00000000000E+00 0.  1.
</event>
<event>
 5    1  0.1046082E-009  0.9118800E+02  0.7561462E-02  0.1125453E+00
         25   -1    0    0    0    0  0.00000000000E+00  0.00000000000E+00  0.99999998245E-14  0.12509000000E+03  0.12509000000E+03 0.  0.
        -11    1    3    3    0    0 -0.28968718609E+01 -0.46032954176E+02 -0.33412800596E+02  0.56954718686E+02  0.51100000000E-03 0. -1.
         23    2    1    0    0    0 -0.15558348542E+02 -0.11424558914E+02 -0.22618471439E+02  0.95354869162E+02  0.90600072114E+02 0.  0.
         11    1    3    3    0    0 -0.12661476681E+02  0.34608395262E+02  0.10794329157E+02  0.38400150476E+02  0.51100000000E-03 0.  1.
         22    1    1    0    0    0  0.15558348542E+02  0.11424558914E+02  0.22618471439E+02  0.29735130838E+02  0.00000000000E+00 0.  1.
</event>
<event>
 5    1  0.1046082E-009  0.9118800E+02  0.7561462E-02  0.1125453E+00
         25   -1    0    0    0    0  0.00000000000E+00  0.00000000000E+00  0.99999998245E-14  0.12509000000E+03  0.12509000000E+03 0.  0.
        -11    1    3    3    0    0  0.16645357963E+02  0.36460685239E+02 -0.35666629172E+02  0.53652194238E+02  0.51100000000E-03 0. -1.
         23    2    1    0    0    0  0.27687754518E+02  0.59643076733E+01 -0.98612686650E+01  0.95099512576E+02  0.90246816876E+02 0.  0.
         11    1    3    3    0    0  0.11042396554E+02 -0.30496377566E+02  0.25805360507E+02  0.41447318338E+02  0.51100000000E-03 0.  1.
         22    1    1    0    0    0 -0.27687754518E+02 -0.59643076733E+01  0.98612686650E+01  0.29990487424E+02  0.00000000000E+00 0. -1.
</event>
<event>
 5    1  0.1046082E-009  0.9118800E+02  0.7561462E-02  0.1125453E+00
         25   -1    0    0    0    0  0.00000000000E+00  0.00000000000E+00  0.99999998245E-14  0.12509000000E+03  0.12509000000E+03 0.  0.
        -11    1    3    3    0    0  0.20388864901E+02 -0.38834027104E+02  0.34198699521E+02  0.55617789620E+02  0.51100000000E-03 0.  1.
         23    2    1    0    0    0  0.28183112128E+02 -0.10890791680E+02  0.10414496476E+02  0.93131293996E+02  0.87476162649E+02 0.  0.
         11    1    3    3    0    0  0.77942472270E+01  0.27943235424E+02 -0.23784203045E+02  0.37513504375E+02  0.51100000000E-03 0. -1.
         22    1    1    0    0    0 -0.28183112128E+02  0.10890791680E+02 -0.10414496476E+02  0.31958706004E+02  0.00000000000E+00 0.  1.
</event>
<event>
 5    1  0.1046082E-009  0.9118800E+02  0.7561462E-02  0.1125453E+00
         25   -1    0    0    0    0  0.00000000000E+00  0.00000000000E+00  0.99999998245E-14  0.12509000000E+03  0.12509000000E+03 0.  0.
        -11    1    3    3    0    0 -0.38209532899E+01  0.40813176161E+01  0.60194715790E+02  0.60453789350E+02  0.51100000000E-03 0.  1.
         23    2    1    0    0    0  0.49823082976E+01  0.11165289383E+02  0.29936824983E+02  0.92752706158E+02  0.86933100293E+02 0.  0.
         11    1    3    3    0    0  0.88032615875E+01  0.70839717670E+01 -0.30257890807E+02  0.32298916808E+02  0.51100000000E-03 0. -1.
         22    1    1    0    0    0 -0.49823082976E+01 -0.11165289383E+02 -0.29936824983E+02  0.32337293842E+02  0.00000000000E+00 0.  1.
</event>
<event>
 5    1  0.1046082E-009  0.9118800E+02  0.7561462E-02  0.1125453E+00
         25   -1    0    0    0    0  0.00000000000E+00  0.00000000000E+00  0.99999998245E-14  0.12509000000E+03  0.12509000000E+03 0.  0.
        -11    1    3    3    0    0  0.19174877444E+02  0.24652780260E+02  0.14036863668E+02  0.34241335275E+02  0.51100000000E-03 0. -1.
         23    2    1    0    0    0 -0.42574577415E+01 -0.21949245763E+02 -0.18800051678E+02  0.95878062730E+02  0.91319579685E+02 0.  0.
         11    1    3    3    0    0 -0.23432335186E+02 -0.46602026023E+02 -0.32836915346E+02  0.61636727455E+02  0.51100000000E-03 0.  1.
         22    1    1    0    0    0  0.42574577415E+01  0.21949245763E+02  0.18800051678E+02  0.29211937270E+02  0.00000000000E+00 0.  1.
</event>
<event>
 5    1  0.1046082E-009  0.9118800E+02  0.7561462E-02  0.1125453E+00
         25   -1    0    0    0    0  0.00000000000E+00  0.00000000000E+00  0.99999998245E-14  0.12509000000E+03  0.12509000000E+03 0.  0.
        -11    1    3    3    0    0 -0.20236434035E+02  0.27334551184E+02 -0.16318227848E+02  0.37722347637E+02  0.51100000000E-03 0.  1.
         23    2    1    0    0    0  0.27637341976E+02 -0.48690731107E+01 -0.69994960054E+01  0.96167284208E+02  0.91714900987E+02 0.  0.
         11    1    3    3    0    0  0.47873776012E+02 -0.32203624294E+02  0.93187318430E+01  0.58444936571E+02  0.51100000000E-03 0. -1.
         22    1    1    0    0    0 -0.27637341976E+02  0.48690731107E+01  0.69994960054E+01  0.28922715792E+02  0.00000000000E+00 0. -1.
</event>
<event>
 5    1  0.1046082E-009  0.9118800E+02  0.7561462E-02  0.1125453E+00
         25   -1    0    0    0    0  0.00000000000E+00  0.00000000000E+00  0.99999998245E-14  0.12509000000E+03  0.12509000000E+03 0.  0.
        -11    1    3    3    0    0 -0.45573566969E+02 -0.83131870278E+01  0.26402457817E+01  0.46400754120E+02  0.51100000000E-03 0.  1.
         23    2    1    0    0    0 -0.10375008270E+02  0.15068826116E+02 -0.22902138208E+02  0.95777575132E+02  0.91181827392E+02 0.  0.
         11    1    3    3    0    0  0.35198558698E+02  0.23382013144E+02 -0.25542383990E+02  0.49376821012E+02  0.51100000000E-03 0. -1.
         22    1    1    0    0    0  0.10375008270E+02 -0.15068826116E+02  0.22902138208E+02  0.29312424868E+02  0.00000000000E+00 0. -1.
</event>
<event>
 5    1  0.1046082E-009  0.9118800E+02  0.7561462E-02  0.1125453E+00
         25   -1    0    0    0    0  0.00000000000E+00  0.00000000000E+00  0.99999998245E-14  0.12509000000E+03  0.12509000000E+03 0.  0.
        -11    1    3    3    0    0 -0.18087268834E+02 -0.46561318576E+02 -0.62416798878E+01  0.50339489961E+02  0.51100000000E-03 0. -1.
         23    2    1    0    0    0 -0.29655660492E+02 -0.63603873190E+01  0.65039718108E+01  0.94070419484E+02  0.88808949135E+02 0.  0.
         11    1    3    3    0    0 -0.11568391658E+02  0.40200931257E+02  0.12745651699E+02  0.43730929523E+02  0.51100000000E-03 0.  1.
         22    1    1    0    0    0  0.29655660492E+02  0.63603873190E+01 -0.65039718108E+01  0.31019580516E+02  0.00000000000E+00 0. -1.
</event>
<event>
 5    1  0.1046082E-009  0.9118800E+02  0.7561462E-02  0.1125453E+00
         25   -1    0    0    0    0  0.00000000000E+00  0.00000000000E+00  0.99999998245E-14  0.12509000000E+03  0.12509000000E+03 0.  0.
        -11    1    3    3    0    0 -0.24213486398E+01 -0.46097503104E+02 -0.30225329106E+02  0.55176201767E+02  0.51100000000E-03 0.  1.
         23    2    1    0    0    0  0.37886401143E+01 -0.61830474771E+01 -0.28580064441E+02  0.95604343258E+02  0.90943864534E+02 0.  0.
         11    1    3    3    0    0  0.62099887540E+01  0.39914455627E+02  0.16452646645E+01  0.40428141491E+02  0.51100000000E-03 0. -1.
         22    1    1    0    0    0 -0.37886401143E+01  0.61830474771E+01  0.28580064441E+02  0.29485656742E+02  0.00000000000E+00 0.  1.
</event>
<event>
 5    1  0.1046082E-009  0.9118800E+02  0.7561462E-02  0.1125453E+00
         25   -1    0    0    0    0  0.00000000000E+00  0.00000000000E+00  0.99999998245E-14  0.12509000000E+03  0.12509000000E+03 0.  0.
        -11    1    3    3    0    0  0.40014232783E+02 -0.14534139674E+02  0.19940213047E+02  0.47010553473E+02  0.51100000000E-03 0. -1.
         23    2    1    0    0    0  0.26196039926E+02  0.11171348538E+02 -0.15296278726E+02  0.92763421480E+02  0.86948517444E+02 0.  0.
         11    1    3    3    0    0 -0.13818192856E+02  0.25705488212E+02 -0.35236491773E+02  0.45752868006E+02  0.51100000000E-03 0.  1.
         22    1    1    0    0    0 -0.26196039926E+02 -0.11171348538E+02  0.15296278726E+02  0.32326578520E+02  0.00000000000E+00 0. -1.
</event>
<event>
 5    1  0.1046082E-009  0.9118800E+02  0.7561462E-02  0.1125453E+00
         25   -1    0    0    0    0  0.00000000000E+00  0.00000000000E+00  0.99999998245E-14  0.12509000000E+03  0.12509000000E+03 0.  0.
        -11    1    3    3    0    0  0.15316844069E+01 -0.42372900098E+01  0.40410893940E+02  0.40661296499E+02  0.51100000000E-03 0.  1.
         23    2    1    0    0    0  0.27087861763E+02 -0.73040875917E+01 -0.83667538853E+01  0.95813652533E+02  0.91231307623E+02 0.  0.
         11    1    3    3    0    0  0.25556177356E+02 -0.30667975819E+01 -0.48777647825E+02  0.55152356034E+02  0.51100000000E-03 0. -1.
         22    1    1    0    0    0 -0.27087861763E+02  0.73040875917E+01  0.83667538853E+01  0.29276347467E+02  0.00000000000E+00 0. -1.
</event>
<event>
 5    1  0.1046082E-009  0.9118800E+02  0.7561462E-02  0.1125453E+00
         25   -1    0    0    0    0  0.00000000000E+00  0.00000000000E+00  0.99999998245E-14  0.12509000000E+03  0.12509000000E+03 0.  0.
        -11    1    3    3    0    0  0.44257904670E+02  0.18250528968E+02  0.62582662260E+01  0.48280532617E+02  0.51100000000E-03 0.  1.
         23    2    1    0    0    0  0.12438869345E+02 -0.99835869128E+01  0.25534220444E+02  0.94983623733E+02  0.90086041569E+02 0.  0.
         11    1    3    3    0    0 -0.31819035325E+02 -0.28234115881E+02  0.19275954218E+02  0.46703091117E+02  0.51100000000E-03 0. -1.
         22    1    1    0    0    0 -0.12438869345E+02  0.99835869128E+01 -0.25534220444E+02  0.30106376267E+02  0.00000000000E+00 0.  1.
</event>
<event>
 5    1  0.1046082E-009  0.9118800E+02  0.7561462E-02  0.1125453E+00
         25   -1    0    0    0    0  0.00000000000E+00  0.00000000000E+00  0.99999998245E-14  0.12509000000E+03  0.12509000000E+03 0.  0.
        -11    1    3    3    0    0  0.53798944594E+01 -0.28905492932E+02  0.38541328971E+02  0.48475816910E+02  0.51100000000E-03 0.  1.
         23    2    1    0    0    0  0.86824598398E+01 -0.25985740235E+02 -0.90234584478E+01  0.96244435232E+02  0.91820067013E+02 0.  0.
         11    1    3    3    0    0  0.33025653804E+01  0.29197526970E+01 -0.47564787419E+02  0.47768618322E+02  0.51100000000E-03 0. -1.
         22    1    1    0    0    0 -0.86824598398E+01  0.25985740235E+02  0.90234584478E+01  0.28845564768E+02  0.00000000000E+00 0.  1.
</event>
<event>
 5    1  0.1046082E-009  0.9118800E+02  0.7561462E-02  0.1125453E+00
         25   -1    0    0    0    0  0.00000000000E+00  0.00000000000E+00  0.99999998245E-14  0.12509000000E+03  0.12509000000E+03 0.  0.
        -11    1    3    3    0    0 -0.28382809912E+01 -0.40605296705E+02 -0.17994139635E+02  0.44504325868E+02  0.51100000000E-03 0.  1.
         23    2    1    0    0    0  0.15497699797E+02 -0.11823900044E+02  0.21077184424E+02  0.96380576208E+02  0.92005350147E+02 0.  0.
         11    1    3    3    0    0  0.18335980788E+02  0.28781396661E+02  0.39071324060E+02  0.51876250339E+02  0.51100000000E-03 0. -1.
         22    1    1    0    0    0 -0.15497699797E+02  0.11823900044E+02 -0.21077184424E+02  0.28709423792E+02  0.00000000000E+00 0. -1.
</event>
<event>
 5    1  0.1046082E-009  0.9118800E+02  0.7561462E-02  0.1125453E+00
         25   -1    0    0    0    0  0.00000000000E+00  0.00000000000E+00  0.99999998245E-14  0.12509000000E+03  0.12509000000E+03 0.  0.
        -11    1    3    3    0    0  0.34175318454E+02  0.17841244235E+02 -0.42335409719E+01  0.38783827257E+02  0.51100000000E-03 0.  1.
         23    2    1    0    0    0 -0.18429179757E+02  0.33319673048E+01 -0.22024468515E+02  0.96179554033E+02  0.91731634282E+02 0.  0.
         11    1    3    3    0    0 -0.52604498211E+02 -0.14509276930E+02 -0.17790927543E+02  0.57395726776E+02  0.51100000000E-03 0. -1.
         22    1    1    0    0    0  0.18429179757E+02 -0.33319673048E+01  0.22024468515E+02  0.28910445967E+02  0.00000000000E+00 0. -1.
</event>
<event>
 5    1  0.1046082E-009  0.9118800E+02  0.7561462E-02  0.1125453E+00
         25   -1    0    0    0    0  0.00000000000E+00  0.00000000000E+00  0.99999998245E-14  0.12509000000E+03  0.12509000000E+03 0.  0.
        -11    1    3    3    0    0 -0.27022315689E+02 -0.46577649185E+02  0.12998449961E+02  0.55395330584E+02  0.51100000000E-03 0.  1.
         23    2    1    0    0    0 -0.27974084559E+02 -0.79441403140E+01  0.52038681473E+00  0.96005131517E+02  0.91493473554E+02 0.  0.
         11    1    3    3    0    0 -0.95176886933E+00  0.38633508871E+02 -0.12478063146E+02  0.40609800933E+02  0.51100000000E-03 0. -1.
         22    1    1    0    0    0  0.27974084559E+02  0.79441403140E+01 -0.52038681473E+00  0.29084868483E+02  0.00000000000E+00 0.  1.
</event>
<event>
 5    1  0.1046082E-009  0.9118800E+02  0.7561462E-02  0.1125453E+00
         25   -1    0    0    0    0  0.00000000000E+00  0.00000000000E+00  0.99999998245E-14  0.12509000000E+03  0.12509000000E+03 0.  0.
        -11    1    3    3    0    0 -0.25657334900E+02  0.50508769796E+01  0.27287257003E+02  0.37794240136E+02  0.51100000000E-03 0. -1.
         23    2    1    0    0    0  0.52501805319E+01  0.10357470383E+02 -0.24295786432E+02  0.98161820955E+02  0.94396060651E+02 0.  0.
         11    1    3    3    0    0  0.30907515432E+02  0.53065934035E+01 -0.51583043434E+02  0.60367580819E+02  0.51100000000E-03 0.  1.
         22    1    1    0    0    0 -0.52501805319E+01 -0.10357470383E+02  0.24295786432E+02  0.26928179045E+02  0.00000000000E+00 0.  1.
</event>
<event>
 5    1  0.1046082E-009  0.9118800E+02  0.7561462E-02  0.1125453E+00
         25   -1    0    0    0    0  0.00000000000E+00  0.00000000000E+00  0.99999998245E-14  0.12509000000E+03  0.12509000000E+03 0.  0.
        -11    1    3    3    0    0 -0.42944866440E+02  0.99647170372E+01 -0.28597004541E+02  0.52548509096E+02  0.51100000000E-03 0. -1.
         23    2    1    0    0    0 -0.13937541039E+02  0.25192521102E+02  0.39544677685E+00  0.96296345354E+02  0.91890758952E+02 0.  0.
         11    1    3    3    0    0  0.29007325401E+02  0.15227804065E+02  0.28992451318E+02  0.43747836258E+02  0.51100000000E-03 0.  1.
         22    1    1    0    0    0  0.13937541039E+02 -0.25192521102E+02 -0.39544677685E+00  0.28793654646E+02  0.00000000000E+00 0.  1.
</event>
<event>
 5    1  0.1046082E-009  0.9118800E+02  0.7561462E-02  0.1125453E+00
         25   -1    0    0    0    0  0.00000000000E+00  0.00000000000E+00  0.99999998245E-14  0.12509000000E+03  0.12509000000E+03 0.  0.
        -11    1    3    3    0    0  0.30311980977E+02  0.39754101830E+02  0.18001228498E+02  0.53134254777E+02  0.51100000000E-03 0.  1.
         23    2    1    0    0    0  0.29373572254E+02 -0.26187967710E+00  0.45259261969E+01  0.95368638391E+02  0.90619081063E+02 0.  0.
         11    1    3    3    0    0 -0.93840872265E+00 -0.40015981507E+02 -0.13475302301E+02  0.42234383614E+02  0.51100000000E-03 0. -1.
         22    1    1    0    0    0 -0.29373572254E+02  0.26187967710E+00 -0.45259261969E+01  0.29721361609E+02  0.00000000000E+00 0.  1.
</event>
<event>
 5    1  0.1046082E-009  0.9118800E+02  0.7561462E-02  0.1125453E+00
         25   -1    0    0    0    0  0.00000000000E+00  0.00000000000E+00  0.99999998245E-14  0.12509000000E+03  0.12509000000E+03 0.  0.
        -11    1    3    3    0    0 -0.19588371834E+02 -0.36943516770E+02  0.24658072385E+02  0.48544291903E+02  0.51100000000E-03 0. -1.
         23    2    1    0    0    0 -0.13401583106E+02 -0.10266784142E+02 -0.18744348234E+02  0.99863825556E+02  0.96625171553E+02 0.  0.
         11    1    3    3    0    0  0.61867887285E+01  0.26676732628E+02 -0.43402420619E+02  0.51319533653E+02  0.51100000000E-03 0.  1.
         22    1    1    0    0    0  0.13401583106E+02  0.10266784142E+02  0.18744348234E+02  0.25226174444E+02  0.00000000000E+00 0.  1.
</event>
<event>
 5    1  0.1046082E-009  0.9118800E+02  0.7561462E-02  0.1125453E+00
         25   -1    0    0    0    0  0.00000000000E+00  0.00000000000E+00  0.99999998245E-14  0.12509000000E+03  0.12509000000E+03 0.  0.
        -11    1    3    3    0    0  0.20293899938E+02  0.33760418580E+02 -0.58484274316E+01  0.39822259367E+02  0.51100000000E-03 0.  1.
         23    2    1    0    0    0  0.17538307639E+02 -0.11448005348E+02  0.23359925264E+02  0.93715883763E+02  0.88308163268E+02 0.  0.
         11    1    3    3    0    0 -0.27555922988E+01 -0.45208423929E+02  0.29208352696E+02  0.53893624396E+02  0.51100000000E-03 0. -1.
         22    1    1    0    0    0 -0.17538307639E+02  0.11448005348E+02 -0.23359925264E+02  0.31374116237E+02  0.00000000000E+00 0. -1.
</event>
<event>
 5    1  0.1046082E-009  0.9118800E+02  0.7561462E-02  0.1125453E+00
         25   -1    0    0    0    0  0.00000000000E+00  0.00000000000E+00  0.99999998245E-14  0.12509000000E+03  0.12509000000E+03 0.  0.
        -11    1    3    3    0    0  0.37210976101E+02 -0.10474972684E+02  0.16659611155E+02  0.42094232850E+02  0.51100000000E-03 0.  1.
         23    2    1    0    0    0 -0.39833863652E+01 -0.26272646548E+02  0.26784065302E+02  0.87360628449E+02  0.78793235277E+02 0.  0.
         11    1    3    3    0    0 -0.41194362466E+02 -0.15797673864E+02  0.10124454147E+02  0.45266395599E+02  0.51100000000E-03 0. -1.
         22    1    1    0    0    0  0.39833863652E+01  0.26272646548E+02 -0.26784065302E+02  0.37729371551E+02  0.00000000000E+00 0. -1.
</event>
<event>
 5    1  0.1046082E-009  0.9118800E+02  0.7561462E-02  0.1125453E+00
         25   -1    0    0    0    0  0.00000000000E+00  0.00000000000E+00  0.99999998245E-14  0.12509000000E+03  0.12509000000E+03 0.  0.
        -11    1    3    3    0    0 -0.30264822352E+02  0.13218872484E+02  0.84452379861E+01  0.34088416019E+02  0.51100000000E-03 0.  1.
         23    2    1    0    0    0  0.28966568637E+02 -0.31127630679E+01  0.15557152109E+01  0.95915153945E+02  0.91370373284E+02 0.  0.
         11    1    3    3    0    0  0.59231390989E+02 -0.16331635552E+02 -0.68895227752E+01  0.61826737926E+02  0.51100000000E-03 0. -1.
         22    1    1    0    0    0 -0.28966568637E+02  0.31127630679E+01 -0.15557152109E+01  0.29174846055E+02  0.00000000000E+00 0. -1.
</event>
<event>
 5    1  0.1046082E-009  0.9118800E+02  0.7561462E-02  0.1125453E+00
         25   -1    0    0    0    0  0.00000000000E+00  0.00000000000E+00  0.99999998245E-14  0.12509000000E+03  0.12509000000E+03 0.  0.
        -11    1    3    3    0    0 -0.16118101074E+02 -0.33605849916E+00  0.48968220737E+02  0.51553785117E+02  0.51100000000E-03 0.  1.
         23    2    1    0    0    0 -0.18485827529E+02  0.20813465645E+02  0.10845509233E+02  0.95214403904E+02  0.90405926070E+02 0.  0.
         11    1    3    3    0    0 -0.23677264551E+01  0.21149524144E+02 -0.38122711504E+02  0.43660618786E+02  0.51100000000E-03 0. -1.
         22    1    1    0    0    0  0.18485827529E+02 -0.20813465645E+02 -0.10845509233E+02  0.29875596096E+02  0.00000000000E+00 0. -1.
</event>
<event>
 5    1  0.1046082E-009  0.9118800E+02  0.7561462E-02  0.1125453E+00
         25   -1    0    0    0    0  0.00000000000E+00  0.00000000000E+00  0.99999998245E-14  0.12509000000E+03  0.12509000000E+03 0.  0.
        -11    1    3    3    0    0 -0.90538732326E+01 -0.40477703954E+02 -0.19688685478E+01  0.41524614164E+02  0.51100000000E-03 0. -1.
         23    2    1    0    0    0  0.26528493609E+02 -0.34603380987E+01  0.13464316179E+02  0.95139662388E+02  0.90302450887E+02 0.  0.
         11    1    3    3    0    0  0.35582366842E+02  0.37017365855E+02  0.15433184727E+02  0.53615048223E+02  0.51100000000E-03 0.  1.
         22    1    1    0    0    0 -0.26528493609E+02  0.34603380987E+01 -0.13464316179E+02  0.29950337612E+02  0.00000000000E+00 0. -1.
</event>
<event>
 5    1  0.1046082E-009  0.9118800E+02  0.7561462E-02  0.1125453E+00
         25   -1    0    0    0    0  0.00000000000E+00  0.00000000000E+00  0.99999998245E-14  0.12509000000E+03  0.12509000000E+03 0.  0.
        -11    1    3    3    0    0  0.47703490408E+01  0.47945332521E+02 -0.37165920754E+02  0.60850774903E+02  0.51100000000E-03 0.  1.
         23    2    1    0    0    0  0.43172830311E+01  0.15804482351E+02 -0.24958016663E+02  0.95234963726E+02  0.90434369158E+02 0.  0.
         11    1    3    3    0    0 -0.45306600974E+00 -0.32140850171E+02  0.12207904091E+02  0.34384188823E+02  0.51100000000E-03 0. -1.
         22    1    1    0    0    0 -0.43172830311E+01 -0.15804482351E+02  0.24958016663E+02  0.29855036274E+02  0.00000000000E+00 0.  1.
</event>
<event>
 5    1  0.1046082E-009  0.9118800E+02  0.7561462E-02  0.1125453E+00
         25   -1    0    0    0    0  0.00000000000E+00  0.00000000000E+00  0.99999998245E-14  0.12509000000E+03  0.12509000000E+03 0.  0.
        -11    1    3    3    0    0  0.53649150788E+02  0.86438169932E+01 -0.10110051377E+02  0.55273502618E+02  0.51100000000E-03 0.  1.
         23    2    1    0    0    0  0.54592318005E+01 -0.44999585005E+01 -0.17913881655E+02  0.10582967824E+03  0.10406229289E+03 0.  0.
         11    1    3    3    0    0 -0.48189918988E+02 -0.13143775494E+02 -0.78038302780E+01  0.50556175622E+02  0.51100000000E-03 0. -1.
         22    1    1    0    0    0 -0.54592318005E+01  0.44999585005E+01  0.17913881655E+02  0.19260321760E+02  0.00000000000E+00 0.  1.
</event>
<event>
 5    1  0.1046082E-009  0.9118800E+02  0.7561462E-02  0.1125453E+00
         25   -1    0    0    0    0  0.00000000000E+00  0.00000000000E+00  0.99999998245E-14  0.12509000000E+03  0.12509000000E+03 0.  0.
        -11    1    3    3    0    0  0.48298638824E+01  0.33516745782E+02  0.18289775591E+02  0.38486565505E+02  0.51100000000E-03 0.  1.
         23    2    1    0    0    0  0.44182079754E+01 -0.23795892780E+02  0.16442523318E+02  0.95830443476E+02  0.91254327288E+02 0.  0.
         11    1    3    3    0    0 -0.41165590702E+00 -0.57312638562E+02 -0.18472522729E+01  0.57343877971E+02  0.51100000000E-03 0. -1.
         22    1    1    0    0    0 -0.44182079754E+01  0.23795892780E+02 -0.16442523318E+02  0.29259556524E+02  0.00000000000E+00 0. -1.
</event>
<event>
 5    1  0.1046082E-009  0.9118800E+02  0.7561462E-02  0.1125453E+00
         25   -1    0    0    0    0  0.00000000000E+00  0.00000000000E+00  0.99999998245E-14  0.12509000000E+03  0.12509000000E+03 0.  0.
        -11    1    3    3    0    0 -0.47519241634E+01  0.35890657278E+02 -0.21032499193E+02  0.41869870858E+02  0.51100000000E-03 0. -1.
         23    2    1    0    0    0  0.93401267076E+00  0.84095104041E+01  0.26612194685E+02  0.97165080110E+02  0.93065845733E+02 0.  0.
         11    1    3    3    0    0  0.56859368341E+01 -0.27481146874E+02  0.47644693878E+02  0.55295209252E+02  0.51100000000E-03 0.  1.
         22    1    1    0    0    0 -0.93401267076E+00 -0.84095104041E+01 -0.26612194685E+02  0.27924919890E+02  0.00000000000E+00 0.  1.
</event>
<event>
 5    1  0.1046082E-009  0.9118800E+02  0.7561462E-02  0.1125453E+00
         25   -1    0    0    0    0  0.00000000000E+00  0.00000000000E+00  0.99999998245E-14  0.12509000000E+03  0.12509000000E+03 0.  0.
        -11    1    3    3    0    0 -0.23067964707E+00 -0.11435377302E+02 -0.34047929658E+02  0.35917719601E+02  0.51100000000E-03 0. -1.
         23    2    1    0    0    0  0.14357249152E+02 -0.17805803046E+01  0.24287781933E+02  0.96819920045E+02  0.92600753219E+02 0.  0.
         11    1    3    3    0    0  0.14587928800E+02  0.96547969969E+01  0.58335711591E+02  0.60902200443E+02  0.51100000000E-03 0.  1.
         22    1    1    0    0    0 -0.14357249152E+02  0.17805803046E+01 -0.24287781933E+02  0.28270079955E+02  0.00000000000E+00 0.  1.
</event>
<event>
 5    1  0.1046082E-009  0.9118800E+02  0.7561462E-02  0.1125453E+00
         25   -1    0    0    0    0  0.00000000000E+00  0.00000000000E+00  0.99999998245E-14  0.12509000000E+03  0.12509000000E+03 0.  0.
        -11    1    3    3    0    0 -0.57584561652E+02 -0.90252442559E+00 -0.21680662062E+02  0.61537365874E+02  0.51100000000E-03 0. -1.
         23    2    1    0    0    0 -0.27476722719E+02  0.55907664933E+01 -0.15837113557E+02  0.92886877058E+02  0.87125947928E+02 0.  0.
         11    1    3    3    0    0  0.30107838932E+02  0.64932909189E+01  0.58435485048E+01  0.31349511185E+02  0.51100000000E-03 0.  1.
         22    1    1    0    0    0  0.27476722719E+02 -0.55907664933E+01  0.15837113557E+02  0.32203122942E+02  0.00000000000E+00 0. -1.
</event>
<event>
 5    1  0.1046082E-009  0.9118800E+02  0.7561462E-02  0.1125453E+00
         25   -1    0    0    0    0  0.00000000000E+00  0.00000000000E+00  0.99999998245E-14  0.12509000000E+03  0.12509000000E+03 0.  0.
        -11    1    3    3    0    0 -0.40334078160E+02  0.33007637986E+02 -0.25314320263E+02  0.57940977184E+02  0.51100000000E-03 0.  1.
         23    2    1    0    0    0 -0.28086506708E+02  0.14615875788E+01 -0.14370814525E+02  0.93506643506E+02  0.88011271848E+02 0.  0.
         11    1    3    3    0    0  0.12247571451E+02 -0.31546050408E+02  0.10943505738E+02  0.35565666321E+02  0.51100000000E-03 0. -1.
         22    1    1    0    0    0  0.28086506708E+02 -0.14615875788E+01  0.14370814525E+02  0.31583356494E+02  0.00000000000E+00 0.  1.
</event>
<event>
 5    1  0.1046082E-009  0.9118800E+02  0.7561462E-02  0.1125453E+00
         25   -1    0    0    0    0  0.00000000000E+00  0.00000000000E+00  0.99999998245E-14  0.12509000000E+03  0.12509000000E+03 0.  0.
        -11    1    3    3    0    0 -0.64519346663E+01 -0.42976046237E+02  0.96792786763E+01  0.44522538641E+02  0.51100000000E-03 0.  1.
         23    2    1    0    0    0 -0.31834090977E+02 -0.25215801479E+01  0.72579409316E+01  0.92341787509E+02  0.86339795570E+02 0.  0.
         11    1    3    3    0    0 -0.25382156311E+02  0.40454466089E+02 -0.24213377447E+01  0.47819248868E+02  0.51100000000E-03 0. -1.
         22    1    1    0    0    0  0.31834090977E+02  0.25215801479E+01 -0.72579409316E+01  0.32748212491E+02  0.00000000000E+00 0. -1.
</event>
<event>
 5    1  0.1046082E-009  0.9118800E+02  0.7561462E-02  0.1125453E+00
         25   -1    0    0    0    0  0.00000000000E+00  0.00000000000E+00  0.99999998245E-14  0.12509000000E+03  0.12509000000E+03 0.  0.
        -11    1    3    3    0    0  0.61992538747E+01  0.14103066562E+02  0.12544725826E+02  0.19866992258E+02  0.51100000000E-03 0.  1.
         23    2    1    0    0    0  0.77610693529E+01  0.16119673677E+02 -0.44582799228E+02  0.77051431495E+02  0.60242999855E+02 0.  0.
         11    1    3    3    0    0  0.15618154782E+01  0.20166071143E+01 -0.57127525054E+02  0.57184439237E+02  0.51100000000E-03 0. -1.
         22    1    1    0    0    0 -0.77610693529E+01 -0.16119673677E+02  0.44582799228E+02  0.48038568505E+02  0.00000000000E+00 0. -1.
</event>
<event>
 5    1  0.1046082E-009  0.9118800E+02  0.7561462E-02  0.1125453E+00
         25   -1    0    0    0    0  0.00000000000E+00  0.00000000000E+00  0.99999998245E-14  0.12509000000E+03  0.12509000000E+03 0.  0.
        -11    1    3    3    0    0 -0.55185488577E+02 -0.12776754549E+02 -0.23972145649E+02  0.61508921089E+02  0.51100000000E-03 0. -1.
         23    2    1    0    0    0 -0.28255100195E+02  0.86201141810E+00 -0.77504628538E+01  0.95778510356E+02  0.91183110392E+02 0.  0.
         11    1    3    3    0    0  0.26930388382E+02  0.13638765967E+02  0.16221682796E+02  0.34269589266E+02  0.51100000000E-03 0.  1.
         22    1    1    0    0    0  0.28255100195E+02 -0.86201141810E+00  0.77504628538E+01  0.29311489644E+02  0.00000000000E+00 0. -1.
</event>
<event>
 5    1  0.1046082E-009  0.9118800E+02  0.7561462E-02  0.1125453E+00
         25   -1    0    0    0    0  0.00000000000E+00  0.00000000000E+00  0.99999998245E-14  0.12509000000E+03  0.12509000000E+03 0.  0.
        -11    1    3    3    0    0 -0.28275907344E+02  0.15098296395E+02  0.12999053588E+02  0.34589895701E+02  0.51100000000E-03 0. -1.
         23    2    1    0    0    0  0.10240475711E+02 -0.29093657396E+02  0.64898163043E+01  0.93571339510E+02  0.88103175984E+02 0.  0.
         11    1    3    3    0    0  0.38516383055E+02 -0.44191953791E+02 -0.65092372833E+01  0.58981443809E+02  0.51100000000E-03 0.  1.
         22    1    1    0    0    0 -0.10240475711E+02  0.29093657396E+02 -0.64898163043E+01  0.31518660490E+02  0.00000000000E+00 0.  1.
</event>
<event>
 5    1  0.1046082E-009  0.9118800E+02  0.7561462E-02  0.1125453E+00
         25   -1    0    0    0    0  0.00000000000E+00  0.00000000000E+00  0.99999998245E-14  0.12509000000E+03  0.12509000000E+03 0.  0.
        -11    1    3    3    0    0 -0.21430352083E+02  0.19559386056E+02  0.26111593259E+02  0.39033893940E+02  0.51100000000E-03 0.  1.
         23    2    1    0    0    0  0.73876283686E+01  0.21753457174E+02 -0.20777340686E+02  0.94114399313E+02  0.88870874419E+02 0.  0.
         11    1    3    3    0    0  0.28817980452E+02  0.21940711181E+01 -0.46888933945E+02  0.55080505373E+02  0.51100000000E-03 0. -1.
         22    1    1    0    0    0 -0.73876283686E+01 -0.21753457174E+02  0.20777340686E+02  0.30975600687E+02  0.00000000000E+00 0. -1.
</event>
<event>
 5    1  0.1046082E-009  0.9118800E+02  0.7561462E-02  0.1125453E+00
         25   -1    0    0    0    0  0.00000000000E+00  0.00000000000E+00  0.99999998245E-14  0.12509000000E+03  0.12509000000E+03 0.  0.
        -11    1    3    3    0    0  0.23366822618E+02  0.10078871958E+02  0.34763666146E+02  0.43082531766E+02  0.51100000000E-03 0.  1.
         23    2    1    0    0    0 -0.19824073374E+01 -0.27814052478E+02  0.74545766540E+01  0.96226144277E+02  0.91795145162E+02 0.  0.
         11    1    3    3    0    0 -0.25349229955E+02 -0.37892924436E+02 -0.27309089492E+02  0.53143612511E+02  0.51100000000E-03 0. -1.
         22    1    1    0    0    0  0.19824073374E+01  0.27814052478E+02 -0.74545766540E+01  0.28863855723E+02  0.00000000000E+00 0. -1.
</event>
<event>
 5    1  0.1046082E-009  0.9118800E+02  0.7561462E-02  0.1125453E+00
         25   -1    0    0    0    0  0.00000000000E+00  0.00000000000E+00  0.99999998245E-14  0.12509000000E+03  0.12509000000E+03 0.  0.
        -11    1    3    3    0    0 -0.38889557651E+01  0.18654466682E+02  0.39834280498E+02  0.44157479629E+02  0.51100000000E-03 0. -1.
         23    2    1    0    0    0 -0.15055022541E+02  0.99046087812E+01 -0.15524014845E+02  0.10130449988E+03  0.98472593554E+02 0.  0.
         11    1    3    3    0    0 -0.11166066776E+02 -0.87498579010E+01 -0.55358295343E+02  0.57147020256E+02  0.51100000000E-03 0.  1.
         22    1    1    0    0    0  0.15055022541E+02 -0.99046087812E+01  0.15524014845E+02  0.23785500115E+02  0.00000000000E+00 0.  1.
</event>
<event>
 5    1  0.1046082E-009  0.9118800E+02  0.7561462E-02  0.1125453E+00
         25   -1    0    0    0    0  0.00000000000E+00  0.00000000000E+00  0.99999998245E-14  0.12509000000E+03  0.12509000000E+03 0.  0.
        -11    1    3    3    0    0  0.19359690310E+02 -0.22186162247E+02  0.16408349352E+02  0.33708416351E+02  0.51100000000E-03 0.  1.
         23    2    1    0    0    0  0.39395068392E+01  0.10280606390E+02 -0.30419231832E+02  0.92739725703E+02  0.86914420416E+02 0.  0.
         11    1    3    3    0    0 -0.15420183471E+02  0.32466768638E+02 -0.46827581183E+02  0.59031309352E+02  0.51100000000E-03 0. -1.
         22    1    1    0    0    0 -0.39395068392E+01 -0.10280606390E+02  0.30419231832E+02  0.32350274297E+02  0.00000000000E+00 0. -1.
</event>
<event>
 5    1  0.1046082E-009  0.9118800E+02  0.7561462E-02  0.1125453E+00
         25   -1    0    0    0    0  0.00000000000E+00  0.00000000000E+00  0.99999998245E-14  0.12509000000E+03  0.12509000000E+03 0.  0.
        -11    1    3    3    0    0 -0.11807306185E+02 -0.25945646619E+02 -0.43597721355E+02  0.52089829770E+02  0.51100000000E-03 0. -1.
         23    2    1    0    0    0 -0.25048404297E+02 -0.15220503735E+02 -0.36079962869E+01  0.95558594192E+02  0.90880916561E+02 0.  0.
         11    1    3    3    0    0 -0.13241098112E+02  0.10725142884E+02  0.39989725068E+02  0.43468764422E+02  0.51100000000E-03 0.  1.
         22    1    1    0    0    0  0.25048404297E+02  0.15220503735E+02  0.36079962869E+01  0.29531405808E+02  0.00000000000E+00 0.  1.
</event>
<event>
 5    1  0.1046082E-009  0.9118800E+02  0.7561462E-02  0.1125453E+00
         25   -1    0    0    0    0  0.00000000000E+00  0.00000000000E+00  0.99999998245E-14  0.12509000000E+03  0.12509000000E+03 0.  0.
        -11    1    3    3    0    0 -0.16699228710E+02  0.35257070735E+02  0.81581497764E+01  0.39855748448E+02  0.51100000000E-03 0.  1.
         23    2    1    0    0    0  0.18381933234E+02 -0.62771034209E+01  0.21783399963E+02  0.95904147079E+02  0.91355303165E+02 0.  0.
         11    1    3    3    0    0  0.35081161944E+02 -0.41534174156E+02  0.13625250186E+02  0.56048398631E+02  0.51100000000E-03 0. -1.
         22    1    1    0    0    0 -0.18381933234E+02  0.62771034209E+01 -0.21783399963E+02  0.29185852921E+02  0.00000000000E+00 0.  1.
</event>
<event>
 5    1  0.1046082E-009  0.9118800E+02  0.7561462E-02  0.1125453E+00
         25   -1    0    0    0    0  0.00000000000E+00  0.00000000000E+00  0.99999998245E-14  0.12509000000E+03  0.12509000000E+03 0.  0.
        -11    1    3    3    0    0  0.59507863346E+01 -0.33083864812E+02  0.38411392869E+02  0.51043011973E+02  0.51100000000E-03 0.  1.
         23    2    1    0    0    0  0.16130661141E+02 -0.24020649319E+02 -0.42650340980E+01  0.95843114039E+02  0.91271694245E+02 0.  0.
         11    1    3    3    0    0  0.10179874807E+02  0.90632154932E+01 -0.42676426967E+02  0.44800102066E+02  0.51100000000E-03 0. -1.
         22    1    1    0    0    0 -0.16130661141E+02  0.24020649319E+02  0.42650340980E+01  0.29246885961E+02  0.00000000000E+00 0. -1.
</event>
<event>
 5    1  0.1046082E-009  0.9118800E+02  0.7561462E-02  0.1125453E+00
         25   -1    0    0    0    0  0.00000000000E+00  0.00000000000E+00  0.99999998245E-14  0.12509000000E+03  0.12509000000E+03 0.  0.
        -11    1    3    3    0    0  0.50722231005E+01 -0.20708738788E+02 -0.56546633533E+02  0.60432615975E+02  0.51100000000E-03 0.  1.
         23    2    1    0    0    0  0.12839400910E+02 -0.12933288270E+02 -0.22931184135E+02  0.95799056570E+02  0.91211292462E+02 0.  0.
         11    1    3    3    0    0  0.77671778097E+01  0.77754505176E+01  0.33615449398E+02  0.35366440595E+02  0.51100000000E-03 0. -1.
         22    1    1    0    0    0 -0.12839400910E+02  0.12933288270E+02  0.22931184135E+02  0.29290943430E+02  0.00000000000E+00 0.  1.
</event>
<event>
 5    1  0.1046082E-009  0.9118800E+02  0.7561462E-02  0.1125453E+00
         25   -1    0    0    0    0  0.00000000000E+00  0.00000000000E+00  0.99999998245E-14  0.12509000000E+03  0.12509000000E+03 0.  0.
        -11    1    3    3    0    0  0.50862624241E+02  0.98125238541E+01  0.34117357361E+02  0.62026496294E+02  0.51100000000E-03 0.  1.
         23    2    1    0    0    0  0.26428209703E+02  0.84779319801E+01  0.12611987001E+02  0.94604137459E+02  0.89557551382E+02 0.  0.
         11    1    3    3    0    0 -0.24434414538E+02 -0.13345918739E+01 -0.21505370360E+02  0.32577641165E+02  0.51100000000E-03 0. -1.
         22    1    1    0    0    0 -0.26428209703E+02 -0.84779319801E+01 -0.12611987001E+02  0.30485862541E+02  0.00000000000E+00 0.  1.
</event>
<event>
 5    1  0.1046082E-009  0.9118800E+02  0.7561462E-02  0.1125453E+00
         25   -1    0    0    0    0  0.00000000000E+00  0.00000000000E+00  0.99999998245E-14  0.12509000000E+03  0.12509000000E+03 0.  0.
        -11    1    3    3    0    0  0.20810416589E+02 -0.15065850413E+02 -0.35088593153E+02  0.43488649749E+02  0.51100000000E-03 0.  1.
         23    2    1    0    0    0 -0.23832103668E+02  0.54704838459E+01 -0.13469272904E+02  0.97173756139E+02  0.93077506470E+02 0.  0.
         11    1    3    3    0    0 -0.44642520258E+02  0.20536334258E+02  0.21619320249E+02  0.53685106389E+02  0.51100000000E-03 0. -1.
         22    1    1    0    0    0  0.23832103668E+02 -0.54704838459E+01  0.13469272904E+02  0.27916243861E+02  0.00000000000E+00 0. -1.
</event>
<event>
 5    1  0.1046082E-009  0.9118800E+02  0.7561462E-02  0.1125453E+00
         25   -1    0    0    0    0  0.00000000000E+00  0.00000000000E+00  0.99999998245E-14  0.12509000000E+03  0.12509000000E+03 0.  0.
        -11    1    3    3    0    0  0.52553306733E+01 -0.13043074946E+02  0.28877499816E+02  0.32119313511E+02  0.51100000000E-03 0. -1.
         23    2    1    0    0    0 -0.86252345171E+01  0.15850357569E+02 -0.24668062449E+02  0.94526266417E+02  0.89448718449E+02 0.  0.
         11    1    3    3    0    0 -0.13880565190E+02  0.28893432515E+02 -0.53545562265E+02  0.62406952906E+02  0.51100000000E-03 0.  1.
         22    1    1    0    0    0  0.86252345171E+01 -0.15850357569E+02  0.24668062449E+02  0.30563733583E+02  0.00000000000E+00 0.  1.
</event>
<event>
 5    1  0.1046082E-009  0.9118800E+02  0.7561462E-02  0.1125453E+00
         25   -1    0    0    0    0  0.00000000000E+00  0.00000000000E+00  0.99999998245E-14  0.12509000000E+03  0.12509000000E+03 0.  0.
        -11    1    3    3    0    0  0.25942235003E+02  0.17340999351E+02  0.10910468958E+02  0.33056741349E+02  0.51100000000E-03 0.  1.
         23    2    1    0    0    0 -0.27337375159E+02 -0.48352904140E+01 -0.11600230089E+02  0.95002171031E+02  0.90111791951E+02 0.  0.
         11    1    3    3    0    0 -0.53279610161E+02 -0.22176289765E+02 -0.22510699047E+02  0.61945429682E+02  0.51100000000E-03 0. -1.
         22    1    1    0    0    0  0.27337375159E+02  0.48352904140E+01  0.11600230089E+02  0.30087828969E+02  0.00000000000E+00 0. -1.
</event>
<event>
 5    1  0.1046082E-009  0.9118800E+02  0.7561462E-02  0.1125453E+00
         25   -1    0    0    0    0  0.00000000000E+00  0.00000000000E+00  0.99999998245E-14  0.12509000000E+03  0.12509000000E+03 0.  0.
        -11    1    3    3    0    0 -0.54804701019E+00  0.11371470034E+02  0.30905776484E+02  0.32935963727E+02  0.51100000000E-03 0.  1.
         23    2    1    0    0    0  0.69353418086E+00  0.15331181465E+02 -0.28624635494E+02  0.92610839420E+02  0.86728724804E+02 0.  0.
         11    1    3    3    0    0  0.12415811910E+01  0.39597114316E+01 -0.59530411978E+02  0.59674875694E+02  0.51100000000E-03 0. -1.
         22    1    1    0    0    0 -0.69353418086E+00 -0.15331181465E+02  0.28624635494E+02  0.32479160580E+02  0.00000000000E+00 0. -1.
</event>
<event>
 5    1  0.1046082E-009  0.9118800E+02  0.7561462E-02  0.1125453E+00
         25   -1    0    0    0    0  0.00000000000E+00  0.00000000000E+00  0.99999998245E-14  0.12509000000E+03  0.12509000000E+03 0.  0.
        -11    1    3    3    0    0  0.33345740937E+02 -0.99905240905E+01 -0.21058750824E+01  0.34873825721E+02  0.51100000000E-03 0.  1.
         23    2    1    0    0    0 -0.15410439170E+02  0.25215659047E+02 -0.51654621482E+01  0.95090115070E+02  0.90233790169E+02 0.  0.
         11    1    3    3    0    0 -0.48756180108E+02  0.35206183137E+02 -0.30595870658E+01  0.60216289350E+02  0.51100000000E-03 0. -1.
         22    1    1    0    0    0  0.15410439170E+02 -0.25215659047E+02  0.51654621482E+01  0.29999884930E+02  0.00000000000E+00 0. -1.
</event>
<event>
 5    1  0.1046082E-009  0.9118800E+02  0.7561462E-02  0.1125453E+00
         25   -1    0    0    0    0  0.00000000000E+00  0.00000000000E+00  0.99999998245E-14  0.12509000000E+03  0.12509000000E+03 0.  0.
        -11    1    3    3    0    0 -0.10077624949E+02 -0.19894040110E+02 -0.24419601883E+02  0.33070353988E+02  0.51100000000E-03 0.  1.
         23    2    1    0    0    0  0.13489625405E+02  0.18274645744E+02  0.18982369365E+02  0.95488259893E+02  0.90784055649E+02 0.  0.
         11    1    3    3    0    0  0.23567250354E+02  0.38168685854E+02  0.43401971248E+02  0.62417905905E+02  0.51100000000E-03 0. -1.
         22    1    1    0    0    0 -0.13489625405E+02 -0.18274645744E+02 -0.18982369365E+02  0.29601740107E+02  0.00000000000E+00 0. -1.
</event>
<event>
 5    1  0.1046082E-009  0.9118800E+02  0.7561462E-02  0.1125453E+00
         25   -1    0    0    0    0  0.00000000000E+00  0.00000000000E+00  0.99999998245E-14  0.12509000000E+03  0.12509000000E+03 0.  0.
        -11    1    3    3    0    0  0.23723193215E+02  0.88394096562E+00  0.12683657116E+02  0.26915542091E+02  0.51100000000E-03 0.  1.
         23    2    1    0    0    0 -0.30742673446E+02 -0.37691995244E+01 -0.17659274757E+02  0.89436545461E+02  0.82022721507E+02 0.  0.
         11    1    3    3    0    0 -0.54465866661E+02 -0.46531404900E+01 -0.30342931873E+02  0.62521003370E+02  0.51100000000E-03 0. -1.
         22    1    1    0    0    0  0.30742673446E+02  0.37691995244E+01  0.17659274757E+02  0.35653454539E+02  0.00000000000E+00 0. -1.
</event>
<event>
 5    1  0.1046082E-009  0.9118800E+02  0.7561462E-02  0.1125453E+00
         25   -1    0    0    0    0  0.00000000000E+00  0.00000000000E+00  0.99999998245E-14  0.12509000000E+03  0.12509000000E+03 0.  0.
        -11    1    3    3    0    0  0.11684218444E+02 -0.33140498062E+02 -0.43284325514E+02  0.55752546201E+02  0.51100000000E-03 0. -1.
         23    2    1    0    0    0  0.14500382588E+02 -0.58208618011E+01  0.26212018005E+01  0.10924657151E+03  0.10809162392E+03 0.  0.
         11    1    3    3    0    0  0.28161641443E+01  0.27319636261E+02  0.45905527314E+02  0.53494025313E+02  0.51100000000E-03 0.  1.
         22    1    1    0    0    0 -0.14500382588E+02  0.58208618011E+01 -0.26212018005E+01  0.15843428486E+02  0.00000000000E+00 0.  1.
</event>
<event>
 5    1  0.1046082E-009  0.9118800E+02  0.7561462E-02  0.1125453E+00
         25   -1    0    0    0    0  0.00000000000E+00  0.00000000000E+00  0.99999998245E-14  0.12509000000E+03  0.12509000000E+03 0.  0.
        -11    1    3    3    0    0  0.55925620115E+02 -0.12459180009E+02  0.16146447847E+02  0.59528261608E+02  0.51100000000E-03 0.  1.
         23    2    1    0    0    0  0.21939915517E+02 -0.18524309210E+01  0.20007621524E+02  0.95339431732E+02  0.90578755405E+02 0.  0.
         11    1    3    3    0    0 -0.33985704598E+02  0.10606749088E+02  0.38611736775E+01  0.35811170124E+02  0.51100000000E-03 0. -1.
         22    1    1    0    0    0 -0.21939915517E+02  0.18524309210E+01 -0.20007621524E+02  0.29750568268E+02  0.00000000000E+00 0.  1.
</event>
<event>
 5    1  0.1046082E-009  0.9118800E+02  0.7561462E-02  0.1125453E+00
         25   -1    0    0    0    0  0.00000000000E+00  0.00000000000E+00  0.99999998245E-14  0.12509000000E+03  0.12509000000E+03 0.  0.
        -11    1    3    3    0    0 -0.48426113808E+02  0.33294321190E+02  0.18613272244E+02  0.61644579859E+02  0.51100000000E-03 0. -1.
         23    2    1    0    0    0 -0.23046513194E+02  0.16701495713E+02  0.12186026935E+01  0.96601989856E+02  0.92305892131E+02 0.  0.
         11    1    3    3    0    0  0.25379600614E+02 -0.16592825477E+02 -0.17394669551E+02  0.34957409997E+02  0.51100000000E-03 0.  1.
         22    1    1    0    0    0  0.23046513194E+02 -0.16701495713E+02 -0.12186026935E+01  0.28488010144E+02  0.00000000000E+00 0. -1.
</event>
<event>
 5    1  0.1046082E-009  0.9118800E+02  0.7561462E-02  0.1125453E+00
         25   -1    0    0    0    0  0.00000000000E+00  0.00000000000E+00  0.99999998245E-14  0.12509000000E+03  0.12509000000E+03 0.  0.
        -11    1    3    3    0    0  0.33418538521E+02 -0.22409696004E+02  0.52335063358E+01  0.40575642702E+02  0.51100000000E-03 0.  1.
         23    2    1    0    0    0  0.97284900151E+01  0.26857822655E+02 -0.47070400954E+01  0.96139311197E+02  0.91676740645E+02 0.  0.
         11    1    3    3    0    0 -0.23690048506E+02  0.49267518658E+02 -0.99405464313E+01  0.55563668495E+02  0.51100000000E-03 0. -1.
         22    1    1    0    0    0 -0.97284900151E+01 -0.26857822655E+02  0.47070400954E+01  0.28950688803E+02  0.00000000000E+00 0.  1.
</event>
<event>
 5    1  0.1046082E-009  0.9118800E+02  0.7561462E-02  0.1125453E+00
         25   -1    0    0    0    0  0.00000000000E+00  0.00000000000E+00  0.99999998245E-14  0.12509000000E+03  0.12509000000E+03 0.  0.
        -11    1    3    3    0    0  0.28165668128E+02 -0.32601927887E+02 -0.10882421348E+02  0.44436670192E+02  0.51100000000E-03 0.  1.
         23    2    1    0    0    0 -0.19682205419E+02  0.25517007964E+01 -0.73873270419E+01  0.10391281917E+03  0.10173200578E+03 0.  0.
         11    1    3    3    0    0 -0.47847873548E+02  0.35153628684E+02  0.34950943056E+01  0.59476148977E+02  0.51100000000E-03 0. -1.
         22    1    1    0    0    0  0.19682205419E+02 -0.25517007964E+01  0.73873270419E+01  0.21177180831E+02  0.00000000000E+00 0. -1.
</event>
<event>
 5    1  0.1046082E-009  0.9118800E+02  0.7561462E-02  0.1125453E+00
         25   -1    0    0    0    0  0.00000000000E+00  0.00000000000E+00  0.99999998245E-14  0.12509000000E+03  0.12509000000E+03 0.  0.
        -11    1    3    3    0    0 -0.31265576977E+02  0.20210585053E+02 -0.13039355499E+02  0.39446531457E+02  0.51100000000E-03 0. -1.
         23    2    1    0    0    0  0.23723942605E+02  0.12018619324E+02 -0.13967477830E+02  0.95050640817E+02  0.90179050891E+02 0.  0.
         11    1    3    3    0    0  0.54989519582E+02 -0.81919657285E+01 -0.92812233129E+00  0.55604109360E+02  0.51100000000E-03 0.  1.
         22    1    1    0    0    0 -0.23723942605E+02 -0.12018619324E+02  0.13967477830E+02  0.30039359183E+02  0.00000000000E+00 0.  1.
</event>
<event>
 5    1  0.1046082E-009  0.9118800E+02  0.7561462E-02  0.1125453E+00
         25   -1    0    0    0    0  0.00000000000E+00  0.00000000000E+00  0.99999998245E-14  0.12509000000E+03  0.12509000000E+03 0.  0.
        -11    1    3    3    0    0  0.12667937484E+02 -0.25131910205E+02  0.30624818102E+02  0.41592896445E+02  0.51100000000E-03 0.  1.
         23    2    1    0    0    0  0.21382310920E+02 -0.11358342550E+02 -0.19310261606E+02  0.94120638220E+02  0.88879655546E+02 0.  0.
         11    1    3    3    0    0  0.87143734356E+01  0.13773567655E+02 -0.49935079708E+02  0.52527741775E+02  0.51100000000E-03 0. -1.
         22    1    1    0    0    0 -0.21382310920E+02  0.11358342550E+02  0.19310261606E+02  0.30969361780E+02  0.00000000000E+00 0.  1.
</event>
<event>
 5    1  0.1046082E-009  0.9118800E+02  0.7561462E-02  0.1125453E+00
         25   -1    0    0    0    0  0.00000000000E+00  0.00000000000E+00  0.99999998245E-14  0.12509000000E+03  0.12509000000E+03 0.  0.
        -11    1    3    3    0    0  0.41505238314E+01 -0.15661209043E+02 -0.42926837162E+02  0.45882607443E+02  0.51100000000E-03 0.  1.
         23    2    1    0    0    0  0.21342034854E+02  0.18543377721E+02 -0.18980934979E+02  0.91036876770E+02  0.84428062458E+02 0.  0.
         11    1    3    3    0    0  0.17191511023E+02  0.34204586764E+02  0.23945902183E+02  0.45154269328E+02  0.51100000000E-03 0. -1.
         22    1    1    0    0    0 -0.21342034854E+02 -0.18543377721E+02  0.18980934979E+02  0.34053123230E+02  0.00000000000E+00 0. -1.
</event>
<event>
 5    1  0.1046082E-009  0.9118800E+02  0.7561462E-02  0.1125453E+00
         25   -1    0    0    0    0  0.00000000000E+00  0.00000000000E+00  0.99999998245E-14  0.12509000000E+03  0.12509000000E+03 0.  0.
        -11    1    3    3    0    0  0.57036633370E+02  0.16276833261E+02  0.11555359295E+02  0.60428794262E+02  0.51100000000E-03 0.  1.
         23    2    1    0    0    0  0.24147754792E+02  0.33719501654E+01  0.15835010716E+02  0.96017131655E+02  0.91509878688E+02 0.  0.
         11    1    3    3    0    0 -0.32888878579E+02 -0.12904883096E+02  0.42796514211E+01  0.35588337394E+02  0.51100000000E-03 0. -1.
         22    1    1    0    0    0 -0.24147754792E+02 -0.33719501654E+01 -0.15835010716E+02  0.29072868345E+02  0.00000000000E+00 0.  1.
</event>
<event>
 5    1  0.1046082E-009  0.9118800E+02  0.7561462E-02  0.1125453E+00
         25   -1    0    0    0    0  0.00000000000E+00  0.00000000000E+00  0.99999998245E-14  0.12509000000E+03  0.12509000000E+03 0.  0.
        -11    1    3    3    0    0 -0.14664182733E+02  0.72044805829E+01 -0.32151512049E+02  0.36064699125E+02  0.51100000000E-03 0.  1.
         23    2    1    0    0    0  0.16600396149E+02 -0.24178297039E+02  0.67218452603E+01  0.95001025213E+02  0.90110201353E+02 0.  0.
         11    1    3    3    0    0  0.31264578882E+02 -0.31382777622E+02  0.38873357309E+02  0.58936326088E+02  0.51100000000E-03 0. -1.
         22    1    1    0    0    0 -0.16600396149E+02  0.24178297039E+02 -0.67218452603E+01  0.30088974787E+02  0.00000000000E+00 0. -1.
</event>
<event>
 5    1  0.1046082E-009  0.9118800E+02  0.7561462E-02  0.1125453E+00
         25   -1    0    0    0    0  0.00000000000E+00  0.00000000000E+00  0.99999998245E-14  0.12509000000E+03  0.12509000000E+03 0.  0.
        -11    1    3    3    0    0  0.15521433204E+02 -0.37198560237E+00 -0.45383218976E+02  0.47965506636E+02  0.51100000000E-03 0.  1.
         23    2    1    0    0    0  0.19756990308E+02  0.20366625919E+02 -0.15134498932E+01  0.96674711018E+02  0.92404388978E+02 0.  0.
         11    1    3    3    0    0  0.42355571035E+01  0.20738611522E+02  0.43869769083E+02  0.48709204381E+02  0.51100000000E-03 0. -1.
         22    1    1    0    0    0 -0.19756990308E+02 -0.20366625919E+02  0.15134498932E+01  0.28415288982E+02  0.00000000000E+00 0.  1.
</event>
<event>
 5    1  0.1046082E-009  0.9118800E+02  0.7561462E-02  0.1125453E+00
         25   -1    0    0    0    0  0.00000000000E+00  0.00000000000E+00  0.99999998245E-14  0.12509000000E+03  0.12509000000E+03 0.  0.
        -11    1    3    3    0    0 -0.16364204880E+01  0.13857690819E+02 -0.28589640042E+02  0.31813220284E+02  0.51100000000E-03 0. -1.
         23    2    1    0    0    0 -0.22552695379E+02  0.89702707400E+00  0.25378879855E+02  0.91126545095E+02  0.84560812152E+02 0.  0.
         11    1    3    3    0    0 -0.20916274891E+02 -0.12960663745E+02  0.53968519897E+02  0.59313324811E+02  0.51100000000E-03 0.  1.
         22    1    1    0    0    0  0.22552695379E+02 -0.89702707400E+00 -0.25378879855E+02  0.33963454905E+02  0.00000000000E+00 0.  1.
</event>
<event>
 5    1  0.1046082E-009  0.9118800E+02  0.7561462E-02  0.1125453E+00
         25   -1    0    0    0    0  0.00000000000E+00  0.00000000000E+00  0.99999998245E-14  0.12509000000E+03  0.12509000000E+03 0.  0.
        -11    1    3    3    0    0  0.31523908529E+02 -0.12393873492E+02 -0.35797685663E+01  0.34061410017E+02  0.51100000000E-03 0.  1.
         23    2    1    0    0    0 -0.28867559009E+02  0.17887269486E+01 -0.13139099866E+01  0.96137247684E+02  0.91673925004E+02 0.  0.
         11    1    3    3    0    0 -0.60391467538E+02  0.14182600441E+02  0.22658585797E+01  0.62075837667E+02  0.51100000000E-03 0. -1.
         22    1    1    0    0    0  0.28867559009E+02 -0.17887269486E+01  0.13139099866E+01  0.28952752316E+02  0.00000000000E+00 0. -1.
</event>
<event>
 5    1  0.1046082E-009  0.9118800E+02  0.7561462E-02  0.1125453E+00
         25   -1    0    0    0    0  0.00000000000E+00  0.00000000000E+00  0.99999998245E-14  0.12509000000E+03  0.12509000000E+03 0.  0.
        -11    1    3    3    0    0 -0.30723243156E+01 -0.45387730745E+02 -0.21697652696E+02  0.50401125103E+02  0.51100000000E-03 0.  1.
         23    2    1    0    0    0  0.14202744338E+02 -0.37856265046E+01 -0.25552027890E+02  0.95611956577E+02  0.90954335776E+02 0.  0.
         11    1    3    3    0    0  0.17275068653E+02  0.41602104240E+02 -0.38543751945E+01  0.45210831474E+02  0.51100000000E-03 0. -1.
         22    1    1    0    0    0 -0.14202744338E+02  0.37856265046E+01  0.25552027890E+02  0.29478043423E+02  0.00000000000E+00 0. -1.
</event>
<event>
 5    1  0.1046082E-009  0.9118800E+02  0.7561462E-02  0.1125453E+00
         25   -1    0    0    0    0  0.00000000000E+00  0.00000000000E+00  0.99999998245E-14  0.12509000000E+03  0.12509000000E+03 0.  0.
        -11    1    3    3    0    0  0.29493870807E+02  0.72375911731E+01  0.23380810411E+02  0.38326667438E+02  0.51100000000E-03 0. -1.
         23    2    1    0    0    0  0.11213172273E+01 -0.28974026660E+02 -0.91672310609E+01  0.94679644880E+02  0.89662954759E+02 0.  0.
         11    1    3    3    0    0 -0.28372553580E+02 -0.36211617833E+02 -0.32548041471E+02  0.56352977442E+02  0.51100000000E-03 0.  1.
         22    1    1    0    0    0 -0.11213172273E+01  0.28974026660E+02  0.91672310609E+01  0.30410355120E+02  0.00000000000E+00 0.  1.
</event>
<event>
 5    1  0.1046082E-009  0.9118800E+02  0.7561462E-02  0.1125453E+00
         25   -1    0    0    0    0  0.00000000000E+00  0.00000000000E+00  0.99999998245E-14  0.12509000000E+03  0.12509000000E+03 0.  0.
        -11    1    3    3    0    0  0.24283421390E+02 -0.15883179486E+02 -0.19662978475E+02  0.35051286250E+02  0.51100000000E-03 0.  1.
         23    2    1    0    0    0 -0.30515155904E+02  0.32437510863E+00 -0.39412944786E+01  0.94319661015E+02  0.89159321963E+02 0.  0.
         11    1    3    3    0    0 -0.54798577294E+02  0.16207554595E+02  0.15721683996E+02  0.59268374766E+02  0.51100000000E-03 0. -1.
         22    1    1    0    0    0  0.30515155904E+02 -0.32437510863E+00  0.39412944786E+01  0.30770338985E+02  0.00000000000E+00 0. -1.
</event>
<event>
 5    1  0.1046082E-009  0.9118800E+02  0.7561462E-02  0.1125453E+00
         25   -1    0    0    0    0  0.00000000000E+00  0.00000000000E+00  0.99999998245E-14  0.12509000000E+03  0.12509000000E+03 0.  0.
        -11    1    3    3    0    0 -0.11529833886E+02  0.21635292424E+02  0.32646873457E+02  0.40826967736E+02  0.51100000000E-03 0.  1.
         23    2    1    0    0    0 -0.19352432670E+02  0.63379842700E+01 -0.20206107039E+02  0.96402486052E+02  0.92035133837E+02 0.  0.
         11    1    3    3    0    0 -0.78225987848E+01 -0.15297308154E+02 -0.52852980496E+02  0.55575518316E+02  0.51100000000E-03 0. -1.
         22    1    1    0    0    0  0.19352432670E+02 -0.63379842700E+01  0.20206107039E+02  0.28687513948E+02  0.00000000000E+00 0. -1.
</event>
<event>
 5    1  0.1046082E-009  0.9118800E+02  0.7561462E-02  0.1125453E+00
         25   -1    0    0    0    0  0.00000000000E+00  0.00000000000E+00  0.99999998245E-14  0.12509000000E+03  0.12509000000E+03 0.  0.
        -11    1    3    3    0    0  0.11675810071E+02 -0.33592719009E+02 -0.23663325986E+02  0.42717072795E+02  0.51100000000E-03 0. -1.
         23    2    1    0    0    0 -0.11397530560E+02 -0.18210131545E+02  0.20844247342E+02  0.95156820399E+02  0.90326215616E+02 0.  0.
         11    1    3    3    0    0 -0.23073340631E+02  0.15382587464E+02  0.44507573328E+02  0.52439747604E+02  0.51100000000E-03 0.  1.
         22    1    1    0    0    0  0.11397530560E+02  0.18210131545E+02 -0.20844247342E+02  0.29933179601E+02  0.00000000000E+00 0.  1.
</event>
<event>
 5    1  0.1046082E-009  0.9118800E+02  0.7561462E-02  0.1125453E+00
         25   -1    0    0    0    0  0.00000000000E+00  0.00000000000E+00  0.99999998245E-14  0.12509000000E+03  0.12509000000E+03 0.  0.
        -11    1    3    3    0    0 -0.39236913288E+02  0.38526282141E+02  0.62876275420E+01  0.55347484499E+02  0.51100000000E-03 0. -1.
         23    2    1    0    0    0 -0.37317545948E+01  0.23148439291E+02  0.17727388601E+02  0.95695501526E+02  0.91069163122E+02 0.  0.
         11    1    3    3    0    0  0.35505158694E+02 -0.15377842850E+02  0.11439761059E+02  0.40348017026E+02  0.51100000000E-03 0.  1.
         22    1    1    0    0    0  0.37317545948E+01 -0.23148439291E+02 -0.17727388601E+02  0.29394498474E+02  0.00000000000E+00 0. -1.
</event>
<event>
 5    1  0.1046082E-009  0.9118800E+02  0.7561462E-02  0.1125453E+00
         25   -1    0    0    0    0  0.00000000000E+00  0.00000000000E+00  0.99999998245E-14  0.12509000000E+03  0.12509000000E+03 0.  0.
        -11    1    3    3    0    0  0.16667684202E+02 -0.32300003410E+02 -0.18976539026E+02  0.41002572488E+02  0.51100000000E-03 0. -1.
         23    2    1    0    0    0 -0.28381353774E+02 -0.53724381259E+01 -0.21182999935E+01  0.96127066303E+02  0.91660031353E+02 0.  0.
         11    1    3    3    0    0 -0.45049037977E+02  0.26927565284E+02  0.16858239033E+02  0.55124493815E+02  0.51100000000E-03 0.  1.
         22    1    1    0    0    0  0.28381353774E+02  0.53724381259E+01  0.21182999935E+01  0.28962933697E+02  0.00000000000E+00 0. -1.
</event>
<event>
 5    1  0.1046082E-009  0.9118800E+02  0.7561462E-02  0.1125453E+00
         25   -1    0    0    0    0  0.00000000000E+00  0.00000000000E+00  0.99999998245E-14  0.12509000000E+03  0.12509000000E+03 0.  0.
        -11    1    3    3    0    0  0.40726501171E+01  0.11911162650E+02 -0.31651930703E+02  0.34063279233E+02  0.51100000000E-03 0. -1.
         23    2    1    0    0    0  0.23883886080E+00  0.12020487255E+02  0.28406451316E+02  0.94244001326E+02  0.89053108602E+02 0.  0.
         11    1    3    3    0    0 -0.38338112563E+01  0.10932460466E+00  0.60058382019E+02  0.60180722093E+02  0.51100000000E-03 0.  1.
         22    1    1    0    0    0 -0.23883886080E+00 -0.12020487255E+02 -0.28406451316E+02  0.30845998674E+02  0.00000000000E+00 0.  1.
</event>
<event>
 5    1  0.1046082E-009  0.9118800E+02  0.7561462E-02  0.1125453E+00
         25   -1    0    0    0    0  0.00000000000E+00  0.00000000000E+00  0.99999998245E-14  0.12509000000E+03  0.12509000000E+03 0.  0.
        -11    1    3    3    0    0  0.27734847180E+02 -0.32339655673E+01 -0.44267193685E+02  0.52337985425E+02  0.51100000000E-03 0. -1.
         23    2    1    0    0    0  0.29285422620E+02  0.52956557392E+01 -0.22450742456E+01  0.95245062304E+02  0.90448336564E+02 0.  0.
         11    1    3    3    0    0  0.15505754397E+01  0.85296213065E+01  0.42022119439E+02  0.42907076878E+02  0.51100000000E-03 0.  1.
         22    1    1    0    0    0 -0.29285422620E+02 -0.52956557392E+01  0.22450742456E+01  0.29844937696E+02  0.00000000000E+00 0. -1.
</event>
<event>
 5    1  0.1046082E-009  0.9118800E+02  0.7561462E-02  0.1125453E+00
         25   -1    0    0    0    0  0.00000000000E+00  0.00000000000E+00  0.99999998245E-14  0.12509000000E+03  0.12509000000E+03 0.  0.
        -11    1    3    3    0    0 -0.39733852456E+02 -0.27335279251E+02 -0.26781887153E+02  0.55165804648E+02  0.51100000000E-03 0.  1.
         23    2    1    0    0    0 -0.26388792301E+02 -0.13092554574E+02  0.75695215564E+01  0.94674855730E+02  0.89656273102E+02 0.  0.
         11    1    3    3    0    0  0.13345060156E+02  0.14242724677E+02  0.34351408709E+02  0.39509051081E+02  0.51100000000E-03 0. -1.
         22    1    1    0    0    0  0.26388792301E+02  0.13092554574E+02 -0.75695215564E+01  0.30415144270E+02  0.00000000000E+00 0. -1.
</event>
<event>
 5    1  0.1046082E-009  0.9118800E+02  0.7561462E-02  0.1125453E+00
         25   -1    0    0    0    0  0.00000000000E+00  0.00000000000E+00  0.99999998245E-14  0.12509000000E+03  0.12509000000E+03 0.  0.
        -11    1    3    3    0    0  0.28770555384E+02  0.54721010065E+02 -0.61253235091E+01  0.62126108746E+02  0.51100000000E-03 0. -1.
         23    2    1    0    0    0  0.18150684316E+02  0.24776521872E+02 -0.62855884786E+00  0.94369998967E+02  0.89229917862E+02 0.  0.
         11    1    3    3    0    0 -0.10619871068E+02 -0.29944488192E+02  0.54967646613E+01  0.32243890221E+02  0.51100000000E-03 0.  1.
         22    1    1    0    0    0 -0.18150684316E+02 -0.24776521872E+02  0.62855884786E+00  0.30720001033E+02  0.00000000000E+00 0. -1.
</event>
<event>
 5    1  0.1046082E-009  0.9118800E+02  0.7561462E-02  0.1125453E+00
         25   -1    0    0    0    0  0.00000000000E+00  0.00000000000E+00  0.99999998245E-14  0.12509000000E+03  0.12509000000E+03 0.  0.
        -11    1    3    3    0    0 -0.35733524093E+02  0.26932161717E+02  0.37284647893E+02  0.58244064484E+02  0.51100000000E-03 0.  1.
         23    2    1    0    0    0 -0.20343915673E+02 -0.33754417902E+01  0.19938489022E+02  0.96405302744E+02  0.92038962079E+02 0.  0.
         11    1    3    3    0    0  0.15389608420E+02 -0.30307603508E+02 -0.17346158872E+02  0.38161238260E+02  0.51100000000E-03 0. -1.
         22    1    1    0    0    0  0.20343915673E+02  0.33754417902E+01 -0.19938489022E+02  0.28684697256E+02  0.00000000000E+00 0.  1.
</event>
<event>
 5    1  0.1046082E-009  0.9118800E+02  0.7561462E-02  0.1125453E+00
         25   -1    0    0    0    0  0.00000000000E+00  0.00000000000E+00  0.99999998245E-14  0.12509000000E+03  0.12509000000E+03 0.  0.
        -11    1    3    3    0    0 -0.23852837002E+02 -0.55433807009E+02 -0.10236561544E+02  0.61209901038E+02  0.51100000000E-03 0. -1.
         23    2    1    0    0    0 -0.14987687301E+02 -0.23133658582E+02  0.32843472337E+01  0.97330607594E+02  0.93288066267E+02 0.  0.
         11    1    3    3    0    0  0.88651497014E+01  0.32300148428E+02  0.13520908778E+02  0.36120706556E+02  0.51100000000E-03 0.  1.
         22    1    1    0    0    0  0.14987687301E+02  0.23133658582E+02 -0.32843472337E+01  0.27759392406E+02  0.00000000000E+00 0. -1.
</event>
<event>
 5    1  0.1046082E-009  0.9118800E+02  0.7561462E-02  0.1125453E+00
         25   -1    0    0    0    0  0.00000000000E+00  0.00000000000E+00  0.99999998245E-14  0.12509000000E+03  0.12509000000E+03 0.  0.
        -11    1    3    3    0    0  0.21585735430E+02  0.70092011558E+01  0.30614724894E+02  0.38109503480E+02  0.51100000000E-03 0.  1.
         23    2    1    0    0    0 -0.27077240753E+02 -0.28078049399E+00 -0.32125200643E+01  0.97821408367E+02  0.93943876039E+02 0.  0.
         11    1    3    3    0    0 -0.48662976183E+02 -0.72899816498E+01 -0.33827244959E+02  0.59711904887E+02  0.51100000000E-03 0. -1.
         22    1    1    0    0    0  0.27077240753E+02  0.28078049399E+00  0.32125200643E+01  0.27268591633E+02  0.00000000000E+00 0. -1.
</event>
<event>
 5    1  0.1046082E-009  0.9118800E+02  0.7561462E-02  0.1125453E+00
         25   -1    0    0    0    0  0.00000000000E+00  0.00000000000E+00  0.99999998245E-14  0.12509000000E+03  0.12509000000E+03 0.  0.
        -11    1    3    3    0    0  0.31311752638E+02 -0.23937754810E+02  0.48430672018E+01  0.39710165686E+02  0.51100000000E-03 0.  1.
         23    2    1    0    0    0 -0.18918358999E+01  0.13460120431E+02  0.27347303600E+02  0.94551026551E+02  0.89483337682E+02 0.  0.
         11    1    3    3    0    0 -0.33203588538E+02  0.37397875241E+02  0.22504236399E+02  0.54840860865E+02  0.51100000000E-03 0. -1.
         22    1    1    0    0    0  0.18918358999E+01 -0.13460120431E+02 -0.27347303600E+02  0.30538973449E+02  0.00000000000E+00 0. -1.
</event>
<event>
 5    1  0.1046082E-009  0.9118800E+02  0.7561462E-02  0.1125453E+00
         25   -1    0    0    0    0  0.00000000000E+00  0.00000000000E+00  0.99999998245E-14  0.12509000000E+03  0.12509000000E+03 0.  0.
        -11    1    3    3    0    0  0.38376680108E+02 -0.40169011111E+02  0.25046392086E+02  0.60939648724E+02  0.51100000000E-03 0.  1.
         23    2    1    0    0    0  0.22765452613E+02 -0.10751507907E+02  0.15254982453E+02  0.95652349879E+02  0.91009871953E+02 0.  0.
         11    1    3    3    0    0 -0.15611227495E+02  0.29417503204E+02 -0.97914096333E+01  0.34712701156E+02  0.51100000000E-03 0. -1.
         22    1    1    0    0    0 -0.22765452613E+02  0.10751507907E+02 -0.15254982453E+02  0.29437650121E+02  0.00000000000E+00 0.  1.
</event>
<event>
 5    1  0.1046082E-009  0.9118800E+02  0.7561462E-02  0.1125453E+00
         25   -1    0    0    0    0  0.00000000000E+00  0.00000000000E+00  0.99999998245E-14  0.12509000000E+03  0.12509000000E+03 0.  0.
        -11    1    3    3    0    0 -0.20221313533E+02  0.23837292400E+02  0.13091333229E+02  0.33889541690E+02  0.51100000000E-03 0. -1.
         23    2    1    0    0    0  0.26050548375E+01 -0.34244655389E+01 -0.32836752932E+02  0.91972548134E+02  0.85803170059E+02 0.  0.
         11    1    3    3    0    0  0.22826368371E+02 -0.27261757938E+02 -0.45928086162E+02  0.58083006445E+02  0.51100000000E-03 0.  1.
         22    1    1    0    0    0 -0.26050548375E+01  0.34244655389E+01  0.32836752932E+02  0.33117451866E+02  0.00000000000E+00 0.  1.
</event>
<event>
 5    1  0.1046082E-009  0.9118800E+02  0.7561462E-02  0.1125453E+00
         25   -1    0    0    0    0  0.00000000000E+00  0.00000000000E+00  0.99999998245E-14  0.12509000000E+03  0.12509000000E+03 0.  0.
        -11    1    3    3    0    0 -0.27333319808E+02 -0.24908585535E+02  0.32715086147E+02  0.49374334091E+02  0.51100000000E-03 0. -1.
         23    2    1    0    0    0  0.15658078629E+02 -0.18975075640E+02  0.15182093477E+02  0.96181093341E+02  0.91733733337E+02 0.  0.
         11    1    3    3    0    0  0.42991398437E+02  0.59335098946E+01 -0.17532992669E+02  0.46806759250E+02  0.51100000000E-03 0.  1.
         22    1    1    0    0    0 -0.15658078629E+02  0.18975075640E+02 -0.15182093477E+02  0.28908906659E+02  0.00000000000E+00 0. -1.
</event>
<event>
 5    1  0.1046082E-009  0.9118800E+02  0.7561462E-02  0.1125453E+00
         25   -1    0    0    0    0  0.00000000000E+00  0.00000000000E+00  0.99999998245E-14  0.12509000000E+03  0.12509000000E+03 0.  0.
        -11    1    3    3    0    0 -0.26526813366E+02  0.66902426373E+01 -0.40737040874E+02  0.49070741520E+02  0.51100000000E-03 0.  1.
         23    2    1    0    0    0  0.15084846357E+02  0.14412224685E+02 -0.19955701118E+02  0.96219689695E+02  0.91786349029E+02 0.  0.
         11    1    3    3    0    0  0.41611659723E+02  0.77219820479E+01  0.20781339757E+02  0.47148948175E+02  0.51100000000E-03 0. -1.
         22    1    1    0    0    0 -0.15084846357E+02 -0.14412224685E+02  0.19955701118E+02  0.28870310305E+02  0.00000000000E+00 0.  1.
</event>
<event>
 5    1  0.1046082E-009  0.9118800E+02  0.7561462E-02  0.1125453E+00
         25   -1    0    0    0    0  0.00000000000E+00  0.00000000000E+00  0.99999998245E-14  0.12509000000E+03  0.12509000000E+03 0.  0.
        -11    1    3    3    0    0 -0.53227072962E+00 -0.25561897257E+02 -0.27461521212E+02  0.37521048107E+02  0.51100000000E-03 0.  1.
         23    2    1    0    0    0 -0.17403058296E+02  0.24311530281E+02 -0.49363617980E+01  0.94786788776E+02  0.89812308266E+02 0.  0.
         11    1    3    3    0    0 -0.16870787566E+02  0.49873427538E+02  0.22525159414E+02  0.57265740669E+02  0.51100000000E-03 0. -1.
         22    1    1    0    0    0  0.17403058296E+02 -0.24311530281E+02  0.49363617980E+01  0.30303211224E+02  0.00000000000E+00 0.  1.
</event>
<event>
 5    1  0.1046082E-009  0.9118800E+02  0.7561462E-02  0.1125453E+00
         25   -1    0    0    0    0  0.00000000000E+00  0.00000000000E+00  0.99999998245E-14  0.12509000000E+03  0.12509000000E+03 0.  0.
        -11    1    3    3    0    0 -0.41975302255E+02  0.43740110319E+02 -0.85259070431E+00  0.60628789871E+02  0.51100000000E-03 0. -1.
         23    2    1    0    0    0 -0.11532226884E+02  0.25533859159E+02  0.51454025178E+01  0.96604119506E+02  0.92308778120E+02 0.  0.
         11    1    3    3    0    0  0.30443075371E+02 -0.18206251160E+02  0.59979932221E+01  0.35975329635E+02  0.51100000000E-03 0.  1.
         22    1    1    0    0    0  0.11532226884E+02 -0.25533859159E+02 -0.51454025178E+01  0.28485880494E+02  0.00000000000E+00 0. -1.
</event>
<event>
 5    1  0.1046082E-009  0.9118800E+02  0.7561462E-02  0.1125453E+00
         25   -1    0    0    0    0  0.00000000000E+00  0.00000000000E+00  0.99999998245E-14  0.12509000000E+03  0.12509000000E+03 0.  0.
        -11    1    3    3    0    0 -0.15569659989E+02 -0.32311715102E+02 -0.26765873667E+02  0.44753471803E+02  0.51100000000E-03 0.  1.
         23    2    1    0    0    0  0.19934096746E+02  0.63714851270E+01 -0.16927216942E+02  0.98173560614E+02  0.94411616311E+02 0.  0.
         11    1    3    3    0    0  0.35503756735E+02  0.38683200229E+02  0.98386567253E+01  0.53420088812E+02  0.51100000000E-03 0. -1.
         22    1    1    0    0    0 -0.19934096746E+02 -0.63714851270E+01  0.16927216942E+02  0.26916439386E+02  0.00000000000E+00 0. -1.
</event>
<event>
 5    1  0.1046082E-009  0.9118800E+02  0.7561462E-02  0.1125453E+00
         25   -1    0    0    0    0  0.00000000000E+00  0.00000000000E+00  0.99999998245E-14  0.12509000000E+03  0.12509000000E+03 0.  0.
        -11    1    3    3    0    0 -0.28408983872E+02 -0.16438884366E+02 -0.18603488701E+02  0.37727934955E+02  0.51100000000E-03 0.  1.
         23    2    1    0    0    0  0.68257340950E+01  0.24342865345E+02  0.89668486890E+01  0.98265195908E+02  0.94532949876E+02 0.  0.
         11    1    3    3    0    0  0.35234717967E+02  0.40781749711E+02  0.27570337390E+02  0.60537260954E+02  0.51100000000E-03 0. -1.
         22    1    1    0    0    0 -0.68257340950E+01 -0.24342865345E+02 -0.89668486890E+01  0.26824804092E+02  0.00000000000E+00 0. -1.
</event>
<event>
 5    1  0.1046082E-009  0.9118800E+02  0.7561462E-02  0.1125453E+00
         25   -1    0    0    0    0  0.00000000000E+00  0.00000000000E+00  0.99999998245E-14  0.12509000000E+03  0.12509000000E+03 0.  0.
        -11    1    3    3    0    0  0.33218878850E+02 -0.47565828755E+01  0.30729374205E+02  0.45501795920E+02  0.51100000000E-03 0.  1.
         23    2    1    0    0    0  0.10719452419E+02 -0.26075028737E+02 -0.86355251367E+01  0.95604646379E+02  0.90944281464E+02 0.  0.
         11    1    3    3    0    0 -0.22499426431E+02 -0.21318445861E+02 -0.39364899341E+02  0.50102850459E+02  0.51100000000E-03 0. -1.
         22    1    1    0    0    0 -0.10719452419E+02  0.26075028737E+02  0.86355251367E+01  0.29485353621E+02  0.00000000000E+00 0. -1.
</event>
<event>
 5    1  0.1046082E-009  0.9118800E+02  0.7561462E-02  0.1125453E+00
         25   -1    0    0    0    0  0.00000000000E+00  0.00000000000E+00  0.99999998245E-14  0.12509000000E+03  0.12509000000E+03 0.  0.
        -11    1    3    3    0    0 -0.20793824356E+02 -0.37079385651E+02  0.22468337373E+02  0.48084198612E+02  0.51100000000E-03 0.  1.
         23    2    1    0    0    0  0.14505479575E+02 -0.20908360186E+02 -0.90371476391E+01  0.98085583680E+02  0.94294979850E+02 0.  0.
         11    1    3    3    0    0  0.35299303931E+02  0.16171025465E+02 -0.31505485012E+02  0.50001385068E+02  0.51100000000E-03 0. -1.
         22    1    1    0    0    0 -0.14505479575E+02  0.20908360186E+02  0.90371476391E+01  0.27004416320E+02  0.00000000000E+00 0.  1.
</event>
<event>
 5    1  0.1046082E-009  0.9118800E+02  0.7561462E-02  0.1125453E+00
         25   -1    0    0    0    0  0.00000000000E+00  0.00000000000E+00  0.99999998245E-14  0.12509000000E+03  0.12509000000E+03 0.  0.
        -11    1    3    3    0    0  0.37697536500E+02  0.11751629189E+02 -0.12710416342E+02  0.41482041061E+02  0.51100000000E-03 0.  1.
         23    2    1    0    0    0 -0.14714038676E+02  0.24589050292E+02 -0.52862733785E+01  0.95951211167E+02  0.91419723855E+02 0.  0.
         11    1    3    3    0    0 -0.52411575176E+02  0.12837421103E+02  0.74241429634E+01  0.54469170106E+02  0.51100000000E-03 0. -1.
         22    1    1    0    0    0  0.14714038676E+02 -0.24589050292E+02  0.52862733785E+01  0.29138788833E+02  0.00000000000E+00 0. -1.
</event>
<event>
 5    1  0.1046082E-009  0.9118800E+02  0.7561462E-02  0.1125453E+00
         25   -1    0    0    0    0  0.00000000000E+00  0.00000000000E+00  0.99999998245E-14  0.12509000000E+03  0.12509000000E+03 0.  0.
        -11    1    3    3    0    0 -0.15774022893E+01  0.34170907681E+02  0.31165078367E+01  0.34348970160E+02  0.51100000000E-03 0.  1.
         23    2    1    0    0    0 -0.84082808334E+01 -0.26928548810E+02  0.72331008705E+01  0.95966750254E+02  0.91440983582E+02 0.  0.
         11    1    3    3    0    0 -0.68308785441E+01 -0.61099456491E+02  0.41165930338E+01  0.61617780093E+02  0.51100000000E-03 0. -1.
         22    1    1    0    0    0  0.84082808334E+01  0.26928548810E+02 -0.72331008705E+01  0.29123249746E+02  0.00000000000E+00 0. -1.
</event>
<event>
 5    1  0.1046082E-009  0.9118800E+02  0.7561462E-02  0.1125453E+00
         25   -1    0    0    0    0  0.00000000000E+00  0.00000000000E+00  0.99999998245E-14  0.12509000000E+03  0.12509000000E+03 0.  0.
        -11    1    3    3    0    0  0.31444214078E+02 -0.14253832668E+02 -0.30123358647E+02  0.45818414214E+02  0.51100000000E-03 0. -1.
         23    2    1    0    0    0  0.15733117983E+02  0.23580316136E+02  0.12570589928E+00  0.96742546631E+02  0.92496174062E+02 0.  0.
         11    1    3    3    0    0 -0.15711096095E+02  0.37834148804E+02  0.30249064546E+02  0.50924132417E+02  0.51100000000E-03 0.  1.
         22    1    1    0    0    0 -0.15733117983E+02 -0.23580316136E+02 -0.12570589928E+00  0.28347453369E+02  0.00000000000E+00 0.  1.
</event>
<event>
 5    1  0.1046082E-009  0.9118800E+02  0.7561462E-02  0.1125453E+00
         25   -1    0    0    0    0  0.00000000000E+00  0.00000000000E+00  0.99999998245E-14  0.12509000000E+03  0.12509000000E+03 0.  0.
        -11    1    3    3    0    0 -0.49474020626E+01 -0.25998239521E+02 -0.36583858346E+02  0.45152673642E+02  0.51100000000E-03 0.  1.
         23    2    1    0    0    0 -0.29270109995E+02 -0.29782792407E+01  0.12034040942E+01  0.95644157037E+02  0.90998610471E+02 0.  0.
         11    1    3    3    0    0 -0.24322707933E+02  0.23019960280E+02  0.37787262440E+02  0.50491483395E+02  0.51100000000E-03 0. -1.
         22    1    1    0    0    0  0.29270109995E+02  0.29782792407E+01 -0.12034040942E+01  0.29445842963E+02  0.00000000000E+00 0. -1.
</event>
<event>
 5    1  0.1046082E-009  0.9118800E+02  0.7561462E-02  0.1125453E+00
         25   -1    0    0    0    0  0.00000000000E+00  0.00000000000E+00  0.99999998245E-14  0.12509000000E+03  0.12509000000E+03 0.  0.
        -11    1    3    3    0    0  0.37536271770E+02 -0.15212099970E+02  0.11147190619E+02  0.42007612916E+02  0.51100000000E-03 0.  1.
         23    2    1    0    0    0 -0.12949327696E+02 -0.23247947145E+02 -0.90618160833E+01  0.96978282781E+02  0.92814431455E+02 0.  0.
         11    1    3    3    0    0 -0.50485599467E+02 -0.80358471748E+01 -0.20209006702E+02  0.54970669866E+02  0.51100000000E-03 0. -1.
         22    1    1    0    0    0  0.12949327696E+02  0.23247947145E+02  0.90618160833E+01  0.28111717219E+02  0.00000000000E+00 0. -1.
</event>
<event>
 5    1  0.1046082E-009  0.9118800E+02  0.7561462E-02  0.1125453E+00
         25   -1    0    0    0    0  0.00000000000E+00  0.00000000000E+00  0.99999998245E-14  0.12509000000E+03  0.12509000000E+03 0.  0.
        -11    1    3    3    0    0 -0.65938508386E+01 -0.21547765242E+01 -0.34925237025E+02  0.35607500786E+02  0.51100000000E-03 0.  1.
         23    2    1    0    0    0  0.25667732302E+02 -0.33482779259E+01  0.15082947915E+02  0.95131048677E+02  0.90290518096E+02 0.  0.
         11    1    3    3    0    0  0.32261583140E+02 -0.11935014017E+01  0.50008184939E+02  0.59523547891E+02  0.51100000000E-03 0. -1.
         22    1    1    0    0    0 -0.25667732302E+02  0.33482779259E+01 -0.15082947915E+02  0.29958951323E+02  0.00000000000E+00 0. -1.
</event>
<event>
 5    1  0.1046082E-009  0.9118800E+02  0.7561462E-02  0.1125453E+00
         25   -1    0    0    0    0  0.00000000000E+00  0.00000000000E+00  0.99999998245E-14  0.12509000000E+03  0.12509000000E+03 0.  0.
        -11    1    3    3    0    0 -0.51154987677E+02  0.21044363485E+02  0.14947940039E+01  0.55334730577E+02  0.51100000000E-03 0.  1.
         23    2    1    0    0    0 -0.20084971536E+02  0.11026413380E+01  0.20079838905E+02  0.96667793365E+02  0.92395023915E+02 0.  0.
         11    1    3    3    0    0  0.31070016141E+02 -0.19941722147E+02  0.18585044901E+02  0.41333062788E+02  0.51100000000E-03 0. -1.
         22    1    1    0    0    0  0.20084971536E+02 -0.11026413380E+01 -0.20079838905E+02  0.28422206635E+02  0.00000000000E+00 0.  1.
</event>
<event>
 5    1  0.1046082E-009  0.9118800E+02  0.7561462E-02  0.1125453E+00
         25   -1    0    0    0    0  0.00000000000E+00  0.00000000000E+00  0.99999998245E-14  0.12509000000E+03  0.12509000000E+03 0.  0.
        -11    1    3    3    0    0 -0.78624134592E+01  0.34287444563E+02  0.72214543952E+00  0.35184767931E+02  0.51100000000E-03 0. -1.
         23    2    1    0    0    0  0.80204206165E+00 -0.27491183084E+02 -0.56518703425E+00  0.97581313096E+02  0.93623633823E+02 0.  0.
         11    1    3    3    0    0  0.86644555208E+01 -0.61778627647E+02 -0.12873324738E+01  0.62396545165E+02  0.51100000000E-03 0.  1.
         22    1    1    0    0    0 -0.80204206165E+00  0.27491183084E+02  0.56518703425E+00  0.27508686904E+02  0.00000000000E+00 0.  1.
</event>
<event>
 5    1  0.1046082E-009  0.9118800E+02  0.7561462E-02  0.1125453E+00
         25   -1    0    0    0    0  0.00000000000E+00  0.00000000000E+00  0.99999998245E-14  0.12509000000E+03  0.12509000000E+03 0.  0.
        -11    1    3    3    0    0  0.47440032585E+01 -0.16704965242E+02 -0.58368889679E+02  0.60897362121E+02  0.51100000000E-03 0.  1.
         23    2    1    0    0    0  0.10415917083E+02 -0.16314002865E+01 -0.25364541157E+02  0.97621604640E+02  0.93677451656E+02 0.  0.
         11    1    3    3    0    0  0.56719138241E+01  0.15073564956E+02  0.33004348523E+02  0.36724242519E+02  0.51100000000E-03 0. -1.
         22    1    1    0    0    0 -0.10415917083E+02  0.16314002865E+01  0.25364541157E+02  0.27468395360E+02  0.00000000000E+00 0.  1.
</event>
<event>
 5    1  0.1046082E-009  0.9118800E+02  0.7561462E-02  0.1125453E+00
         25   -1    0    0    0    0  0.00000000000E+00  0.00000000000E+00  0.99999998245E-14  0.12509000000E+03  0.12509000000E+03 0.  0.
        -11    1    3    3    0    0 -0.90309326398E+01 -0.34955059446E+02 -0.49370963338E+02  0.61162945861E+02  0.51100000000E-03 0. -1.
         23    2    1    0    0    0 -0.12848785713E+02 -0.17978725649E+02 -0.20085381307E+02  0.95227843137E+02  0.90424519330E+02 0.  0.
         11    1    3    3    0    0 -0.38178530734E+01  0.16976333797E+02  0.29285582031E+02  0.34064897276E+02  0.51100000000E-03 0.  1.
         22    1    1    0    0    0  0.12848785713E+02  0.17978725649E+02  0.20085381307E+02  0.29862156863E+02  0.00000000000E+00 0. -1.
</event>
<event>
 5    1  0.1046082E-009  0.9118800E+02  0.7561462E-02  0.1125453E+00
         25   -1    0    0    0    0  0.00000000000E+00  0.00000000000E+00  0.99999998245E-14  0.12509000000E+03  0.12509000000E+03 0.  0.
        -11    1    3    3    0    0 -0.96869573623E+01  0.19000502788E+02  0.26971115840E+02  0.34384550877E+02  0.51100000000E-03 0. -1.
         23    2    1    0    0    0  0.10392269590E+02  0.10299420856E+00 -0.27639357465E+02  0.95561302837E+02  0.90884644708E+02 0.  0.
         11    1    3    3    0    0  0.20079226953E+02 -0.18897508579E+02 -0.54610473305E+02  0.61176751960E+02  0.51100000000E-03 0.  1.
         22    1    1    0    0    0 -0.10392269590E+02 -0.10299420856E+00  0.27639357465E+02  0.29528697163E+02  0.00000000000E+00 0.  1.
</event>
<event>
 5    1  0.1046082E-009  0.9118800E+02  0.7561462E-02  0.1125453E+00
         25   -1    0    0    0    0  0.00000000000E+00  0.00000000000E+00  0.99999998245E-14  0.12509000000E+03  0.12509000000E+03 0.  0.
        -11    1    3    3    0    0  0.18147301643E+02  0.37493568754E+02  0.35952931390E+02  0.55024590236E+02  0.51100000000E-03 0.  1.
         23    2    1    0    0    0  0.26214499636E+02  0.54407147444E+01  0.19654411490E+02  0.91877091981E+02  0.85663894213E+02 0.  0.
         11    1    3    3    0    0  0.80671979928E+01 -0.32052854010E+02 -0.16298519901E+02  0.36852501745E+02  0.51100000000E-03 0. -1.
         22    1    1    0    0    0 -0.26214499636E+02 -0.54407147444E+01 -0.19654411490E+02  0.33212908019E+02  0.00000000000E+00 0.  1.
</event>
<event>
 5    1  0.1046082E-009  0.9118800E+02  0.7561462E-02  0.1125453E+00
         25   -1    0    0    0    0  0.00000000000E+00  0.00000000000E+00  0.99999998245E-14  0.12509000000E+03  0.12509000000E+03 0.  0.
        -11    1    3    3    0    0  0.41007601337E+02 -0.37232819828E+02 -0.21934821931E+02  0.59573842022E+02  0.51100000000E-03 0.  1.
         23    2    1    0    0    0  0.11469882632E+01 -0.16851370607E+02 -0.74677981292E+01  0.10662239912E+03  0.10501087425E+03 0.  0.
         11    1    3    3    0    0 -0.39860613074E+02  0.20381449222E+02  0.14467023801E+02  0.47048557098E+02  0.51100000000E-03 0. -1.
         22    1    1    0    0    0 -0.11469882632E+01  0.16851370607E+02  0.74677981292E+01  0.18467600881E+02  0.00000000000E+00 0.  1.
</event>
<event>
 5    1  0.1046082E-009  0.9118800E+02  0.7561462E-02  0.1125453E+00
         25   -1    0    0    0    0  0.00000000000E+00  0.00000000000E+00  0.99999998245E-14  0.12509000000E+03  0.12509000000E+03 0.  0.
        -11    1    3    3    0    0 -0.38859492869E+02 -0.39114620553E+02  0.14763310490E+02  0.57078621777E+02  0.51100000000E-03 0.  1.
         23    2    1    0    0    0 -0.90143409887E+01 -0.27474583256E+02 -0.64024262862E+01  0.95474089902E+02  0.90764528930E+02 0.  0.
         11    1    3    3    0    0  0.29845151880E+02  0.11640037297E+02 -0.21165736776E+02  0.38395468126E+02  0.51100000000E-03 0. -1.
         22    1    1    0    0    0  0.90143409887E+01  0.27474583256E+02  0.64024262862E+01  0.29615910098E+02  0.00000000000E+00 0.  1.
</event>
<event>
 5    1  0.1046082E-009  0.9118800E+02  0.7561462E-02  0.1125453E+00
         25   -1    0    0    0    0  0.00000000000E+00  0.00000000000E+00  0.99999998245E-14  0.12509000000E+03  0.12509000000E+03 0.  0.
        -11    1    3    3    0    0 -0.42207055020E+01  0.37701997019E+02  0.15223990572E+02  0.40878170499E+02  0.51100000000E-03 0.  1.
         23    2    1    0    0    0  0.18984130110E+02  0.28166896756E+01 -0.21270058169E+02  0.96441329677E+02  0.92087913206E+02 0.  0.
         11    1    3    3    0    0  0.23204835612E+02 -0.34885307343E+02 -0.36494048741E+02  0.55563159179E+02  0.51100000000E-03 0. -1.
         22    1    1    0    0    0 -0.18984130110E+02 -0.28166896756E+01  0.21270058169E+02  0.28648670323E+02  0.00000000000E+00 0. -1.
</event>
<event>
 5    1  0.1046082E-009  0.9118800E+02  0.7561462E-02  0.1125453E+00
         25   -1    0    0    0    0  0.00000000000E+00  0.00000000000E+00  0.99999998245E-14  0.12509000000E+03  0.12509000000E+03 0.  0.
        -11    1    3    3    0    0  0.52828507884E+01 -0.31077175190E+02 -0.15519410053E+01  0.31561176331E+02  0.51100000000E-03 0.  1.
         23    2    1    0    0    0 -0.16061811200E+02  0.18171219632E+02  0.23966625080E+02  0.90993458832E+02  0.84363709203E+02 0.  0.
         11    1    3    3    0    0 -0.21344661988E+02  0.49248394822E+02  0.25518566085E+02  0.59432282501E+02  0.51100000000E-03 0. -1.
         22    1    1    0    0    0  0.16061811200E+02 -0.18171219632E+02 -0.23966625080E+02  0.34096541168E+02  0.00000000000E+00 0. -1.
</event>
<event>
 5    1  0.1046082E-009  0.9118800E+02  0.7561462E-02  0.1125453E+00
         25   -1    0    0    0    0  0.00000000000E+00  0.00000000000E+00  0.99999998245E-14  0.12509000000E+03  0.12509000000E+03 0.  0.
        -11    1    3    3    0    0  0.79542353019E+01 -0.29627670290E+02 -0.31261758418E+02  0.43799158048E+02  0.51100000000E-03 0.  1.
         23    2    1    0    0    0  0.16233025988E+02 -0.14291343679E+02  0.18565737457E+02  0.96586662578E+02  0.92285118756E+02 0.  0.
         11    1    3    3    0    0  0.82787906859E+01  0.15336326611E+02  0.49827495875E+02  0.52787504530E+02  0.51100000000E-03 0. -1.
         22    1    1    0    0    0 -0.16233025988E+02  0.14291343679E+02 -0.18565737457E+02  0.28503337422E+02  0.00000000000E+00 0.  1.
</event>
<event>
 5    1  0.1046082E-009  0.9118800E+02  0.7561462E-02  0.1125453E+00
         25   -1    0    0    0    0  0.00000000000E+00  0.00000000000E+00  0.99999998245E-14  0.12509000000E+03  0.12509000000E+03 0.  0.
        -11    1    3    3    0    0 -0.37699565379E+02 -0.15548169966E+02 -0.37729919262E+01  0.40954099763E+02  0.51100000000E-03 0.  1.
         23    2    1    0    0    0 -0.53822899834E+01  0.28724255063E+02 -0.20486684145E+01  0.95794114339E+02  0.91204514282E+02 0.  0.
         11    1    3    3    0    0  0.32317275395E+02  0.44272425029E+02  0.17243235117E+01  0.54840014576E+02  0.51100000000E-03 0. -1.
         22    1    1    0    0    0  0.53822899834E+01 -0.28724255063E+02  0.20486684145E+01  0.29295885661E+02  0.00000000000E+00 0.  1.
</event>
<event>
 5    1  0.1046082E-009  0.9118800E+02  0.7561462E-02  0.1125453E+00
         25   -1    0    0    0    0  0.00000000000E+00  0.00000000000E+00  0.99999998245E-14  0.12509000000E+03  0.12509000000E+03 0.  0.
        -11    1    3    3    0    0 -0.13365337364E+01  0.33845871699E+02 -0.18262794215E+02  0.38481930906E+02  0.51100000000E-03 0.  1.
         23    2    1    0    0    0  0.24634283132E+02 -0.81786876636E+01  0.12082262721E+02  0.96459248878E+02  0.92112251000E+02 0.  0.
         11    1    3    3    0    0  0.25970816869E+02 -0.42024559362E+02  0.30345056936E+02  0.57977317972E+02  0.51100000000E-03 0. -1.
         22    1    1    0    0    0 -0.24634283132E+02  0.81786876636E+01 -0.12082262721E+02  0.28630751122E+02  0.00000000000E+00 0. -1.
</event>
<event>
 5    1  0.1046082E-009  0.9118800E+02  0.7561462E-02  0.1125453E+00
         25   -1    0    0    0    0  0.00000000000E+00  0.00000000000E+00  0.99999998245E-14  0.12509000000E+03  0.12509000000E+03 0.  0.
        -11    1    3    3    0    0 -0.30834284056E+02  0.12443882875E+02 -0.40806451393E+01  0.33500074019E+02  0.51100000000E-03 0. -1.
         23    2    1    0    0    0  0.18983786907E+02 -0.15191667518E+02  0.18248625977E+02  0.94689617151E+02  0.89676866130E+02 0.  0.
         11    1    3    3    0    0  0.49818070963E+02 -0.27635550393E+02  0.22329271116E+02  0.61189543133E+02  0.51100000000E-03 0.  1.
         22    1    1    0    0    0 -0.18983786907E+02  0.15191667518E+02 -0.18248625977E+02  0.30400382849E+02  0.00000000000E+00 0.  1.
</event>
<event>
 5    1  0.1046082E-009  0.9118800E+02  0.7561462E-02  0.1125453E+00
         25   -1    0    0    0    0  0.00000000000E+00  0.00000000000E+00  0.99999998245E-14  0.12509000000E+03  0.12509000000E+03 0.  0.
        -11    1    3    3    0    0 -0.19200241097E+01  0.25416875111E+02  0.29306588053E+02  0.38840444598E+02  0.51100000000E-03 0. -1.
         23    2    1    0    0    0  0.23326700597E+02 -0.18110220342E+02  0.36174550460E+01  0.95337671981E+02  0.90576325142E+02 0.  0.
         11    1    3    3    0    0  0.25246724706E+02 -0.43527095453E+02 -0.25689133007E+02  0.56497227382E+02  0.51100000000E-03 0.  1.
         22    1    1    0    0    0 -0.23326700597E+02  0.18110220342E+02 -0.36174550460E+01  0.29752328019E+02  0.00000000000E+00 0.  1.
</event>
<event>
 5    1  0.1046082E-009  0.9118800E+02  0.7561462E-02  0.1125453E+00
         25   -1    0    0    0    0  0.00000000000E+00  0.00000000000E+00  0.99999998245E-14  0.12509000000E+03  0.12509000000E+03 0.  0.
        -11    1    3    3    0    0  0.14843971199E+02 -0.54688763189E+01 -0.27891461037E+02  0.32065334681E+02  0.51100000000E-03 0.  1.
         23    2    1    0    0    0 -0.66477650949E+01 -0.35821289018E+01  0.30161492964E+02  0.93997555804E+02  0.88706259143E+02 0.  0.
         11    1    3    3    0    0 -0.21491736294E+02  0.18867474171E+01  0.58052954001E+02  0.61932221123E+02  0.51100000000E-03 0. -1.
         22    1    1    0    0    0  0.66477650949E+01  0.35821289018E+01 -0.30161492964E+02  0.31092444196E+02  0.00000000000E+00 0. -1.
</event>
<event>
 5    1  0.1046082E-009  0.9118800E+02  0.7561462E-02  0.1125453E+00
         25   -1    0    0    0    0  0.00000000000E+00  0.00000000000E+00  0.99999998245E-14  0.12509000000E+03  0.12509000000E+03 0.  0.
        -11    1    3    3    0    0  0.35904874870E+02  0.15869791058E+02  0.36821706630E+02  0.53822378126E+02  0.51100000000E-03 0. -1.
         23    2    1    0    0    0  0.13896285860E+02 -0.15529137575E+02  0.21597124712E+02  0.95078391074E+02  0.90217535872E+02 0.  0.
         11    1    3    3    0    0 -0.22008589010E+02 -0.31398928633E+02 -0.15224581918E+02  0.41256012948E+02  0.51100000000E-03 0.  1.
         22    1    1    0    0    0 -0.13896285860E+02  0.15529137575E+02 -0.21597124712E+02  0.30011608926E+02  0.00000000000E+00 0. -1.
</event>
<event>
 5    1  0.1046082E-009  0.9118800E+02  0.7561462E-02  0.1125453E+00
         25   -1    0    0    0    0  0.00000000000E+00  0.00000000000E+00  0.99999998245E-14  0.12509000000E+03  0.12509000000E+03 0.  0.
        -11    1    3    3    0    0  0.37426764406E+02  0.20848824965E+02  0.13330379436E+02  0.44867975355E+02  0.51100000000E-03 0.  1.
         23    2    1    0    0    0 -0.80118669896E+01  0.72614604434E+01  0.28456541566E+02  0.94648357825E+02  0.89619295135E+02 0.  0.
         11    1    3    3    0    0 -0.45438631396E+02 -0.13587364521E+02  0.15126162130E+02  0.49780382469E+02  0.51100000000E-03 0. -1.
         22    1    1    0    0    0  0.80118669896E+01 -0.72614604434E+01 -0.28456541566E+02  0.30441642175E+02  0.00000000000E+00 0.  1.
</event>
<event>
 5    1  0.1046082E-009  0.9118800E+02  0.7561462E-02  0.1125453E+00
         25   -1    0    0    0    0  0.00000000000E+00  0.00000000000E+00  0.99999998245E-14  0.12509000000E+03  0.12509000000E+03 0.  0.
        -11    1    3    3    0    0 -0.13523266661E+02 -0.26002908784E+01 -0.44704408394E+02  0.46777391804E+02  0.51100000000E-03 0.  1.
         23    2    1    0    0    0 -0.11108232140E+02  0.27572243177E+02 -0.80909035781E+01  0.94282790847E+02  0.89107578320E+02 0.  0.
         11    1    3    3    0    0  0.24150345217E+01  0.30172534056E+02  0.36613504816E+02  0.47505399043E+02  0.51100000000E-03 0. -1.
         22    1    1    0    0    0  0.11108232140E+02 -0.27572243177E+02  0.80909035781E+01  0.30807209153E+02  0.00000000000E+00 0.  1.
</event>
<event>
 5    1  0.1046082E-009  0.9118800E+02  0.7561462E-02  0.1125453E+00
         25   -1    0    0    0    0  0.00000000000E+00  0.00000000000E+00  0.99999998245E-14  0.12509000000E+03  0.12509000000E+03 0.  0.
        -11    1    3    3    0    0 -0.69719297460E+01 -0.48249503617E+02 -0.52610201885E+01  0.49033669426E+02  0.51100000000E-03 0. -1.
         23    2    1    0    0    0 -0.17045965686E+02 -0.67131500632E+01 -0.23321352569E+02  0.95433351242E+02  0.90708366282E+02 0.  0.
         11    1    3    3    0    0 -0.10074035940E+02  0.41536353554E+02 -0.18060332381E+02  0.46399681816E+02  0.51100000000E-03 0.  1.
         22    1    1    0    0    0  0.17045965686E+02  0.67131500632E+01  0.23321352569E+02  0.29656648758E+02  0.00000000000E+00 0.  1.
</event>
<event>
 5    1  0.1046082E-009  0.9118800E+02  0.7561462E-02  0.1125453E+00
         25   -1    0    0    0    0  0.00000000000E+00  0.00000000000E+00  0.99999998245E-14  0.12509000000E+03  0.12509000000E+03 0.  0.
        -11    1    3    3    0    0  0.42357190609E+02 -0.26018747525E+02  0.23609562273E+02  0.55031974797E+02  0.51100000000E-03 0.  1.
         23    2    1    0    0    0  0.24660601579E+02  0.83289142404E+01  0.16365151880E+02  0.94343711139E+02  0.89193057761E+02 0.  0.
         11    1    3    3    0    0 -0.17696589029E+02  0.34347661766E+02 -0.72444103930E+01  0.39311736342E+02  0.51100000000E-03 0. -1.
         22    1    1    0    0    0 -0.24660601579E+02 -0.83289142404E+01 -0.16365151880E+02  0.30746288861E+02  0.00000000000E+00 0. -1.
</event>
<event>
 5    1  0.1046082E-009  0.9118800E+02  0.7561462E-02  0.1125453E+00
         25   -1    0    0    0    0  0.00000000000E+00  0.00000000000E+00  0.99999998245E-14  0.12509000000E+03  0.12509000000E+03 0.  0.
        -11    1    3    3    0    0 -0.17150920283E+02  0.89632727719E+01  0.41152875837E+02  0.45475856400E+02  0.51100000000E-03 0.  1.
         23    2    1    0    0    0  0.12174697164E+02 -0.21080679903E+02  0.24233546139E+02  0.90740573881E+02  0.83987907901E+02 0.  0.
         11    1    3    3    0    0  0.29325617447E+02 -0.30043952675E+02 -0.16919329698E+02  0.45264717481E+02  0.51100000000E-03 0. -1.
         22    1    1    0    0    0 -0.12174697164E+02  0.21080679903E+02 -0.24233546139E+02  0.34349426119E+02  0.00000000000E+00 0. -1.
</event>
<event>
 5    1  0.1046082E-009  0.9118800E+02  0.7561462E-02  0.1125453E+00
         25   -1    0    0    0    0  0.00000000000E+00  0.00000000000E+00  0.99999998245E-14  0.12509000000E+03  0.12509000000E+03 0.  0.
        -11    1    3    3    0    0  0.12502177559E+02 -0.65265287327E+01 -0.45073518958E+02  0.47228403875E+02  0.51100000000E-03 0.  1.
         23    2    1    0    0    0 -0.21785119428E+02 -0.14801468961E+02 -0.10151058673E+02  0.96863790476E+02  0.92659996770E+02 0.  0.
         11    1    3    3    0    0 -0.34287296987E+02 -0.82749402278E+01  0.34922460285E+02  0.49635386602E+02  0.51100000000E-03 0. -1.
         22    1    1    0    0    0  0.21785119428E+02  0.14801468961E+02  0.10151058673E+02  0.28226209524E+02  0.00000000000E+00 0.  1.
</event>
<event>
 5    1  0.1046082E-009  0.9118800E+02  0.7561462E-02  0.1125453E+00
         25   -1    0    0    0    0  0.00000000000E+00  0.00000000000E+00  0.99999998245E-14  0.12509000000E+03  0.12509000000E+03 0.  0.
        -11    1    3    3    0    0 -0.51088121780E+02  0.16190276988E+02 -0.28034990055E+02  0.60482079359E+02  0.51100000000E-03 0.  1.
         23    2    1    0    0    0 -0.29806016407E+02  0.10360567290E+01 -0.59808234961E+01  0.94672204595E+02  0.89652574115E+02 0.  0.
         11    1    3    3    0    0  0.21282105373E+02 -0.15154220259E+02  0.22054166559E+02  0.34190125235E+02  0.51100000000E-03 0. -1.
         22    1    1    0    0    0  0.29806016407E+02 -0.10360567290E+01  0.59808234961E+01  0.30417795405E+02  0.00000000000E+00 0.  1.
</event>
<event>
 5    1  0.1046082E-009  0.9118800E+02  0.7561462E-02  0.1125453E+00
         25   -1    0    0    0    0  0.00000000000E+00  0.00000000000E+00  0.99999998245E-14  0.12509000000E+03  0.12509000000E+03 0.  0.
        -11    1    3    3    0    0  0.31587179808E+02  0.22523520196E+02 -0.48094830320E+01  0.39092071032E+02  0.51100000000E-03 0.  1.
         23    2    1    0    0    0 -0.11359220511E+02  0.42044977099E+00 -0.29599579939E+02  0.93382843061E+02  0.87835138623E+02 0.  0.
         11    1    3    3    0    0 -0.42946400319E+02 -0.22103070425E+02 -0.24790096907E+02  0.54290772029E+02  0.51100000000E-03 0. -1.
         22    1    1    0    0    0  0.11359220511E+02 -0.42044977099E+00  0.29599579939E+02  0.31707156939E+02  0.00000000000E+00 0. -1.
</event>
<event>
 5    1  0.1046082E-009  0.9118800E+02  0.7561462E-02  0.1125453E+00
         25   -1    0    0    0    0  0.00000000000E+00  0.00000000000E+00  0.99999998245E-14  0.12509000000E+03  0.12509000000E+03 0.  0.
        -11    1    3    3    0    0 -0.58338344144E+02  0.41242421260E+01  0.95319990733E+01  0.59255639201E+02  0.51100000000E-03 0. -1.
         23    2    1    0    0    0 -0.28833691712E+02  0.70300882036E+01 -0.88265838697E+01  0.94126917132E+02  0.88888492101E+02 0.  0.
         11    1    3    3    0    0  0.29504652432E+02  0.29058460775E+01 -0.18358582943E+02  0.34871277930E+02  0.51100000000E-03 0.  1.
         22    1    1    0    0    0  0.28833691712E+02 -0.70300882036E+01  0.88265838697E+01  0.30963082868E+02  0.00000000000E+00 0. -1.
</event>
<event>
 5    1  0.1046082E-009  0.9118800E+02  0.7561462E-02  0.1125453E+00
         25   -1    0    0    0    0  0.00000000000E+00  0.00000000000E+00  0.99999998245E-14  0.12509000000E+03  0.12509000000E+03 0.  0.
        -11    1    3    3    0    0  0.36831686358E+02  0.45326512740E+02 -0.17505829341E+02  0.60971468232E+02  0.51100000000E-03 0. -1.
         23    2    1    0    0    0  0.94778835683E+01  0.26652861554E+02 -0.50579046966E+01  0.96353477839E+02  0.91968499965E+02 0.  0.
         11    1    3    3    0    0 -0.27353802790E+02 -0.18673651185E+02  0.12447924644E+02  0.35382009608E+02  0.51100000000E-03 0.  1.
         22    1    1    0    0    0 -0.94778835683E+01 -0.26652861554E+02  0.50579046966E+01  0.28736522161E+02  0.00000000000E+00 0. -1.
</event>
<event>
 5    1  0.1046082E-009  0.9118800E+02  0.7561462E-02  0.1125453E+00
         25   -1    0    0    0    0  0.00000000000E+00  0.00000000000E+00  0.99999998245E-14  0.12509000000E+03  0.12509000000E+03 0.  0.
        -11    1    3    3    0    0 -0.28558120798E+02 -0.36901398770E+02  0.82863276959E+01  0.47391378136E+02  0.51100000000E-03 0.  1.
         23    2    1    0    0    0 -0.20008336925E+02  0.97981935998E+01  0.18708842131E+02  0.95997751578E+02  0.91483383135E+02 0.  0.
         11    1    3    3    0    0  0.85497838726E+01  0.46699592370E+02  0.10422514435E+02  0.48606373442E+02  0.51100000000E-03 0. -1.
         22    1    1    0    0    0  0.20008336925E+02 -0.97981935998E+01 -0.18708842131E+02  0.29092248422E+02  0.00000000000E+00 0.  1.
</event>
<event>
 5    1  0.1046082E-009  0.9118800E+02  0.7561462E-02  0.1125453E+00
         25   -1    0    0    0    0  0.00000000000E+00  0.00000000000E+00  0.99999998245E-14  0.12509000000E+03  0.12509000000E+03 0.  0.
        -11    1    3    3    0    0 -0.16355561468E+02  0.23112042139E+02 -0.40879798791E+02  0.49727546010E+02  0.51100000000E-03 0.  1.
         23    2    1    0    0    0 -0.15915802436E+02  0.27390885745E+02  0.24927386849E+01  0.93312851997E+02  0.87735404556E+02 0.  0.
         11    1    3    3    0    0  0.43975903265E+00  0.42788436060E+01  0.43372537476E+02  0.43585305987E+02  0.51100000000E-03 0. -1.
         22    1    1    0    0    0  0.15915802436E+02 -0.27390885745E+02 -0.24927386849E+01  0.31777148003E+02  0.00000000000E+00 0. -1.
</event>
<event>
 5    1  0.1046082E-009  0.9118800E+02  0.7561462E-02  0.1125453E+00
         25   -1    0    0    0    0  0.00000000000E+00  0.00000000000E+00  0.99999998245E-14  0.12509000000E+03  0.12509000000E+03 0.  0.
        -11    1    3    3    0    0 -0.31166527547E+02 -0.89819819904E+01  0.52822359028E+02  0.61985724593E+02  0.51100000000E-03 0.  1.
         23    2    1    0    0    0 -0.18335773896E+02 -0.99528849614E+01  0.25840902156E+02  0.91878364273E+02  0.85665752048E+02 0.  0.
         11    1    3    3    0    0  0.12830753651E+02 -0.97090297100E+00 -0.26981456872E+02  0.29892639680E+02  0.51100000000E-03 0. -1.
         22    1    1    0    0    0  0.18335773896E+02  0.99528849614E+01 -0.25840902156E+02  0.33211635727E+02  0.00000000000E+00 0.  1.
</event>
<event>
 5    1  0.1046082E-009  0.9118800E+02  0.7561462E-02  0.1125453E+00
         25   -1    0    0    0    0  0.00000000000E+00  0.00000000000E+00  0.99999998245E-14  0.12509000000E+03  0.12509000000E+03 0.  0.
        -11    1    3    3    0    0 -0.49571251485E+01 -0.44046496281E+02 -0.10770582576E+01  0.44337647425E+02  0.51100000000E-03 0.  1.
         23    2    1    0    0    0  0.22054660075E+02 -0.12694682715E+02 -0.22664474131E+02  0.91013007940E+02  0.84392690598E+02 0.  0.
         11    1    3    3    0    0  0.27011785223E+02  0.31351813566E+02 -0.21587415874E+02  0.46675360515E+02  0.51100000000E-03 0. -1.
         22    1    1    0    0    0 -0.22054660075E+02  0.12694682715E+02  0.22664474131E+02  0.34076992060E+02  0.00000000000E+00 0. -1.
</event>
<event>
 5    1  0.1046082E-009  0.9118800E+02  0.7561462E-02  0.1125453E+00
         25   -1    0    0    0    0  0.00000000000E+00  0.00000000000E+00  0.99999998245E-14  0.12509000000E+03  0.12509000000E+03 0.  0.
        -11    1    3    3    0    0  0.83210642606E+01 -0.14552914155E+02  0.40117041994E+02  0.43478781946E+02  0.51100000000E-03 0. -1.
         23    2    1    0    0    0 -0.26928258291E+02 -0.65338272367E+01  0.13544460826E+00  0.97380067878E+02  0.93354364021E+02 0.  0.
         11    1    3    3    0    0 -0.35249322552E+02  0.80190869184E+01 -0.39981597386E+02  0.53901285932E+02  0.51100000000E-03 0.  1.
         22    1    1    0    0    0  0.26928258291E+02  0.65338272367E+01 -0.13544460826E+00  0.27709932122E+02  0.00000000000E+00 0.  1.
</event>
<event>
 5    1  0.1046082E-009  0.9118800E+02  0.7561462E-02  0.1125453E+00
         25   -1    0    0    0    0  0.00000000000E+00  0.00000000000E+00  0.99999998245E-14  0.12509000000E+03  0.12509000000E+03 0.  0.
        -11    1    3    3    0    0 -0.16308251860E+01  0.30780738000E+02  0.21722739251E+02  0.37709293595E+02  0.51100000000E-03 0.  1.
         23    2    1    0    0    0  0.11366971821E+01 -0.26432229603E+02  0.12869412885E+02  0.95669316284E+02  0.91033188717E+02 0.  0.
         11    1    3    3    0    0  0.27675223681E+01 -0.57212967604E+02 -0.88533263664E+01  0.57960022689E+02  0.51100000000E-03 0. -1.
         22    1    1    0    0    0 -0.11366971821E+01  0.26432229603E+02 -0.12869412885E+02  0.29420683716E+02  0.00000000000E+00 0. -1.
</event>
<event>
 5    1  0.1046082E-009  0.9118800E+02  0.7561462E-02  0.1125453E+00
         25   -1    0    0    0    0  0.00000000000E+00  0.00000000000E+00  0.99999998245E-14  0.12509000000E+03  0.12509000000E+03 0.  0.
        -11    1    3    3    0    0 -0.49659995799E+02 -0.17798126710E+02 -0.30813025435E+02  0.61092806728E+02  0.51100000000E-03 0.  1.
         23    2    1    0    0    0 -0.24665709598E+02 -0.14589476965E+02 -0.73945466700E+01  0.95493895720E+02  0.90791820839E+02 0.  0.
         11    1    3    3    0    0  0.24994286201E+02  0.32086497444E+01  0.23418478765E+02  0.34401088992E+02  0.51100000000E-03 0. -1.
         22    1    1    0    0    0  0.24665709598E+02  0.14589476965E+02  0.73945466700E+01  0.29596104280E+02  0.00000000000E+00 0.  1.
</event>
<event>
 5    1  0.1046082E-009  0.9118800E+02  0.7561462E-02  0.1125453E+00
         25   -1    0    0    0    0  0.00000000000E+00  0.00000000000E+00  0.99999998245E-14  0.12509000000E+03  0.12509000000E+03 0.  0.
        -11    1    3    3    0    0  0.56808199918E+02 -0.25881065286E+01  0.13748553531E+02  0.58505492031E+02  0.51100000000E-03 0.  1.
         23    2    1    0    0    0  0.22928541159E+02 -0.12511722199E+02 -0.50264730593E+01  0.98490627386E+02  0.94830781181E+02 0.  0.
         11    1    3    3    0    0 -0.33879658759E+02 -0.99236156706E+01 -0.18775026590E+02  0.39985135355E+02  0.51100000000E-03 0. -1.
         22    1    1    0    0    0 -0.22928541159E+02  0.12511722199E+02  0.50264730593E+01  0.26599372614E+02  0.00000000000E+00 0.  1.
</event>
<event>
 5    1  0.1046082E-009  0.9118800E+02  0.7561462E-02  0.1125453E+00
         25   -1    0    0    0    0  0.00000000000E+00  0.00000000000E+00  0.99999998245E-14  0.12509000000E+03  0.12509000000E+03 0.  0.
        -11    1    3    3    0    0  0.52527168701E+02 -0.22283175580E+01 -0.20786032938E+02  0.56534308313E+02  0.51100000000E-03 0. -1.
         23    2    1    0    0    0  0.28114754643E+02  0.87898430413E+01  0.66667909086E+01  0.94888230675E+02  0.89953484926E+02 0.  0.
         11    1    3    3    0    0 -0.24412414058E+02  0.11018160599E+02  0.27452823847E+02  0.38353922362E+02  0.51100000000E-03 0.  1.
         22    1    1    0    0    0 -0.28114754643E+02 -0.87898430413E+01 -0.66667909086E+01  0.30201769325E+02  0.00000000000E+00 0. -1.
</event>
<event>
 5    1  0.1046082E-009  0.9118800E+02  0.7561462E-02  0.1125453E+00
         25   -1    0    0    0    0  0.00000000000E+00  0.00000000000E+00  0.99999998245E-14  0.12509000000E+03  0.12509000000E+03 0.  0.
        -11    1    3    3    0    0 -0.40459939938E+02  0.24907134650E+02 -0.80206607973E+01  0.48184054377E+02  0.51100000000E-03 0. -1.
         23    2    1    0    0    0 -0.42700776871E+01  0.18101358305E+02  0.22419220092E+02  0.95960733523E+02  0.91432752408E+02 0.  0.
         11    1    3    3    0    0  0.36189862251E+02 -0.68057763457E+01  0.30439880890E+02  0.47776679146E+02  0.51100000000E-03 0.  1.
         22    1    1    0    0    0  0.42700776871E+01 -0.18101358305E+02 -0.22419220092E+02  0.29129266477E+02  0.00000000000E+00 0. -1.
</event>
<event>
 5    1  0.1046082E-009  0.9118800E+02  0.7561462E-02  0.1125453E+00
         25   -1    0    0    0    0  0.00000000000E+00  0.00000000000E+00  0.99999998245E-14  0.12509000000E+03  0.12509000000E+03 0.  0.
        -11    1    3    3    0    0  0.10342240152E+02 -0.57544541052E+02 -0.44211131042E+01  0.58633457834E+02  0.51100000000E-03 0. -1.
         23    2    1    0    0    0  0.18884555345E+02 -0.21975949016E+02 -0.69236919101E+01  0.95298956457E+02  0.90522841462E+02 0.  0.
         11    1    3    3    0    0  0.85423151931E+01  0.35568592036E+02 -0.25025788059E+01  0.36665498622E+02  0.51100000000E-03 0.  1.
         22    1    1    0    0    0 -0.18884555345E+02  0.21975949016E+02  0.69236919101E+01  0.29791043543E+02  0.00000000000E+00 0. -1.
</event>
<event>
 5    1  0.1046082E-009  0.9118800E+02  0.7561462E-02  0.1125453E+00
         25   -1    0    0    0    0  0.00000000000E+00  0.00000000000E+00  0.99999998245E-14  0.12509000000E+03  0.12509000000E+03 0.  0.
        -11    1    3    3    0    0 -0.84074782290E+01 -0.54467253047E+02  0.21179238542E+02  0.59041743624E+02  0.51100000000E-03 0. -1.
         23    2    1    0    0    0  0.10514314775E+02 -0.26157088534E+02  0.12912718074E+02  0.94082220591E+02  0.88825569785E+02 0.  0.
         11    1    3    3    0    0  0.18921793004E+02  0.28310164512E+02 -0.82665204682E+01  0.35040476968E+02  0.51100000000E-03 0.  1.
         22    1    1    0    0    0 -0.10514314775E+02  0.26157088534E+02 -0.12912718074E+02  0.31007779409E+02  0.00000000000E+00 0. -1.
</event>
<event>
 5    1  0.1046082E-009  0.9118800E+02  0.7561462E-02  0.1125453E+00
         25   -1    0    0    0    0  0.00000000000E+00  0.00000000000E+00  0.99999998245E-14  0.12509000000E+03  0.12509000000E+03 0.  0.
        -11    1    3    3    0    0 -0.30512312503E+02 -0.44700570654E+02  0.97844175933E+01  0.54998882343E+02  0.51100000000E-03 0.  1.
         23    2    1    0    0    0 -0.23336946427E+02 -0.46385421561E+01  0.16344277578E+02  0.96223677903E+02  0.91791784152E+02 0.  0.
         11    1    3    3    0    0  0.71753660760E+01  0.40062028498E+02  0.65598599843E+01  0.41224795560E+02  0.51100000000E-03 0. -1.
         22    1    1    0    0    0  0.23336946427E+02  0.46385421561E+01 -0.16344277578E+02  0.28866322097E+02  0.00000000000E+00 0.  1.
</event>
<event>
 5    1  0.1046082E-009  0.9118800E+02  0.7561462E-02  0.1125453E+00
         25   -1    0    0    0    0  0.00000000000E+00  0.00000000000E+00  0.99999998245E-14  0.12509000000E+03  0.12509000000E+03 0.  0.
        -11    1    3    3    0    0 -0.14159713515E+01  0.33152950878E+02  0.47296838949E+01  0.33518547653E+02  0.51100000000E-03 0.  1.
         23    2    1    0    0    0  0.19694988807E+02 -0.23043192891E+02 -0.51068999118E+01  0.94349769854E+02  0.89201554483E+02 0.  0.
         11    1    3    3    0    0  0.21110960158E+02 -0.56196143768E+02 -0.98365838067E+01  0.60831222201E+02  0.51100000000E-03 0. -1.
         22    1    1    0    0    0 -0.19694988807E+02  0.23043192891E+02  0.51068999118E+01  0.30740230146E+02  0.00000000000E+00 0. -1.
</event>
<event>
 5    1  0.1046082E-009  0.9118800E+02  0.7561462E-02  0.1125453E+00
         25   -1    0    0    0    0  0.00000000000E+00  0.00000000000E+00  0.99999998245E-14  0.12509000000E+03  0.12509000000E+03 0.  0.
        -11    1    3    3    0    0  0.43166698038E+02 -0.14537156851E+02 -0.31777954493E+02  0.55538555445E+02  0.51100000000E-03 0.  1.
         23    2    1    0    0    0  0.20672670412E+02  0.13894689985E+02 -0.78618942677E+01  0.98970446152E+02  0.95461605467E+02 0.  0.
         11    1    3    3    0    0 -0.22494027627E+02  0.28431846837E+02  0.23916060226E+02  0.43431890707E+02  0.51100000000E-03 0. -1.
         22    1    1    0    0    0 -0.20672670412E+02 -0.13894689985E+02  0.78618942677E+01  0.26119553848E+02  0.00000000000E+00 0. -1.
</event>
<event>
 5    1  0.1046082E-009  0.9118800E+02  0.7561462E-02  0.1125453E+00
         25   -1    0    0    0    0  0.00000000000E+00  0.00000000000E+00  0.99999998245E-14  0.12509000000E+03  0.12509000000E+03 0.  0.
        -11    1    3    3    0    0 -0.10980668556E+02 -0.36432989648E+02  0.78412796175E+00  0.38059856458E+02  0.51100000000E-03 0.  1.
         23    2    1    0    0    0  0.78029423127E+01  0.12041492132E+02  0.25659370164E+02  0.95691246307E+02  0.91063318087E+02 0.  0.
         11    1    3    3    0    0  0.18783610868E+02  0.48474481780E+02  0.24875242202E+02  0.57631389849E+02  0.51100000000E-03 0. -1.
         22    1    1    0    0    0 -0.78029423127E+01 -0.12041492132E+02 -0.25659370164E+02  0.29398753693E+02  0.00000000000E+00 0. -1.
</event>
<event>
 5    1  0.1046082E-009  0.9118800E+02  0.7561462E-02  0.1125453E+00
         25   -1    0    0    0    0  0.00000000000E+00  0.00000000000E+00  0.99999998245E-14  0.12509000000E+03  0.12509000000E+03 0.  0.
        -11    1    3    3    0    0 -0.46715892254E+02  0.23030582514E+02  0.12275447698E+02  0.53511390717E+02  0.51100000000E-03 0.  1.
         23    2    1    0    0    0 -0.19506828894E+02 -0.83015883394E+01  0.20255373536E+02  0.95769138834E+02  0.91170253118E+02 0.  0.
         11    1    3    3    0    0  0.27209063360E+02 -0.31332170853E+02  0.79799258380E+01  0.42257748117E+02  0.51100000000E-03 0. -1.
         22    1    1    0    0    0  0.19506828894E+02  0.83015883394E+01 -0.20255373536E+02  0.29320861166E+02  0.00000000000E+00 0.  1.
</event>
<event>
 5    1  0.1046082E-009  0.9118800E+02  0.7561462E-02  0.1125453E+00
         25   -1    0    0    0    0  0.00000000000E+00  0.00000000000E+00  0.99999998245E-14  0.12509000000E+03  0.12509000000E+03 0.  0.
        -11    1    3    3    0    0 -0.50783199298E+01  0.37227595380E+02  0.10811027123E+02  0.39096822106E+02  0.51100000000E-03 0.  1.
         23    2    1    0    0    0 -0.24427133372E+02 -0.15635886294E+02  0.44363031390E+01  0.95749813046E+02  0.91143733344E+02 0.  0.
         11    1    3    3    0    0 -0.19348813442E+02 -0.52863481674E+02 -0.63747239843E+01  0.56652990940E+02  0.51100000000E-03 0. -1.
         22    1    1    0    0    0  0.24427133372E+02  0.15635886294E+02 -0.44363031390E+01  0.29340186954E+02  0.00000000000E+00 0. -1.
</event>
<event>
 5    1  0.1046082E-009  0.9118800E+02  0.7561462E-02  0.1125453E+00
         25   -1    0    0    0    0  0.00000000000E+00  0.00000000000E+00  0.99999998245E-14  0.12509000000E+03  0.12509000000E+03 0.  0.
        -11    1    3    3    0    0  0.44377129345E+02  0.11355441944E+02 -0.35179952694E+02  0.57757291682E+02  0.51100000000E-03 0.  1.
         23    2    1    0    0    0  0.11936422586E+02  0.20390313549E+02 -0.16557432027E+02  0.96238801999E+02  0.91812392323E+02 0.  0.
         11    1    3    3    0    0 -0.32440706759E+02  0.90348716052E+01  0.18622520667E+02  0.38481510316E+02  0.51100000000E-03 0. -1.
         22    1    1    0    0    0 -0.11936422586E+02 -0.20390313549E+02  0.16557432027E+02  0.28851198001E+02  0.00000000000E+00 0.  1.
</event>
<event>
 5    1  0.1046082E-009  0.9118800E+02  0.7561462E-02  0.1125453E+00
         25   -1    0    0    0    0  0.00000000000E+00  0.00000000000E+00  0.99999998245E-14  0.12509000000E+03  0.12509000000E+03 0.  0.
        -11    1    3    3    0    0 -0.27916003291E+02  0.21012263011E+02 -0.11105655844E+02  0.36662706236E+02  0.51100000000E-03 0.  1.
         23    2    1    0    0    0  0.13895312032E+02 -0.20516545480E+02 -0.15673082531E+02  0.95770145789E+02  0.91171634699E+02 0.  0.
         11    1    3    3    0    0  0.41811315323E+02 -0.41528808491E+02 -0.45674266865E+01  0.59107439553E+02  0.51100000000E-03 0. -1.
         22    1    1    0    0    0 -0.13895312032E+02  0.20516545480E+02  0.15673082531E+02  0.29319854211E+02  0.00000000000E+00 0. -1.
</event>
<event>
 5    1  0.1046082E-009  0.9118800E+02  0.7561462E-02  0.1125453E+00
         25   -1    0    0    0    0  0.00000000000E+00  0.00000000000E+00  0.99999998245E-14  0.12509000000E+03  0.12509000000E+03 0.  0.
        -11    1    3    3    0    0  0.20139962310E+02 -0.50247587136E+02 -0.14161884443E+01  0.54152042296E+02  0.51100000000E-03 0.  1.
         23    2    1    0    0    0 -0.77968741525E+01 -0.24285005026E+02 -0.15997141438E+02  0.94982505088E+02  0.90084488248E+02 0.  0.
         11    1    3    3    0    0 -0.27936836462E+02  0.25962582110E+02 -0.14580952994E+02  0.40830462792E+02  0.51100000000E-03 0. -1.
         22    1    1    0    0    0  0.77968741525E+01  0.24285005026E+02  0.15997141438E+02  0.30107494912E+02  0.00000000000E+00 0.  1.
</event>
<event>
 5    1  0.1046082E-009  0.9118800E+02  0.7561462E-02  0.1125453E+00
         25   -1    0    0    0    0  0.00000000000E+00  0.00000000000E+00  0.99999998245E-14  0.12509000000E+03  0.12509000000E+03 0.  0.
        -11    1    3    3    0    0  0.37794460354E+02 -0.98368988397E+01  0.19438354002E+02  0.43623794182E+02  0.51100000000E-03 0. -1.
         23    2    1    0    0    0 -0.13663135361E+02 -0.20637482369E+02  0.14428862227E+02  0.96440758970E+02  0.92087137968E+02 0.  0.
         11    1    3    3    0    0 -0.51457595715E+02 -0.10800583529E+02 -0.50094917755E+01  0.52816964789E+02  0.51100000000E-03 0.  1.
         22    1    1    0    0    0  0.13663135361E+02  0.20637482369E+02 -0.14428862227E+02  0.28649241030E+02  0.00000000000E+00 0. -1.
</event>
<event>
 5    1  0.1046082E-009  0.9118800E+02  0.7561462E-02  0.1125453E+00
         25   -1    0    0    0    0  0.00000000000E+00  0.00000000000E+00  0.99999998245E-14  0.12509000000E+03  0.12509000000E+03 0.  0.
        -11    1    3    3    0    0 -0.27633555030E+02  0.94037993599E+01 -0.17115740551E+02  0.33837750825E+02  0.51100000000E-03 0.  1.
         23    2    1    0    0    0  0.28596149329E+02  0.24511948257E+01  0.72103937728E+01  0.95497131080E+02  0.90796278303E+02 0.  0.
         11    1    3    3    0    0  0.56229704359E+02 -0.69526045342E+01  0.24326134324E+02  0.61659380256E+02  0.51100000000E-03 0. -1.
         22    1    1    0    0    0 -0.28596149329E+02 -0.24511948257E+01 -0.72103937728E+01  0.29592868920E+02  0.00000000000E+00 0. -1.
</event>
<event>
 5    1  0.1046082E-009  0.9118800E+02  0.7561462E-02  0.1125453E+00
         25   -1    0    0    0    0  0.00000000000E+00  0.00000000000E+00  0.99999998245E-14  0.12509000000E+03  0.12509000000E+03 0.  0.
        -11    1    3    3    0    0  0.14107836985E+02 -0.28080218966E+02 -0.45265554843E+02  0.55104448251E+02  0.51100000000E-03 0.  1.
         23    2    1    0    0    0  0.12726242460E+02 -0.25156517515E+02 -0.38616711343E+01  0.96634418393E+02  0.92349827794E+02 0.  0.
         11    1    3    3    0    0 -0.13815945247E+01  0.29237014508E+01  0.41403883708E+02  0.41529970142E+02  0.51100000000E-03 0. -1.
         22    1    1    0    0    0 -0.12726242460E+02  0.25156517515E+02  0.38616711343E+01  0.28455581607E+02  0.00000000000E+00 0.  1.
</event>
<event>
 5    1  0.1046082E-009  0.9118800E+02  0.7561462E-02  0.1125453E+00
         25   -1    0    0    0    0  0.00000000000E+00  0.00000000000E+00  0.99999998245E-14  0.12509000000E+03  0.12509000000E+03 0.  0.
        -11    1    3    3    0    0  0.44013604725E+02 -0.19052385111E+02  0.17910759891E+02  0.51195567185E+02  0.51100000000E-03 0.  1.
         23    2    1    0    0    0 -0.16585215667E+01 -0.21707881154E+02  0.17837169897E+02  0.96944886251E+02  0.92769410596E+02 0.  0.
         11    1    3    3    0    0 -0.45672126291E+02 -0.26554960431E+01 -0.73589993570E-01  0.45749319066E+02  0.51100000000E-03 0. -1.
         22    1    1    0    0    0  0.16585215667E+01  0.21707881154E+02 -0.17837169897E+02  0.28145113749E+02  0.00000000000E+00 0.  1.
</event>
<event>
 5    1  0.1046082E-009  0.9118800E+02  0.7561462E-02  0.1125453E+00
         25   -1    0    0    0    0  0.00000000000E+00  0.00000000000E+00  0.99999998245E-14  0.12509000000E+03  0.12509000000E+03 0.  0.
        -11    1    3    3    0    0  0.53732971146E+02  0.16447469097E+02  0.81624176330E+01  0.56783593490E+02  0.51100000000E-03 0.  1.
         23    2    1    0    0    0  0.26021762058E+02 -0.11179944618E+02  0.69268126856E+01  0.95933457059E+02  0.91395427605E+02 0.  0.
         11    1    3    3    0    0 -0.27711209087E+02 -0.27627413714E+02 -0.12356049474E+01  0.39149863569E+02  0.51100000000E-03 0. -1.
         22    1    1    0    0    0 -0.26021762058E+02  0.11179944618E+02 -0.69268126856E+01  0.29156542941E+02  0.00000000000E+00 0.  1.
</event>
<event>
 5    1  0.1046082E-009  0.9118800E+02  0.7561462E-02  0.1125453E+00
         25   -1    0    0    0    0  0.00000000000E+00  0.00000000000E+00  0.99999998245E-14  0.12509000000E+03  0.12509000000E+03 0.  0.
        -11    1    3    3    0    0 -0.32027650637E+02 -0.32485950997E+02 -0.28212644654E+02  0.53638239495E+02  0.51100000000E-03 0. -1.
         23    2    1    0    0    0 -0.17769227419E+02  0.16204688062E+01 -0.29484361916E+02  0.90626991428E+02  0.83818569634E+02 0.  0.
         11    1    3    3    0    0  0.14258423218E+02  0.34106419803E+02 -0.12717172623E+01  0.36988751932E+02  0.51100000000E-03 0.  1.
         22    1    1    0    0    0  0.17769227419E+02 -0.16204688062E+01  0.29484361916E+02  0.34463008572E+02  0.00000000000E+00 0. -1.
</event>
<event>
 5    1  0.1046082E-009  0.9118800E+02  0.7561462E-02  0.1125453E+00
         25   -1    0    0    0    0  0.00000000000E+00  0.00000000000E+00  0.99999998245E-14  0.12509000000E+03  0.12509000000E+03 0.  0.
        -11    1    3    3    0    0 -0.62542509609E+01  0.36890456983E+02  0.49521688022E+02  0.62067858481E+02  0.51100000000E-03 0. -1.
         23    2    1    0    0    0 -0.63011359154E+01  0.25836528718E+02  0.26806125560E+02  0.87330247650E+02  0.78744988774E+02 0.  0.
         11    1    3    3    0    0 -0.46884954432E-01 -0.11053928265E+02 -0.22715562462E+02  0.25262389169E+02  0.51100000000E-03 0.  1.
         22    1    1    0    0    0  0.63011359154E+01 -0.25836528718E+02 -0.26806125560E+02  0.37759752350E+02  0.00000000000E+00 0. -1.
</event>
<event>
 5    1  0.1046082E-009  0.9118800E+02  0.7561462E-02  0.1125453E+00
         25   -1    0    0    0    0  0.00000000000E+00  0.00000000000E+00  0.99999998245E-14  0.12509000000E+03  0.12509000000E+03 0.  0.
        -11    1    3    3    0    0  0.11917394090E+02  0.16604558576E+02 -0.39655586254E+02  0.44612791537E+02  0.51100000000E-03 0.  1.
         23    2    1    0    0    0  0.27841080673E+02  0.86117687201E+01  0.74795175754E+01  0.95002934396E+02  0.90112851620E+02 0.  0.
         11    1    3    3    0    0  0.15923686582E+02 -0.79927898554E+01  0.47135103829E+02  0.50390142858E+02  0.51100000000E-03 0. -1.
         22    1    1    0    0    0 -0.27841080673E+02 -0.86117687201E+01 -0.74795175754E+01  0.30087065604E+02  0.00000000000E+00 0. -1.
</event>
<event>
 5    1  0.1046082E-009  0.9118800E+02  0.7561462E-02  0.1125453E+00
         25   -1    0    0    0    0  0.00000000000E+00  0.00000000000E+00  0.99999998245E-14  0.12509000000E+03  0.12509000000E+03 0.  0.
        -11    1    3    3    0    0  0.10361811491E+02 -0.22095686483E+02  0.45114186508E+02  0.51292068812E+02  0.51100000000E-03 0.  1.
         23    2    1    0    0    0  0.71173161177E+01 -0.23106958637E+02 -0.40511394281E+01  0.10057470973E+03  0.97541133791E+02 0.  0.
         11    1    3    3    0    0 -0.32444953729E+01 -0.10112721539E+01 -0.49165325936E+02  0.49282640922E+02  0.51100000000E-03 0. -1.
         22    1    1    0    0    0 -0.71173161177E+01  0.23106958637E+02  0.40511394281E+01  0.24515290266E+02  0.00000000000E+00 0. -1.
</event>
<event>
 5    1  0.1046082E-009  0.9118800E+02  0.7561462E-02  0.1125453E+00
         25   -1    0    0    0    0  0.00000000000E+00  0.00000000000E+00  0.99999998245E-14  0.12509000000E+03  0.12509000000E+03 0.  0.
        -11    1    3    3    0    0 -0.27602092461E+02  0.26194322755E+02 -0.96539399314E+01  0.39258331718E+02  0.51100000000E-03 0.  1.
         23    2    1    0    0    0 -0.11100059826E+02 -0.17479764572E+02  0.21385652620E+02  0.95322574253E+02  0.90555472096E+02 0.  0.
         11    1    3    3    0    0  0.16502032635E+02 -0.43674087328E+02  0.31039592551E+02  0.56064242535E+02  0.51100000000E-03 0. -1.
         22    1    1    0    0    0  0.11100059826E+02  0.17479764572E+02 -0.21385652620E+02  0.29767425747E+02  0.00000000000E+00 0. -1.
</event>
<event>
 5    1  0.1046082E-009  0.9118800E+02  0.7561462E-02  0.1125453E+00
         25   -1    0    0    0    0  0.00000000000E+00  0.00000000000E+00  0.99999998245E-14  0.12509000000E+03  0.12509000000E+03 0.  0.
        -11    1    3    3    0    0  0.18878890134E+02  0.41485371174E+02  0.75800114164E+01  0.46205033140E+02  0.51100000000E-03 0.  1.
         23    2    1    0    0    0  0.60993306358E+01 -0.32835609605E+01  0.27416495557E+02  0.96811954887E+02  0.92589992838E+02 0.  0.
         11    1    3    3    0    0 -0.12779559499E+02 -0.44768932134E+02  0.19836484140E+02  0.50606921747E+02  0.51100000000E-03 0. -1.
         22    1    1    0    0    0 -0.60993306358E+01  0.32835609605E+01 -0.27416495557E+02  0.28278045113E+02  0.00000000000E+00 0.  1.
</event>
<event>
 5    1  0.1046082E-009  0.9118800E+02  0.7561462E-02  0.1125453E+00
         25   -1    0    0    0    0  0.00000000000E+00  0.00000000000E+00  0.99999998245E-14  0.12509000000E+03  0.12509000000E+03 0.  0.
        -11    1    3    3    0    0  0.25724598058E+02  0.23657095406E+02  0.36970405327E+01  0.35143722302E+02  0.51100000000E-03 0.  1.
         23    2    1    0    0    0 -0.22399469784E+02 -0.14426894500E+02 -0.72386863984E+01  0.97480760382E+02  0.93489189387E+02 0.  0.
         11    1    3    3    0    0 -0.48124067842E+02 -0.38083989906E+02 -0.10935726931E+02  0.62337038080E+02  0.51100000000E-03 0. -1.
         22    1    1    0    0    0  0.22399469784E+02  0.14426894500E+02  0.72386863984E+01  0.27609239618E+02  0.00000000000E+00 0. -1.
</event>
<event>
 5    1  0.1046082E-009  0.9118800E+02  0.7561462E-02  0.1125453E+00
         25   -1    0    0    0    0  0.00000000000E+00  0.00000000000E+00  0.99999998245E-14  0.12509000000E+03  0.12509000000E+03 0.  0.
        -11    1    3    3    0    0  0.84021084902E+01 -0.33190399187E+02 -0.33334062052E+02  0.47784492447E+02  0.51100000000E-03 0. -1.
         23    2    1    0    0    0 -0.19231990746E+02 -0.71366902727E+01 -0.33551267482E+02  0.85764571004E+02  0.76217270181E+02 0.  0.
         11    1    3    3    0    0 -0.27634099236E+02  0.26053708914E+02 -0.21720542975E+00  0.37980078557E+02  0.51100000000E-03 0.  1.
         22    1    1    0    0    0  0.19231990746E+02  0.71366902727E+01  0.33551267482E+02  0.39325428996E+02  0.00000000000E+00 0.  1.
</event>
<event>
 5    1  0.1046082E-009  0.9118800E+02  0.7561462E-02  0.1125453E+00
         25   -1    0    0    0    0  0.00000000000E+00  0.00000000000E+00  0.99999998245E-14  0.12509000000E+03  0.12509000000E+03 0.  0.
        -11    1    3    3    0    0  0.32529441352E+02  0.23719635242E+02  0.34518975144E+02  0.53031550005E+02  0.51100000000E-03 0. -1.
         23    2    1    0    0    0  0.20472798255E+02  0.25515902007E+02 -0.27668204099E+01  0.92259343309E+02  0.86220266811E+02 0.  0.
         11    1    3    3    0    0 -0.12056643097E+02  0.17962667646E+01 -0.37285795554E+02  0.39227793303E+02  0.51100000000E-03 0.  1.
         22    1    1    0    0    0 -0.20472798255E+02 -0.25515902007E+02  0.27668204099E+01  0.32830656691E+02  0.00000000000E+00 0.  1.
</event>
<event>
 5    1  0.1046082E-009  0.9118800E+02  0.7561462E-02  0.1125453E+00
         25   -1    0    0    0    0  0.00000000000E+00  0.00000000000E+00  0.99999998245E-14  0.12509000000E+03  0.12509000000E+03 0.  0.
        -11    1    3    3    0    0  0.51746918739E+01 -0.46222758486E+01 -0.41476200976E+02  0.42052563746E+02  0.51100000000E-03 0.  1.
         23    2    1    0    0    0 -0.25758943463E+02 -0.21841829812E+01  0.57939903094E+01  0.98597281239E+02  0.94971362633E+02 0.  0.
         11    1    3    3    0    0 -0.30933635337E+02  0.24380928674E+01  0.47270191285E+02  0.56544717493E+02  0.51100000000E-03 0. -1.
         22    1    1    0    0    0  0.25758943463E+02  0.21841829812E+01 -0.57939903094E+01  0.26492718761E+02  0.00000000000E+00 0. -1.
</event>
<event>
 5    1  0.1046082E-009  0.9118800E+02  0.7561462E-02  0.1125453E+00
         25   -1    0    0    0    0  0.00000000000E+00  0.00000000000E+00  0.99999998245E-14  0.12509000000E+03  0.12509000000E+03 0.  0.
        -11    1    3    3    0    0  0.45890072342E+02  0.36485575532E+02 -0.21182839147E+00  0.58627133932E+02  0.51100000000E-03 0.  1.
         23    2    1    0    0    0  0.15737640133E+02  0.22101503493E+02  0.13555215411E+02  0.94760251593E+02  0.89775339840E+02 0.  0.
         11    1    3    3    0    0 -0.30152432210E+02 -0.14384072039E+02  0.13767043803E+02  0.36133117661E+02  0.51100000000E-03 0. -1.
         22    1    1    0    0    0 -0.15737640133E+02 -0.22101503493E+02 -0.13555215411E+02  0.30329748407E+02  0.00000000000E+00 0.  1.
</event>
<event>
 5    1  0.1046082E-009  0.9118800E+02  0.7561462E-02  0.1125453E+00
         25   -1    0    0    0    0  0.00000000000E+00  0.00000000000E+00  0.99999998245E-14  0.12509000000E+03  0.12509000000E+03 0.  0.
        -11    1    3    3    0    0 -0.29430060325E+02  0.10964025583E+02  0.22843135377E+01  0.31488988493E+02  0.51100000000E-03 0.  1.
         23    2    1    0    0    0  0.18682857764E+02  0.50790288299E+01  0.31522892971E+02  0.88096237157E+02  0.79952539121E+02 0.  0.
         11    1    3    3    0    0  0.48112918088E+02 -0.58849967532E+01  0.29238579433E+02  0.56607248664E+02  0.51100000000E-03 0. -1.
         22    1    1    0    0    0 -0.18682857764E+02 -0.50790288299E+01 -0.31522892971E+02  0.36993762843E+02  0.00000000000E+00 0. -1.
</event>
<event>
 5    1  0.1046082E-009  0.9118800E+02  0.7561462E-02  0.1125453E+00
         25   -1    0    0    0    0  0.00000000000E+00  0.00000000000E+00  0.99999998245E-14  0.12509000000E+03  0.12509000000E+03 0.  0.
        -11    1    3    3    0    0  0.15338724533E+02 -0.56607090438E+02  0.20079637810E+02  0.61990571968E+02  0.51100000000E-03 0. -1.
         23    2    1    0    0    0  0.87506393054E+01 -0.29371813233E+02  0.43192054956E+01  0.94139513138E+02  0.88906216301E+02 0.  0.
         11    1    3    3    0    0 -0.65880852277E+01  0.27235277204E+02 -0.15760432314E+02  0.32148941170E+02  0.51100000000E-03 0.  1.
         22    1    1    0    0    0 -0.87506393054E+01  0.29371813233E+02 -0.43192054956E+01  0.30950486862E+02  0.00000000000E+00 0. -1.
</event>
<event>
 5    1  0.1046082E-009  0.9118800E+02  0.7561462E-02  0.1125453E+00
         25   -1    0    0    0    0  0.00000000000E+00  0.00000000000E+00  0.99999998245E-14  0.12509000000E+03  0.12509000000E+03 0.  0.
        -11    1    3    3    0    0  0.53571260579E+01  0.32728564187E+01 -0.40305673945E+02  0.40791638128E+02  0.51100000000E-03 0. -1.
         23    2    1    0    0    0 -0.21520101628E+02  0.19109392029E+02  0.50804959206E+01  0.95865094926E+02  0.91301814596E+02 0.  0.
         11    1    3    3    0    0 -0.26877227686E+02  0.15836535610E+02  0.45386169866E+02  0.55073456797E+02  0.51100000000E-03 0.  1.
         22    1    1    0    0    0  0.21520101628E+02 -0.19109392029E+02 -0.50804959206E+01  0.29224905074E+02  0.00000000000E+00 0.  1.
</event>
<event>
 5    1  0.1046082E-009  0.9118800E+02  0.7561462E-02  0.1125453E+00
         25   -1    0    0    0    0  0.00000000000E+00  0.00000000000E+00  0.99999998245E-14  0.12509000000E+03  0.12509000000E+03 0.  0.
        -11    1    3    3    0    0  0.66392480939E+00 -0.15203144868E+02 -0.38388842134E+02  0.41295031308E+02  0.51100000000E-03 0. -1.
         23    2    1    0    0    0 -0.16961372177E+02 -0.18922463796E+02  0.13565996714E+02  0.96284027545E+02  0.91873989307E+02 0.  0.
         11    1    3    3    0    0 -0.17625296986E+02 -0.37193189273E+01  0.51954838849E+02  0.54988996237E+02  0.51100000000E-03 0.  1.
         22    1    1    0    0    0  0.16961372177E+02  0.18922463796E+02 -0.13565996714E+02  0.28805972455E+02  0.00000000000E+00 0. -1.
</event>
<event>
 5    1  0.1046082E-009  0.9118800E+02  0.7561462E-02  0.1125453E+00
         25   -1    0    0    0    0  0.00000000000E+00  0.00000000000E+00  0.99999998245E-14  0.12509000000E+03  0.12509000000E+03 0.  0.
        -11    1    3    3    0    0 -0.36985376764E+02 -0.33046242754E+02 -0.32643109695E+02  0.59376298852E+02  0.51100000000E-03 0. -1.
         23    2    1    0    0    0 -0.73495782750E+01 -0.15447292625E+02 -0.25190284689E+02  0.94640277620E+02  0.89608016131E+02 0.  0.
         11    1    3    3    0    0  0.29635798489E+02  0.17598950129E+02  0.74528250056E+01  0.35263978768E+02  0.51100000000E-03 0.  1.
         22    1    1    0    0    0  0.73495782750E+01  0.15447292625E+02  0.25190284689E+02  0.30449722380E+02  0.00000000000E+00 0. -1.
</event>
<event>
 5    1  0.1046082E-009  0.9118800E+02  0.7561462E-02  0.1125453E+00
         25   -1    0    0    0    0  0.00000000000E+00  0.00000000000E+00  0.99999998245E-14  0.12509000000E+03  0.12509000000E+03 0.  0.
        -11    1    3    3    0    0  0.47327678898E+02  0.88398400528E+01  0.38118176881E+02  0.61408854175E+02  0.51100000000E-03 0.  1.
         23    2    1    0    0    0  0.17890255869E+02  0.28537805627E+01  0.25067772070E+02  0.94161073166E+02  0.88936545833E+02 0.  0.
         11    1    3    3    0    0 -0.29437423030E+02 -0.59860594901E+01 -0.13050404812E+02  0.32752218991E+02  0.51100000000E-03 0. -1.
         22    1    1    0    0    0 -0.17890255869E+02 -0.28537805627E+01 -0.25067772070E+02  0.30928926834E+02  0.00000000000E+00 0.  1.
</event>
<event>
 5    1  0.1046082E-009  0.9118800E+02  0.7561462E-02  0.1125453E+00
         25   -1    0    0    0    0  0.00000000000E+00  0.00000000000E+00  0.99999998245E-14  0.12509000000E+03  0.12509000000E+03 0.  0.
        -11    1    3    3    0    0  0.15006638739E+02  0.33844665362E+02 -0.18486344326E+02  0.41381221665E+02  0.51100000000E-03 0. -1.
         23    2    1    0    0    0 -0.13740706962E+01 -0.22067082641E+02 -0.11807932115E+02  0.10002465605E+03  0.96833157288E+02 0.  0.
         11    1    3    3    0    0 -0.16380709435E+02 -0.55911748003E+02  0.66784122116E+01  0.58643434384E+02  0.51100000000E-03 0.  1.
         22    1    1    0    0    0  0.13740706962E+01  0.22067082641E+02  0.11807932115E+02  0.25065343951E+02  0.00000000000E+00 0.  1.
</event>
<event>
 5    1  0.1046082E-009  0.9118800E+02  0.7561462E-02  0.1125453E+00
         25   -1    0    0    0    0  0.00000000000E+00  0.00000000000E+00  0.99999998245E-14  0.12509000000E+03  0.12509000000E+03 0.  0.
        -11    1    3    3    0    0 -0.40305592974E+02  0.91312668670E+01  0.23593174646E+02  0.47587380152E+02  0.51100000000E-03 0.  1.
         23    2    1    0    0    0  0.12983979906E+01 -0.15742671363E+02  0.24349030264E+02  0.96065995903E+02  0.91576649617E+02 0.  0.
         11    1    3    3    0    0  0.41603990964E+02 -0.24873938230E+02  0.75585561818E+00  0.48478615752E+02  0.51100000000E-03 0. -1.
         22    1    1    0    0    0 -0.12983979906E+01  0.15742671363E+02 -0.24349030264E+02  0.29024004097E+02  0.00000000000E+00 0. -1.
</event>
<event>
 5    1  0.1046082E-009  0.9118800E+02  0.7561462E-02  0.1125453E+00
         25   -1    0    0    0    0  0.00000000000E+00  0.00000000000E+00  0.99999998245E-14  0.12509000000E+03  0.12509000000E+03 0.  0.
        -11    1    3    3    0    0  0.42063891620E+02  0.20544513240E+02 -0.33484316551E+02  0.57555603182E+02  0.51100000000E-03 0.  1.
         23    2    1    0    0    0  0.15938321183E+02  0.24584354811E+02 -0.70198024977E+01  0.94961969685E+02  0.90055968573E+02 0.  0.
         11    1    3    3    0    0 -0.26125570437E+02  0.40398415709E+01  0.26464514054E+02  0.37406366503E+02  0.51100000000E-03 0. -1.
         22    1    1    0    0    0 -0.15938321183E+02 -0.24584354811E+02  0.70198024977E+01  0.30128030315E+02  0.00000000000E+00 0.  1.
</event>
<event>
 5    1  0.1046082E-009  0.9118800E+02  0.7561462E-02  0.1125453E+00
         25   -1    0    0    0    0  0.00000000000E+00  0.00000000000E+00  0.99999998245E-14  0.12509000000E+03  0.12509000000E+03 0.  0.
        -11    1    3    3    0    0  0.53657379368E+01 -0.11446301625E+02 -0.33277704815E+02  0.35597957842E+02  0.51100000000E-03 0.  1.
         23    2    1    0    0    0  0.12970603998E+02  0.12941716597E+02  0.21979676257E+02  0.96474780886E+02  0.92133341316E+02 0.  0.
         11    1    3    3    0    0  0.76048660610E+01  0.24388018222E+02  0.55257381073E+02  0.60876823044E+02  0.51100000000E-03 0. -1.
         22    1    1    0    0    0 -0.12970603998E+02 -0.12941716597E+02 -0.21979676257E+02  0.28615219114E+02  0.00000000000E+00 0. -1.
</event>
<event>
 5    1  0.1046082E-009  0.9118800E+02  0.7561462E-02  0.1125453E+00
         25   -1    0    0    0    0  0.00000000000E+00  0.00000000000E+00  0.99999998245E-14  0.12509000000E+03  0.12509000000E+03 0.  0.
        -11    1    3    3    0    0  0.15972619955E+02  0.52809607618E+01  0.42341170063E+02  0.45560814494E+02  0.51100000000E-03 0. -1.
         23    2    1    0    0    0  0.13931287888E+01 -0.28665354546E+02  0.98881586738E+01  0.94735115039E+02  0.89740308560E+02 0.  0.
         11    1    3    3    0    0 -0.14579491166E+02 -0.33946315308E+02 -0.32453011389E+02  0.49174300545E+02  0.51100000000E-03 0.  1.
         22    1    1    0    0    0 -0.13931287888E+01  0.28665354546E+02 -0.98881586738E+01  0.30354884961E+02  0.00000000000E+00 0. -1.
</event>
<event>
 5    1  0.1046082E-009  0.9118800E+02  0.7561462E-02  0.1125453E+00
         25   -1    0    0    0    0  0.00000000000E+00  0.00000000000E+00  0.99999998245E-14  0.12509000000E+03  0.12509000000E+03 0.  0.
        -11    1    3    3    0    0  0.42500521329E+02  0.31905337798E+02  0.21635470911E+02  0.57378902874E+02  0.51100000000E-03 0. -1.
         23    2    1    0    0    0  0.25966358869E+02 -0.15975288819E+01  0.14126057703E+02  0.95486800888E+02  0.90782045285E+02 0.  0.
         11    1    3    3    0    0 -0.16534162460E+02 -0.33502866680E+02 -0.75094132079E+01  0.38107898014E+02  0.51100000000E-03 0.  1.
         22    1    1    0    0    0 -0.25966358869E+02  0.15975288819E+01 -0.14126057703E+02  0.29603199112E+02  0.00000000000E+00 0. -1.
</event>
<event>
 5    1  0.1046082E-009  0.9118800E+02  0.7561462E-02  0.1125453E+00
         25   -1    0    0    0    0  0.00000000000E+00  0.00000000000E+00  0.99999998245E-14  0.12509000000E+03  0.12509000000E+03 0.  0.
        -11    1    3    3    0    0 -0.22657427766E+02  0.49189297255E+02 -0.22829728682E+02  0.58771953425E+02  0.51100000000E-03 0. -1.
         23    2    1    0    0    0 -0.19231556448E+02  0.12342642347E+02 -0.17812795983E+02  0.96116058531E+02  0.91645007629E+02 0.  0.
         11    1    3    3    0    0  0.34258713186E+01 -0.36846654908E+02  0.50169326991E+01  0.37344105106E+02  0.51100000000E-03 0.  1.
         22    1    1    0    0    0  0.19231556448E+02 -0.12342642347E+02  0.17812795983E+02  0.28973941469E+02  0.00000000000E+00 0. -1.
</event>
<event>
 5    1  0.1046082E-009  0.9118800E+02  0.7561462E-02  0.1125453E+00
         25   -1    0    0    0    0  0.00000000000E+00  0.00000000000E+00  0.99999998245E-14  0.12509000000E+03  0.12509000000E+03 0.  0.
        -11    1    3    3    0    0 -0.42377593582E+02 -0.20080718008E+02 -0.12907815635E+02  0.48638537994E+02  0.51100000000E-03 0.  1.
         23    2    1    0    0    0 -0.23647255560E+02  0.18877816606E+02  0.29625735264E+01  0.94687014995E+02  0.89673236316E+02 0.  0.
         11    1    3    3    0    0  0.18730338022E+02  0.38958534614E+02  0.15870389161E+02  0.46048477001E+02  0.51100000000E-03 0. -1.
         22    1    1    0    0    0  0.23647255560E+02 -0.18877816606E+02 -0.29625735264E+01  0.30402985005E+02  0.00000000000E+00 0.  1.
</event>
<event>
 5    1  0.1046082E-009  0.9118800E+02  0.7561462E-02  0.1125453E+00
         25   -1    0    0    0    0  0.00000000000E+00  0.00000000000E+00  0.99999998245E-14  0.12509000000E+03  0.12509000000E+03 0.  0.
        -11    1    3    3    0    0 -0.26845821231E+02  0.17425598007E+02  0.19794991586E+02  0.37632316905E+02  0.51100000000E-03 0. -1.
         23    2    1    0    0    0  0.18917358251E+02  0.30626528620E+02  0.31601187127E+00  0.89090686645E+02  0.81493557321E+02 0.  0.
         11    1    3    3    0    0  0.45763179482E+02  0.13200930613E+02 -0.19478979715E+02  0.51458369740E+02  0.51100000000E-03 0.  1.
         22    1    1    0    0    0 -0.18917358251E+02 -0.30626528620E+02 -0.31601187127E+00  0.35999313355E+02  0.00000000000E+00 0.  1.
</event>
<event>
 5    1  0.1046082E-009  0.9118800E+02  0.7561462E-02  0.1125453E+00
         25   -1    0    0    0    0  0.00000000000E+00  0.00000000000E+00  0.99999998245E-14  0.12509000000E+03  0.12509000000E+03 0.  0.
        -11    1    3    3    0    0 -0.17460902580E+02 -0.16832642473E+02  0.26898765250E+02  0.36218290182E+02  0.51100000000E-03 0. -1.
         23    2    1    0    0    0 -0.81687036800E+01  0.18052359778E+01 -0.28492246392E+02  0.95394971776E+02  0.90655424212E+02 0.  0.
         11    1    3    3    0    0  0.92921989002E+01  0.18637878450E+02 -0.55391011641E+02  0.59176681594E+02  0.51100000000E-03 0.  1.
         22    1    1    0    0    0  0.81687036800E+01 -0.18052359778E+01  0.28492246392E+02  0.29695028224E+02  0.00000000000E+00 0.  1.
</event>
<event>
 5    1  0.1046082E-009  0.9118800E+02  0.7561462E-02  0.1125453E+00
         25   -1    0    0    0    0  0.00000000000E+00  0.00000000000E+00  0.99999998245E-14  0.12509000000E+03  0.12509000000E+03 0.  0.
        -11    1    3    3    0    0 -0.11708527907E+02 -0.40424923430E+02 -0.20257626727E+02  0.46707981127E+02  0.51100000000E-03 0. -1.
         23    2    1    0    0    0 -0.28638074008E+02  0.25026066995E+01 -0.22064436919E+01  0.96258234238E+02  0.91838864005E+02 0.  0.
         11    1    3    3    0    0 -0.16929546101E+02  0.42927530130E+02  0.18051183035E+02  0.49550253112E+02  0.51100000000E-03 0.  1.
         22    1    1    0    0    0  0.28638074008E+02 -0.25026066995E+01  0.22064436919E+01  0.28831765762E+02  0.00000000000E+00 0. -1.
</event>
<event>
 5    1  0.1046082E-009  0.9118800E+02  0.7561462E-02  0.1125453E+00
         25   -1    0    0    0    0  0.00000000000E+00  0.00000000000E+00  0.99999998245E-14  0.12509000000E+03  0.12509000000E+03 0.  0.
        -11    1    3    3    0    0  0.76456035178E+01 -0.21594671311E+02 -0.24537347057E+02  0.33568832018E+02  0.51100000000E-03 0. -1.
         23    2    1    0    0    0 -0.77203360454E+01  0.22832165556E+02  0.16427098182E+02  0.95922193650E+02  0.91380010436E+02 0.  0.
         11    1    3    3    0    0 -0.15365939563E+02  0.44426836867E+02  0.40964445240E+02  0.62353361631E+02  0.51100000000E-03 0.  1.
         22    1    1    0    0    0  0.77203360454E+01 -0.22832165556E+02 -0.16427098182E+02  0.29167806350E+02  0.00000000000E+00 0.  1.
</event>
<event>
 5    1  0.1046082E-009  0.9118800E+02  0.7561462E-02  0.1125453E+00
         25   -1    0    0    0    0  0.00000000000E+00  0.00000000000E+00  0.99999998245E-14  0.12509000000E+03  0.12509000000E+03 0.  0.
        -11    1    3    3    0    0  0.30266561816E+02  0.23203979270E+02 -0.68700891309E+01  0.38751613426E+02  0.51100000000E-03 0.  1.
         23    2    1    0    0    0  0.19605515725E+01 -0.25204246745E+02 -0.15422472452E+02  0.95476650426E+02  0.90768057727E+02 0.  0.
         11    1    3    3    0    0 -0.28306010244E+02 -0.48408226016E+02 -0.85523833213E+01  0.56725037000E+02  0.51100000000E-03 0. -1.
         22    1    1    0    0    0 -0.19605515725E+01  0.25204246745E+02  0.15422472452E+02  0.29613349574E+02  0.00000000000E+00 0. -1.
</event>
<event>
 5    1  0.1046082E-009  0.9118800E+02  0.7561462E-02  0.1125453E+00
         25   -1    0    0    0    0  0.00000000000E+00  0.00000000000E+00  0.99999998245E-14  0.12509000000E+03  0.12509000000E+03 0.  0.
        -11    1    3    3    0    0  0.29682113541E+02  0.28685614131E+02  0.30216153390E+02  0.51155725470E+02  0.51100000000E-03 0.  1.
         23    2    1    0    0    0 -0.14101620498E+02  0.14358279518E+02  0.16037013292E+02  0.99356720249E+02  0.95966432527E+02 0.  0.
         11    1    3    3    0    0 -0.43783734040E+02 -0.14327334614E+02 -0.14179140098E+02  0.48200994780E+02  0.51100000000E-03 0. -1.
         22    1    1    0    0    0  0.14101620498E+02 -0.14358279518E+02 -0.16037013292E+02  0.25733279751E+02  0.00000000000E+00 0. -1.
</event>
<event>
 5    1  0.1046082E-009  0.9118800E+02  0.7561462E-02  0.1125453E+00
         25   -1    0    0    0    0  0.00000000000E+00  0.00000000000E+00  0.99999998245E-14  0.12509000000E+03  0.12509000000E+03 0.  0.
        -11    1    3    3    0    0 -0.37250382989E+02 -0.40625525442E+01  0.29428125020E+01  0.37586640069E+02  0.51100000000E-03 0.  1.
         23    2    1    0    0    0  0.16460810584E+02 -0.24818425224E+02  0.28927161969E+01  0.95168764687E+02  0.90342755379E+02 0.  0.
         11    1    3    3    0    0  0.53711193572E+02 -0.20755872680E+02 -0.50096305107E-01  0.57582124618E+02  0.51100000000E-03 0. -1.
         22    1    1    0    0    0 -0.16460810584E+02  0.24818425224E+02 -0.28927161969E+01  0.29921235313E+02  0.00000000000E+00 0. -1.
</event>
<event>
 5    1  0.1046082E-009  0.9118800E+02  0.7561462E-02  0.1125453E+00
         25   -1    0    0    0    0  0.00000000000E+00  0.00000000000E+00  0.99999998245E-14  0.12509000000E+03  0.12509000000E+03 0.  0.
        -11    1    3    3    0    0  0.16390832286E+02 -0.27760413724E+02 -0.84638991701E+01  0.33330729703E+02  0.51100000000E-03 0.  1.
         23    2    1    0    0    0 -0.11886906172E+02  0.27118481214E+02 -0.17835137589E+01  0.95427035161E+02  0.90699655768E+02 0.  0.
         11    1    3    3    0    0 -0.28277738458E+02  0.54878894938E+02  0.66803854112E+01  0.62096305457E+02  0.51100000000E-03 0. -1.
         22    1    1    0    0    0  0.11886906172E+02 -0.27118481214E+02  0.17835137589E+01  0.29662964839E+02  0.00000000000E+00 0. -1.
</event>
<event>
 5    1  0.1046082E-009  0.9118800E+02  0.7561462E-02  0.1125453E+00
         25   -1    0    0    0    0  0.00000000000E+00  0.00000000000E+00  0.99999998245E-14  0.12509000000E+03  0.12509000000E+03 0.  0.
        -11    1    3    3    0    0 -0.48057214521E+02 -0.12091569063E+02  0.10145871682E+02  0.50583007249E+02  0.51100000000E-03 0.  1.
         23    2    1    0    0    0 -0.14201690743E+02  0.15506629108E+02  0.20768745045E+02  0.95535231569E+02  0.90848754168E+02 0.  0.
         11    1    3    3    0    0  0.33855523778E+02  0.27598198171E+02  0.10622873364E+02  0.44952224320E+02  0.51100000000E-03 0. -1.
         22    1    1    0    0    0  0.14201690743E+02 -0.15506629108E+02 -0.20768745045E+02  0.29554768431E+02  0.00000000000E+00 0. -1.
</event>
<event>
 5    1  0.1046082E-009  0.9118800E+02  0.7561462E-02  0.1125453E+00
         25   -1    0    0    0    0  0.00000000000E+00  0.00000000000E+00  0.99999998245E-14  0.12509000000E+03  0.12509000000E+03 0.  0.
        -11    1    3    3    0    0  0.43202329572E+02  0.22230831067E+02  0.31656543881E+02  0.57989549930E+02  0.51100000000E-03 0.  1.
         23    2    1    0    0    0  0.69569378088E+01  0.15753411509E+02  0.23924087514E+02  0.95612365745E+02  0.90954898505E+02 0.  0.
         11    1    3    3    0    0 -0.36245391763E+02 -0.64774195571E+01 -0.77324563664E+01  0.37622815815E+02  0.51100000000E-03 0. -1.
         22    1    1    0    0    0 -0.69569378088E+01 -0.15753411509E+02 -0.23924087514E+02  0.29477634255E+02  0.00000000000E+00 0.  1.
</event>
<event>
 5    1  0.1046082E-009  0.9118800E+02  0.7561462E-02  0.1125453E+00
         25   -1    0    0    0    0  0.00000000000E+00  0.00000000000E+00  0.99999998245E-14  0.12509000000E+03  0.12509000000E+03 0.  0.
        -11    1    3    3    0    0 -0.21000837282E+02  0.22731008025E+02  0.10548164649E+02  0.32695529818E+02  0.51100000000E-03 0.  1.
         23    2    1    0    0    0  0.20140196234E+02 -0.20222124369E+02 -0.87715348122E+01  0.95231975261E+02  0.90430235380E+02 0.  0.
         11    1    3    3    0    0  0.41141033515E+02 -0.42953132394E+02 -0.19319699461E+02  0.62536445443E+02  0.51100000000E-03 0. -1.
         22    1    1    0    0    0 -0.20140196234E+02  0.20222124369E+02  0.87715348122E+01  0.29858024739E+02  0.00000000000E+00 0. -1.
</event>
<event>
 5    1  0.1046082E-009  0.9118800E+02  0.7561462E-02  0.1125453E+00
         25   -1    0    0    0    0  0.00000000000E+00  0.00000000000E+00  0.99999998245E-14  0.12509000000E+03  0.12509000000E+03 0.  0.
        -11    1    3    3    0    0  0.39718303580E+02 -0.39635488321E+01  0.46799222186E+02  0.61509515980E+02  0.51100000000E-03 0.  1.
         23    2    1    0    0    0  0.14861616569E+02 -0.89830335256E+01  0.22855078381E+02  0.96386043023E+02  0.92012782500E+02 0.  0.
         11    1    3    3    0    0 -0.24856687011E+02 -0.50194846935E+01 -0.23944143805E+02  0.34876527043E+02  0.51100000000E-03 0. -1.
         22    1    1    0    0    0 -0.14861616569E+02  0.89830335256E+01 -0.22855078381E+02  0.28703956977E+02  0.00000000000E+00 0.  1.
</event>
<event>
 5    1  0.1046082E-009  0.9118800E+02  0.7561462E-02  0.1125453E+00
         25   -1    0    0    0    0  0.00000000000E+00  0.00000000000E+00  0.99999998245E-14  0.12509000000E+03  0.12509000000E+03 0.  0.
        -11    1    3    3    0    0 -0.49297425598E+02 -0.11121124952E+02 -0.13308259522E+02  0.52259213183E+02  0.51100000000E-03 0.  1.
         23    2    1    0    0    0 -0.14732825182E+02 -0.27286550775E+02 -0.15384404032E+02  0.90473647239E+02  0.83589407022E+02 0.  0.
         11    1    3    3    0    0  0.34564600415E+02 -0.16165425823E+02 -0.20761445093E+01  0.38214434056E+02  0.51100000000E-03 0. -1.
         22    1    1    0    0    0  0.14732825182E+02  0.27286550775E+02  0.15384404032E+02  0.34616352761E+02  0.00000000000E+00 0.  1.
</event>
<event>
 5    1  0.1046082E-009  0.9118800E+02  0.7561462E-02  0.1125453E+00
         25   -1    0    0    0    0  0.00000000000E+00  0.00000000000E+00  0.99999998245E-14  0.12509000000E+03  0.12509000000E+03 0.  0.
        -11    1    3    3    0    0 -0.44349144472E+01 -0.38430602308E+02  0.16704569056E+02  0.42138133413E+02  0.51100000000E-03 0.  1.
         23    2    1    0    0    0 -0.23324421487E+02  0.11898138736E+02  0.12546097034E+02  0.96055556767E+02  0.91562389068E+02 0.  0.
         11    1    3    3    0    0 -0.18889507040E+02  0.50328741044E+02 -0.41584720223E+01  0.53917423354E+02  0.51100000000E-03 0. -1.
         22    1    1    0    0    0  0.23324421487E+02 -0.11898138736E+02 -0.12546097034E+02  0.29034443233E+02  0.00000000000E+00 0. -1.
</event>
<event>
 5    1  0.1046082E-009  0.9118800E+02  0.7561462E-02  0.1125453E+00
         25   -1    0    0    0    0  0.00000000000E+00  0.00000000000E+00  0.99999998245E-14  0.12509000000E+03  0.12509000000E+03 0.  0.
        -11    1    3    3    0    0 -0.60334823379E+02 -0.88302517560E-01  0.14204235135E+02  0.61984344842E+02  0.51100000000E-03 0.  1.
         23    2    1    0    0    0 -0.34403152549E+02 -0.33904266495E+00  0.14074768390E+02  0.87917551056E+02  0.79672484731E+02 0.  0.
         11    1    3    3    0    0  0.25931670830E+02 -0.25074014739E+00 -0.12946674447E+00  0.25933206214E+02  0.51100000000E-03 0. -1.
         22    1    1    0    0    0  0.34403152549E+02  0.33904266495E+00 -0.14074768390E+02  0.37172448944E+02  0.00000000000E+00 0.  1.
</event>
<event>
 5    1  0.1046082E-009  0.9118800E+02  0.7561462E-02  0.1125453E+00
         25   -1    0    0    0    0  0.00000000000E+00  0.00000000000E+00  0.99999998245E-14  0.12509000000E+03  0.12509000000E+03 0.  0.
        -11    1    3    3    0    0  0.39286039198E+02  0.34161701122E+01  0.15832096302E+02  0.42493745042E+02  0.51100000000E-03 0.  1.
         23    2    1    0    0    0  0.63141791677E+01 -0.89082041991E+01 -0.25836994748E+02  0.97040485597E+02  0.92898227038E+02 0.  0.
         11    1    3    3    0    0 -0.32971860031E+02 -0.12324374311E+02 -0.41669091050E+02  0.54546740555E+02  0.51100000000E-03 0. -1.
         22    1    1    0    0    0 -0.63141791677E+01  0.89082041991E+01  0.25836994748E+02  0.28049514403E+02  0.00000000000E+00 0. -1.
</event>
<event>
 5    1  0.1046082E-009  0.9118800E+02  0.7561462E-02  0.1125453E+00
         25   -1    0    0    0    0  0.00000000000E+00  0.00000000000E+00  0.99999998245E-14  0.12509000000E+03  0.12509000000E+03 0.  0.
        -11    1    3    3    0    0 -0.28792599021E+02  0.16865263237E+02 -0.12489120260E+02  0.35629046964E+02  0.51100000000E-03 0. -1.
         23    2    1    0    0    0  0.53440668702E+01 -0.29637910416E+02  0.13157499832E+01  0.94945415369E+02  0.90032971277E+02 0.  0.
         11    1    3    3    0    0  0.34136665891E+02 -0.46503173653E+02  0.13804870243E+02  0.59316368405E+02  0.51100000000E-03 0.  1.
         22    1    1    0    0    0 -0.53440668702E+01  0.29637910416E+02 -0.13157499832E+01  0.30144584631E+02  0.00000000000E+00 0.  1.
</event>
<event>
 5    1  0.1046082E-009  0.9118800E+02  0.7561462E-02  0.1125453E+00
         25   -1    0    0    0    0  0.00000000000E+00  0.00000000000E+00  0.99999998245E-14  0.12509000000E+03  0.12509000000E+03 0.  0.
        -11    1    3    3    0    0 -0.23886069989E+02  0.28337892386E+02 -0.33781970293E+01  0.37215490052E+02  0.51100000000E-03 0.  1.
         23    2    1    0    0    0  0.11754036971E+02 -0.12008870238E+02  0.22549711509E+02  0.96967769672E+02  0.92800261403E+02 0.  0.
         11    1    3    3    0    0  0.35640106959E+02 -0.40346762624E+02  0.25927908538E+02  0.59752279620E+02  0.51100000000E-03 0. -1.
         22    1    1    0    0    0 -0.11754036971E+02  0.12008870238E+02 -0.22549711509E+02  0.28122230328E+02  0.00000000000E+00 0. -1.
</event>
<event>
 5    1  0.1046082E-009  0.9118800E+02  0.7561462E-02  0.1125453E+00
         25   -1    0    0    0    0  0.00000000000E+00  0.00000000000E+00  0.99999998245E-14  0.12509000000E+03  0.12509000000E+03 0.  0.
        -11    1    3    3    0    0  0.11323798116E+02  0.44230462967E+02  0.12921852926E+01  0.45675288736E+02  0.51100000000E-03 0. -1.
         23    2    1    0    0    0  0.13808905095E+02  0.12357334516E+01  0.26215913711E+02  0.95433853440E+02  0.90709058829E+02 0.  0.
         11    1    3    3    0    0  0.24851069788E+01 -0.42994729516E+02  0.24923728418E+02  0.49758564703E+02  0.51100000000E-03 0.  1.
         22    1    1    0    0    0 -0.13808905095E+02 -0.12357334516E+01 -0.26215913711E+02  0.29656146560E+02  0.00000000000E+00 0.  1.
</event>
<event>
 5    1  0.1046082E-009  0.9118800E+02  0.7561462E-02  0.1125453E+00
         25   -1    0    0    0    0  0.00000000000E+00  0.00000000000E+00  0.99999998245E-14  0.12509000000E+03  0.12509000000E+03 0.  0.
        -11    1    3    3    0    0 -0.51866268483E+02  0.10425980481E+02 -0.85907999396E+01  0.53596760342E+02  0.51100000000E-03 0.  1.
         23    2    1    0    0    0 -0.26815171695E+02 -0.15490201897E+02  0.77422039484E+01  0.93169136762E+02  0.87530260683E+02 0.  0.
         11    1    3    3    0    0  0.25051096787E+02 -0.25916182378E+02  0.16333003888E+02  0.39572376420E+02  0.51100000000E-03 0. -1.
         22    1    1    0    0    0  0.26815171695E+02  0.15490201897E+02 -0.77422039484E+01  0.31920863238E+02  0.00000000000E+00 0.  1.
</event>
<event>
 5    1  0.1046082E-009  0.9118800E+02  0.7561462E-02  0.1125453E+00
         25   -1    0    0    0    0  0.00000000000E+00  0.00000000000E+00  0.99999998245E-14  0.12509000000E+03  0.12509000000E+03 0.  0.
        -11    1    3    3    0    0 -0.11207189120E+02  0.11214171957E+02 -0.31008750463E+02  0.34826733212E+02  0.51100000000E-03 0. -1.
         23    2    1    0    0    0 -0.70788439439E-02 -0.27892570595E+02  0.12617828151E+02  0.94476193772E+02  0.89378666683E+02 0.  0.
         11    1    3    3    0    0  0.11200110277E+02 -0.39106742552E+02  0.43626578615E+02  0.59649460560E+02  0.51100000000E-03 0.  1.
         22    1    1    0    0    0  0.70788439439E-02  0.27892570595E+02 -0.12617828151E+02  0.30613806228E+02  0.00000000000E+00 0.  1.
</event>
<event>
 5    1  0.1046082E-009  0.9118800E+02  0.7561462E-02  0.1125453E+00
         25   -1    0    0    0    0  0.00000000000E+00  0.00000000000E+00  0.99999998245E-14  0.12509000000E+03  0.12509000000E+03 0.  0.
        -11    1    3    3    0    0 -0.98108360101E+01 -0.39800822850E+02 -0.39771961499E+02  0.57115382556E+02  0.51100000000E-03 0.  1.
         23    2    1    0    0    0  0.13976095108E+02 -0.14758686222E+02 -0.17968026822E+02  0.97960679306E+02  0.94129138149E+02 0.  0.
         11    1    3    3    0    0  0.23786931118E+02  0.25042136628E+02  0.21803934677E+02  0.40845296750E+02  0.51100000000E-03 0. -1.
         22    1    1    0    0    0 -0.13976095108E+02  0.14758686222E+02  0.17968026822E+02  0.27129320694E+02  0.00000000000E+00 0.  1.
</event>
<event>
 5    1  0.1046082E-009  0.9118800E+02  0.7561462E-02  0.1125453E+00
         25   -1    0    0    0    0  0.00000000000E+00  0.00000000000E+00  0.99999998245E-14  0.12509000000E+03  0.12509000000E+03 0.  0.
        -11    1    3    3    0    0  0.89074682275E+01  0.11221882359E+02  0.26053043189E+02  0.29732720924E+02  0.51100000000E-03 0.  1.
         23    2    1    0    0    0  0.28685543869E+02 -0.29110112502E+02 -0.43735361868E+01  0.83987848040E+02  0.73243236703E+02 0.  0.
         11    1    3    3    0    0  0.19778075641E+02 -0.40331994861E+02 -0.30426579376E+02  0.54255127116E+02  0.51100000000E-03 0. -1.
         22    1    1    0    0    0 -0.28685543869E+02  0.29110112502E+02  0.43735361868E+01  0.41102151960E+02  0.00000000000E+00 0. -1.
</event>
<event>
 5    1  0.1046082E-009  0.9118800E+02  0.7561462E-02  0.1125453E+00
         25   -1    0    0    0    0  0.00000000000E+00  0.00000000000E+00  0.99999998245E-14  0.12509000000E+03  0.12509000000E+03 0.  0.
        -11    1    3    3    0    0 -0.20093821761E+02  0.48520009427E+02  0.31975930179E+02  0.61485064030E+02  0.51100000000E-03 0. -1.
         23    2    1    0    0    0 -0.76161634120E+01  0.19555670046E+02  0.22286440487E+02  0.94477655992E+02  0.89380713110E+02 0.  0.
         11    1    3    3    0    0  0.12477658349E+02 -0.28964339381E+02 -0.96894896915E+01  0.32992591962E+02  0.51100000000E-03 0.  1.
         22    1    1    0    0    0  0.76161634120E+01 -0.19555670046E+02 -0.22286440487E+02  0.30612344008E+02  0.00000000000E+00 0. -1.
</event>
<event>
 5    1  0.1046082E-009  0.9118800E+02  0.7561462E-02  0.1125453E+00
         25   -1    0    0    0    0  0.00000000000E+00  0.00000000000E+00  0.99999998245E-14  0.12509000000E+03  0.12509000000E+03 0.  0.
        -11    1    3    3    0    0 -0.42737030294E+02  0.47079153607E+01 -0.29483594303E+02  0.52133487882E+02  0.51100000000E-03 0.  1.
         23    2    1    0    0    0 -0.11399735448E+02 -0.21838439874E+02 -0.17351657483E+02  0.94957767394E+02  0.90050131297E+02 0.  0.
         11    1    3    3    0    0  0.31337294846E+02 -0.26546355234E+02  0.12131936820E+02  0.42824279512E+02  0.51100000000E-03 0. -1.
         22    1    1    0    0    0  0.11399735448E+02  0.21838439874E+02  0.17351657483E+02  0.30132232606E+02  0.00000000000E+00 0.  1.
</event>
<event>
 5    1  0.1046082E-009  0.9118800E+02  0.7561462E-02  0.1125453E+00
         25   -1    0    0    0    0  0.00000000000E+00  0.00000000000E+00  0.99999998245E-14  0.12509000000E+03  0.12509000000E+03 0.  0.
        -11    1    3    3    0    0  0.54785302602E+02  0.12265263333E+02 -0.22754076270E+02  0.60577339434E+02  0.51100000000E-03 0.  1.
         23    2    1    0    0    0  0.29073124591E+02  0.11245620722E+02 -0.16206887252E+01  0.93875625253E+02  0.88534150619E+02 0.  0.
         11    1    3    3    0    0 -0.25712178010E+02 -0.10196426112E+01  0.21133387545E+02  0.33298285819E+02  0.51100000000E-03 0. -1.
         22    1    1    0    0    0 -0.29073124591E+02 -0.11245620722E+02  0.16206887252E+01  0.31214374747E+02  0.00000000000E+00 0.  1.
</event>
<event>
 5    1  0.1046082E-009  0.9118800E+02  0.7561462E-02  0.1125453E+00
         25   -1    0    0    0    0  0.00000000000E+00  0.00000000000E+00  0.99999998245E-14  0.12509000000E+03  0.12509000000E+03 0.  0.
        -11    1    3    3    0    0 -0.45890644884E+02  0.13652066567E+02  0.39544508041E+01  0.48041314416E+02  0.51100000000E-03 0. -1.
         23    2    1    0    0    0 -0.12201308058E+01  0.18336706782E+02  0.21980683973E+02  0.96439101189E+02  0.92084886031E+02 0.  0.
         11    1    3    3    0    0  0.44670514078E+02  0.46846402142E+01  0.18026233169E+02  0.48397786772E+02  0.51100000000E-03 0.  1.
         22    1    1    0    0    0  0.12201308058E+01 -0.18336706782E+02 -0.21980683973E+02  0.28650898811E+02  0.00000000000E+00 0. -1.
</event>
<event>
 5    1  0.1046082E-009  0.9118800E+02  0.7561462E-02  0.1125453E+00
         25   -1    0    0    0    0  0.00000000000E+00  0.00000000000E+00  0.99999998245E-14  0.12509000000E+03  0.12509000000E+03 0.  0.
        -11    1    3    3    0    0  0.32700699599E+02 -0.33804258421E+01  0.18112810048E+02  0.37534476435E+02  0.51100000000E-03 0.  1.
         23    2    1    0    0    0 -0.21020581715E+02  0.17818372143E+02  0.21647513003E+01  0.97448629020E+02  0.93446187233E+02 0.  0.
         11    1    3    3    0    0 -0.53721281314E+02  0.21198797985E+02 -0.15948058747E+02  0.59914152586E+02  0.51100000000E-03 0. -1.
         22    1    1    0    0    0  0.21020581715E+02 -0.17818372143E+02 -0.21647513003E+01  0.27641370980E+02  0.00000000000E+00 0. -1.
</event>
<event>
 5    1  0.1046082E-009  0.9118800E+02  0.7561462E-02  0.1125453E+00
         25   -1    0    0    0    0  0.00000000000E+00  0.00000000000E+00  0.99999998245E-14  0.12509000000E+03  0.12509000000E+03 0.  0.
        -11    1    3    3    0    0  0.17702341028E+02 -0.52122267467E+02  0.20112304765E+02  0.58605532563E+02  0.51100000000E-03 0.  1.
         23    2    1    0    0    0  0.92288209143E+01 -0.26416057177E+02 -0.62825770756E+01  0.96411611151E+02  0.92047535425E+02 0.  0.
         11    1    3    3    0    0 -0.84735201135E+01  0.25706210289E+02 -0.26394881841E+02  0.37806078588E+02  0.51100000000E-03 0. -1.
         22    1    1    0    0    0 -0.92288209143E+01  0.26416057177E+02  0.62825770756E+01  0.28678388849E+02  0.00000000000E+00 0.  1.
</event>
<event>
 5    1  0.1046082E-009  0.9118800E+02  0.7561462E-02  0.1125453E+00
         25   -1    0    0    0    0  0.00000000000E+00  0.00000000000E+00  0.99999998245E-14  0.12509000000E+03  0.12509000000E+03 0.  0.
        -11    1    3    3    0    0  0.75687003506E+01  0.26847145091E+02  0.28626454292E+02  0.39969091936E+02  0.51100000000E-03 0.  1.
         23    2    1    0    0    0 -0.12832091027E+02 -0.22653372309E+02  0.14271287075E+02  0.95399808491E+02  0.90662097859E+02 0.  0.
         11    1    3    3    0    0 -0.20400791378E+02 -0.49500517400E+02 -0.14355167218E+02  0.55430716555E+02  0.51100000000E-03 0. -1.
         22    1    1    0    0    0  0.12832091027E+02  0.22653372309E+02 -0.14271287075E+02  0.29690191509E+02  0.00000000000E+00 0. -1.
</event>
<event>
 5    1  0.1046082E-009  0.9118800E+02  0.7561462E-02  0.1125453E+00
         25   -1    0    0    0    0  0.00000000000E+00  0.00000000000E+00  0.99999998245E-14  0.12509000000E+03  0.12509000000E+03 0.  0.
        -11    1    3    3    0    0 -0.32451989616E+02 -0.37272714108E+02 -0.19110008343E+02  0.52986595155E+02  0.51100000000E-03 0.  1.
         23    2    1    0    0    0 -0.23248017449E+02  0.48191604648E+01 -0.16549484947E+02  0.96149024292E+02  0.91689992897E+02 0.  0.
         11    1    3    3    0    0  0.92039721664E+01  0.42091874573E+02  0.25605233966E+01  0.43162429137E+02  0.51100000000E-03 0. -1.
         22    1    1    0    0    0  0.23248017449E+02 -0.48191604648E+01  0.16549484947E+02  0.28940975708E+02  0.00000000000E+00 0.  1.
</event>
<event>
 5    1  0.1046082E-009  0.9118800E+02  0.7561462E-02  0.1125453E+00
         25   -1    0    0    0    0  0.00000000000E+00  0.00000000000E+00  0.99999998245E-14  0.12509000000E+03  0.12509000000E+03 0.  0.
        -11    1    3    3    0    0  0.23911721240E+02 -0.17523654565E+02 -0.13559873949E+02  0.32599372138E+02  0.51100000000E-03 0. -1.
         23    2    1    0    0    0 -0.17914390812E+02  0.21876721856E+02  0.10545019883E+02  0.94911964914E+02  0.89986483886E+02 0.  0.
         11    1    3    3    0    0 -0.41826112052E+02  0.39400376422E+02  0.24104893832E+02  0.62312592776E+02  0.51100000000E-03 0.  1.
         22    1    1    0    0    0  0.17914390812E+02 -0.21876721856E+02 -0.10545019883E+02  0.30178035086E+02  0.00000000000E+00 0.  1.
</event>
<event>
 5    1  0.1046082E-009  0.9118800E+02  0.7561462E-02  0.1125453E+00
         25   -1    0    0    0    0  0.00000000000E+00  0.00000000000E+00  0.99999998245E-14  0.12509000000E+03  0.12509000000E+03 0.  0.
        -11    1    3    3    0    0  0.53271242440E+02  0.17259835882E+02 -0.14644814892E+01  0.56016711007E+02  0.51100000000E-03 0. -1.
         23    2    1    0    0    0  0.14169787803E+02  0.24853543598E+02  0.39295411252E+01  0.96212278324E+02  0.91776247968E+02 0.  0.
         11    1    3    3    0    0 -0.39101454638E+02  0.75937077161E+01  0.53940226144E+01  0.40195567316E+02  0.51100000000E-03 0.  1.
         22    1    1    0    0    0 -0.14169787803E+02 -0.24853543598E+02 -0.39295411252E+01  0.28877721676E+02  0.00000000000E+00 0. -1.
</event>
<event>
 5    1  0.1046082E-009  0.9118800E+02  0.7561462E-02  0.1125453E+00
         25   -1    0    0    0    0  0.00000000000E+00  0.00000000000E+00  0.99999998245E-14  0.12509000000E+03  0.12509000000E+03 0.  0.
        -11    1    3    3    0    0  0.80187408950E+01  0.56332957546E+02  0.20640278769E+02  0.60528699138E+02  0.51100000000E-03 0.  1.
         23    2    1    0    0    0  0.19657748719E+01  0.27521116026E+02 -0.16403317678E+01  0.97450050896E+02  0.93448090581E+02 0.  0.
         11    1    3    3    0    0 -0.60529660231E+01 -0.28811841520E+02 -0.22280610537E+02  0.36921351758E+02  0.51100000000E-03 0. -1.
         22    1    1    0    0    0 -0.19657748719E+01 -0.27521116026E+02  0.16403317678E+01  0.27639949104E+02  0.00000000000E+00 0.  1.
</event>
<event>
 5    1  0.1046082E-009  0.9118800E+02  0.7561462E-02  0.1125453E+00
         25   -1    0    0    0    0  0.00000000000E+00  0.00000000000E+00  0.99999998245E-14  0.12509000000E+03  0.12509000000E+03 0.  0.
        -11    1    3    3    0    0  0.83351670549E+01  0.18780586280E+02  0.12972853131E+02  0.24299801429E+02  0.51100000000E-03 0.  1.
         23    2    1    0    0    0 -0.35587343597E+02  0.59487651101E+01  0.34767710276E+02  0.74983707896E+02  0.55784549306E+02 0.  0.
         11    1    3    3    0    0 -0.43922510652E+02 -0.12831821170E+02  0.21794857145E+02  0.50683906467E+02  0.51100000000E-03 0. -1.
         22    1    1    0    0    0  0.35587343597E+02 -0.59487651101E+01 -0.34767710276E+02  0.50106292104E+02  0.00000000000E+00 0.  1.
</event>
<event>
 5    1  0.1046082E-009  0.9118800E+02  0.7561462E-02  0.1125453E+00
         25   -1    0    0    0    0  0.00000000000E+00  0.00000000000E+00  0.99999998245E-14  0.12509000000E+03  0.12509000000E+03 0.  0.
        -11    1    3    3    0    0 -0.16338046627E+02 -0.79470105237E+01 -0.58038432739E+02  0.60815675766E+02  0.51100000000E-03 0.  1.
         23    2    1    0    0    0 -0.65874897991E+00  0.40768356145E+01 -0.28110092611E+02  0.96678174197E+02  0.92409077047E+02 0.  0.
         11    1    3    3    0    0  0.15679297647E+02  0.12023846138E+02  0.29928340128E+02  0.35862498431E+02  0.51100000000E-03 0. -1.
         22    1    1    0    0    0  0.65874897991E+00 -0.40768356145E+01  0.28110092611E+02  0.28411825803E+02  0.00000000000E+00 0.  1.
</event>
<event>
 5    1  0.1046082E-009  0.9118800E+02  0.7561462E-02  0.1125453E+00
         25   -1    0    0    0    0  0.00000000000E+00  0.00000000000E+00  0.99999998245E-14  0.12509000000E+03  0.12509000000E+03 0.  0.
        -11    1    3    3    0    0  0.33013835115E+02 -0.11903039938E+02  0.45200704504E+02  0.57224988918E+02  0.51100000000E-03 0.  1.
         23    2    1    0    0    0  0.11648828672E+02  0.12072725576E+02  0.24372282019E+02  0.95501927351E+02  0.90802885883E+02 0.  0.
         11    1    3    3    0    0 -0.21365006443E+02  0.23975765514E+02 -0.20828422485E+02  0.38276938432E+02  0.51100000000E-03 0. -1.
         22    1    1    0    0    0 -0.11648828672E+02 -0.12072725576E+02 -0.24372282019E+02  0.29588072649E+02  0.00000000000E+00 0.  1.
</event>
<event>
 5    1  0.1046082E-009  0.9118800E+02  0.7561462E-02  0.1125453E+00
         25   -1    0    0    0    0  0.00000000000E+00  0.00000000000E+00  0.99999998245E-14  0.12509000000E+03  0.12509000000E+03 0.  0.
        -11    1    3    3    0    0  0.23155468654E+02  0.82933425816E+01 -0.19394430708E+02  0.31322503133E+02  0.51100000000E-03 0. -1.
         23    2    1    0    0    0 -0.13235227094E+02 -0.25545592082E+02  0.15847650208E+02  0.92243439630E+02  0.86197190363E+02 0.  0.
         11    1    3    3    0    0 -0.36390695748E+02 -0.33838934664E+02  0.35242080915E+02  0.60920936497E+02  0.51100000000E-03 0.  1.
         22    1    1    0    0    0  0.13235227094E+02  0.25545592082E+02 -0.15847650208E+02  0.32846560370E+02  0.00000000000E+00 0.  1.
</event>
<event>
 5    1  0.1046082E-009  0.9118800E+02  0.7561462E-02  0.1125453E+00
         25   -1    0    0    0    0  0.00000000000E+00  0.00000000000E+00  0.99999998245E-14  0.12509000000E+03  0.12509000000E+03 0.  0.
        -11    1    3    3    0    0 -0.53584967543E+01  0.15580300738E+02 -0.55765588262E+02  0.58148603534E+02  0.51100000000E-03 0. -1.
         23    2    1    0    0    0  0.13909257780E+02  0.94276227694E+01 -0.24936222992E+02  0.95020701036E+02  0.90137510977E+02 0.  0.
         11    1    3    3    0    0  0.19267754535E+02 -0.61526779682E+01  0.30829365270E+02  0.36872097502E+02  0.51100000000E-03 0.  1.
         22    1    1    0    0    0 -0.13909257780E+02 -0.94276227694E+01  0.24936222992E+02  0.30069298964E+02  0.00000000000E+00 0. -1.
</event>
<event>
 5    1  0.1046082E-009  0.9118800E+02  0.7561462E-02  0.1125453E+00
         25   -1    0    0    0    0  0.00000000000E+00  0.00000000000E+00  0.99999998245E-14  0.12509000000E+03  0.12509000000E+03 0.  0.
        -11    1    3    3    0    0  0.46413506626E+02 -0.28740523620E+02 -0.99284783699E+01  0.55486989270E+02  0.51100000000E-03 0.  1.
         23    2    1    0    0    0  0.30175283969E+02  0.52693370029E+01 -0.89827318155E-02  0.94458092522E+02  0.89353329469E+02 0.  0.
         11    1    3    3    0    0 -0.16238222657E+02  0.34009860623E+02  0.99194956381E+01  0.38971103252E+02  0.51100000000E-03 0. -1.
         22    1    1    0    0    0 -0.30175283969E+02 -0.52693370029E+01  0.89827318155E-02  0.30631907478E+02  0.00000000000E+00 0.  1.
</event>
<event>
 5    1  0.1046082E-009  0.9118800E+02  0.7561462E-02  0.1125453E+00
         25   -1    0    0    0    0  0.00000000000E+00  0.00000000000E+00  0.99999998245E-14  0.12509000000E+03  0.12509000000E+03 0.  0.
        -11    1    3    3    0    0  0.79245259451E+01  0.44915188634E+02 -0.24476825277E+02  0.51761832052E+02  0.51100000000E-03 0.  1.
         23    2    1    0    0    0  0.26172990755E+02  0.79292183886E+01 -0.53502782816E+01  0.97223830062E+02  0.93144778195E+02 0.  0.
         11    1    3    3    0    0  0.18248464810E+02 -0.36985970245E+02  0.19126546996E+02  0.45461998011E+02  0.51100000000E-03 0. -1.
         22    1    1    0    0    0 -0.26172990755E+02 -0.79292183886E+01  0.53502782816E+01  0.27866169938E+02  0.00000000000E+00 0.  1.
</event>
<event>
 5    1  0.1046082E-009  0.9118800E+02  0.7561462E-02  0.1125453E+00
         25   -1    0    0    0    0  0.00000000000E+00  0.00000000000E+00  0.99999998245E-14  0.12509000000E+03  0.12509000000E+03 0.  0.
        -11    1    3    3    0    0 -0.34453725426E+02 -0.24847826279E+02  0.37430204713E+02  0.56617081271E+02  0.51100000000E-03 0.  1.
         23    2    1    0    0    0 -0.27256972081E+02 -0.11627141411E+02  0.16775498551E+01  0.95409246675E+02  0.90675119151E+02 0.  0.
         11    1    3    3    0    0  0.71967533441E+01  0.13220684868E+02 -0.35752654858E+02  0.38792165404E+02  0.51100000000E-03 0. -1.
         22    1    1    0    0    0  0.27256972081E+02  0.11627141411E+02 -0.16775498551E+01  0.29680753325E+02  0.00000000000E+00 0.  1.
</event>
<event>
 5    1  0.1046082E-009  0.9118800E+02  0.7561462E-02  0.1125453E+00
         25   -1    0    0    0    0  0.00000000000E+00  0.00000000000E+00  0.99999998245E-14  0.12509000000E+03  0.12509000000E+03 0.  0.
        -11    1    3    3    0    0 -0.36868564924E+02 -0.25843848745E+02  0.26576044912E+02  0.52282709962E+02  0.51100000000E-03 0.  1.
         23    2    1    0    0    0  0.25090766886E+00 -0.38470991673E+01  0.29320176627E+02  0.95517447115E+02  0.90824263384E+02 0.  0.
         11    1    3    3    0    0  0.37119472593E+02  0.21996749578E+02  0.27441317152E+01  0.43234737153E+02  0.51100000000E-03 0. -1.
         22    1    1    0    0    0 -0.25090766886E+00  0.38470991673E+01 -0.29320176627E+02  0.29572552885E+02  0.00000000000E+00 0.  1.
</event>
<event>
 5    1  0.1046082E-009  0.9118800E+02  0.7561462E-02  0.1125453E+00
         25   -1    0    0    0    0  0.00000000000E+00  0.00000000000E+00  0.99999998245E-14  0.12509000000E+03  0.12509000000E+03 0.  0.
        -11    1    3    3    0    0 -0.29856932513E+02  0.16966364662E+02 -0.19962610492E+02  0.39721527750E+02  0.51100000000E-03 0. -1.
         23    2    1    0    0    0 -0.56189040675E+00 -0.26486809116E+02  0.55725301581E+01  0.98017507128E+02  0.94204627451E+02 0.  0.
         11    1    3    3    0    0  0.29295042106E+02 -0.43453173778E+02  0.25535140650E+02  0.58295979378E+02  0.51100000000E-03 0.  1.
         22    1    1    0    0    0  0.56189040675E+00  0.26486809116E+02 -0.55725301581E+01  0.27072492872E+02  0.00000000000E+00 0.  1.
</event>
<event>
 5    1  0.1046082E-009  0.9118800E+02  0.7561462E-02  0.1125453E+00
         25   -1    0    0    0    0  0.00000000000E+00  0.00000000000E+00  0.99999998245E-14  0.12509000000E+03  0.12509000000E+03 0.  0.
        -11    1    3    3    0    0 -0.34644436189E+02  0.40279584499E+02  0.31849328270E+02  0.61944019871E+02  0.51100000000E-03 0.  1.
         23    2    1    0    0    0 -0.11760259206E+02  0.23047527100E+02  0.15514275951E+02  0.94920728211E+02  0.89998664900E+02 0.  0.
         11    1    3    3    0    0  0.22884176982E+02 -0.17232057399E+02 -0.16335052319E+02  0.32976708339E+02  0.51100000000E-03 0. -1.
         22    1    1    0    0    0  0.11760259206E+02 -0.23047527100E+02 -0.15514275951E+02  0.30169271789E+02  0.00000000000E+00 0.  1.
</event>
<event>
 5    1  0.1046082E-009  0.9118800E+02  0.7561462E-02  0.1125453E+00
         25   -1    0    0    0    0  0.00000000000E+00  0.00000000000E+00  0.99999998245E-14  0.12509000000E+03  0.12509000000E+03 0.  0.
        -11    1    3    3    0    0  0.29948245952E+02 -0.74949065480E+01 -0.39296653619E+02  0.49972973152E+02  0.51100000000E-03 0.  1.
         23    2    1    0    0    0 -0.11465824798E+02 -0.14907701725E+02 -0.23680216350E+02  0.94850004045E+02  0.89900310966E+02 0.  0.
         11    1    3    3    0    0 -0.41414070750E+02 -0.74127951767E+01  0.15616437269E+02  0.44877030892E+02  0.51100000000E-03 0. -1.
         22    1    1    0    0    0  0.11465824798E+02  0.14907701725E+02  0.23680216350E+02  0.30239995955E+02  0.00000000000E+00 0.  1.
</event>
<event>
 5    1  0.1046082E-009  0.9118800E+02  0.7561462E-02  0.1125453E+00
         25   -1    0    0    0    0  0.00000000000E+00  0.00000000000E+00  0.99999998245E-14  0.12509000000E+03  0.12509000000E+03 0.  0.
        -11    1    3    3    0    0  0.56394297825E+02  0.16756129147E+02  0.74192832912E+01  0.59296968354E+02  0.51100000000E-03 0.  1.
         23    2    1    0    0    0  0.28366397816E+02 -0.29372557817E+01 -0.57535637555E+01  0.95997329231E+02  0.91482805636E+02 0.  0.
         11    1    3    3    0    0 -0.28027900009E+02 -0.19693384929E+02 -0.13172847047E+02  0.36700360877E+02  0.51100000000E-03 0. -1.
         22    1    1    0    0    0 -0.28366397816E+02  0.29372557817E+01  0.57535637555E+01  0.29092670769E+02  0.00000000000E+00 0.  1.
</event>
<event>
 5    1  0.1046082E-009  0.9118800E+02  0.7561462E-02  0.1125453E+00
         25   -1    0    0    0    0  0.00000000000E+00  0.00000000000E+00  0.99999998245E-14  0.12509000000E+03  0.12509000000E+03 0.  0.
        -11    1    3    3    0    0 -0.28368670988E+01  0.13034985798E+02  0.51788603418E+02  0.53479137184E+02  0.51100000000E-03 0.  1.
         23    2    1    0    0    0  0.93841260836E+01 -0.15362755301E+02  0.24299322499E+02  0.94848750907E+02  0.89898567296E+02 0.  0.
         11    1    3    3    0    0  0.12220993182E+02 -0.28397741099E+02 -0.27489280919E+02  0.41369613723E+02  0.51100000000E-03 0. -1.
         22    1    1    0    0    0 -0.93841260836E+01  0.15362755301E+02 -0.24299322499E+02  0.30241249093E+02  0.00000000000E+00 0.  1.
</event>
<event>
 5    1  0.1046082E-009  0.9118800E+02  0.7561462E-02  0.1125453E+00
         25   -1    0    0    0    0  0.00000000000E+00  0.00000000000E+00  0.99999998245E-14  0.12509000000E+03  0.12509000000E+03 0.  0.
        -11    1    3    3    0    0  0.13938261675E+02 -0.34975232419E+02 -0.86243578108E+01  0.38625400570E+02  0.51100000000E-03 0. -1.
         23    2    1    0    0    0 -0.64309677064E+01  0.17348152107E+02 -0.21999309742E+02  0.96344820295E+02  0.91956723742E+02 0.  0.
         11    1    3    3    0    0 -0.20369229382E+02  0.52323384526E+02 -0.13374951932E+02  0.57719419724E+02  0.51100000000E-03 0.  1.
         22    1    1    0    0    0  0.64309677064E+01 -0.17348152107E+02  0.21999309742E+02  0.28745179705E+02  0.00000000000E+00 0.  1.
</event>
<event>
 5    1  0.1046082E-009  0.9118800E+02  0.7561462E-02  0.1125453E+00
         25   -1    0    0    0    0  0.00000000000E+00  0.00000000000E+00  0.99999998245E-14  0.12509000000E+03  0.12509000000E+03 0.  0.
        -11    1    3    3    0    0 -0.18056962111E+02 -0.84733438155E+01  0.56098442067E+02  0.59538950602E+02  0.51100000000E-03 0.  1.
         23    2    1    0    0    0 -0.12781119197E+02  0.89366627620E+01  0.28688856951E+02  0.92436187628E+02  0.86476455298E+02 0.  0.
         11    1    3    3    0    0  0.52758429140E+01  0.17410006578E+02 -0.27409585116E+02  0.32897237027E+02  0.51100000000E-03 0. -1.
         22    1    1    0    0    0  0.12781119197E+02 -0.89366627620E+01 -0.28688856951E+02  0.32653812372E+02  0.00000000000E+00 0.  1.
</event>
<event>
 5    1  0.1046082E-009  0.9118800E+02  0.7561462E-02  0.1125453E+00
         25   -1    0    0    0    0  0.00000000000E+00  0.00000000000E+00  0.99999998245E-14  0.12509000000E+03  0.12509000000E+03 0.  0.
        -11    1    3    3    0    0 -0.43831870865E+02  0.17804469695E+02  0.36303867241E+02  0.59633906644E+02  0.51100000000E-03 0. -1.
         23    2    1    0    0    0 -0.20955542245E+02  0.18401308252E+02  0.79094879417E+01  0.96102021532E+02  0.91625845955E+02 0.  0.
         11    1    3    3    0    0  0.22876328621E+02  0.59683855736E+00 -0.28394379300E+02  0.36468114888E+02  0.51100000000E-03 0.  1.
         22    1    1    0    0    0  0.20955542245E+02 -0.18401308252E+02 -0.79094879417E+01  0.28987978468E+02  0.00000000000E+00 0. -1.
</event>
<event>
 5    1  0.1046082E-009  0.9118800E+02  0.7561462E-02  0.1125453E+00
         25   -1    0    0    0    0  0.00000000000E+00  0.00000000000E+00  0.99999998245E-14  0.12509000000E+03  0.12509000000E+03 0.  0.
        -11    1    3    3    0    0  0.23021992422E+02 -0.43374142261E+02 -0.29949745638E+02  0.57517959074E+02  0.51100000000E-03 0.  1.
         23    2    1    0    0    0 -0.65431043730E+01 -0.24295309286E+02 -0.15372531163E+02  0.95604597129E+02  0.90944213723E+02 0.  0.
         11    1    3    3    0    0 -0.29565096795E+02  0.19078832975E+02  0.14577214475E+02  0.38086638055E+02  0.51100000000E-03 0. -1.
         22    1    1    0    0    0  0.65431043730E+01  0.24295309286E+02  0.15372531163E+02  0.29485402871E+02  0.00000000000E+00 0.  1.
</event>
<event>
 5    1  0.1046082E-009  0.9118800E+02  0.7561462E-02  0.1125453E+00
         25   -1    0    0    0    0  0.00000000000E+00  0.00000000000E+00  0.99999998245E-14  0.12509000000E+03  0.12509000000E+03 0.  0.
        -11    1    3    3    0    0  0.12567437210E+02  0.47363746855E+02  0.14511217960E+02  0.51106168327E+02  0.51100000000E-03 0.  1.
         23    2    1    0    0    0 -0.20192311950E+02  0.20400392350E+02 -0.12269184984E+01  0.96360036566E+02  0.91977420317E+02 0.  0.
         11    1    3    3    0    0 -0.32759749159E+02 -0.26963354505E+02 -0.15738136458E+02  0.45253868239E+02  0.51100000000E-03 0. -1.
         22    1    1    0    0    0  0.20192311950E+02 -0.20400392350E+02  0.12269184984E+01  0.28729963434E+02  0.00000000000E+00 0.  1.
</event>
<event>
 5    1  0.1046082E-009  0.9118800E+02  0.7561462E-02  0.1125453E+00
         25   -1    0    0    0    0  0.00000000000E+00  0.00000000000E+00  0.99999998245E-14  0.12509000000E+03  0.12509000000E+03 0.  0.
        -11    1    3    3    0    0  0.24394286551E+02 -0.48320766298E+02  0.17345016587E+02  0.56840366577E+02  0.51100000000E-03 0.  1.
         23    2    1    0    0    0  0.26441663809E+00 -0.19215592102E+02  0.23054939680E+02  0.95076017598E+02  0.90214244899E+02 0.  0.
         11    1    3    3    0    0 -0.24129869912E+02  0.29105174197E+02  0.57099230923E+01  0.38235651021E+02  0.51100000000E-03 0. -1.
         22    1    1    0    0    0 -0.26441663809E+00  0.19215592102E+02 -0.23054939680E+02  0.30013982402E+02  0.00000000000E+00 0.  1.
</event>
<event>
 5    1  0.1046082E-009  0.9118800E+02  0.7561462E-02  0.1125453E+00
         25   -1    0    0    0    0  0.00000000000E+00  0.00000000000E+00  0.99999998245E-14  0.12509000000E+03  0.12509000000E+03 0.  0.
        -11    1    3    3    0    0 -0.30761821191E+02 -0.15625120250E+02  0.50699462177E+02  0.61325928375E+02  0.51100000000E-03 0.  1.
         23    2    1    0    0    0 -0.23070413966E+02 -0.30100732056E+01  0.25234324012E+02  0.90766893358E+02  0.84027098488E+02 0.  0.
         11    1    3    3    0    0  0.76914072248E+01  0.12615047044E+02 -0.25465138166E+02  0.29440964982E+02  0.51100000000E-03 0. -1.
         22    1    1    0    0    0  0.23070413966E+02  0.30100732056E+01 -0.25234324012E+02  0.34323106642E+02  0.00000000000E+00 0.  1.
</event>
<event>
 5    1  0.1046082E-009  0.9118800E+02  0.7561462E-02  0.1125453E+00
         25   -1    0    0    0    0  0.00000000000E+00  0.00000000000E+00  0.99999998245E-14  0.12509000000E+03  0.12509000000E+03 0.  0.
        -11    1    3    3    0    0 -0.14493763017E+02 -0.33388756326E+02 -0.32961452208E+02  0.49105351514E+02  0.51100000000E-03 0. -1.
         23    2    1    0    0    0 -0.28242562701E+02 -0.44955815645E+01  0.19045498581E+01  0.96428529143E+02  0.92070523628E+02 0.  0.
         11    1    3    3    0    0 -0.13748799684E+02  0.28893174762E+02  0.34866002066E+02  0.47323177629E+02  0.51100000000E-03 0.  1.
         22    1    1    0    0    0  0.28242562701E+02  0.44955815645E+01 -0.19045498581E+01  0.28661470857E+02  0.00000000000E+00 0. -1.
</event>
<event>
 5    1  0.1046082E-009  0.9118800E+02  0.7561462E-02  0.1125453E+00
         25   -1    0    0    0    0  0.00000000000E+00  0.00000000000E+00  0.99999998245E-14  0.12509000000E+03  0.12509000000E+03 0.  0.
        -11    1    3    3    0    0  0.39840520487E+02 -0.23740810687E+01 -0.32246265728E+02  0.51310086603E+02  0.51100000000E-03 0.  1.
         23    2    1    0    0    0  0.26942896130E+02 -0.79341125155E+01  0.95664754494E+01  0.95418679743E+02  0.90688131517E+02 0.  0.
         11    1    3    3    0    0 -0.12897624357E+02 -0.55600314467E+01  0.41812741177E+02  0.44108593140E+02  0.51100000000E-03 0. -1.
         22    1    1    0    0    0 -0.26942896130E+02  0.79341125155E+01 -0.95664754494E+01  0.29671320257E+02  0.00000000000E+00 0.  1.
</event>
<event>
 5    1  0.1046082E-009  0.9118800E+02  0.7561462E-02  0.1125453E+00
         25   -1    0    0    0    0  0.00000000000E+00  0.00000000000E+00  0.99999998245E-14  0.12509000000E+03  0.12509000000E+03 0.  0.
        -11    1    3    3    0    0  0.47774873600E+02  0.14975458846E+01 -0.12614803677E+02  0.49434951838E+02  0.51100000000E-03 0.  1.
         23    2    1    0    0    0  0.11518038054E+02  0.17647370127E+02  0.16222312673E+02  0.98495671630E+02  0.94837434742E+02 0.  0.
         11    1    3    3    0    0 -0.36256835546E+02  0.16149824242E+02  0.28837116349E+02  0.49060719792E+02  0.51100000000E-03 0. -1.
         22    1    1    0    0    0 -0.11518038054E+02 -0.17647370127E+02 -0.16222312673E+02  0.26594328370E+02  0.00000000000E+00 0. -1.
</event>
<event>
 5    1  0.1046082E-009  0.9118800E+02  0.7561462E-02  0.1125453E+00
         25   -1    0    0    0    0  0.00000000000E+00  0.00000000000E+00  0.99999998245E-14  0.12509000000E+03  0.12509000000E+03 0.  0.
        -11    1    3    3    0    0  0.24811799527E+02 -0.19624662863E+02 -0.45097339883E+02  0.55086503366E+02  0.51100000000E-03 0. -1.
         23    2    1    0    0    0 -0.53063196133E+01  0.12063087512E+01 -0.29840017369E+02  0.94757857886E+02  0.89772004467E+02 0.  0.
         11    1    3    3    0    0 -0.30118119141E+02  0.20830971614E+02  0.15257322514E+02  0.39671354521E+02  0.51100000000E-03 0.  1.
         22    1    1    0    0    0  0.53063196133E+01 -0.12063087512E+01  0.29840017369E+02  0.30332142114E+02  0.00000000000E+00 0. -1.
</event>
<event>
 5    1  0.1046082E-009  0.9118800E+02  0.7561462E-02  0.1125453E+00
         25   -1    0    0    0    0  0.00000000000E+00  0.00000000000E+00  0.99999998245E-14  0.12509000000E+03  0.12509000000E+03 0.  0.
        -11    1    3    3    0    0  0.47784560310E+02  0.17983289267E+02 -0.12017090446E+02  0.52451628764E+02  0.51100000000E-03 0.  1.
         23    2    1    0    0    0  0.68170052629E+01  0.27964100207E+02 -0.98320065373E+01  0.94674036861E+02  0.89655130594E+02 0.  0.
         11    1    3    3    0    0 -0.40967555047E+02  0.99808109399E+01  0.21850839090E+01  0.42222408097E+02  0.51100000000E-03 0. -1.
         22    1    1    0    0    0 -0.68170052629E+01 -0.27964100207E+02  0.98320065373E+01  0.30415963139E+02  0.00000000000E+00 0. -1.
</event>
<event>
 5    1  0.1046082E-009  0.9118800E+02  0.7561462E-02  0.1125453E+00
         25   -1    0    0    0    0  0.00000000000E+00  0.00000000000E+00  0.99999998245E-14  0.12509000000E+03  0.12509000000E+03 0.  0.
        -11    1    3    3    0    0 -0.15252276082E+02  0.20454962530E+02 -0.20949082737E+00  0.25516294881E+02  0.51100000000E-03 0. -1.
         23    2    1    0    0    0 -0.28586638884E+01 -0.38835024960E+02 -0.17954297870E+01  0.86108534007E+02  0.76779716969E+02 0.  0.
         11    1    3    3    0    0  0.12393612193E+02 -0.59289987489E+02 -0.15859389596E+01  0.60592239126E+02  0.51100000000E-03 0.  1.
         22    1    1    0    0    0  0.28586638884E+01  0.38835024960E+02  0.17954297870E+01  0.38981465993E+02  0.00000000000E+00 0.  1.
</event>
<event>
 5    1  0.1046082E-009  0.9118800E+02  0.7561462E-02  0.1125453E+00
         25   -1    0    0    0    0  0.00000000000E+00  0.00000000000E+00  0.99999998245E-14  0.12509000000E+03  0.12509000000E+03 0.  0.
        -11    1    3    3    0    0 -0.13930234022E+02  0.52053514882E+02  0.21163114775E+02  0.57892117415E+02  0.51100000000E-03 0. -1.
         23    2    1    0    0    0 -0.17516127350E+02  0.14434144268E+02  0.18558135479E+02  0.95771684384E+02  0.91173745669E+02 0.  0.
         11    1    3    3    0    0 -0.35858933279E+01 -0.37619370615E+02 -0.26049792952E+01  0.37879566970E+02  0.51100000000E-03 0.  1.
         22    1    1    0    0    0  0.17516127350E+02 -0.14434144268E+02 -0.18558135479E+02  0.29318315616E+02  0.00000000000E+00 0. -1.
</event>
<event>
 5    1  0.1046082E-009  0.9118800E+02  0.7561462E-02  0.1125453E+00
         25   -1    0    0    0    0  0.00000000000E+00  0.00000000000E+00  0.99999998245E-14  0.12509000000E+03  0.12509000000E+03 0.  0.
        -11    1    3    3    0    0  0.26004689358E+02 -0.20222568750E+02 -0.42744490346E+02  0.53965615077E+02  0.51100000000E-03 0.  1.
         23    2    1    0    0    0  0.11209405070E+02  0.12182642979E+02 -0.28088805759E+02  0.92485574519E+02  0.86547864983E+02 0.  0.
         11    1    3    3    0    0 -0.14795284288E+02  0.32405211730E+02  0.14655684587E+02  0.38519959442E+02  0.51100000000E-03 0. -1.
         22    1    1    0    0    0 -0.11209405070E+02 -0.12182642979E+02  0.28088805759E+02  0.32604425481E+02  0.00000000000E+00 0. -1.
</event>
<event>
 5    1  0.1046082E-009  0.9118800E+02  0.7561462E-02  0.1125453E+00
         25   -1    0    0    0    0  0.00000000000E+00  0.00000000000E+00  0.99999998245E-14  0.12509000000E+03  0.12509000000E+03 0.  0.
        -11    1    3    3    0    0  0.28973277428E+02  0.24076670444E+02  0.47818680868E+01  0.37973716269E+02  0.51100000000E-03 0.  1.
         23    2    1    0    0    0  0.26300860983E+02 -0.25593492210E+02 -0.27772343243E+01  0.88286804997E+02  0.80250138779E+02 0.  0.
         11    1    3    3    0    0 -0.26724164454E+01 -0.49670162655E+02 -0.75591024111E+01  0.50313088728E+02  0.51100000000E-03 0. -1.
         22    1    1    0    0    0 -0.26300860983E+02  0.25593492210E+02  0.27772343243E+01  0.36803195003E+02  0.00000000000E+00 0. -1.
</event>
<event>
 5    1  0.1046082E-009  0.9118800E+02  0.7561462E-02  0.1125453E+00
         25   -1    0    0    0    0  0.00000000000E+00  0.00000000000E+00  0.99999998245E-14  0.12509000000E+03  0.12509000000E+03 0.  0.
        -11    1    3    3    0    0  0.51544284813E+02 -0.10391216878E+02 -0.96755143863E+00  0.52590178182E+02  0.51100000000E-03 0.  1.
         23    2    1    0    0    0  0.14568549008E+02 -0.14678488936E+02 -0.21630185171E+02  0.95163998460E+02  0.90336155744E+02 0.  0.
         11    1    3    3    0    0 -0.36975735805E+02 -0.42872720575E+01 -0.20662633733E+02  0.42573820278E+02  0.51100000000E-03 0. -1.
         22    1    1    0    0    0 -0.14568549008E+02  0.14678488936E+02  0.21630185171E+02  0.29926001540E+02  0.00000000000E+00 0.  1.
</event>
<event>
 5    1  0.1046082E-009  0.9118800E+02  0.7561462E-02  0.1125453E+00
         25   -1    0    0    0    0  0.00000000000E+00  0.00000000000E+00  0.99999998245E-14  0.12509000000E+03  0.12509000000E+03 0.  0.
        -11    1    3    3    0    0  0.35121755566E+02 -0.31329488036E+02 -0.99998792589E+01  0.48115196353E+02  0.51100000000E-03 0. -1.
         23    2    1    0    0    0 -0.46441234449E+01 -0.10189541620E+02 -0.26691498774E+02  0.96144693855E+02  0.91684084817E+02 0.  0.
         11    1    3    3    0    0 -0.39765879011E+02  0.21139946416E+02 -0.16691619516E+02  0.48029497502E+02  0.51100000000E-03 0.  1.
         22    1    1    0    0    0  0.46441234449E+01  0.10189541620E+02  0.26691498774E+02  0.28945306145E+02  0.00000000000E+00 0. -1.
</event>
<event>
 5    1  0.1046082E-009  0.9118800E+02  0.7561462E-02  0.1125453E+00
         25   -1    0    0    0    0  0.00000000000E+00  0.00000000000E+00  0.99999998245E-14  0.12509000000E+03  0.12509000000E+03 0.  0.
        -11    1    3    3    0    0  0.10945457110E+02 -0.24187083169E+01  0.37634968167E+02  0.39268868210E+02  0.51100000000E-03 0.  1.
         23    2    1    0    0    0  0.16005866797E+02 -0.14290857090E+02 -0.18432611770E+02  0.96802590346E+02  0.92577340385E+02 0.  0.
         11    1    3    3    0    0  0.50604096864E+01 -0.11872148773E+02 -0.56067579937E+02  0.57533722137E+02  0.51100000000E-03 0. -1.
         22    1    1    0    0    0 -0.16005866797E+02  0.14290857090E+02  0.18432611770E+02  0.28287409654E+02  0.00000000000E+00 0. -1.
</event>
<event>
 5    1  0.1046082E-009  0.9118800E+02  0.7561462E-02  0.1125453E+00
         25   -1    0    0    0    0  0.00000000000E+00  0.00000000000E+00  0.99999998245E-14  0.12509000000E+03  0.12509000000E+03 0.  0.
        -11    1    3    3    0    0 -0.60000247171E+01 -0.56314209517E+02 -0.16786723628E+02  0.59068473660E+02  0.51100000000E-03 0.  1.
         23    2    1    0    0    0 -0.14063621788E+02 -0.24751208608E+02 -0.17537578019E+02  0.91653875402E+02  0.85337321542E+02 0.  0.
         11    1    3    3    0    0 -0.80635970710E+01  0.31563000909E+02 -0.75085439157E+00  0.32585401742E+02  0.51100000000E-03 0. -1.
         22    1    1    0    0    0  0.14063621788E+02  0.24751208608E+02  0.17537578019E+02  0.33436124598E+02  0.00000000000E+00 0.  1.
</event>
<event>
 5    1  0.1046082E-009  0.9118800E+02  0.7561462E-02  0.1125453E+00
         25   -1    0    0    0    0  0.00000000000E+00  0.00000000000E+00  0.99999998245E-14  0.12509000000E+03  0.12509000000E+03 0.  0.
        -11    1    3    3    0    0  0.39453580975E+02  0.22867634758E+01 -0.30539903958E+02  0.49944970447E+02  0.51100000000E-03 0. -1.
         23    2    1    0    0    0  0.82899630263E+01 -0.25414580065E+02 -0.89476987366E+01  0.96899830091E+02  0.92708637095E+02 0.  0.
         11    1    3    3    0    0 -0.31163617949E+02 -0.27701343540E+02  0.21592205221E+02  0.46954859644E+02  0.51100000000E-03 0.  1.
         22    1    1    0    0    0 -0.82899630263E+01  0.25414580065E+02  0.89476987366E+01  0.28190169909E+02  0.00000000000E+00 0. -1.
</event>
<event>
 5    1  0.1046082E-009  0.9118800E+02  0.7561462E-02  0.1125453E+00
         25   -1    0    0    0    0  0.00000000000E+00  0.00000000000E+00  0.99999998245E-14  0.12509000000E+03  0.12509000000E+03 0.  0.
        -11    1    3    3    0    0 -0.79627968538E+01  0.24050249307E+02  0.24546751640E+02  0.35275538859E+02  0.51100000000E-03 0.  1.
         23    2    1    0    0    0 -0.14046148673E+02 -0.13319662263E+02 -0.22333162483E+02  0.95535341452E+02  0.90848905467E+02 0.  0.
         11    1    3    3    0    0 -0.60833518196E+01 -0.37369911570E+02 -0.46879914123E+02  0.60259802593E+02  0.51100000000E-03 0. -1.
         22    1    1    0    0    0  0.14046148673E+02  0.13319662263E+02  0.22333162483E+02  0.29554658548E+02  0.00000000000E+00 0. -1.
</event>
<event>
 5    1  0.1046082E-009  0.9118800E+02  0.7561462E-02  0.1125453E+00
         25   -1    0    0    0    0  0.00000000000E+00  0.00000000000E+00  0.99999998245E-14  0.12509000000E+03  0.12509000000E+03 0.  0.
        -11    1    3    3    0    0  0.20836582892E+02 -0.39274960870E+02 -0.19349743460E+02  0.48488125455E+02  0.51100000000E-03 0.  1.
         23    2    1    0    0    0 -0.16523237786E+02 -0.23636154434E+02  0.51096714489E+01  0.95801880810E+02  0.91215165631E+02 0.  0.
         11    1    3    3    0    0 -0.37359820678E+02  0.15638806435E+02  0.24459414909E+02  0.47313755355E+02  0.51100000000E-03 0. -1.
         22    1    1    0    0    0  0.16523237786E+02  0.23636154434E+02 -0.51096714489E+01  0.29288119190E+02  0.00000000000E+00 0.  1.
</event>
<event>
 5    1  0.1046082E-009  0.9118800E+02  0.7561462E-02  0.1125453E+00
         25   -1    0    0    0    0  0.00000000000E+00  0.00000000000E+00  0.99999998245E-14  0.12509000000E+03  0.12509000000E+03 0.  0.
        -11    1    3    3    0    0  0.21244165179E+02 -0.39347160889E+02 -0.34565685607E+01  0.44849319846E+02  0.51100000000E-03 0.  1.
         23    2    1    0    0    0 -0.21342890310E+02 -0.13992582331E+02 -0.14653428954E+02  0.95661539164E+02  0.91022501438E+02 0.  0.
         11    1    3    3    0    0 -0.42587055489E+02  0.25354578559E+02 -0.11196860394E+02  0.50812219318E+02  0.51100000000E-03 0. -1.
         22    1    1    0    0    0  0.21342890310E+02  0.13992582331E+02  0.14653428954E+02  0.29428460836E+02  0.00000000000E+00 0. -1.
</event>
<event>
 5    1  0.1046082E-009  0.9118800E+02  0.7561462E-02  0.1125453E+00
         25   -1    0    0    0    0  0.00000000000E+00  0.00000000000E+00  0.99999998245E-14  0.12509000000E+03  0.12509000000E+03 0.  0.
        -11    1    3    3    0    0  0.25286292348E+02  0.21918685783E+02 -0.17683650283E+02  0.37848868606E+02  0.51100000000E-03 0.  1.
         23    2    1    0    0    0 -0.46688573333E+01 -0.26599689226E+02 -0.13158124286E+02  0.95048729547E+02  0.90176399673E+02 0.  0.
         11    1    3    3    0    0 -0.29955149681E+02 -0.48518375008E+02  0.45255259966E+01  0.57199860941E+02  0.51100000000E-03 0. -1.
         22    1    1    0    0    0  0.46688573333E+01  0.26599689226E+02  0.13158124286E+02  0.30041270453E+02  0.00000000000E+00 0. -1.
</event>
<event>
 5    1  0.1046082E-009  0.9118800E+02  0.7561462E-02  0.1125453E+00
         25   -1    0    0    0    0  0.00000000000E+00  0.00000000000E+00  0.99999998245E-14  0.12509000000E+03  0.12509000000E+03 0.  0.
        -11    1    3    3    0    0  0.15813816673E+02  0.50173597645E+02 -0.30106642403E+02  0.60612512037E+02  0.51100000000E-03 0. -1.
         23    2    1    0    0    0  0.17054871505E+02  0.18938375841E+02 -0.10411516788E+02  0.97559464164E+02  0.93594437039E+02 0.  0.
         11    1    3    3    0    0  0.12410548322E+01 -0.31235221804E+02  0.19695125615E+02  0.36946952127E+02  0.51100000000E-03 0.  1.
         22    1    1    0    0    0 -0.17054871505E+02 -0.18938375841E+02  0.10411516788E+02  0.27530535836E+02  0.00000000000E+00 0. -1.
</event>
<event>
 5    1  0.1046082E-009  0.9118800E+02  0.7561462E-02  0.1125453E+00
         25   -1    0    0    0    0  0.00000000000E+00  0.00000000000E+00  0.99999998245E-14  0.12509000000E+03  0.12509000000E+03 0.  0.
        -11    1    3    3    0    0  0.21464334340E+02 -0.41755844311E+02  0.39269990953E+02  0.61207845677E+02  0.51100000000E-03 0.  1.
         23    2    1    0    0    0  0.73098819595E+01 -0.13648993675E+02  0.24820145652E+02  0.95836469738E+02  0.91262587620E+02 0.  0.
         11    1    3    3    0    0 -0.14154452381E+02  0.28106850636E+02 -0.14449845301E+02  0.34628624061E+02  0.51100000000E-03 0. -1.
         22    1    1    0    0    0 -0.73098819595E+01  0.13648993675E+02 -0.24820145652E+02  0.29253530262E+02  0.00000000000E+00 0.  1.
</event>
<event>
 5    1  0.1046082E-009  0.9118800E+02  0.7561462E-02  0.1125453E+00
         25   -1    0    0    0    0  0.00000000000E+00  0.00000000000E+00  0.99999998245E-14  0.12509000000E+03  0.12509000000E+03 0.  0.
        -11    1    3    3    0    0 -0.29147916594E+02 -0.30859657086E+02  0.16668162316E+02  0.45604244457E+02  0.51100000000E-03 0.  1.
         23    2    1    0    0    0  0.17640331252E+02 -0.24938924523E+02  0.59336462179E+01  0.93971847733E+02  0.88669999244E+02 0.  0.
         11    1    3    3    0    0  0.46788247846E+02  0.59207325636E+01 -0.10734516098E+02  0.48367603276E+02  0.51100000000E-03 0. -1.
         22    1    1    0    0    0 -0.17640331252E+02  0.24938924523E+02 -0.59336462179E+01  0.31118152267E+02  0.00000000000E+00 0.  1.
</event>
<event>
 5    1  0.1046082E-009  0.9118800E+02  0.7561462E-02  0.1125453E+00
         25   -1    0    0    0    0  0.00000000000E+00  0.00000000000E+00  0.99999998245E-14  0.12509000000E+03  0.12509000000E+03 0.  0.
        -11    1    3    3    0    0 -0.54400190716E+02  0.93778321897E+01  0.99521705096E+01  0.56092514515E+02  0.51100000000E-03 0.  1.
         23    2    1    0    0    0 -0.26332498013E+02  0.13033627426E+02 -0.13409553927E+02  0.92793064666E+02  0.86991153677E+02 0.  0.
         11    1    3    3    0    0  0.28067692703E+02  0.36557952361E+01 -0.23361724436E+02  0.36700550151E+02  0.51100000000E-03 0. -1.
         22    1    1    0    0    0  0.26332498013E+02 -0.13033627426E+02  0.13409553927E+02  0.32296935334E+02  0.00000000000E+00 0.  1.
</event>
<event>
 5    1  0.1046082E-009  0.9118800E+02  0.7561462E-02  0.1125453E+00
         25   -1    0    0    0    0  0.00000000000E+00  0.00000000000E+00  0.99999998245E-14  0.12509000000E+03  0.12509000000E+03 0.  0.
        -11    1    3    3    0    0  0.21663391891E+01  0.16630613885E+02  0.25470804083E+02  0.30496429374E+02  0.51100000000E-03 0.  1.
         23    2    1    0    0    0  0.10310615648E+02 -0.74086054975E+01 -0.30554346511E+02  0.92002777071E+02  0.85847228654E+02 0.  0.
         11    1    3    3    0    0  0.81442764589E+01 -0.24039219382E+02 -0.56025150595E+02  0.61506347696E+02  0.51100000000E-03 0. -1.
         22    1    1    0    0    0 -0.10310615648E+02  0.74086054975E+01  0.30554346511E+02  0.33087222929E+02  0.00000000000E+00 0. -1.
</event>
<event>
 5    1  0.1046082E-009  0.9118800E+02  0.7561462E-02  0.1125453E+00
         25   -1    0    0    0    0  0.00000000000E+00  0.00000000000E+00  0.99999998245E-14  0.12509000000E+03  0.12509000000E+03 0.  0.
        -11    1    3    3    0    0  0.23630110173E+02  0.18304994097E+02  0.18593645799E+02  0.35201968411E+02  0.51100000000E-03 0.  1.
         23    2    1    0    0    0 -0.51805209255E+01  0.18617253755E+01 -0.30303950416E+02  0.94290109915E+02  0.89117852299E+02 0.  0.
         11    1    3    3    0    0 -0.28810631098E+02 -0.16443268721E+02 -0.48897596215E+02  0.59088141504E+02  0.51100000000E-03 0. -1.
         22    1    1    0    0    0  0.51805209255E+01 -0.18617253755E+01  0.30303950416E+02  0.30799890085E+02  0.00000000000E+00 0. -1.
</event>
<event>
 5    1  0.1046082E-009  0.9118800E+02  0.7561462E-02  0.1125453E+00
         25   -1    0    0    0    0  0.00000000000E+00  0.00000000000E+00  0.99999998245E-14  0.12509000000E+03  0.12509000000E+03 0.  0.
        -11    1    3    3    0    0  0.33490998375E+02 -0.11205204187E+01  0.35639582955E+01  0.33698729014E+02  0.51100000000E-03 0. -1.
         23    2    1    0    0    0 -0.22643923207E+02 -0.80258396551E+01 -0.18867441033E+02  0.94542632004E+02  0.89471602057E+02 0.  0.
         11    1    3    3    0    0 -0.56134921583E+02 -0.69053192363E+01 -0.22431399328E+02  0.60843902989E+02  0.51100000000E-03 0.  1.
         22    1    1    0    0    0  0.22643923207E+02  0.80258396551E+01  0.18867441033E+02  0.30547367996E+02  0.00000000000E+00 0.  1.
</event>
<event>
 5    1  0.1046082E-009  0.9118800E+02  0.7561462E-02  0.1125453E+00
         25   -1    0    0    0    0  0.00000000000E+00  0.00000000000E+00  0.99999998245E-14  0.12509000000E+03  0.12509000000E+03 0.  0.
        -11    1    3    3    0    0  0.28584759163E+02 -0.28543897969E+02  0.60145402987E+01  0.40841367055E+02  0.51100000000E-03 0. -1.
         23    2    1    0    0    0 -0.23456090954E+02 -0.62484904361E+01  0.12428394984E+02  0.97819194411E+02  0.93940928023E+02 0.  0.
         11    1    3    3    0    0 -0.52040850118E+02  0.22295407532E+02  0.64138546852E+01  0.56977827356E+02  0.51100000000E-03 0.  1.
         22    1    1    0    0    0  0.23456090954E+02  0.62484904361E+01 -0.12428394984E+02  0.27270805589E+02  0.00000000000E+00 0.  1.
</event>
<event>
 5    1  0.1046082E-009  0.9118800E+02  0.7561462E-02  0.1125453E+00
         25   -1    0    0    0    0  0.00000000000E+00  0.00000000000E+00  0.99999998245E-14  0.12509000000E+03  0.12509000000E+03 0.  0.
        -11    1    3    3    0    0  0.13438570065E+02  0.47300904684E+02 -0.33401673275E+02  0.59444449086E+02  0.51100000000E-03 0. -1.
         23    2    1    0    0    0 -0.76901672602E+01  0.21985418418E+02 -0.16870580457E+02  0.96330414112E+02  0.91937124724E+02 0.  0.
         11    1    3    3    0    0 -0.21128737325E+02 -0.25315486266E+02  0.16531092819E+02  0.36885965025E+02  0.51100000000E-03 0.  1.
         22    1    1    0    0    0  0.76901672602E+01 -0.21985418418E+02  0.16870580457E+02  0.28759585888E+02  0.00000000000E+00 0. -1.
</event>
