<event>
 5    1  0.1059945E-009  0.9118800E+02  0.7815553E-02  0.1125453E+00
         25   -1    0    0    0    0  0.00000000000E+00  0.00000000000E+00  0.99999998245E-14  0.12509000000E+03  0.12509000000E+03 0.  0.
        -11    1    3    3    0    0 -0.16453277153E+02 -0.26603000401E+02 -0.33168409459E+02  0.45591373589E+02  0.51100000000E-03 0. -1.
         23    2    1    0    0    0 -0.24248371961E+02  0.12220949058E+02  0.10345731279E+01  0.97916382645E+02  0.94070253056E+02 0.  0.
         11    1    3    3    0    0 -0.77950948077E+01  0.38823949458E+02  0.34202982587E+02  0.52325009056E+02  0.51100000000E-03 0.  1.
         22    1    1    0    0    0  0.24248371961E+02 -0.12220949058E+02 -0.10345731279E+01  0.27173617355E+02  0.00000000000E+00 0.  1.
</event>
<event>
 5    1  0.1059945E-009  0.9118800E+02  0.7815553E-02  0.1125453E+00
         25   -1    0    0    0    0  0.00000000000E+00  0.00000000000E+00  0.99999998245E-14  0.12509000000E+03  0.12509000000E+03 0.  0.
        -11    1    3    3    0    0 -0.17143596196E+01  0.52622409551E+02  0.24470760058E+02  0.58059237972E+02  0.51100000000E-03 0.  1.
         23    2    1    0    0    0 -0.10786430019E+02  0.15304592861E+02  0.21501756318E+02  0.96578543357E+02  0.92274112713E+02 0.  0.
         11    1    3    3    0    0 -0.90720703989E+01 -0.37317816690E+02 -0.29690037402E+01  0.38519305384E+02  0.51100000000E-03 0. -1.
         22    1    1    0    0    0  0.10786430019E+02 -0.15304592861E+02 -0.21501756318E+02  0.28511456643E+02  0.00000000000E+00 0. -1.
</event>
<event>
 5    1  0.1059945E-009  0.9118800E+02  0.7815553E-02  0.1125453E+00
         25   -1    0    0    0    0  0.00000000000E+00  0.00000000000E+00  0.99999998245E-14  0.12509000000E+03  0.12509000000E+03 0.  0.
        -11    1    3    3    0    0 -0.60708039740E+01  0.14192347948E+02  0.27413132210E+02  0.31460407165E+02  0.51100000000E-03 0. -1.
         23    2    1    0    0    0 -0.31174268495E+02  0.64085660259E+01 -0.21287732504E+02  0.86800676555E+02  0.77899198715E+02 0.  0.
         11    1    3    3    0    0 -0.25103464521E+02 -0.77837819224E+01 -0.48700864714E+02  0.55340269390E+02  0.51100000000E-03 0.  1.
         22    1    1    0    0    0  0.31174268495E+02 -0.64085660259E+01  0.21287732504E+02  0.38289323445E+02  0.00000000000E+00 0.  1.
</event>
<event>
 5    1  0.1059945E-009  0.9118800E+02  0.7815553E-02  0.1125453E+00
         25   -1    0    0    0    0  0.00000000000E+00  0.00000000000E+00  0.99999998245E-14  0.12509000000E+03  0.12509000000E+03 0.  0.
        -11    1    3    3    0    0 -0.24384388602E+02  0.17683723911E+02 -0.38707855985E+02  0.49047024518E+02  0.51100000000E-03 0.  1.
         23    2    1    0    0    0 -0.25074731723E+02  0.12715314959E+02  0.78704896430E+01  0.95894691940E+02  0.91342355616E+02 0.  0.
         11    1    3    3    0    0 -0.69034312166E+00 -0.49684089517E+01  0.46578345628E+02  0.46847667422E+02  0.51100000000E-03 0. -1.
         22    1    1    0    0    0  0.25074731723E+02 -0.12715314959E+02 -0.78704896430E+01  0.29195308060E+02  0.00000000000E+00 0. -1.
</event>
<event>
 5    1  0.1059945E-009  0.9118800E+02  0.7815553E-02  0.1125453E+00
         25   -1    0    0    0    0  0.00000000000E+00  0.00000000000E+00  0.99999998245E-14  0.12509000000E+03  0.12509000000E+03 0.  0.
        -11    1    3    3    0    0 -0.34509522063E+02  0.32871448471E+01 -0.40452057533E+01  0.34900947324E+02  0.51100000000E-03 0. -1.
         23    2    1    0    0    0  0.97512760892E+01 -0.31565929620E+02 -0.70165638195E+01  0.91315342844E+02  0.84839639160E+02 0.  0.
         11    1    3    3    0    0  0.44260798152E+02 -0.34853074467E+02 -0.29713580662E+01  0.56414395520E+02  0.51100000000E-03 0.  1.
         22    1    1    0    0    0 -0.97512760892E+01  0.31565929620E+02  0.70165638195E+01  0.33774657156E+02  0.00000000000E+00 0.  1.
</event>
<event>
 5    1  0.1059945E-009  0.9118800E+02  0.7815553E-02  0.1125453E+00
         25   -1    0    0    0    0  0.00000000000E+00  0.00000000000E+00  0.99999998245E-14  0.12509000000E+03  0.12509000000E+03 0.  0.
        -11    1    3    3    0    0 -0.11838632829E+02  0.17155587133E+02 -0.41293984317E+02  0.46256464826E+02  0.51100000000E-03 0. -1.
         23    2    1    0    0    0 -0.12904572609E+02 -0.23235802645E+02 -0.13672956325E+02  0.95200532734E+02  0.90386731213E+02 0.  0.
         11    1    3    3    0    0 -0.10659397806E+01 -0.40391389778E+02  0.27621027992E+02  0.48944067908E+02  0.51100000000E-03 0.  1.
         22    1    1    0    0    0  0.12904572609E+02  0.23235802645E+02  0.13672956325E+02  0.29889467266E+02  0.00000000000E+00 0. -1.
</event>
<event>
 5    1  0.1059945E-009  0.9118800E+02  0.7815553E-02  0.1125453E+00
         25   -1    0    0    0    0  0.00000000000E+00  0.00000000000E+00  0.99999998245E-14  0.12509000000E+03  0.12509000000E+03 0.  0.
        -11    1    3    3    0    0  0.22756179449E+02  0.39457891288E+02  0.31430940675E+02  0.55341421376E+02  0.51100000000E-03 0.  1.
         23    2    1    0    0    0  0.14601701315E+02  0.23759400249E+02 -0.58400024817E+01  0.96597467462E+02  0.92299763323E+02 0.  0.
         11    1    3    3    0    0 -0.81544781338E+01 -0.15698491039E+02 -0.37270943157E+02  0.41256046085E+02  0.51100000000E-03 0. -1.
         22    1    1    0    0    0 -0.14601701315E+02 -0.23759400249E+02  0.58400024817E+01  0.28492532538E+02  0.00000000000E+00 0.  1.
</event>
<event>
 5    1  0.1059945E-009  0.9118800E+02  0.7815553E-02  0.1125453E+00
         25   -1    0    0    0    0  0.00000000000E+00  0.00000000000E+00  0.99999998245E-14  0.12509000000E+03  0.12509000000E+03 0.  0.
        -11    1    3    3    0    0 -0.66156995204E+01 -0.35978757663E+02 -0.47513204874E+02  0.59964515514E+02  0.51100000000E-03 0.  1.
         23    2    1    0    0    0  0.48027882356E+01 -0.79484335432E+01 -0.27025288054E+02  0.96513601259E+02  0.92186032906E+02 0.  0.
         11    1    3    3    0    0  0.11418487756E+02  0.28030324120E+02  0.20487916820E+02  0.36549085745E+02  0.51100000000E-03 0. -1.
         22    1    1    0    0    0 -0.48027882356E+01  0.79484335432E+01  0.27025288054E+02  0.28576398741E+02  0.00000000000E+00 0.  1.
</event>
<event>
 5    1  0.1059945E-009  0.9118800E+02  0.7815553E-02  0.1125453E+00
         25   -1    0    0    0    0  0.00000000000E+00  0.00000000000E+00  0.99999998245E-14  0.12509000000E+03  0.12509000000E+03 0.  0.
        -11    1    3    3    0    0 -0.48699327979E+01  0.36178613750E+02 -0.29666855248E+02  0.47039670905E+02  0.51100000000E-03 0. -1.
         23    2    1    0    0    0 -0.29041867887E+02  0.11948582622E+01 -0.71441178035E+01  0.95158474883E+02  0.90328506830E+02 0.  0.
         11    1    3    3    0    0 -0.24171935089E+02 -0.34983755487E+02  0.22522737445E+02  0.48118803978E+02  0.51100000000E-03 0.  1.
         22    1    1    0    0    0  0.29041867887E+02 -0.11948582622E+01  0.71441178035E+01  0.29931525117E+02  0.00000000000E+00 0. -1.
</event>
<event>
 5    1  0.1059945E-009  0.9118800E+02  0.7815553E-02  0.1125453E+00
         25   -1    0    0    0    0  0.00000000000E+00  0.00000000000E+00  0.99999998245E-14  0.12509000000E+03  0.12509000000E+03 0.  0.
        -11    1    3    3    0    0  0.34320811591E+02 -0.60828395885E+00  0.51527434755E+02  0.61914171644E+02  0.51100000000E-03 0.  1.
         23    2    1    0    0    0  0.12933081791E+02 -0.50305964847E+01  0.26833798174E+02  0.94880328865E+02  0.89942495937E+02 0.  0.
         11    1    3    3    0    0 -0.21387729800E+02 -0.44223125259E+01 -0.24693636581E+02  0.32966157221E+02  0.51100000000E-03 0. -1.
         22    1    1    0    0    0 -0.12933081791E+02  0.50305964847E+01 -0.26833798174E+02  0.30209671135E+02  0.00000000000E+00 0.  1.
</event>
<event>
 5    1  0.1059945E-009  0.9118800E+02  0.7815553E-02  0.1125453E+00
         25   -1    0    0    0    0  0.00000000000E+00  0.00000000000E+00  0.99999998245E-14  0.12509000000E+03  0.12509000000E+03 0.  0.
        -11    1    3    3    0    0  0.14394751108E+02  0.37436160489E+02 -0.63842241292E+01  0.40613215701E+02  0.51100000000E-03 0. -1.
         23    2    1    0    0    0 -0.42768864809E+00 -0.24607305814E+01 -0.33772473356E+02  0.91225297593E+02  0.84706769810E+02 0.  0.
         11    1    3    3    0    0 -0.14822439756E+02 -0.39896891070E+02 -0.27388249227E+02  0.50612081891E+02  0.51100000000E-03 0.  1.
         22    1    1    0    0    0  0.42768864809E+00  0.24607305814E+01  0.33772473356E+02  0.33864702407E+02  0.00000000000E+00 0.  1.
</event>
<event>
 5    1  0.1059945E-009  0.9118800E+02  0.7815553E-02  0.1125453E+00
         25   -1    0    0    0    0  0.00000000000E+00  0.00000000000E+00  0.99999998245E-14  0.12509000000E+03  0.12509000000E+03 0.  0.
        -11    1    3    3    0    0  0.10855295058E+02 -0.17735521599E+02 -0.38395578796E+02  0.43664706899E+02  0.51100000000E-03 0. -1.
         23    2    1    0    0    0  0.20122100472E+01  0.26476017702E+02 -0.11591281688E+02  0.96117835534E+02  0.91647433101E+02 0.  0.
         11    1    3    3    0    0 -0.88430850105E+01  0.44211539302E+02  0.26804297108E+02  0.52453128636E+02  0.51100000000E-03 0.  1.
         22    1    1    0    0    0 -0.20122100472E+01 -0.26476017702E+02  0.11591281688E+02  0.28972164466E+02  0.00000000000E+00 0. -1.
</event>
<event>
 5    1  0.1059945E-009  0.9118800E+02  0.7815553E-02  0.1125453E+00
         25   -1    0    0    0    0  0.00000000000E+00  0.00000000000E+00  0.99999998245E-14  0.12509000000E+03  0.12509000000E+03 0.  0.
        -11    1    3    3    0    0 -0.32777975720E+02  0.17392766656E+02  0.20552377577E+02  0.42418206569E+02  0.51100000000E-03 0. -1.
         23    2    1    0    0    0  0.19818364900E+02  0.16290549521E+02  0.15133785657E+02  0.95304415243E+02  0.90530384432E+02 0.  0.
         11    1    3    3    0    0  0.52596340620E+02 -0.11022171344E+01 -0.54185919203E+01  0.52886208674E+02  0.51100000000E-03 0.  1.
         22    1    1    0    0    0 -0.19818364900E+02 -0.16290549521E+02 -0.15133785657E+02  0.29785584757E+02  0.00000000000E+00 0. -1.
</event>
<event>
 5    1  0.1059945E-009  0.9118800E+02  0.7815553E-02  0.1125453E+00
         25   -1    0    0    0    0  0.00000000000E+00  0.00000000000E+00  0.99999998245E-14  0.12509000000E+03  0.12509000000E+03 0.  0.
        -11    1    3    3    0    0 -0.33402920929E+02  0.47645622485E+02 -0.22683066755E+02  0.62453038247E+02  0.51100000000E-03 0.  1.
         23    2    1    0    0    0 -0.13825898563E+02  0.22423452493E+02 -0.12205400717E+02  0.96056596833E+02  0.91563809967E+02 0.  0.
         11    1    3    3    0    0  0.19577022366E+02 -0.25222169991E+02  0.10477666037E+02  0.33603558586E+02  0.51100000000E-03 0. -1.
         22    1    1    0    0    0  0.13825898563E+02 -0.22423452493E+02  0.12205400717E+02  0.29033403167E+02  0.00000000000E+00 0.  1.
</event>
<event>
 5    1  0.1059945E-009  0.9118800E+02  0.7815553E-02  0.1125453E+00
         25   -1    0    0    0    0  0.00000000000E+00  0.00000000000E+00  0.99999998245E-14  0.12509000000E+03  0.12509000000E+03 0.  0.
        -11    1    3    3    0    0 -0.44421318442E+02  0.35645302154E+02 -0.22049381878E+02  0.61073859705E+02  0.51100000000E-03 0. -1.
         23    2    1    0    0    0 -0.24186912941E+02  0.81873900705E+01 -0.13358124121E+02  0.96271957148E+02  0.91857553523E+02 0.  0.
         11    1    3    3    0    0  0.20234405501E+02 -0.27457912084E+02  0.86912577569E+01  0.35198097443E+02  0.51100000000E-03 0.  1.
         22    1    1    0    0    0  0.24186912941E+02 -0.81873900705E+01  0.13358124121E+02  0.28818042852E+02  0.00000000000E+00 0. -1.
</event>
<event>
 5    1  0.1059945E-009  0.9118800E+02  0.7815553E-02  0.1125453E+00
         25   -1    0    0    0    0  0.00000000000E+00  0.00000000000E+00  0.99999998245E-14  0.12509000000E+03  0.12509000000E+03 0.  0.
        -11    1    3    3    0    0 -0.50761691702E+02  0.13191964913E+02 -0.29336746440E+02  0.60095107743E+02  0.51100000000E-03 0. -1.
         23    2    1    0    0    0 -0.16295910752E+02  0.37891684749E+01 -0.23421141253E+02  0.96306943134E+02  0.91905184474E+02 0.  0.
         11    1    3    3    0    0  0.34465780950E+02 -0.94027964380E+01  0.59156051869E+01  0.36211835391E+02  0.51100000000E-03 0.  1.
         22    1    1    0    0    0  0.16295910752E+02 -0.37891684749E+01  0.23421141253E+02  0.28783056866E+02  0.00000000000E+00 0. -1.
</event>
<event>
 5    1  0.1059945E-009  0.9118800E+02  0.7815553E-02  0.1125453E+00
         25   -1    0    0    0    0  0.00000000000E+00  0.00000000000E+00  0.99999998245E-14  0.12509000000E+03  0.12509000000E+03 0.  0.
        -11    1    3    3    0    0 -0.26635133124E+02  0.74386545057E+01  0.49150877809E+02  0.56396566270E+02  0.51100000000E-03 0.  1.
         23    2    1    0    0    0  0.50890249957E+01  0.13174947436E+02  0.23825179432E+02  0.97393130316E+02  0.93371865369E+02 0.  0.
         11    1    3    3    0    0  0.31724158120E+02  0.57362929299E+01 -0.25325698377E+02  0.40996564046E+02  0.51100000000E-03 0. -1.
         22    1    1    0    0    0 -0.50890249957E+01 -0.13174947436E+02 -0.23825179432E+02  0.27696869684E+02  0.00000000000E+00 0.  1.
</event>
<event>
 5    1  0.1059945E-009  0.9118800E+02  0.7815553E-02  0.1125453E+00
         25   -1    0    0    0    0  0.00000000000E+00  0.00000000000E+00  0.99999998245E-14  0.12509000000E+03  0.12509000000E+03 0.  0.
        -11    1    3    3    0    0  0.31138180104E+02  0.28414780472E+01  0.50283879192E+02  0.59212572690E+02  0.51100000000E-03 0. -1.
         23    2    1    0    0    0  0.79905247468E+01  0.14002837604E+02  0.25541592547E+02  0.94885680830E+02  0.89949939022E+02 0.  0.
         11    1    3    3    0    0 -0.23147655357E+02  0.11161359557E+02 -0.24742286645E+02  0.35673108140E+02  0.51100000000E-03 0.  1.
         22    1    1    0    0    0 -0.79905247468E+01 -0.14002837604E+02 -0.25541592547E+02  0.30204319170E+02  0.00000000000E+00 0. -1.
</event>
<event>
 5    1  0.1059945E-009  0.9118800E+02  0.7815553E-02  0.1125453E+00
         25   -1    0    0    0    0  0.00000000000E+00  0.00000000000E+00  0.99999998245E-14  0.12509000000E+03  0.12509000000E+03 0.  0.
        -11    1    3    3    0    0 -0.48595687580E+02 -0.82008840096E+01  0.36997350448E+02  0.61624664627E+02  0.51100000000E-03 0.  1.
         23    2    1    0    0    0 -0.27042608437E+02 -0.19862831338E+01  0.11356426843E+02  0.95692441897E+02  0.91064960407E+02 0.  0.
         11    1    3    3    0    0  0.21553079143E+02  0.62146008758E+01 -0.25640923605E+02  0.34067777271E+02  0.51100000000E-03 0. -1.
         22    1    1    0    0    0  0.27042608437E+02  0.19862831338E+01 -0.11356426843E+02  0.29397558103E+02  0.00000000000E+00 0.  1.
</event>
<event>
 5    1  0.1059945E-009  0.9118800E+02  0.7815553E-02  0.1125453E+00
         25   -1    0    0    0    0  0.00000000000E+00  0.00000000000E+00  0.99999998245E-14  0.12509000000E+03  0.12509000000E+03 0.  0.
        -11    1    3    3    0    0 -0.34669398686E-01 -0.24503350609E+01  0.38325886912E+02  0.38404152792E+02  0.51100000000E-03 0.  1.
         23    2    1    0    0    0 -0.27024528054E+02 -0.10322704728E+02 -0.10141004690E+02  0.94435092961E+02  0.89321125480E+02 0.  0.
         11    1    3    3    0    0 -0.26989858655E+02 -0.78723696672E+01 -0.48466891602E+02  0.56030940169E+02  0.51100000000E-03 0. -1.
         22    1    1    0    0    0  0.27024528054E+02  0.10322704728E+02  0.10141004690E+02  0.30654907039E+02  0.00000000000E+00 0. -1.
</event>
<event>
 5    1  0.1059945E-009  0.9118800E+02  0.7815553E-02  0.1125453E+00
         25   -1    0    0    0    0  0.00000000000E+00  0.00000000000E+00  0.99999998245E-14  0.12509000000E+03  0.12509000000E+03 0.  0.
        -11    1    3    3    0    0 -0.55828798351E+02 -0.22899894600E+02  0.91986241148E+01  0.61039942528E+02  0.51100000000E-03 0. -1.
         23    2    1    0    0    0 -0.24858302276E+02 -0.13682861338E+02 -0.49001386907E+01  0.96294735708E+02  0.91888567730E+02 0.  0.
         11    1    3    3    0    0  0.30970496075E+02  0.92170332616E+01 -0.14098762806E+02  0.35254793180E+02  0.51100000000E-03 0.  1.
         22    1    1    0    0    0  0.24858302276E+02  0.13682861338E+02  0.49001386907E+01  0.28795264292E+02  0.00000000000E+00 0. -1.
</event>
<event>
 5    1  0.1059945E-009  0.9118800E+02  0.7815553E-02  0.1125453E+00
         25   -1    0    0    0    0  0.00000000000E+00  0.00000000000E+00  0.99999998245E-14  0.12509000000E+03  0.12509000000E+03 0.  0.
        -11    1    3    3    0    0 -0.71483618566E+01  0.20031502785E+02  0.31359478753E+02  0.37891649330E+02  0.51100000000E-03 0. -1.
         23    2    1    0    0    0  0.11106169979E+01 -0.29862755224E+02  0.54565049907E+01  0.94712523699E+02  0.89708812716E+02 0.  0.
         11    1    3    3    0    0  0.82589788545E+01 -0.49894258009E+02 -0.25902973763E+02  0.56820874368E+02  0.51100000000E-03 0.  1.
         22    1    1    0    0    0 -0.11106169979E+01  0.29862755224E+02 -0.54565049907E+01  0.30377476301E+02  0.00000000000E+00 0.  1.
</event>
<event>
 5    1  0.1059945E-009  0.9118800E+02  0.7815553E-02  0.1125453E+00
         25   -1    0    0    0    0  0.00000000000E+00  0.00000000000E+00  0.99999998245E-14  0.12509000000E+03  0.12509000000E+03 0.  0.
        -11    1    3    3    0    0 -0.34926659647E+02  0.46699740414E+02  0.10300195878E+02  0.59218505082E+02  0.51100000000E-03 0.  1.
         23    2    1    0    0    0 -0.69454586300E+01  0.23439296587E+02  0.15746982514E+02  0.96010669224E+02  0.91501044401E+02 0.  0.
         11    1    3    3    0    0  0.27981201017E+02 -0.23260443827E+02  0.54467866354E+01  0.36792164142E+02  0.51100000000E-03 0. -1.
         22    1    1    0    0    0  0.69454586300E+01 -0.23439296587E+02 -0.15746982514E+02  0.29079330776E+02  0.00000000000E+00 0.  1.
</event>
<event>
 5    1  0.1059945E-009  0.9118800E+02  0.7815553E-02  0.1125453E+00
         25   -1    0    0    0    0  0.00000000000E+00  0.00000000000E+00  0.99999998245E-14  0.12509000000E+03  0.12509000000E+03 0.  0.
        -11    1    3    3    0    0  0.27262444884E+01 -0.33322261595E+02  0.22470777045E+02  0.40283263871E+02  0.51100000000E-03 0.  1.
         23    2    1    0    0    0 -0.15802425420E+02 -0.35293302624E+01 -0.22530354054E+02  0.97344916200E+02  0.93307250709E+02 0.  0.
         11    1    3    3    0    0 -0.18528669909E+02  0.29792931333E+02 -0.45001131099E+02  0.57061652329E+02  0.51100000000E-03 0. -1.
         22    1    1    0    0    0  0.15802425420E+02  0.35293302624E+01  0.22530354054E+02  0.27745083800E+02  0.00000000000E+00 0. -1.
</event>
<event>
 5    1  0.1059945E-009  0.9118800E+02  0.7815553E-02  0.1125453E+00
         25   -1    0    0    0    0  0.00000000000E+00  0.00000000000E+00  0.99999998245E-14  0.12509000000E+03  0.12509000000E+03 0.  0.
        -11    1    3    3    0    0 -0.41058443480E+02 -0.39666106108E+02  0.50135794648E+00  0.57091567808E+02  0.51100000000E-03 0.  1.
         23    2    1    0    0    0 -0.29170295624E+02 -0.32143864173E+01  0.34237878720E+01  0.95544090804E+02  0.90860951664E+02 0.  0.
         11    1    3    3    0    0  0.11888147856E+02  0.36451719690E+02  0.29224299255E+01  0.38452522996E+02  0.51100000000E-03 0. -1.
         22    1    1    0    0    0  0.29170295624E+02  0.32143864173E+01 -0.34237878720E+01  0.29545909196E+02  0.00000000000E+00 0.  1.
</event>
<event>
 5    1  0.1059945E-009  0.9118800E+02  0.7815553E-02  0.1125453E+00
         25   -1    0    0    0    0  0.00000000000E+00  0.00000000000E+00  0.99999998245E-14  0.12509000000E+03  0.12509000000E+03 0.  0.
        -11    1    3    3    0    0  0.57431444180E+01  0.34607375227E+02  0.19344130348E+02  0.40060572975E+02  0.51100000000E-03 0. -1.
         23    2    1    0    0    0  0.20346777870E+02 -0.97424398947E+00 -0.21022745196E+02  0.95817208254E+02  0.91236182849E+02 0.  0.
         11    1    3    3    0    0  0.14603633452E+02 -0.35581619217E+02 -0.40366875544E+02  0.55756635278E+02  0.51100000000E-03 0.  1.
         22    1    1    0    0    0 -0.20346777870E+02  0.97424398947E+00  0.21022745196E+02  0.29272791746E+02  0.00000000000E+00 0.  1.
</event>
<event>
 5    1  0.1059945E-009  0.9118800E+02  0.7815553E-02  0.1125453E+00
         25   -1    0    0    0    0  0.00000000000E+00  0.00000000000E+00  0.99999998245E-14  0.12509000000E+03  0.12509000000E+03 0.  0.
        -11    1    3    3    0    0  0.97666298273E+01 -0.80755139787E+01  0.35289420910E+02  0.37495922613E+02  0.51100000000E-03 0.  1.
         23    2    1    0    0    0 -0.23158728752E+02 -0.30945093447E+02  0.25570728494E+02  0.78745769706E+02  0.63664028815E+02 0.  0.
         11    1    3    3    0    0 -0.32925358579E+02 -0.22869579468E+02 -0.97186924158E+01  0.41249847093E+02  0.51100000000E-03 0. -1.
         22    1    1    0    0    0  0.23158728752E+02  0.30945093447E+02 -0.25570728494E+02  0.46344230294E+02  0.00000000000E+00 0.  1.
</event>
<event>
 5    1  0.1059945E-009  0.9118800E+02  0.7815553E-02  0.1125453E+00
         25   -1    0    0    0    0  0.00000000000E+00  0.00000000000E+00  0.99999998245E-14  0.12509000000E+03  0.12509000000E+03 0.  0.
        -11    1    3    3    0    0 -0.18387591766E+02  0.18957230856E+02  0.44588606415E+02  0.51823006039E+02  0.51100000000E-03 0.  1.
         23    2    1    0    0    0 -0.27307020258E+02 -0.86365627064E+01  0.26938383040E+02  0.85771555835E+02  0.76228733026E+02 0.  0.
         11    1    3    3    0    0 -0.89194284926E+01 -0.27593793562E+02 -0.17650223374E+02  0.33948549796E+02  0.51100000000E-03 0. -1.
         22    1    1    0    0    0  0.27307020258E+02  0.86365627064E+01 -0.26938383040E+02  0.39318444165E+02  0.00000000000E+00 0. -1.
</event>
<event>
 5    1  0.1059945E-009  0.9118800E+02  0.7815553E-02  0.1125453E+00
         25   -1    0    0    0    0  0.00000000000E+00  0.00000000000E+00  0.99999998245E-14  0.12509000000E+03  0.12509000000E+03 0.  0.
        -11    1    3    3    0    0 -0.25200926390E+02  0.21043450223E+02  0.94644468324E+01  0.34168541706E+02  0.51100000000E-03 0.  1.
         23    2    1    0    0    0  0.17728661739E+02 -0.19335362425E+02 -0.11123019894E+02  0.96596434784E+02  0.92298363768E+02 0.  0.
         11    1    3    3    0    0  0.42929588129E+02 -0.40378812648E+02 -0.20587466726E+02  0.62427893078E+02  0.51100000000E-03 0. -1.
         22    1    1    0    0    0 -0.17728661739E+02  0.19335362425E+02  0.11123019894E+02  0.28493565216E+02  0.00000000000E+00 0. -1.
</event>
<event>
 5    1  0.1059945E-009  0.9118800E+02  0.7815553E-02  0.1125453E+00
         25   -1    0    0    0    0  0.00000000000E+00  0.00000000000E+00  0.99999998245E-14  0.12509000000E+03  0.12509000000E+03 0.  0.
        -11    1    3    3    0    0 -0.60727761285E+00  0.25503033190E+02 -0.25568658490E+02  0.36118274949E+02  0.51100000000E-03 0.  1.
         23    2    1    0    0    0  0.12068729589E+01  0.13845824551E+01  0.29117661430E+02  0.95914465420E+02  0.91369430658E+02 0.  0.
         11    1    3    3    0    0  0.18141505717E+01 -0.24118450735E+02  0.54686319920E+02  0.59796190471E+02  0.51100000000E-03 0. -1.
         22    1    1    0    0    0 -0.12068729589E+01 -0.13845824551E+01 -0.29117661430E+02  0.29175534580E+02  0.00000000000E+00 0. -1.
</event>
<event>
 5    1  0.1059945E-009  0.9118800E+02  0.7815553E-02  0.1125453E+00
         25   -1    0    0    0    0  0.00000000000E+00  0.00000000000E+00  0.99999998245E-14  0.12509000000E+03  0.12509000000E+03 0.  0.
        -11    1    3    3    0    0  0.28138794587E+02 -0.19728998119E+02  0.28165883991E+02  0.44433570067E+02  0.51100000000E-03 0.  1.
         23    2    1    0    0    0 -0.18581864133E+02 -0.21642172472E+02  0.72495985329E+01  0.95658282706E+02  0.91018026058E+02 0.  0.
         11    1    3    3    0    0 -0.46720658720E+02 -0.19131743528E+01 -0.20916285458E+02  0.51224712640E+02  0.51100000000E-03 0. -1.
         22    1    1    0    0    0  0.18581864133E+02  0.21642172472E+02 -0.72495985329E+01  0.29431717294E+02  0.00000000000E+00 0. -1.
</event>
<event>
 5    1  0.1059945E-009  0.9118800E+02  0.7815553E-02  0.1125453E+00
         25   -1    0    0    0    0  0.00000000000E+00  0.00000000000E+00  0.99999998245E-14  0.12509000000E+03  0.12509000000E+03 0.  0.
        -11    1    3    3    0    0  0.53961157858E+01 -0.52285658777E+02 -0.13526099303E+02  0.54275809915E+02  0.51100000000E-03 0.  1.
         23    2    1    0    0    0 -0.18328746999E+02 -0.20674301109E+02  0.33627387112E+01  0.97256967385E+02  0.93189269771E+02 0.  0.
         11    1    3    3    0    0 -0.23724862785E+02  0.31611357668E+02  0.16888838014E+02  0.42981157471E+02  0.51100000000E-03 0. -1.
         22    1    1    0    0    0  0.18328746999E+02  0.20674301109E+02 -0.33627387112E+01  0.27833032615E+02  0.00000000000E+00 0.  1.
</event>
<event>
 5    1  0.1059945E-009  0.9118800E+02  0.7815553E-02  0.1125453E+00
         25   -1    0    0    0    0  0.00000000000E+00  0.00000000000E+00  0.99999998245E-14  0.12509000000E+03  0.12509000000E+03 0.  0.
        -11    1    3    3    0    0  0.28737147077E+02  0.35232801236E+02  0.37240992521E+02  0.58771297665E+02  0.51100000000E-03 0. -1.
         23    2    1    0    0    0  0.14681542569E+02  0.36544675984E+01  0.25800640599E+02  0.95180538604E+02  0.90359056259E+02 0.  0.
         11    1    3    3    0    0 -0.14055604507E+02 -0.31578333637E+02 -0.11440351922E+02  0.36409240939E+02  0.51100000000E-03 0.  1.
         22    1    1    0    0    0 -0.14681542569E+02 -0.36544675984E+01 -0.25800640599E+02  0.29909461396E+02  0.00000000000E+00 0. -1.
</event>
<event>
 5    1  0.1059945E-009  0.9118800E+02  0.7815553E-02  0.1125453E+00
         25   -1    0    0    0    0  0.00000000000E+00  0.00000000000E+00  0.99999998245E-14  0.12509000000E+03  0.12509000000E+03 0.  0.
        -11    1    3    3    0    0  0.13532752225E+02  0.47776117723E+02 -0.22177942788E+02  0.54383397780E+02  0.51100000000E-03 0. -1.
         23    2    1    0    0    0  0.21460933452E+02  0.14889847770E+02  0.58594563881E+01  0.98320381766E+02  0.94605945956E+02 0.  0.
         11    1    3    3    0    0  0.79281812269E+01 -0.32886269953E+02  0.28037399176E+02  0.43936983986E+02  0.51100000000E-03 0.  1.
         22    1    1    0    0    0 -0.21460933452E+02 -0.14889847770E+02 -0.58594563881E+01  0.26769618234E+02  0.00000000000E+00 0. -1.
</event>
<event>
 5    1  0.1059945E-009  0.9118800E+02  0.7815553E-02  0.1125453E+00
         25   -1    0    0    0    0  0.00000000000E+00  0.00000000000E+00  0.99999998245E-14  0.12509000000E+03  0.12509000000E+03 0.  0.
        -11    1    3    3    0    0 -0.28210883879E+02  0.11813391180E+02  0.19226950603E+02  0.36125971408E+02  0.51100000000E-03 0. -1.
         23    2    1    0    0    0  0.21816394348E+02 -0.18160765345E+02  0.88066259097E+01  0.95369214004E+02  0.90619875632E+02 0.  0.
         11    1    3    3    0    0  0.50027278228E+02 -0.29974156526E+02 -0.10420324693E+02  0.59243242596E+02  0.51100000000E-03 0.  1.
         22    1    1    0    0    0 -0.21816394348E+02  0.18160765345E+02 -0.88066259097E+01  0.29720785996E+02  0.00000000000E+00 0.  1.
</event>
<event>
 5    1  0.1059945E-009  0.9118800E+02  0.7815553E-02  0.1125453E+00
         25   -1    0    0    0    0  0.00000000000E+00  0.00000000000E+00  0.99999998245E-14  0.12509000000E+03  0.12509000000E+03 0.  0.
        -11    1    3    3    0    0  0.98083207569E+01  0.37764336922E+01  0.32187577205E+02  0.33860075813E+02  0.51100000000E-03 0.  1.
         23    2    1    0    0    0  0.22651402993E+02  0.39944266055E+02  0.10349809782E+02  0.78018256770E+02  0.62218159557E+02 0.  0.
         11    1    3    3    0    0  0.12843082236E+02  0.36167832362E+02 -0.21837767423E+02  0.44158180957E+02  0.51100000000E-03 0. -1.
         22    1    1    0    0    0 -0.22651402993E+02 -0.39944266055E+02 -0.10349809782E+02  0.47071743230E+02  0.00000000000E+00 0. -1.
</event>
<event>
 5    1  0.1059945E-009  0.9118800E+02  0.7815553E-02  0.1125453E+00
         25   -1    0    0    0    0  0.00000000000E+00  0.00000000000E+00  0.99999998245E-14  0.12509000000E+03  0.12509000000E+03 0.  0.
        -11    1    3    3    0    0  0.27274464814E+01 -0.40813056757E+02 -0.31288721711E+02  0.51498822052E+02  0.51100000000E-03 0. -1.
         23    2    1    0    0    0 -0.45636594129E+01 -0.23067852278E+02  0.11884340773E+02  0.98742507680E+02  0.95162453054E+02 0.  0.
         11    1    3    3    0    0 -0.72911058943E+01  0.17745204479E+02  0.43173062484E+02  0.47243685627E+02  0.51100000000E-03 0.  1.
         22    1    1    0    0    0  0.45636594129E+01  0.23067852278E+02 -0.11884340773E+02  0.26347492320E+02  0.00000000000E+00 0.  1.
</event>
<event>
 5    1  0.1059945E-009  0.9118800E+02  0.7815553E-02  0.1125453E+00
         25   -1    0    0    0    0  0.00000000000E+00  0.00000000000E+00  0.99999998245E-14  0.12509000000E+03  0.12509000000E+03 0.  0.
        -11    1    3    3    0    0 -0.13541939799E+02  0.29530179455E+02 -0.70507348683E+01  0.33243472962E+02  0.51100000000E-03 0. -1.
         23    2    1    0    0    0 -0.50957968537E+01 -0.25867209814E+02  0.16455693085E+02  0.94011558532E+02  0.88726003030E+02 0.  0.
         11    1    3    3    0    0  0.84461429454E+01 -0.55397389269E+02  0.23506427953E+02  0.60768085570E+02  0.51100000000E-03 0.  1.
         22    1    1    0    0    0  0.50957968537E+01  0.25867209814E+02 -0.16455693085E+02  0.31078441468E+02  0.00000000000E+00 0.  1.
</event>
<event>
 5    1  0.1059945E-009  0.9118800E+02  0.7815553E-02  0.1125453E+00
         25   -1    0    0    0    0  0.00000000000E+00  0.00000000000E+00  0.99999998245E-14  0.12509000000E+03  0.12509000000E+03 0.  0.
        -11    1    3    3    0    0 -0.27428789662E+02  0.28147959150E+02 -0.33342968181E+01  0.39443169778E+02  0.51100000000E-03 0. -1.
         23    2    1    0    0    0 -0.11633021477E+02 -0.25619352474E+02  0.61744696784E+01  0.96283707534E+02  0.91873553598E+02 0.  0.
         11    1    3    3    0    0  0.15795768185E+02 -0.53767311624E+02  0.95087664965E+01  0.56840537755E+02  0.51100000000E-03 0.  1.
         22    1    1    0    0    0  0.11633021477E+02  0.25619352474E+02 -0.61744696784E+01  0.28806292466E+02  0.00000000000E+00 0.  1.
</event>
<event>
 5    1  0.1059945E-009  0.9118800E+02  0.7815553E-02  0.1125453E+00
         25   -1    0    0    0    0  0.00000000000E+00  0.00000000000E+00  0.99999998245E-14  0.12509000000E+03  0.12509000000E+03 0.  0.
        -11    1    3    3    0    0 -0.17592786035E+02 -0.29942639615E+02  0.22130960182E+02  0.41180665201E+02  0.51100000000E-03 0.  1.
         23    2    1    0    0    0 -0.14238858934E+02 -0.38230005230E+01 -0.25516127255E+02  0.95620809532E+02  0.90966510480E+02 0.  0.
         11    1    3    3    0    0  0.33539271012E+01  0.26119639092E+02 -0.47647087437E+02  0.54440144331E+02  0.51100000000E-03 0. -1.
         22    1    1    0    0    0  0.14238858934E+02  0.38230005230E+01  0.25516127255E+02  0.29469190468E+02  0.00000000000E+00 0. -1.
</event>
<event>
 5    1  0.1059945E-009  0.9118800E+02  0.7815553E-02  0.1125453E+00
         25   -1    0    0    0    0  0.00000000000E+00  0.00000000000E+00  0.99999998245E-14  0.12509000000E+03  0.12509000000E+03 0.  0.
        -11    1    3    3    0    0  0.41644224346E+01 -0.44896344097E+02  0.33397134922E+02  0.56110540443E+02  0.51100000000E-03 0.  1.
         23    2    1    0    0    0 -0.17359877543E+02 -0.24438970734E+02  0.11600500204E+02  0.92946567640E+02  0.87211605835E+02 0.  0.
         11    1    3    3    0    0 -0.21524299978E+02  0.20457373363E+02 -0.21796634718E+02  0.36836027198E+02  0.51100000000E-03 0. -1.
         22    1    1    0    0    0  0.17359877543E+02  0.24438970734E+02 -0.11600500204E+02  0.32143432360E+02  0.00000000000E+00 0.  1.
</event>
<event>
 5    1  0.1059945E-009  0.9118800E+02  0.7815553E-02  0.1125453E+00
         25   -1    0    0    0    0  0.00000000000E+00  0.00000000000E+00  0.99999998245E-14  0.12509000000E+03  0.12509000000E+03 0.  0.
        -11    1    3    3    0    0 -0.94922861051E+01 -0.37243615953E+02 -0.21907606220E+01  0.38496621373E+02  0.51100000000E-03 0.  1.
         23    2    1    0    0    0  0.28117926016E+02  0.45785538836E+01 -0.91424859347E+01  0.95170675673E+02  0.90345401321E+02 0.  0.
         11    1    3    3    0    0  0.37610212121E+02  0.41822169837E+02 -0.69517253127E+01  0.56674054300E+02  0.51100000000E-03 0. -1.
         22    1    1    0    0    0 -0.28117926016E+02 -0.45785538836E+01  0.91424859347E+01  0.29919324327E+02  0.00000000000E+00 0. -1.
</event>
<event>
 5    1  0.1059945E-009  0.9118800E+02  0.7815553E-02  0.1125453E+00
         25   -1    0    0    0    0  0.00000000000E+00  0.00000000000E+00  0.99999998245E-14  0.12509000000E+03  0.12509000000E+03 0.  0.
        -11    1    3    3    0    0  0.14934393072E+02  0.23841242673E+02  0.33985196708E+01  0.28337093797E+02  0.51100000000E-03 0.  1.
         23    2    1    0    0    0  0.22892141142E+02 -0.14963418278E+02 -0.33067358674E+02  0.82178413892E+02  0.70084859189E+02 0.  0.
         11    1    3    3    0    0  0.79577480707E+01 -0.38804660951E+02 -0.36465878345E+02  0.53841320095E+02  0.51100000000E-03 0. -1.
         22    1    1    0    0    0 -0.22892141142E+02  0.14963418278E+02  0.33067358674E+02  0.42911586108E+02  0.00000000000E+00 0.  1.
</event>
<event>
 5    1  0.1059945E-009  0.9118800E+02  0.7815553E-02  0.1125453E+00
         25   -1    0    0    0    0  0.00000000000E+00  0.00000000000E+00  0.99999998245E-14  0.12509000000E+03  0.12509000000E+03 0.  0.
        -11    1    3    3    0    0  0.74487973365E+01  0.27469597219E+01  0.33205834978E+02  0.34141731742E+02  0.51100000000E-03 0. -1.
         23    2    1    0    0    0  0.42728014473E+00 -0.83592932899E+01 -0.27547085472E+02  0.96299337093E+02  0.91894831487E+02 0.  0.
         11    1    3    3    0    0 -0.70215171917E+01 -0.11106253012E+02 -0.60752920450E+02  0.62157605352E+02  0.51100000000E-03 0.  1.
         22    1    1    0    0    0 -0.42728014473E+00  0.83592932899E+01  0.27547085472E+02  0.28790662907E+02  0.00000000000E+00 0.  1.
</event>
<event>
 5    1  0.1059945E-009  0.9118800E+02  0.7815553E-02  0.1125453E+00
         25   -1    0    0    0    0  0.00000000000E+00  0.00000000000E+00  0.99999998245E-14  0.12509000000E+03  0.12509000000E+03 0.  0.
        -11    1    3    3    0    0 -0.31227136380E+02  0.42650716402E+01  0.51861375870E+02  0.60687125405E+02  0.51100000000E-03 0. -1.
         23    2    1    0    0    0 -0.64784711395E+01 -0.69981303728E+01  0.22213963811E+02  0.10091553816E+03  0.97977248568E+02 0.  0.
         11    1    3    3    0    0  0.24748665241E+02 -0.11263202013E+02 -0.29647412059E+02  0.40228412755E+02  0.51100000000E-03 0.  1.
         22    1    1    0    0    0  0.64784711395E+01  0.69981303728E+01 -0.22213963811E+02  0.24174461839E+02  0.00000000000E+00 0. -1.
</event>
<event>
 5    1  0.1059945E-009  0.9118800E+02  0.7815553E-02  0.1125453E+00
         25   -1    0    0    0    0  0.00000000000E+00  0.00000000000E+00  0.99999998245E-14  0.12509000000E+03  0.12509000000E+03 0.  0.
        -11    1    3    3    0    0  0.51715047048E+02  0.33670265300E+02 -0.30005512116E+01  0.61782976331E+02  0.51100000000E-03 0. -1.
         23    2    1    0    0    0  0.21243425585E+02  0.15596057641E+02 -0.79674283691E+01  0.97558199127E+02  0.93592746287E+02 0.  0.
         11    1    3    3    0    0 -0.30471621463E+02 -0.18074207659E+02 -0.49668771575E+01  0.35775222795E+02  0.51100000000E-03 0.  1.
         22    1    1    0    0    0 -0.21243425585E+02 -0.15596057641E+02  0.79674283691E+01  0.27531800873E+02  0.00000000000E+00 0. -1.
</event>
<event>
 5    1  0.1059945E-009  0.9118800E+02  0.7815553E-02  0.1125453E+00
         25   -1    0    0    0    0  0.00000000000E+00  0.00000000000E+00  0.99999998245E-14  0.12509000000E+03  0.12509000000E+03 0.  0.
        -11    1    3    3    0    0 -0.17646221775E+02 -0.14214626768E+02  0.56265185265E+01  0.23347429581E+02  0.51100000000E-03 0. -1.
         23    2    1    0    0    0  0.66991268034E+01  0.38751490536E+02 -0.11521755665E+02  0.84110649440E+02  0.73452666235E+02 0.  0.
         11    1    3    3    0    0  0.24345348578E+02  0.52966117304E+02 -0.17148274192E+02  0.60763219859E+02  0.51100000000E-03 0.  1.
         22    1    1    0    0    0 -0.66991268034E+01 -0.38751490536E+02  0.11521755665E+02  0.40979350560E+02  0.00000000000E+00 0.  1.
</event>
<event>
 5    1  0.1059945E-009  0.9118800E+02  0.7815553E-02  0.1125453E+00
         25   -1    0    0    0    0  0.00000000000E+00  0.00000000000E+00  0.99999998245E-14  0.12509000000E+03  0.12509000000E+03 0.  0.
        -11    1    3    3    0    0  0.22114587869E+02 -0.51678041634E+02  0.25340249034E+02  0.61658764220E+02  0.51100000000E-03 0.  1.
         23    2    1    0    0    0  0.70260017300E+01 -0.34098544020E+02  0.17561026168E+02  0.86096859005E+02  0.76760693625E+02 0.  0.
         11    1    3    3    0    0 -0.15088586139E+02  0.17579497614E+02 -0.77792228666E+01  0.24438094785E+02  0.51100000000E-03 0. -1.
         22    1    1    0    0    0 -0.70260017300E+01  0.34098544020E+02 -0.17561026168E+02  0.38993140995E+02  0.00000000000E+00 0.  1.
</event>
<event>
 5    1  0.1059945E-009  0.9118800E+02  0.7815553E-02  0.1125453E+00
         25   -1    0    0    0    0  0.00000000000E+00  0.00000000000E+00  0.99999998245E-14  0.12509000000E+03  0.12509000000E+03 0.  0.
        -11    1    3    3    0    0  0.75692135022E+01  0.24083742981E+02 -0.50290699041E+02  0.56271432178E+02  0.51100000000E-03 0.  1.
         23    2    1    0    0    0 -0.16288047130E+02  0.11476740401E+02 -0.19538597702E+02  0.97183498075E+02  0.93090598066E+02 0.  0.
         11    1    3    3    0    0 -0.23857260632E+02 -0.12607002580E+02  0.30752101339E+02  0.40912065897E+02  0.51100000000E-03 0. -1.
         22    1    1    0    0    0  0.16288047130E+02 -0.11476740401E+02  0.19538597702E+02  0.27906501925E+02  0.00000000000E+00 0.  1.
</event>
<event>
 5    1  0.1059945E-009  0.9118800E+02  0.7815553E-02  0.1125453E+00
         25   -1    0    0    0    0  0.00000000000E+00  0.00000000000E+00  0.99999998245E-14  0.12509000000E+03  0.12509000000E+03 0.  0.
        -11    1    3    3    0    0  0.26973509815E+00  0.48192977560E+02  0.16548110452E+01  0.48222134368E+02  0.51100000000E-03 0. -1.
         23    2    1    0    0    0  0.14659095309E+02  0.12799371525E+02 -0.23961352971E+02  0.94221578872E+02  0.89021606940E+02 0.  0.
         11    1    3    3    0    0  0.14389360211E+02 -0.35393606036E+02 -0.25616164017E+02  0.45999444504E+02  0.51100000000E-03 0.  1.
         22    1    1    0    0    0 -0.14659095309E+02 -0.12799371525E+02  0.23961352971E+02  0.30868421128E+02  0.00000000000E+00 0. -1.
</event>
<event>
 5    1  0.1059945E-009  0.9118800E+02  0.7815553E-02  0.1125453E+00
         25   -1    0    0    0    0  0.00000000000E+00  0.00000000000E+00  0.99999998245E-14  0.12509000000E+03  0.12509000000E+03 0.  0.
        -11    1    3    3    0    0  0.49234390081E+02 -0.32645510994E+02 -0.63276779660E+01  0.59412070015E+02  0.51100000000E-03 0.  1.
         23    2    1    0    0    0  0.18686340103E+02 -0.21410937263E+02  0.88501549594E+01  0.95325376977E+02  0.90559343593E+02 0.  0.
         11    1    3    3    0    0 -0.30548049978E+02  0.11234573731E+02  0.15177832925E+02  0.35913306962E+02  0.51100000000E-03 0. -1.
         22    1    1    0    0    0 -0.18686340103E+02  0.21410937263E+02 -0.88501549594E+01  0.29764623023E+02  0.00000000000E+00 0.  1.
</event>
<event>
 5    1  0.1059945E-009  0.9118800E+02  0.7815553E-02  0.1125453E+00
         25   -1    0    0    0    0  0.00000000000E+00  0.00000000000E+00  0.99999998245E-14  0.12509000000E+03  0.12509000000E+03 0.  0.
        -11    1    3    3    0    0 -0.40520895233E+02 -0.42639089235E+01 -0.15504223919E+02  0.43594779841E+02  0.51100000000E-03 0.  1.
         23    2    1    0    0    0 -0.21693414259E+02  0.27842242136E+02  0.96277615257E+01  0.88504641434E+02  0.80588976256E+02 0.  0.
         11    1    3    3    0    0  0.18827480974E+02  0.32106151060E+02  0.25131985445E+02  0.44909861594E+02  0.51100000000E-03 0. -1.
         22    1    1    0    0    0  0.21693414259E+02 -0.27842242136E+02 -0.96277615257E+01  0.36585358566E+02  0.00000000000E+00 0. -1.
</event>
<event>
 5    1  0.1059945E-009  0.9118800E+02  0.7815553E-02  0.1125453E+00
         25   -1    0    0    0    0  0.00000000000E+00  0.00000000000E+00  0.99999998245E-14  0.12509000000E+03  0.12509000000E+03 0.  0.
        -11    1    3    3    0    0  0.81703276326E+01 -0.41753288829E+02 -0.50344260733E+00  0.42548147273E+02  0.51100000000E-03 0.  1.
         23    2    1    0    0    0 -0.24067735315E+02 -0.29087231604E+01  0.16443524577E+02  0.95796552710E+02  0.91207858527E+02 0.  0.
         11    1    3    3    0    0 -0.32238062947E+02  0.38844565669E+02  0.16946967184E+02  0.53248405437E+02  0.51100000000E-03 0. -1.
         22    1    1    0    0    0  0.24067735315E+02  0.29087231604E+01 -0.16443524577E+02  0.29293447290E+02  0.00000000000E+00 0. -1.
</event>
<event>
 5    1  0.1059945E-009  0.9118800E+02  0.7815553E-02  0.1125453E+00
         25   -1    0    0    0    0  0.00000000000E+00  0.00000000000E+00  0.99999998245E-14  0.12509000000E+03  0.12509000000E+03 0.  0.
        -11    1    3    3    0    0  0.22996661242E+01 -0.35486092393E+02 -0.44521278148E+02  0.56979780850E+02  0.51100000000E-03 0. -1.
         23    2    1    0    0    0 -0.55647393286E+01 -0.28120066527E+02 -0.76100355071E+01  0.95431660436E+02  0.90706034573E+02 0.  0.
         11    1    3    3    0    0 -0.78644054527E+01  0.73660258661E+01  0.36911242640E+02  0.38451879586E+02  0.51100000000E-03 0.  1.
         22    1    1    0    0    0  0.55647393286E+01  0.28120066527E+02  0.76100355071E+01  0.29658339564E+02  0.00000000000E+00 0. -1.
</event>
<event>
 5    1  0.1059945E-009  0.9118800E+02  0.7815553E-02  0.1125453E+00
         25   -1    0    0    0    0  0.00000000000E+00  0.00000000000E+00  0.99999998245E-14  0.12509000000E+03  0.12509000000E+03 0.  0.
        -11    1    3    3    0    0  0.20096862075E+02  0.13717477083E+02 -0.29533995695E+02  0.38266302993E+02  0.51100000000E-03 0. -1.
         23    2    1    0    0    0 -0.62903386188E+01 -0.28444806970E+02 -0.30732303469E+00  0.95956345047E+02  0.91426748295E+02 0.  0.
         11    1    3    3    0    0 -0.26387200694E+02 -0.42162284053E+02  0.29226672661E+02  0.57690042053E+02  0.51100000000E-03 0.  1.
         22    1    1    0    0    0  0.62903386188E+01  0.28444806970E+02  0.30732303469E+00  0.29133654953E+02  0.00000000000E+00 0. -1.
</event>
<event>
 5    1  0.1059945E-009  0.9118800E+02  0.7815553E-02  0.1125453E+00
         25   -1    0    0    0    0  0.00000000000E+00  0.00000000000E+00  0.99999998245E-14  0.12509000000E+03  0.12509000000E+03 0.  0.
        -11    1    3    3    0    0 -0.46111800311E+02  0.10708068340E+02  0.12882100009E+02  0.49060262498E+02  0.51100000000E-03 0.  1.
         23    2    1    0    0    0 -0.16990718505E+02 -0.15069847191E+02 -0.15833903037E+02  0.97404312451E+02  0.93386844839E+02 0.  0.
         11    1    3    3    0    0  0.29121081806E+02 -0.25777915531E+02 -0.28716003046E+02  0.48344049953E+02  0.51100000000E-03 0. -1.
         22    1    1    0    0    0  0.16990718505E+02  0.15069847191E+02  0.15833903037E+02  0.27685687549E+02  0.00000000000E+00 0. -1.
</event>
<event>
 5    1  0.1059945E-009  0.9118800E+02  0.7815553E-02  0.1125453E+00
         25   -1    0    0    0    0  0.00000000000E+00  0.00000000000E+00  0.99999998245E-14  0.12509000000E+03  0.12509000000E+03 0.  0.
        -11    1    3    3    0    0 -0.78443802017E+01  0.21539420647E+02 -0.28232966138E+02  0.36367311143E+02  0.51100000000E-03 0.  1.
         23    2    1    0    0    0  0.18795648158E+01  0.97593933460E+01  0.28387991750E+02  0.95012490163E+02  0.90126115466E+02 0.  0.
         11    1    3    3    0    0  0.97239450175E+01 -0.11780027301E+02  0.56620957888E+02  0.58645179020E+02  0.51100000000E-03 0. -1.
         22    1    1    0    0    0 -0.18795648158E+01 -0.97593933460E+01 -0.28387991750E+02  0.30077509837E+02  0.00000000000E+00 0. -1.
</event>
<event>
 5    1  0.1059945E-009  0.9118800E+02  0.7815553E-02  0.1125453E+00
         25   -1    0    0    0    0  0.00000000000E+00  0.00000000000E+00  0.99999998245E-14  0.12509000000E+03  0.12509000000E+03 0.  0.
        -11    1    3    3    0    0 -0.32833249432E+02  0.38892798591E+02  0.69914299470E+00  0.50903446364E+02  0.51100000000E-03 0. -1.
         23    2    1    0    0    0  0.56762328302E+01  0.23510688054E+02 -0.16515830197E+02  0.95802720867E+02  0.91216317655E+02 0.  0.
         11    1    3    3    0    0  0.38509482262E+02 -0.15382110537E+02 -0.17214973192E+02  0.44899274503E+02  0.51100000000E-03 0.  1.
         22    1    1    0    0    0 -0.56762328302E+01 -0.23510688054E+02  0.16515830197E+02  0.29287279133E+02  0.00000000000E+00 0. -1.
</event>
<event>
 5    1  0.1059945E-009  0.9118800E+02  0.7815553E-02  0.1125453E+00
         25   -1    0    0    0    0  0.00000000000E+00  0.00000000000E+00  0.99999998245E-14  0.12509000000E+03  0.12509000000E+03 0.  0.
        -11    1    3    3    0    0  0.87282094764E+01 -0.13878059856E+02 -0.47861360740E+02  0.50591422575E+02  0.51100000000E-03 0.  1.
         23    2    1    0    0    0 -0.21446358214E+02  0.42681804217E+01 -0.17568385018E+02  0.97039834280E+02  0.92897350017E+02 0.  0.
         11    1    3    3    0    0 -0.30174567691E+02  0.18146240278E+02  0.30292975722E+02  0.46448411705E+02  0.51100000000E-03 0. -1.
         22    1    1    0    0    0  0.21446358214E+02 -0.42681804217E+01  0.17568385018E+02  0.28050165720E+02  0.00000000000E+00 0. -1.
</event>
<event>
 5    1  0.1059945E-009  0.9118800E+02  0.7815553E-02  0.1125453E+00
         25   -1    0    0    0    0  0.00000000000E+00  0.00000000000E+00  0.99999998245E-14  0.12509000000E+03  0.12509000000E+03 0.  0.
        -11    1    3    3    0    0  0.60121991850E+02 -0.51053203151E+01 -0.13032455492E+02  0.61729758592E+02  0.51100000000E-03 0.  1.
         23    2    1    0    0    0  0.25580590964E+02 -0.59721505377E+01 -0.11770228996E+02  0.96305081957E+02  0.91902651235E+02 0.  0.
         11    1    3    3    0    0 -0.34541400886E+02 -0.86683022261E+00  0.12622264952E+01  0.34575323365E+02  0.51100000000E-03 0. -1.
         22    1    1    0    0    0 -0.25580590964E+02  0.59721505377E+01  0.11770228996E+02  0.28784918043E+02  0.00000000000E+00 0.  1.
</event>
<event>
 5    1  0.1059945E-009  0.9118800E+02  0.7815553E-02  0.1125453E+00
         25   -1    0    0    0    0  0.00000000000E+00  0.00000000000E+00  0.99999998245E-14  0.12509000000E+03  0.12509000000E+03 0.  0.
        -11    1    3    3    0    0 -0.23537277999E+02 -0.46142459836E+02 -0.54507559206E+01  0.52084938280E+02  0.51100000000E-03 0. -1.
         23    2    1    0    0    0 -0.27540800990E+02 -0.52912312167E+01  0.90554702340E+01  0.95619771156E+02  0.90965082575E+02 0.  0.
         11    1    3    3    0    0 -0.40035229903E+01  0.40851228619E+02  0.14506226155E+02  0.43534832876E+02  0.51100000000E-03 0.  1.
         22    1    1    0    0    0  0.27540800990E+02  0.52912312167E+01 -0.90554702340E+01  0.29470228844E+02  0.00000000000E+00 0. -1.
</event>
<event>
 5    1  0.1059945E-009  0.9118800E+02  0.7815553E-02  0.1125453E+00
         25   -1    0    0    0    0  0.00000000000E+00  0.00000000000E+00  0.99999998245E-14  0.12509000000E+03  0.12509000000E+03 0.  0.
        -11    1    3    3    0    0  0.30628946572E+02 -0.13743765235E+02  0.20430841174E+02  0.39299398497E+02  0.51100000000E-03 0.  1.
         23    2    1    0    0    0 -0.21697622616E+02 -0.18536431993E+01  0.23504841603E+02  0.93047834045E+02  0.87356734265E+02 0.  0.
         11    1    3    3    0    0 -0.52326569188E+02  0.11890122036E+02  0.30740004294E+01  0.53748435548E+02  0.51100000000E-03 0. -1.
         22    1    1    0    0    0  0.21697622616E+02  0.18536431993E+01 -0.23504841603E+02  0.32042165955E+02  0.00000000000E+00 0. -1.
</event>
<event>
 5    1  0.1059945E-009  0.9118800E+02  0.7815553E-02  0.1125453E+00
         25   -1    0    0    0    0  0.00000000000E+00  0.00000000000E+00  0.99999998245E-14  0.12509000000E+03  0.12509000000E+03 0.  0.
        -11    1    3    3    0    0  0.25456299903E+02  0.27738041351E+02 -0.31495241830E+02  0.49085358315E+02  0.51100000000E-03 0. -1.
         23    2    1    0    0    0 -0.13053438474E+02  0.23797661474E+02 -0.17746781254E+01  0.97889440630E+02  0.94034420064E+02 0.  0.
         11    1    3    3    0    0 -0.38509738377E+02 -0.39403798768E+01  0.29720563705E+02  0.48804082315E+02  0.51100000000E-03 0.  1.
         22    1    1    0    0    0  0.13053438474E+02 -0.23797661474E+02  0.17746781254E+01  0.27200559370E+02  0.00000000000E+00 0.  1.
</event>
<event>
 5    1  0.1059945E-009  0.9118800E+02  0.7815553E-02  0.1125453E+00
         25   -1    0    0    0    0  0.00000000000E+00  0.00000000000E+00  0.99999998245E-14  0.12509000000E+03  0.12509000000E+03 0.  0.
        -11    1    3    3    0    0 -0.17012220100E+01  0.13617717798E+02  0.34426201300E+02  0.37060757286E+02  0.51100000000E-03 0.  1.
         23    2    1    0    0    0  0.70902749292E+01  0.43221424271E+01 -0.25466025245E+02  0.98304344221E+02  0.94584738395E+02 0.  0.
         11    1    3    3    0    0  0.87914969392E+01 -0.92955753708E+01 -0.59892226545E+02  0.61243586935E+02  0.51100000000E-03 0. -1.
         22    1    1    0    0    0 -0.70902749292E+01 -0.43221424271E+01  0.25466025245E+02  0.26785655779E+02  0.00000000000E+00 0. -1.
</event>
<event>
 5    1  0.1059945E-009  0.9118800E+02  0.7815553E-02  0.1125453E+00
         25   -1    0    0    0    0  0.00000000000E+00  0.00000000000E+00  0.99999998245E-14  0.12509000000E+03  0.12509000000E+03 0.  0.
        -11    1    3    3    0    0  0.14828570263E+02 -0.41220520360E+02  0.46440849071E+01  0.44052075089E+02  0.51100000000E-03 0.  1.
         23    2    1    0    0    0  0.21011657505E+02  0.79022012327E+01  0.19084786063E+02  0.95625384026E+02  0.90972800746E+02 0.  0.
         11    1    3    3    0    0  0.61830872428E+01  0.49122721593E+02  0.14440701156E+02  0.51573308936E+02  0.51100000000E-03 0. -1.
         22    1    1    0    0    0 -0.21011657505E+02 -0.79022012327E+01 -0.19084786063E+02  0.29464615974E+02  0.00000000000E+00 0. -1.
</event>
<event>
 5    1  0.1059945E-009  0.9118800E+02  0.7815553E-02  0.1125453E+00
         25   -1    0    0    0    0  0.00000000000E+00  0.00000000000E+00  0.99999998245E-14  0.12509000000E+03  0.12509000000E+03 0.  0.
        -11    1    3    3    0    0  0.89068278009E+01  0.33140393578E+02  0.24607082715E+02  0.42227074111E+02  0.51100000000E-03 0. -1.
         23    2    1    0    0    0  0.14563484601E+02  0.82653226791E+01 -0.23237418348E+02  0.96447579463E+02  0.92096402373E+02 0.  0.
         11    1    3    3    0    0  0.56566568000E+01 -0.24875070898E+02 -0.47844501064E+02  0.54220505352E+02  0.51100000000E-03 0.  1.
         22    1    1    0    0    0 -0.14563484601E+02 -0.82653226791E+01  0.23237418348E+02  0.28642420537E+02  0.00000000000E+00 0. -1.
</event>
<event>
 5    1  0.1059945E-009  0.9118800E+02  0.7815553E-02  0.1125453E+00
         25   -1    0    0    0    0  0.00000000000E+00  0.00000000000E+00  0.99999998245E-14  0.12509000000E+03  0.12509000000E+03 0.  0.
        -11    1    3    3    0    0 -0.35674267296E+02  0.19952269337E+02  0.14669292363E+02  0.43427347806E+02  0.51100000000E-03 0.  1.
         23    2    1    0    0    0 -0.79793374138E+00  0.15226233844E+02 -0.24592292439E+02  0.96154628174E+02  0.91697637792E+02 0.  0.
         11    1    3    3    0    0  0.34876333554E+02 -0.47260354931E+01 -0.39261584801E+02  0.52727280368E+02  0.51100000000E-03 0. -1.
         22    1    1    0    0    0  0.79793374138E+00 -0.15226233844E+02  0.24592292439E+02  0.28935371826E+02  0.00000000000E+00 0. -1.
</event>
<event>
 5    1  0.1059945E-009  0.9118800E+02  0.7815553E-02  0.1125453E+00
         25   -1    0    0    0    0  0.00000000000E+00  0.00000000000E+00  0.99999998245E-14  0.12509000000E+03  0.12509000000E+03 0.  0.
        -11    1    3    3    0    0  0.45779848896E+02 -0.11788125715E+02  0.19483804769E+02  0.51130940940E+02  0.51100000000E-03 0.  1.
         23    2    1    0    0    0  0.20440625231E+02 -0.12122750771E+02 -0.17226231199E+02  0.95738283059E+02  0.91127907666E+02 0.  0.
         11    1    3    3    0    0 -0.25339223665E+02 -0.33462505607E+00 -0.36710035968E+02  0.44607342119E+02  0.51100000000E-03 0. -1.
         22    1    1    0    0    0 -0.20440625231E+02  0.12122750771E+02  0.17226231199E+02  0.29351716941E+02  0.00000000000E+00 0.  1.
</event>
<event>
 5    1  0.1059945E-009  0.9118800E+02  0.7815553E-02  0.1125453E+00
         25   -1    0    0    0    0  0.00000000000E+00  0.00000000000E+00  0.99999998245E-14  0.12509000000E+03  0.12509000000E+03 0.  0.
        -11    1    3    3    0    0 -0.14388222472E+02  0.57187087009E+02  0.67024452588E+01  0.59349023911E+02  0.51100000000E-03 0.  1.
         23    2    1    0    0    0 -0.23985030811E+01  0.13730500733E+02  0.14363118814E+02  0.10507553899E+03  0.10315178256E+03 0.  0.
         11    1    3    3    0    0  0.11989719391E+02 -0.43456586276E+02  0.76606735553E+01  0.45726515081E+02  0.51100000000E-03 0. -1.
         22    1    1    0    0    0  0.23985030811E+01 -0.13730500733E+02 -0.14363118814E+02  0.20014461009E+02  0.00000000000E+00 0.  1.
</event>
<event>
 5    1  0.1059945E-009  0.9118800E+02  0.7815553E-02  0.1125453E+00
         25   -1    0    0    0    0  0.00000000000E+00  0.00000000000E+00  0.99999998245E-14  0.12509000000E+03  0.12509000000E+03 0.  0.
        -11    1    3    3    0    0 -0.35990747287E+02 -0.25130419571E+02 -0.30648812650E+02  0.53537104845E+02  0.51100000000E-03 0.  1.
         23    2    1    0    0    0 -0.79267048121E+00 -0.27920577634E+02 -0.62160069509E+01  0.96474868962E+02  0.92133460898E+02 0.  0.
         11    1    3    3    0    0  0.35198076805E+02 -0.27901580626E+01  0.24432805699E+02  0.42937764117E+02  0.51100000000E-03 0. -1.
         22    1    1    0    0    0  0.79267048121E+00  0.27920577634E+02  0.62160069509E+01  0.28615131038E+02  0.00000000000E+00 0.  1.
</event>
<event>
 5    1  0.1059945E-009  0.9118800E+02  0.7815553E-02  0.1125453E+00
         25   -1    0    0    0    0  0.00000000000E+00  0.00000000000E+00  0.99999998245E-14  0.12509000000E+03  0.12509000000E+03 0.  0.
        -11    1    3    3    0    0  0.31365113277E+02 -0.10865448643E+02  0.23350863088E+02  0.40584370296E+02  0.51100000000E-03 0.  1.
         23    2    1    0    0    0 -0.22447399118E+02 -0.65948218252E+01  0.19376077163E+02  0.94712215875E+02  0.89708383486E+02 0.  0.
         11    1    3    3    0    0 -0.53812512395E+02  0.42706268182E+01 -0.39747859245E+01  0.54127845580E+02  0.51100000000E-03 0. -1.
         22    1    1    0    0    0  0.22447399118E+02  0.65948218252E+01 -0.19376077163E+02  0.30377784125E+02  0.00000000000E+00 0.  1.
</event>
<event>
 5    1  0.1059945E-009  0.9118800E+02  0.7815553E-02  0.1125453E+00
         25   -1    0    0    0    0  0.00000000000E+00  0.00000000000E+00  0.99999998245E-14  0.12509000000E+03  0.12509000000E+03 0.  0.
        -11    1    3    3    0    0  0.32982196457E+02  0.32194391615E+02  0.29159917026E+02  0.54539938539E+02  0.51100000000E-03 0. -1.
         23    2    1    0    0    0 -0.12438530489E+01  0.29429600453E+02  0.93312950515E+01  0.94191430121E+02  0.88979232901E+02 0.  0.
         11    1    3    3    0    0 -0.34226049506E+02 -0.27647911626E+01 -0.19828621975E+02  0.39651491582E+02  0.51100000000E-03 0.  1.
         22    1    1    0    0    0  0.12438530489E+01 -0.29429600453E+02 -0.93312950515E+01  0.30898569879E+02  0.00000000000E+00 0.  1.
</event>
<event>
 5    1  0.1059945E-009  0.9118800E+02  0.7815553E-02  0.1125453E+00
         25   -1    0    0    0    0  0.00000000000E+00  0.00000000000E+00  0.99999998245E-14  0.12509000000E+03  0.12509000000E+03 0.  0.
        -11    1    3    3    0    0  0.19831943748E+02 -0.10084443615E+01 -0.49249671386E+02  0.53102288885E+02  0.51100000000E-03 0.  1.
         23    2    1    0    0    0 -0.12918265111E+02 -0.10811222637E+02 -0.24711628352E+02  0.95182999412E+02  0.90362462853E+02 0.  0.
         11    1    3    3    0    0 -0.32750208860E+02 -0.98027782751E+01  0.24538043035E+02  0.42080710527E+02  0.51100000000E-03 0. -1.
         22    1    1    0    0    0  0.12918265111E+02  0.10811222637E+02  0.24711628352E+02  0.29907000588E+02  0.00000000000E+00 0.  1.
</event>
<event>
 5    1  0.1059945E-009  0.9118800E+02  0.7815553E-02  0.1125453E+00
         25   -1    0    0    0    0  0.00000000000E+00  0.00000000000E+00  0.99999998245E-14  0.12509000000E+03  0.12509000000E+03 0.  0.
        -11    1    3    3    0    0  0.36996456001E+02 -0.29267029933E+02  0.25158088951E+02  0.53462381519E+02  0.51100000000E-03 0.  1.
         23    2    1    0    0    0  0.15178545221E+02  0.65981193939E+01  0.24593203114E+02  0.95446298241E+02  0.90726218890E+02 0.  0.
         11    1    3    3    0    0 -0.21817910780E+02  0.35865149327E+02 -0.56488583705E+00  0.41983916722E+02  0.51100000000E-03 0. -1.
         22    1    1    0    0    0 -0.15178545221E+02 -0.65981193939E+01 -0.24593203114E+02  0.29643701759E+02  0.00000000000E+00 0.  1.
</event>
<event>
 5    1  0.1059945E-009  0.9118800E+02  0.7815553E-02  0.1125453E+00
         25   -1    0    0    0    0  0.00000000000E+00  0.00000000000E+00  0.99999998245E-14  0.12509000000E+03  0.12509000000E+03 0.  0.
        -11    1    3    3    0    0 -0.47961533363E+02  0.37476338212E+02  0.13308882762E+02  0.62304983500E+02  0.51100000000E-03 0. -1.
         23    2    1    0    0    0 -0.21775109381E+02  0.18325395007E+02  0.24133167106E+01  0.96527794408E+02  0.92205290006E+02 0.  0.
         11    1    3    3    0    0  0.26186423982E+02 -0.19150943206E+02 -0.10895566052E+02  0.34222810908E+02  0.51100000000E-03 0.  1.
         22    1    1    0    0    0  0.21775109381E+02 -0.18325395007E+02 -0.24133167106E+01  0.28562205592E+02  0.00000000000E+00 0. -1.
</event>
<event>
 5    1  0.1059945E-009  0.9118800E+02  0.7815553E-02  0.1125453E+00
         25   -1    0    0    0    0  0.00000000000E+00  0.00000000000E+00  0.99999998245E-14  0.12509000000E+03  0.12509000000E+03 0.  0.
        -11    1    3    3    0    0  0.28106236867E+01 -0.33346821210E+02 -0.48174990565E+02  0.58657819654E+02  0.51100000000E-03 0.  1.
         23    2    1    0    0    0  0.13136611100E+02 -0.18787341473E+02 -0.11506913183E+02  0.99439584763E+02  0.96074383766E+02 0.  0.
         11    1    3    3    0    0  0.10325987413E+02  0.14559479737E+02  0.36668077382E+02  0.40781765110E+02  0.51100000000E-03 0. -1.
         22    1    1    0    0    0 -0.13136611100E+02  0.18787341473E+02  0.11506913183E+02  0.25650415237E+02  0.00000000000E+00 0.  1.
</event>
<event>
 5    1  0.1059945E-009  0.9118800E+02  0.7815553E-02  0.1125453E+00
         25   -1    0    0    0    0  0.00000000000E+00  0.00000000000E+00  0.99999998245E-14  0.12509000000E+03  0.12509000000E+03 0.  0.
        -11    1    3    3    0    0  0.26466539800E+02  0.47124971563E+02  0.99367096906E+00  0.54057636427E+02  0.51100000000E-03 0.  1.
         23    2    1    0    0    0 -0.19199140811E+01  0.29348169267E+02 -0.15992670914E+02  0.91612147136E+02  0.85276133065E+02 0.  0.
         11    1    3    3    0    0 -0.28386453881E+02 -0.17776802296E+02 -0.16986341883E+02  0.37554510709E+02  0.51100000000E-03 0. -1.
         22    1    1    0    0    0  0.19199140811E+01 -0.29348169267E+02  0.15992670914E+02  0.33477852864E+02  0.00000000000E+00 0.  1.
</event>
<event>
 5    1  0.1059945E-009  0.9118800E+02  0.7815553E-02  0.1125453E+00
         25   -1    0    0    0    0  0.00000000000E+00  0.00000000000E+00  0.99999998245E-14  0.12509000000E+03  0.12509000000E+03 0.  0.
        -11    1    3    3    0    0 -0.28417041053E+02 -0.20391051874E+02  0.14426358540E+02  0.37834416074E+02  0.51100000000E-03 0.  1.
         23    2    1    0    0    0 -0.62831269924E+01  0.26344477839E+02 -0.11481660794E+02  0.95673376604E+02  0.91038767890E+02 0.  0.
         11    1    3    3    0    0  0.22133914060E+02  0.46735529713E+02 -0.25908019334E+02  0.57838960530E+02  0.51100000000E-03 0. -1.
         22    1    1    0    0    0  0.62831269924E+01 -0.26344477839E+02  0.11481660794E+02  0.29416623396E+02  0.00000000000E+00 0. -1.
</event>
<event>
 5    1  0.1059945E-009  0.9118800E+02  0.7815553E-02  0.1125453E+00
         25   -1    0    0    0    0  0.00000000000E+00  0.00000000000E+00  0.99999998245E-14  0.12509000000E+03  0.12509000000E+03 0.  0.
        -11    1    3    3    0    0  0.33795222008E+02  0.18351185440E+02 -0.28712893260E+02  0.47992846105E+02  0.51100000000E-03 0. -1.
         23    2    1    0    0    0  0.93093735812E+00 -0.16381302331E+02 -0.23967687849E+02  0.96044109219E+02  0.91546748410E+02 0.  0.
         11    1    3    3    0    0 -0.32864284650E+02 -0.34732487770E+02  0.47452054114E+01  0.48051263114E+02  0.51100000000E-03 0.  1.
         22    1    1    0    0    0 -0.93093735812E+00  0.16381302331E+02  0.23967687849E+02  0.29045890781E+02  0.00000000000E+00 0. -1.
</event>
<event>
 5    1  0.1059945E-009  0.9118800E+02  0.7815553E-02  0.1125453E+00
         25   -1    0    0    0    0  0.00000000000E+00  0.00000000000E+00  0.99999998245E-14  0.12509000000E+03  0.12509000000E+03 0.  0.
        -11    1    3    3    0    0 -0.48632787978E+02 -0.23181886279E+02  0.13765211607E+02  0.55606015581E+02  0.51100000000E-03 0.  1.
         23    2    1    0    0    0 -0.15812272435E+02 -0.29335820970E+02 -0.10329107445E+00  0.91763898809E+02  0.85498445039E+02 0.  0.
         11    1    3    3    0    0  0.32820515543E+02 -0.61539346911E+01 -0.13868502681E+02  0.36157883229E+02  0.51100000000E-03 0. -1.
         22    1    1    0    0    0  0.15812272435E+02  0.29335820970E+02  0.10329107445E+00  0.33326101191E+02  0.00000000000E+00 0.  1.
</event>
<event>
 5    1  0.1059945E-009  0.9118800E+02  0.7815553E-02  0.1125453E+00
         25   -1    0    0    0    0  0.00000000000E+00  0.00000000000E+00  0.99999998245E-14  0.12509000000E+03  0.12509000000E+03 0.  0.
        -11    1    3    3    0    0  0.19092462812E+02 -0.26698161724E+02 -0.90720197878E+01  0.34053127888E+02  0.51100000000E-03 0.  1.
         23    2    1    0    0    0  0.10031364496E+02  0.30689827050E+02 -0.61232249506E+01  0.92226834574E+02  0.86173089614E+02 0.  0.
         11    1    3    3    0    0 -0.90610983162E+01  0.57387988775E+02  0.29487948372E+01  0.58173706686E+02  0.51100000000E-03 0. -1.
         22    1    1    0    0    0 -0.10031364496E+02 -0.30689827050E+02  0.61232249506E+01  0.32863165426E+02  0.00000000000E+00 0. -1.
</event>
<event>
 5    1  0.1059945E-009  0.9118800E+02  0.7815553E-02  0.1125453E+00
         25   -1    0    0    0    0  0.00000000000E+00  0.00000000000E+00  0.99999998245E-14  0.12509000000E+03  0.12509000000E+03 0.  0.
        -11    1    3    3    0    0 -0.19072110008E+02  0.18739139764E+02 -0.34637336821E+02  0.43756666253E+02  0.51100000000E-03 0.  1.
         23    2    1    0    0    0 -0.66876993800E+01 -0.26165531612E+02 -0.12949720231E+02  0.95139113175E+02  0.90301690095E+02 0.  0.
         11    1    3    3    0    0  0.12384410628E+02 -0.44904671377E+02  0.21687616590E+02  0.51382446922E+02  0.51100000000E-03 0. -1.
         22    1    1    0    0    0  0.66876993800E+01  0.26165531612E+02  0.12949720231E+02  0.29950886825E+02  0.00000000000E+00 0.  1.
</event>
<event>
 5    1  0.1059945E-009  0.9118800E+02  0.7815553E-02  0.1125453E+00
         25   -1    0    0    0    0  0.00000000000E+00  0.00000000000E+00  0.99999998245E-14  0.12509000000E+03  0.12509000000E+03 0.  0.
        -11    1    3    3    0    0  0.22909873203E+02  0.31736110778E+02 -0.47373439888E+02  0.61451491638E+02  0.51100000000E-03 0.  1.
         23    2    1    0    0    0  0.84514917361E+01  0.23789969182E+02 -0.22661309281E+02  0.91164710251E+02  0.84617250667E+02 0.  0.
         11    1    3    3    0    0 -0.14458381467E+02 -0.79461415961E+01  0.24712130607E+02  0.29713218612E+02  0.51100000000E-03 0. -1.
         22    1    1    0    0    0 -0.84514917361E+01 -0.23789969182E+02  0.22661309281E+02  0.33925289749E+02  0.00000000000E+00 0.  1.
</event>
<event>
 5    1  0.1059945E-009  0.9118800E+02  0.7815553E-02  0.1125453E+00
         25   -1    0    0    0    0  0.00000000000E+00  0.00000000000E+00  0.99999998245E-14  0.12509000000E+03  0.12509000000E+03 0.  0.
        -11    1    3    3    0    0 -0.33706580234E+02 -0.49127134570E+00 -0.12012548920E+02  0.35786537000E+02  0.51100000000E-03 0.  1.
         23    2    1    0    0    0  0.24825297650E+02  0.57329077746E+01 -0.16363844109E+02  0.94809031901E+02  0.89843283005E+02 0.  0.
         11    1    3    3    0    0  0.58531877884E+02  0.62241791202E+01 -0.43512951889E+01  0.59022494902E+02  0.51100000000E-03 0. -1.
         22    1    1    0    0    0 -0.24825297650E+02 -0.57329077746E+01  0.16363844109E+02  0.30280968099E+02  0.00000000000E+00 0. -1.
</event>
<event>
 5    1  0.1059945E-009  0.9118800E+02  0.7815553E-02  0.1125453E+00
         25   -1    0    0    0    0  0.00000000000E+00  0.00000000000E+00  0.99999998245E-14  0.12509000000E+03  0.12509000000E+03 0.  0.
        -11    1    3    3    0    0  0.80570859704E+01 -0.23477505042E+02  0.21272010916E+02  0.32689575188E+02  0.51100000000E-03 0.  1.
         23    2    1    0    0    0 -0.53223974702E+01  0.23133166949E+02 -0.18169227951E+02  0.95196987902E+02  0.90381825238E+02 0.  0.
         11    1    3    3    0    0 -0.13379483441E+02  0.46610671991E+02 -0.39441238867E+02  0.62507412714E+02  0.51100000000E-03 0. -1.
         22    1    1    0    0    0  0.53223974702E+01 -0.23133166949E+02  0.18169227951E+02  0.29893012098E+02  0.00000000000E+00 0. -1.
</event>
<event>
 5    1  0.1059945E-009  0.9118800E+02  0.7815553E-02  0.1125453E+00
         25   -1    0    0    0    0  0.00000000000E+00  0.00000000000E+00  0.99999998245E-14  0.12509000000E+03  0.12509000000E+03 0.  0.
        -11    1    3    3    0    0 -0.30786347655E+02  0.48242319527E+02  0.36115776357E+01  0.57342515540E+02  0.51100000000E-03 0. -1.
         23    2    1    0    0    0 -0.28116208593E+02  0.10808746535E+02  0.16927163112E+01  0.94920222477E+02  0.89997961973E+02 0.  0.
         11    1    3    3    0    0  0.26701390618E+01 -0.37433572992E+02 -0.19188613244E+01  0.37577706936E+02  0.51100000000E-03 0.  1.
         22    1    1    0    0    0  0.28116208593E+02 -0.10808746535E+02 -0.16927163112E+01  0.30169777523E+02  0.00000000000E+00 0. -1.
</event>
<event>
 5    1  0.1059945E-009  0.9118800E+02  0.7815553E-02  0.1125453E+00
         25   -1    0    0    0    0  0.00000000000E+00  0.00000000000E+00  0.99999998245E-14  0.12509000000E+03  0.12509000000E+03 0.  0.
        -11    1    3    3    0    0  0.40535669108E+01 -0.16610129580E+02 -0.32000815054E+02  0.36281951074E+02  0.51100000000E-03 0. -1.
         23    2    1    0    0    0 -0.15899147640E+02  0.25247848628E+02  0.39992344219E+01  0.94986335240E+02  0.90089806583E+02 0.  0.
         11    1    3    3    0    0 -0.19952714551E+02  0.41857978208E+02  0.36000049476E+02  0.58704384165E+02  0.51100000000E-03 0.  1.
         22    1    1    0    0    0  0.15899147640E+02 -0.25247848628E+02 -0.39992344219E+01  0.30103664760E+02  0.00000000000E+00 0.  1.
</event>
<event>
 5    1  0.1059945E-009  0.9118800E+02  0.7815553E-02  0.1125453E+00
         25   -1    0    0    0    0  0.00000000000E+00  0.00000000000E+00  0.99999998245E-14  0.12509000000E+03  0.12509000000E+03 0.  0.
        -11    1    3    3    0    0 -0.63656744688E+01 -0.10063063023E+02 -0.57560859435E+02  0.58779584790E+02  0.51100000000E-03 0.  1.
         23    2    1    0    0    0 -0.17312809021E+02 -0.69166523162E+01 -0.21319557468E+02  0.96768683539E+02  0.92531514350E+02 0.  0.
         11    1    3    3    0    0 -0.10947134552E+02  0.31464107068E+01  0.36241301968E+02  0.37989098750E+02  0.51100000000E-03 0. -1.
         22    1    1    0    0    0  0.17312809021E+02  0.69166523162E+01  0.21319557468E+02  0.28321316461E+02  0.00000000000E+00 0.  1.
</event>
<event>
 5    1  0.1059945E-009  0.9118800E+02  0.7815553E-02  0.1125453E+00
         25   -1    0    0    0    0  0.00000000000E+00  0.00000000000E+00  0.99999998245E-14  0.12509000000E+03  0.12509000000E+03 0.  0.
        -11    1    3    3    0    0  0.12834529324E+02 -0.11315127938E+02  0.45690508699E+02  0.48789136584E+02  0.51100000000E-03 0. -1.
         23    2    1    0    0    0  0.18900110956E+00 -0.28240357989E+02  0.26631788119E+01  0.96723716102E+02  0.92470704520E+02 0.  0.
         11    1    3    3    0    0 -0.12645528214E+02 -0.16925230052E+02 -0.43027329887E+02  0.47934579518E+02  0.51100000000E-03 0.  1.
         22    1    1    0    0    0 -0.18900110956E+00  0.28240357989E+02 -0.26631788119E+01  0.28366283898E+02  0.00000000000E+00 0. -1.
</event>
<event>
 5    1  0.1059945E-009  0.9118800E+02  0.7815553E-02  0.1125453E+00
         25   -1    0    0    0    0  0.00000000000E+00  0.00000000000E+00  0.99999998245E-14  0.12509000000E+03  0.12509000000E+03 0.  0.
        -11    1    3    3    0    0 -0.21477612068E+02 -0.22024836306E+02 -0.21155606358E+02  0.37335518143E+02  0.51100000000E-03 0. -1.
         23    2    1    0    0    0 -0.31548619597E+01  0.29530014871E+02 -0.19291000853E+01  0.95329348807E+02  0.90564829733E+02 0.  0.
         11    1    3    3    0    0  0.18322750108E+02  0.51554851177E+02  0.19226506272E+02  0.57993830664E+02  0.51100000000E-03 0.  1.
         22    1    1    0    0    0  0.31548619597E+01 -0.29530014871E+02  0.19291000853E+01  0.29760651193E+02  0.00000000000E+00 0.  1.
</event>
<event>
 5    1  0.1059945E-009  0.9118800E+02  0.7815553E-02  0.1125453E+00
         25   -1    0    0    0    0  0.00000000000E+00  0.00000000000E+00  0.99999998245E-14  0.12509000000E+03  0.12509000000E+03 0.  0.
        -11    1    3    3    0    0 -0.12767628674E+02 -0.65981737842E+01  0.18485404673E+02  0.23414918864E+02  0.51100000000E-03 0.  1.
         23    2    1    0    0    0  0.32937811774E+02 -0.15534535797E+02 -0.19741875389E+02  0.83665817561E+02  0.72691169597E+02 0.  0.
         11    1    3    3    0    0  0.45705440448E+02 -0.89363620127E+01 -0.38227280062E+02  0.60250898697E+02  0.51100000000E-03 0. -1.
         22    1    1    0    0    0 -0.32937811774E+02  0.15534535797E+02  0.19741875389E+02  0.41424182439E+02  0.00000000000E+00 0. -1.
</event>
<event>
 5    1  0.1059945E-009  0.9118800E+02  0.7815553E-02  0.1125453E+00
         25   -1    0    0    0    0  0.00000000000E+00  0.00000000000E+00  0.99999998245E-14  0.12509000000E+03  0.12509000000E+03 0.  0.
        -11    1    3    3    0    0  0.24751303001E+02 -0.38801619485E+02 -0.22316960657E+02  0.51149187757E+02  0.51100000000E-03 0.  1.
         23    2    1    0    0    0  0.14086913413E+02 -0.21554975628E+02  0.16193149103E+02  0.94671647288E+02  0.89651796516E+02 0.  0.
         11    1    3    3    0    0 -0.10664389588E+02  0.17246643857E+02  0.38510109760E+02  0.43522459531E+02  0.51100000000E-03 0. -1.
         22    1    1    0    0    0 -0.14086913413E+02  0.21554975628E+02 -0.16193149103E+02  0.30418352712E+02  0.00000000000E+00 0.  1.
</event>
<event>
 5    1  0.1059945E-009  0.9118800E+02  0.7815553E-02  0.1125453E+00
         25   -1    0    0    0    0  0.00000000000E+00  0.00000000000E+00  0.99999998245E-14  0.12509000000E+03  0.12509000000E+03 0.  0.
        -11    1    3    3    0    0  0.78908743049E+01  0.21300549770E+02  0.31692247625E+02  0.38992023256E+02  0.51100000000E-03 0.  1.
         23    2    1    0    0    0  0.17341432521E+02  0.96119497815E+01 -0.22424329833E+02  0.95157318380E+02  0.90326905252E+02 0.  0.
         11    1    3    3    0    0  0.94505582164E+01 -0.11688599989E+02 -0.54116577458E+02  0.56165295124E+02  0.51100000000E-03 0. -1.
         22    1    1    0    0    0 -0.17341432521E+02 -0.96119497815E+01  0.22424329833E+02  0.29932681620E+02  0.00000000000E+00 0. -1.
</event>
<event>
 5    1  0.1059945E-009  0.9118800E+02  0.7815553E-02  0.1125453E+00
         25   -1    0    0    0    0  0.00000000000E+00  0.00000000000E+00  0.99999998245E-14  0.12509000000E+03  0.12509000000E+03 0.  0.
        -11    1    3    3    0    0  0.38517645798E+02 -0.24636426138E+01 -0.43884790777E+02  0.58442736371E+02  0.51100000000E-03 0. -1.
         23    2    1    0    0    0  0.26290844633E+02 -0.85527244621E+01 -0.88260682670E+01  0.96068334157E+02  0.91579843521E+02 0.  0.
         11    1    3    3    0    0 -0.12226801165E+02 -0.60890818482E+01  0.35058722510E+02  0.37625597786E+02  0.51100000000E-03 0.  1.
         22    1    1    0    0    0 -0.26290844633E+02  0.85527244621E+01  0.88260682670E+01  0.29021665843E+02  0.00000000000E+00 0. -1.
</event>
<event>
 5    1  0.1059945E-009  0.9118800E+02  0.7815553E-02  0.1125453E+00
         25   -1    0    0    0    0  0.00000000000E+00  0.00000000000E+00  0.99999998245E-14  0.12509000000E+03  0.12509000000E+03 0.  0.
        -11    1    3    3    0    0 -0.14319079981E+02 -0.14286649779E+02  0.23059617851E+02  0.30673936642E+02  0.51100000000E-03 0. -1.
         23    2    1    0    0    0  0.35536012068E+02 -0.19902642371E+02  0.47363541750E+01  0.84085654158E+02  0.73410086890E+02 0.  0.
         11    1    3    3    0    0  0.49855092049E+02 -0.56159925927E+01 -0.18323263676E+02  0.53411717516E+02  0.51100000000E-03 0.  1.
         22    1    1    0    0    0 -0.35536012068E+02  0.19902642371E+02 -0.47363541750E+01  0.41004345842E+02  0.00000000000E+00 0.  1.
</event>
<event>
 5    1  0.1059945E-009  0.9118800E+02  0.7815553E-02  0.1125453E+00
         25   -1    0    0    0    0  0.00000000000E+00  0.00000000000E+00  0.99999998245E-14  0.12509000000E+03  0.12509000000E+03 0.  0.
        -11    1    3    3    0    0  0.20519321332E+02  0.16687923828E+02  0.34674436545E+02  0.43610158216E+02  0.51100000000E-03 0. -1.
         23    2    1    0    0    0  0.18036506279E+02 -0.23597505648E+02  0.23946927024E+01  0.95292476870E+02  0.90513887129E+02 0.  0.
         11    1    3    3    0    0 -0.24828150535E+01 -0.40285429476E+02 -0.32279743842E+02  0.51682318654E+02  0.51100000000E-03 0.  1.
         22    1    1    0    0    0 -0.18036506279E+02  0.23597505648E+02 -0.23946927024E+01  0.29797523130E+02  0.00000000000E+00 0.  1.
</event>
<event>
 5    1  0.1059945E-009  0.9118800E+02  0.7815553E-02  0.1125453E+00
         25   -1    0    0    0    0  0.00000000000E+00  0.00000000000E+00  0.99999998245E-14  0.12509000000E+03  0.12509000000E+03 0.  0.
        -11    1    3    3    0    0  0.66549067578E+01 -0.11710721925E+02  0.54865883459E+02  0.56495079077E+02  0.51100000000E-03 0.  1.
         23    2    1    0    0    0 -0.16148091388E+02 -0.19629300019E+01  0.24148699592E+02  0.95973447291E+02  0.91450144578E+02 0.  0.
         11    1    3    3    0    0 -0.22802998146E+02  0.97477919231E+01 -0.30717183867E+02  0.39478368214E+02  0.51100000000E-03 0. -1.
         22    1    1    0    0    0  0.16148091388E+02  0.19629300019E+01 -0.24148699592E+02  0.29116552709E+02  0.00000000000E+00 0.  1.
</event>
<event>
 5    1  0.1059945E-009  0.9118800E+02  0.7815553E-02  0.1125453E+00
         25   -1    0    0    0    0  0.00000000000E+00  0.00000000000E+00  0.99999998245E-14  0.12509000000E+03  0.12509000000E+03 0.  0.
        -11    1    3    3    0    0 -0.55787189780E+02  0.15987443568E+02  0.74027221060E+01  0.58503069921E+02  0.51100000000E-03 0.  1.
         23    2    1    0    0    0 -0.26786054578E+02  0.27845801459E+01 -0.11779207075E+02  0.95696185586E+02  0.91070102723E+02 0.  0.
         11    1    3    3    0    0  0.29001135202E+02 -0.13202863422E+02 -0.19181929181E+02  0.37193115665E+02  0.51100000000E-03 0. -1.
         22    1    1    0    0    0  0.26786054578E+02 -0.27845801459E+01  0.11779207075E+02  0.29393814414E+02  0.00000000000E+00 0.  1.
</event>
<event>
 5    1  0.1059945E-009  0.9118800E+02  0.7815553E-02  0.1125453E+00
         25   -1    0    0    0    0  0.00000000000E+00  0.00000000000E+00  0.99999998245E-14  0.12509000000E+03  0.12509000000E+03 0.  0.
        -11    1    3    3    0    0 -0.41052315489E+02 -0.94997733082E+01  0.12092435070E+02  0.43837943452E+02  0.51100000000E-03 0.  1.
         23    2    1    0    0    0  0.26846978538E+01  0.12054657940E+02  0.27475261172E+02  0.94966714039E+02  0.90062558360E+02 0.  0.
         11    1    3    3    0    0  0.43737013343E+02  0.21554431248E+02  0.15382826102E+02  0.51128770587E+02  0.51100000000E-03 0. -1.
         22    1    1    0    0    0 -0.26846978538E+01 -0.12054657940E+02 -0.27475261172E+02  0.30123285961E+02  0.00000000000E+00 0. -1.
</event>
<event>
 5    1  0.1059945E-009  0.9118800E+02  0.7815553E-02  0.1125453E+00
         25   -1    0    0    0    0  0.00000000000E+00  0.00000000000E+00  0.99999998245E-14  0.12509000000E+03  0.12509000000E+03 0.  0.
        -11    1    3    3    0    0 -0.11007941531E+02  0.96073082155E+01  0.30113896506E+02  0.33471210180E+02  0.51100000000E-03 0.  1.
         23    2    1    0    0    0  0.15810214282E+02 -0.16104185669E+01 -0.24817486904E+02  0.95620287075E+02  0.90965792035E+02 0.  0.
         11    1    3    3    0    0  0.26818155813E+02 -0.11217726782E+02 -0.54931383410E+02  0.62149076896E+02  0.51100000000E-03 0. -1.
         22    1    1    0    0    0 -0.15810214282E+02  0.16104185669E+01  0.24817486904E+02  0.29469712925E+02  0.00000000000E+00 0. -1.
</event>
<event>
 5    1  0.1059945E-009  0.9118800E+02  0.7815553E-02  0.1125453E+00
         25   -1    0    0    0    0  0.00000000000E+00  0.00000000000E+00  0.99999998245E-14  0.12509000000E+03  0.12509000000E+03 0.  0.
        -11    1    3    3    0    0 -0.31134006840E+02  0.29044246837E+02 -0.68611770775E+01  0.43127374223E+02  0.51100000000E-03 0. -1.
         23    2    1    0    0    0  0.16489638909E+02  0.12665326798E+02 -0.21103882735E+02  0.95464123461E+02  0.90750792324E+02 0.  0.
         11    1    3    3    0    0  0.47623645749E+02 -0.16378920039E+02 -0.14242705657E+02  0.52336749238E+02  0.51100000000E-03 0.  1.
         22    1    1    0    0    0 -0.16489638909E+02 -0.12665326798E+02  0.21103882735E+02  0.29625876539E+02  0.00000000000E+00 0.  1.
</event>
<event>
 5    1  0.1059945E-009  0.9118800E+02  0.7815553E-02  0.1125453E+00
         25   -1    0    0    0    0  0.00000000000E+00  0.00000000000E+00  0.99999998245E-14  0.12509000000E+03  0.12509000000E+03 0.  0.
        -11    1    3    3    0    0  0.31391806797E+02  0.32551140611E+01  0.12377947197E+02  0.33900661920E+02  0.51100000000E-03 0.  1.
         23    2    1    0    0    0 -0.19079795301E+02  0.68639066039E+01 -0.22074194270E+02  0.95116313953E+02  0.90270102054E+02 0.  0.
         11    1    3    3    0    0 -0.50471602098E+02  0.36087925427E+01 -0.34452141467E+02  0.61215652033E+02  0.51100000000E-03 0. -1.
         22    1    1    0    0    0  0.19079795301E+02 -0.68639066039E+01  0.22074194270E+02  0.29973686047E+02  0.00000000000E+00 0. -1.
</event>
<event>
 5    1  0.1059945E-009  0.9118800E+02  0.7815553E-02  0.1125453E+00
         25   -1    0    0    0    0  0.00000000000E+00  0.00000000000E+00  0.99999998245E-14  0.12509000000E+03  0.12509000000E+03 0.  0.
        -11    1    3    3    0    0  0.20842972317E+02  0.23464864957E+02  0.14629753090E+02  0.34627432163E+02  0.51100000000E-03 0. -1.
         23    2    1    0    0    0 -0.24831622250E+02 -0.13329337282E+02 -0.49804811953E+01  0.96470323397E+02  0.92127289157E+02 0.  0.
         11    1    3    3    0    0 -0.45674594567E+02 -0.36794202239E+02 -0.19610234285E+02  0.61842891234E+02  0.51100000000E-03 0.  1.
         22    1    1    0    0    0  0.24831622250E+02  0.13329337282E+02  0.49804811953E+01  0.28619676603E+02  0.00000000000E+00 0.  1.
</event>
<event>
 5    1  0.1059945E-009  0.9118800E+02  0.7815553E-02  0.1125453E+00
         25   -1    0    0    0    0  0.00000000000E+00  0.00000000000E+00  0.99999998245E-14  0.12509000000E+03  0.12509000000E+03 0.  0.
        -11    1    3    3    0    0  0.46516298843E+02 -0.16741251105E+02  0.38080464825E+02  0.62403183798E+02  0.51100000000E-03 0. -1.
         23    2    1    0    0    0  0.23421356099E+02 -0.52876998257E+01  0.17927446024E+02  0.95124803323E+02  0.90281865262E+02 0.  0.
         11    1    3    3    0    0 -0.23094942744E+02  0.11453551279E+02 -0.20153018800E+02  0.32721619524E+02  0.51100000000E-03 0.  1.
         22    1    1    0    0    0 -0.23421356099E+02  0.52876998257E+01 -0.17927446024E+02  0.29965196677E+02  0.00000000000E+00 0. -1.
</event>
<event>
 5    1  0.1059945E-009  0.9118800E+02  0.7815553E-02  0.1125453E+00
         25   -1    0    0    0    0  0.00000000000E+00  0.00000000000E+00  0.99999998245E-14  0.12509000000E+03  0.12509000000E+03 0.  0.
        -11    1    3    3    0    0 -0.16443932728E+01 -0.50749968335E+02 -0.36453018215E+02  0.62506686462E+02  0.51100000000E-03 0.  1.
         23    2    1    0    0    0  0.77484115867E+00 -0.23787304569E+02 -0.17060012124E+02  0.95807236278E+02  0.91222509679E+02 0.  0.
         11    1    3    3    0    0  0.24192344315E+01  0.26962663766E+02  0.19393006090E+02  0.33300549816E+02  0.51100000000E-03 0. -1.
         22    1    1    0    0    0 -0.77484115867E+00  0.23787304569E+02  0.17060012124E+02  0.29282763722E+02  0.00000000000E+00 0.  1.
</event>
<event>
 5    1  0.1059945E-009  0.9118800E+02  0.7815553E-02  0.1125453E+00
         25   -1    0    0    0    0  0.00000000000E+00  0.00000000000E+00  0.99999998245E-14  0.12509000000E+03  0.12509000000E+03 0.  0.
        -11    1    3    3    0    0 -0.90653837046E+01  0.26154100704E+02  0.32706687419E+02  0.42847935394E+02  0.51100000000E-03 0. -1.
         23    2    1    0    0    0 -0.29959587806E+02 -0.46788097149E+00 -0.62816997843E+01  0.94475370061E+02  0.89377513850E+02 0.  0.
         11    1    3    3    0    0 -0.20894204101E+02 -0.26621981676E+02 -0.38988387203E+02  0.51627434667E+02  0.51100000000E-03 0.  1.
         22    1    1    0    0    0  0.29959587806E+02  0.46788097149E+00  0.62816997843E+01  0.30614629939E+02  0.00000000000E+00 0.  1.
</event>
<event>
 5    1  0.1059945E-009  0.9118800E+02  0.7815553E-02  0.1125453E+00
         25   -1    0    0    0    0  0.00000000000E+00  0.00000000000E+00  0.99999998245E-14  0.12509000000E+03  0.12509000000E+03 0.  0.
        -11    1    3    3    0    0  0.32201587309E+02  0.32558232807E+02 -0.10311227240E+02  0.46939345503E+02  0.51100000000E-03 0. -1.
         23    2    1    0    0    0  0.25398991821E+02 -0.12034932783E+02  0.83707337960E+01  0.95763943721E+02  0.91163124892E+02 0.  0.
         11    1    3    3    0    0 -0.68025954886E+01 -0.44593165590E+02  0.18681961036E+02  0.48824598218E+02  0.51100000000E-03 0.  1.
         22    1    1    0    0    0 -0.25398991821E+02  0.12034932783E+02 -0.83707337960E+01  0.29326056279E+02  0.00000000000E+00 0.  1.
</event>
<event>
 5    1  0.1059945E-009  0.9118800E+02  0.7815553E-02  0.1125453E+00
         25   -1    0    0    0    0  0.00000000000E+00  0.00000000000E+00  0.99999998245E-14  0.12509000000E+03  0.12509000000E+03 0.  0.
        -11    1    3    3    0    0  0.24790153393E+02  0.15684302558E+02  0.33870992736E+02  0.44808405474E+02  0.51100000000E-03 0. -1.
         23    2    1    0    0    0  0.25458470164E+02  0.24651615072E+02 -0.89304961523E+01  0.88544280821E+02  0.80650480940E+02 0.  0.
         11    1    3    3    0    0  0.66831677089E+00  0.89673125143E+01 -0.42801488888E+02  0.43735875347E+02  0.51100000000E-03 0.  1.
         22    1    1    0    0    0 -0.25458470164E+02 -0.24651615072E+02  0.89304961523E+01  0.36545719179E+02  0.00000000000E+00 0. -1.
</event>
<event>
 5    1  0.1059945E-009  0.9118800E+02  0.7815553E-02  0.1125453E+00
         25   -1    0    0    0    0  0.00000000000E+00  0.00000000000E+00  0.99999998245E-14  0.12509000000E+03  0.12509000000E+03 0.  0.
        -11    1    3    3    0    0 -0.27438472705E+02  0.24634077560E+01  0.37831287879E+02  0.46798979743E+02  0.51100000000E-03 0. -1.
         23    2    1    0    0    0  0.19421576406E+02  0.29234687831E+01  0.20329424466E+02  0.96822884849E+02  0.92604758147E+02 0.  0.
         11    1    3    3    0    0  0.46860049111E+02  0.46006102713E+00 -0.17501863413E+02  0.50023905106E+02  0.51100000000E-03 0.  1.
         22    1    1    0    0    0 -0.19421576406E+02 -0.29234687831E+01 -0.20329424466E+02  0.28267115151E+02  0.00000000000E+00 0.  1.
</event>
<event>
 5    1  0.1059945E-009  0.9118800E+02  0.7815553E-02  0.1125453E+00
         25   -1    0    0    0    0  0.00000000000E+00  0.00000000000E+00  0.99999998245E-14  0.12509000000E+03  0.12509000000E+03 0.  0.
        -11    1    3    3    0    0 -0.11797535426E+02  0.52598480576E+02 -0.26475418977E+02  0.60056055576E+02  0.51100000000E-03 0.  1.
         23    2    1    0    0    0  0.51054512950E+01  0.29467319190E+02 -0.80479361289E+01  0.94119727009E+02  0.88878373090E+02 0.  0.
         11    1    3    3    0    0  0.16902986721E+02 -0.23131161386E+02  0.18427482848E+02  0.34063671434E+02  0.51100000000E-03 0. -1.
         22    1    1    0    0    0 -0.51054512950E+01 -0.29467319190E+02  0.80479361289E+01  0.30970272991E+02  0.00000000000E+00 0.  1.
</event>
<event>
 5    1  0.1059945E-009  0.9118800E+02  0.7815553E-02  0.1125453E+00
         25   -1    0    0    0    0  0.00000000000E+00  0.00000000000E+00  0.99999998245E-14  0.12509000000E+03  0.12509000000E+03 0.  0.
        -11    1    3    3    0    0  0.13545424210E+02 -0.33353369240E+02  0.24509488932E+02  0.43550439775E+02  0.51100000000E-03 0. -1.
         23    2    1    0    0    0  0.28216200727E+02  0.14974407493E+01 -0.10367815572E+02  0.94992028108E+02  0.90097710804E+02 0.  0.
         11    1    3    3    0    0  0.14670776517E+02  0.34850809989E+02 -0.34877304504E+02  0.51441588333E+02  0.51100000000E-03 0.  1.
         22    1    1    0    0    0 -0.28216200727E+02 -0.14974407493E+01  0.10367815572E+02  0.30097971892E+02  0.00000000000E+00 0.  1.
</event>
<event>
 5    1  0.1059945E-009  0.9118800E+02  0.7815553E-02  0.1125453E+00
         25   -1    0    0    0    0  0.00000000000E+00  0.00000000000E+00  0.99999998245E-14  0.12509000000E+03  0.12509000000E+03 0.  0.
        -11    1    3    3    0    0  0.12201702973E+02 -0.17998807633E+02 -0.25140187023E+02  0.33239549267E+02  0.51100000000E-03 0.  1.
         23    2    1    0    0    0 -0.65141524576E+01 -0.12493604273E+01  0.30283488279E+02  0.94088633158E+02  0.88834599924E+02 0.  0.
         11    1    3    3    0    0 -0.18715855430E+02  0.16749447206E+02  0.55423675302E+02  0.60849083891E+02  0.51100000000E-03 0. -1.
         22    1    1    0    0    0  0.65141524576E+01  0.12493604273E+01 -0.30283488279E+02  0.31001366842E+02  0.00000000000E+00 0. -1.
</event>
<event>
 5    1  0.1059945E-009  0.9118800E+02  0.7815553E-02  0.1125453E+00
         25   -1    0    0    0    0  0.00000000000E+00  0.00000000000E+00  0.99999998245E-14  0.12509000000E+03  0.12509000000E+03 0.  0.
        -11    1    3    3    0    0  0.39984006053E+01 -0.23808595096E+02 -0.43970262655E+02  0.50161941809E+02  0.51100000000E-03 0. -1.
         23    2    1    0    0    0  0.87187405569E+01  0.16197625733E+02 -0.23191389494E+02  0.95488985441E+02  0.90785055365E+02 0.  0.
         11    1    3    3    0    0  0.47203399517E+01  0.40006220829E+02  0.20778873161E+02  0.45327043632E+02  0.51100000000E-03 0.  1.
         22    1    1    0    0    0 -0.87187405569E+01 -0.16197625733E+02  0.23191389494E+02  0.29601014559E+02  0.00000000000E+00 0. -1.
</event>
<event>
 5    1  0.1059945E-009  0.9118800E+02  0.7815553E-02  0.1125453E+00
         25   -1    0    0    0    0  0.00000000000E+00  0.00000000000E+00  0.99999998245E-14  0.12509000000E+03  0.12509000000E+03 0.  0.
        -11    1    3    3    0    0 -0.48634004070E+02  0.33134161125E+02 -0.16273977400E+02  0.61057197168E+02  0.51100000000E-03 0.  1.
         23    2    1    0    0    0 -0.20548412987E+02  0.10079976254E+02 -0.15585749999E+02  0.97399590097E+02  0.93380519116E+02 0.  0.
         11    1    3    3    0    0  0.28085591083E+02 -0.23054184871E+02  0.68822740026E+00  0.36342392928E+02  0.51100000000E-03 0. -1.
         22    1    1    0    0    0  0.20548412987E+02 -0.10079976254E+02  0.15585749999E+02  0.27690409903E+02  0.00000000000E+00 0.  1.
</event>
<event>
 5    1  0.1059945E-009  0.9118800E+02  0.7815553E-02  0.1125453E+00
         25   -1    0    0    0    0  0.00000000000E+00  0.00000000000E+00  0.99999998245E-14  0.12509000000E+03  0.12509000000E+03 0.  0.
        -11    1    3    3    0    0  0.18070059094E+02  0.20485007334E+02  0.27494441860E+02  0.38757023810E+02  0.51100000000E-03 0.  1.
         23    2    1    0    0    0 -0.29301416927E+02  0.80308082210E+01  0.45817859749E+00  0.94704529093E+02  0.89697664343E+02 0.  0.
         11    1    3    3    0    0 -0.47371476021E+02 -0.12454199113E+02 -0.27036263262E+02  0.55947505283E+02  0.51100000000E-03 0. -1.
         22    1    1    0    0    0  0.29301416927E+02 -0.80308082210E+01 -0.45817859749E+00  0.30385470907E+02  0.00000000000E+00 0. -1.
</event>
<event>
 5    1  0.1059945E-009  0.9118800E+02  0.7815553E-02  0.1125453E+00
         25   -1    0    0    0    0  0.00000000000E+00  0.00000000000E+00  0.99999998245E-14  0.12509000000E+03  0.12509000000E+03 0.  0.
        -11    1    3    3    0    0 -0.21055683786E+02 -0.63473545839E+01 -0.16726011721E+02  0.27629516794E+02  0.51100000000E-03 0. -1.
         23    2    1    0    0    0  0.16392797785E+02  0.84779315688E+01  0.30341026343E+02  0.89576945746E+02  0.82236562348E+02 0.  0.
         11    1    3    3    0    0  0.37448481571E+02  0.14825286153E+02  0.47067038063E+02  0.61947428952E+02  0.51100000000E-03 0.  1.
         22    1    1    0    0    0 -0.16392797785E+02 -0.84779315688E+01 -0.30341026343E+02  0.35513054254E+02  0.00000000000E+00 0.  1.
</event>
<event>
 5    1  0.1059945E-009  0.9118800E+02  0.7815553E-02  0.1125453E+00
         25   -1    0    0    0    0  0.00000000000E+00  0.00000000000E+00  0.99999998245E-14  0.12509000000E+03  0.12509000000E+03 0.  0.
        -11    1    3    3    0    0  0.50463341629E+02 -0.52828832063E+01 -0.35219716491E+01  0.50861203170E+02  0.51100000000E-03 0.  1.
         23    2    1    0    0    0  0.15853008252E+02  0.23158084694E+02  0.53287941946E+01  0.96524097163E+02  0.92200274014E+02 0.  0.
         11    1    3    3    0    0 -0.34610333377E+02  0.28440967900E+02  0.88507658437E+01  0.45662893993E+02  0.51100000000E-03 0. -1.
         22    1    1    0    0    0 -0.15853008252E+02 -0.23158084694E+02 -0.53287941946E+01  0.28565902837E+02  0.00000000000E+00 0. -1.
</event>
<event>
 5    1  0.1059945E-009  0.9118800E+02  0.7815553E-02  0.1125453E+00
         25   -1    0    0    0    0  0.00000000000E+00  0.00000000000E+00  0.99999998245E-14  0.12509000000E+03  0.12509000000E+03 0.  0.
        -11    1    3    3    0    0  0.37707155221E+01 -0.24465175727E+02  0.27371099298E+02  0.36904473929E+02  0.51100000000E-03 0. -1.
         23    2    1    0    0    0  0.34222771999E+01 -0.37076278924E+01 -0.28312066663E+02  0.96331842817E+02  0.91939068605E+02 0.  0.
         11    1    3    3    0    0 -0.34843832228E+00  0.20757547835E+02 -0.55683165961E+02  0.59427368889E+02  0.51100000000E-03 0.  1.
         22    1    1    0    0    0 -0.34222771999E+01  0.37076278924E+01  0.28312066663E+02  0.28758157183E+02  0.00000000000E+00 0.  1.
</event>
<event>
 5    1  0.1059945E-009  0.9118800E+02  0.7815553E-02  0.1125453E+00
         25   -1    0    0    0    0  0.00000000000E+00  0.00000000000E+00  0.99999998245E-14  0.12509000000E+03  0.12509000000E+03 0.  0.
        -11    1    3    3    0    0  0.93973105710E+01 -0.28286097741E+02 -0.12673989892E+02  0.32388930076E+02  0.51100000000E-03 0. -1.
         23    2    1    0    0    0 -0.32540291882E+02 -0.36309391863E+02 -0.25755859939E+01  0.76265045556E+02  0.58587379163E+02 0.  0.
         11    1    3    3    0    0 -0.41937602453E+02 -0.80232941222E+01  0.10098403898E+02  0.43876115480E+02  0.51100000000E-03 0.  1.
         22    1    1    0    0    0  0.32540291882E+02  0.36309391863E+02  0.25755859939E+01  0.48824954444E+02  0.00000000000E+00 0.  1.
</event>
<event>
 5    1  0.1059945E-009  0.9118800E+02  0.7815553E-02  0.1125453E+00
         25   -1    0    0    0    0  0.00000000000E+00  0.00000000000E+00  0.99999998245E-14  0.12509000000E+03  0.12509000000E+03 0.  0.
        -11    1    3    3    0    0 -0.51012249752E+01 -0.46699447339E+02  0.17275209689E+02  0.50052909486E+02  0.51100000000E-03 0. -1.
         23    2    1    0    0    0  0.24334424208E+02 -0.11866919285E+02  0.99707237316E+01  0.96238599574E+02  0.91812116528E+02 0.  0.
         11    1    3    3    0    0  0.29435649183E+02  0.34832528054E+02 -0.73044859575E+01  0.46185690087E+02  0.51100000000E-03 0.  1.
         22    1    1    0    0    0 -0.24334424208E+02  0.11866919285E+02 -0.99707237316E+01  0.28851400426E+02  0.00000000000E+00 0.  1.
</event>
<event>
 5    1  0.1059945E-009  0.9118800E+02  0.7815553E-02  0.1125453E+00
         25   -1    0    0    0    0  0.00000000000E+00  0.00000000000E+00  0.99999998245E-14  0.12509000000E+03  0.12509000000E+03 0.  0.
        -11    1    3    3    0    0 -0.94603980302E+01  0.33124087576E+02  0.51798236763E+02  0.62207408245E+02  0.51100000000E-03 0.  1.
         23    2    1    0    0    0 -0.35778985565E+01  0.19019544802E+02  0.21360608270E+02  0.96266051134E+02  0.91849510466E+02 0.  0.
         11    1    3    3    0    0  0.58824994736E+01 -0.14104542774E+02 -0.30437628493E+02  0.34058642889E+02  0.51100000000E-03 0. -1.
         22    1    1    0    0    0  0.35778985565E+01 -0.19019544802E+02 -0.21360608270E+02  0.28823948866E+02  0.00000000000E+00 0.  1.
</event>
<event>
 5    1  0.1059945E-009  0.9118800E+02  0.7815553E-02  0.1125453E+00
         25   -1    0    0    0    0  0.00000000000E+00  0.00000000000E+00  0.99999998245E-14  0.12509000000E+03  0.12509000000E+03 0.  0.
        -11    1    3    3    0    0  0.17722517283E+02  0.28240400579E+02  0.28576922462E+02  0.43911824619E+02  0.51100000000E-03 0.  1.
         23    2    1    0    0    0  0.26272811409E+02 -0.77916649996E+01 -0.85825089997E+01  0.96373626212E+02  0.91995900483E+02 0.  0.
         11    1    3    3    0    0  0.85502941258E+01 -0.36032065579E+02 -0.37159431462E+02  0.52461801593E+02  0.51100000000E-03 0. -1.
         22    1    1    0    0    0 -0.26272811409E+02  0.77916649996E+01  0.85825089997E+01  0.28716373788E+02  0.00000000000E+00 0. -1.
</event>
<event>
 5    1  0.1059945E-009  0.9118800E+02  0.7815553E-02  0.1125453E+00
         25   -1    0    0    0    0  0.00000000000E+00  0.00000000000E+00  0.99999998245E-14  0.12509000000E+03  0.12509000000E+03 0.  0.
        -11    1    3    3    0    0 -0.17367258649E+02  0.23942498422E+02  0.51061761180E+02  0.59009900515E+02  0.51100000000E-03 0. -1.
         23    2    1    0    0    0 -0.17825749141E+02 -0.13702440150E+00  0.23031648428E+02  0.95965561165E+02  0.91439356911E+02 0.  0.
         11    1    3    3    0    0 -0.45849049220E+00 -0.24079522824E+02 -0.28030112752E+02  0.36955660651E+02  0.51100000000E-03 0.  1.
         22    1    1    0    0    0  0.17825749141E+02  0.13702440150E+00 -0.23031648428E+02  0.29124438835E+02  0.00000000000E+00 0. -1.
</event>
<event>
 5    1  0.1059945E-009  0.9118800E+02  0.7815553E-02  0.1125453E+00
         25   -1    0    0    0    0  0.00000000000E+00  0.00000000000E+00  0.99999998245E-14  0.12509000000E+03  0.12509000000E+03 0.  0.
        -11    1    3    3    0    0 -0.18072380958E+01  0.39317586211E+02 -0.21169314782E+02  0.44690922832E+02  0.51100000000E-03 0.  1.
         23    2    1    0    0    0 -0.30193358509E+02  0.22876429575E+01 -0.13341514844E+02  0.92001206932E+02  0.85844940738E+02 0.  0.
         11    1    3    3    0    0 -0.28386120413E+02 -0.37029943254E+02  0.78277999377E+01  0.47310284100E+02  0.51100000000E-03 0. -1.
         22    1    1    0    0    0  0.30193358509E+02 -0.22876429575E+01  0.13341514844E+02  0.33088793068E+02  0.00000000000E+00 0. -1.
</event>
<event>
 5    1  0.1059945E-009  0.9118800E+02  0.7815553E-02  0.1125453E+00
         25   -1    0    0    0    0  0.00000000000E+00  0.00000000000E+00  0.99999998245E-14  0.12509000000E+03  0.12509000000E+03 0.  0.
        -11    1    3    3    0    0  0.62697724853E+01 -0.42753015331E+02  0.12249707922E+01  0.43227663835E+02  0.51100000000E-03 0.  1.
         23    2    1    0    0    0 -0.11230690712E+02  0.52898522646E+00  0.26490743062E+02  0.96312096893E+02  0.91912198868E+02 0.  0.
         11    1    3    3    0    0 -0.17500463198E+02  0.43282000558E+02  0.25265772270E+02  0.53084433058E+02  0.51100000000E-03 0. -1.
         22    1    1    0    0    0  0.11230690712E+02 -0.52898522646E+00 -0.26490743062E+02  0.28777903107E+02  0.00000000000E+00 0. -1.
</event>
<event>
 5    1  0.1059945E-009  0.9118800E+02  0.7815553E-02  0.1125453E+00
         25   -1    0    0    0    0  0.00000000000E+00  0.00000000000E+00  0.99999998245E-14  0.12509000000E+03  0.12509000000E+03 0.  0.
        -11    1    3    3    0    0 -0.14312869817E+02  0.18682350860E+01 -0.52692024233E+02  0.54633304520E+02  0.51100000000E-03 0. -1.
         23    2    1    0    0    0  0.13462246117E+02  0.10810923695E+02 -0.23708343589E+02  0.95760941075E+02  0.91159004702E+02 0.  0.
         11    1    3    3    0    0  0.27775115934E+02  0.89426886095E+01  0.28983680643E+02  0.41127636555E+02  0.51100000000E-03 0.  1.
         22    1    1    0    0    0 -0.13462246117E+02 -0.10810923695E+02  0.23708343589E+02  0.29329058925E+02  0.00000000000E+00 0.  1.
</event>
<event>
 5    1  0.1059945E-009  0.9118800E+02  0.7815553E-02  0.1125453E+00
         25   -1    0    0    0    0  0.00000000000E+00  0.00000000000E+00  0.99999998245E-14  0.12509000000E+03  0.12509000000E+03 0.  0.
        -11    1    3    3    0    0  0.56076509132E+01  0.18119020376E+02  0.29330679603E+02  0.34928976715E+02  0.51100000000E-03 0.  1.
         23    2    1    0    0    0  0.98060703739E+00 -0.25599166027E+02 -0.13350603913E+02  0.96201983172E+02  0.91762214718E+02 0.  0.
         11    1    3    3    0    0 -0.46270438758E+01 -0.43718186403E+02 -0.42681283515E+02  0.61273006456E+02  0.51100000000E-03 0. -1.
         22    1    1    0    0    0 -0.98060703739E+00  0.25599166027E+02  0.13350603913E+02  0.28888016828E+02  0.00000000000E+00 0. -1.
</event>
<event>
 5    1  0.1059945E-009  0.9118800E+02  0.7815553E-02  0.1125453E+00
         25   -1    0    0    0    0  0.00000000000E+00  0.00000000000E+00  0.99999998245E-14  0.12509000000E+03  0.12509000000E+03 0.  0.
        -11    1    3    3    0    0 -0.16180867146E+02 -0.22118599957E+02 -0.27370895463E+02  0.38732658628E+02  0.51100000000E-03 0. -1.
         23    2    1    0    0    0 -0.13141173574E+01  0.28692819859E+02 -0.64926245004E+01  0.95642436624E+02  0.90996245497E+02 0.  0.
         11    1    3    3    0    0  0.14866749789E+02  0.50811419816E+02  0.20878270963E+02  0.56909777997E+02  0.51100000000E-03 0.  1.
         22    1    1    0    0    0  0.13141173574E+01 -0.28692819859E+02  0.64926245004E+01  0.29447563376E+02  0.00000000000E+00 0.  1.
</event>
<event>
 5    1  0.1059945E-009  0.9118800E+02  0.7815553E-02  0.1125453E+00
         25   -1    0    0    0    0  0.00000000000E+00  0.00000000000E+00  0.99999998245E-14  0.12509000000E+03  0.12509000000E+03 0.  0.
        -11    1    3    3    0    0 -0.62555787010E+01 -0.29758027300E+02 -0.34008806974E+02  0.45620953582E+02  0.51100000000E-03 0.  1.
         23    2    1    0    0    0  0.26588666992E+02 -0.20854969875E+02 -0.38715486282E+01  0.91077122003E+02  0.84487669412E+02 0.  0.
         11    1    3    3    0    0  0.32844245693E+02  0.89030574246E+01  0.30137258346E+02  0.45456168421E+02  0.51100000000E-03 0. -1.
         22    1    1    0    0    0 -0.26588666992E+02  0.20854969875E+02  0.38715486282E+01  0.34012877997E+02  0.00000000000E+00 0.  1.
</event>
<event>
 5    1  0.1059945E-009  0.9118800E+02  0.7815553E-02  0.1125453E+00
         25   -1    0    0    0    0  0.00000000000E+00  0.00000000000E+00  0.99999998245E-14  0.12509000000E+03  0.12509000000E+03 0.  0.
        -11    1    3    3    0    0 -0.27454457721E+02 -0.28452207083E+02  0.48095181010E+01  0.39829722586E+02  0.51100000000E-03 0. -1.
         23    2    1    0    0    0 -0.12203385628E+02  0.25013740922E+02  0.96357060802E+01  0.95637382334E+02  0.90989297241E+02 0.  0.
         11    1    3    3    0    0  0.15251072092E+02  0.53465948004E+02  0.48261879792E+01  0.55807659749E+02  0.51100000000E-03 0.  1.
         22    1    1    0    0    0  0.12203385628E+02 -0.25013740922E+02 -0.96357060802E+01  0.29452617666E+02  0.00000000000E+00 0.  1.
</event>
<event>
 5    1  0.1059945E-009  0.9118800E+02  0.7815553E-02  0.1125453E+00
         25   -1    0    0    0    0  0.00000000000E+00  0.00000000000E+00  0.99999998245E-14  0.12509000000E+03  0.12509000000E+03 0.  0.
        -11    1    3    3    0    0  0.37694342510E+02 -0.40640293460E+02  0.18187818380E+02  0.58337754906E+02  0.51100000000E-03 0. -1.
         23    2    1    0    0    0  0.54656487292E+01 -0.19765927795E+02  0.19545389777E+02  0.96760025076E+02  0.92519808547E+02 0.  0.
         11    1    3    3    0    0 -0.32228693781E+02  0.20874365664E+02  0.13575713971E+01  0.38422270171E+02  0.51100000000E-03 0.  1.
         22    1    1    0    0    0 -0.54656487292E+01  0.19765927795E+02 -0.19545389777E+02  0.28329974924E+02  0.00000000000E+00 0. -1.
</event>
<event>
 5    1  0.1059945E-009  0.9118800E+02  0.7815553E-02  0.1125453E+00
         25   -1    0    0    0    0  0.00000000000E+00  0.00000000000E+00  0.99999998245E-14  0.12509000000E+03  0.12509000000E+03 0.  0.
        -11    1    3    3    0    0 -0.31947736610E+02 -0.43026279692E+02 -0.28410369158E+02  0.60655318766E+02  0.51100000000E-03 0.  1.
         23    2    1    0    0    0 -0.24311636946E+02 -0.15007334202E+02 -0.16908941811E+02  0.91890781877E+02  0.85683882440E+02 0.  0.
         11    1    3    3    0    0  0.76360996636E+01  0.28018945490E+02  0.11501427348E+02  0.31235463111E+02  0.51100000000E-03 0. -1.
         22    1    1    0    0    0  0.24311636946E+02  0.15007334202E+02  0.16908941811E+02  0.33199218123E+02  0.00000000000E+00 0.  1.
</event>
<event>
 5    1  0.1059945E-009  0.9118800E+02  0.7815553E-02  0.1125453E+00
         25   -1    0    0    0    0  0.00000000000E+00  0.00000000000E+00  0.99999998245E-14  0.12509000000E+03  0.12509000000E+03 0.  0.
        -11    1    3    3    0    0 -0.39166433260E+02 -0.55437180532E+01 -0.40524607773E+02  0.56630258163E+02  0.51100000000E-03 0. -1.
         23    2    1    0    0    0 -0.23846437382E+02  0.12855828204E+02 -0.83390366837E+01  0.96744551910E+02  0.92498885922E+02 0.  0.
         11    1    3    3    0    0  0.15319995878E+02  0.18399546257E+02  0.32185571089E+02  0.40114293747E+02  0.51100000000E-03 0.  1.
         22    1    1    0    0    0  0.23846437382E+02 -0.12855828204E+02  0.83390366837E+01  0.28345448090E+02  0.00000000000E+00 0. -1.
</event>
<event>
 5    1  0.1059945E-009  0.9118800E+02  0.7815553E-02  0.1125453E+00
         25   -1    0    0    0    0  0.00000000000E+00  0.00000000000E+00  0.99999998245E-14  0.12509000000E+03  0.12509000000E+03 0.  0.
        -11    1    3    3    0    0 -0.28541476867E+02 -0.26525668825E+02  0.28976113361E+02  0.48557616850E+02  0.51100000000E-03 0.  1.
         23    2    1    0    0    0 -0.60180917133E+00 -0.26115748525E+02 -0.10511444879E+02  0.96931786833E+02  0.92751745698E+02 0.  0.
         11    1    3    3    0    0  0.27939667696E+02  0.40992030025E+00 -0.39487558240E+02  0.48374169984E+02  0.51100000000E-03 0. -1.
         22    1    1    0    0    0  0.60180917133E+00  0.26115748525E+02  0.10511444879E+02  0.28158213167E+02  0.00000000000E+00 0. -1.
</event>
<event>
 5    1  0.1059945E-009  0.9118800E+02  0.7815553E-02  0.1125453E+00
         25   -1    0    0    0    0  0.00000000000E+00  0.00000000000E+00  0.99999998245E-14  0.12509000000E+03  0.12509000000E+03 0.  0.
        -11    1    3    3    0    0  0.38530808846E+02  0.19754088903E+02  0.82465823305E+01  0.44077810507E+02  0.51100000000E-03 0.  1.
         23    2    1    0    0    0 -0.13588069226E+02  0.19672292582E+02  0.15348713353E+02  0.96678422742E+02  0.92409413490E+02 0.  0.
         11    1    3    3    0    0 -0.52118878072E+02 -0.81796321597E-01  0.71021310228E+01  0.52600612234E+02  0.51100000000E-03 0. -1.
         22    1    1    0    0    0  0.13588069226E+02 -0.19672292582E+02 -0.15348713353E+02  0.28411577258E+02  0.00000000000E+00 0. -1.
</event>
<event>
 5    1  0.1059945E-009  0.9118800E+02  0.7815553E-02  0.1125453E+00
         25   -1    0    0    0    0  0.00000000000E+00  0.00000000000E+00  0.99999998245E-14  0.12509000000E+03  0.12509000000E+03 0.  0.
        -11    1    3    3    0    0 -0.64586460882E+01  0.28953222163E+02 -0.53610777619E+02  0.61270863059E+02  0.51100000000E-03 0. -1.
         23    2    1    0    0    0 -0.62337949568E+01  0.48250785896E+01 -0.25911266453E+02  0.98006142960E+02  0.94189536286E+02 0.  0.
         11    1    3    3    0    0  0.22485113140E+00 -0.24128143573E+02  0.27699511166E+02  0.36735279901E+02  0.51100000000E-03 0.  1.
         22    1    1    0    0    0  0.62337949568E+01 -0.48250785896E+01  0.25911266453E+02  0.27083857040E+02  0.00000000000E+00 0. -1.
</event>
<event>
 5    1  0.1059945E-009  0.9118800E+02  0.7815553E-02  0.1125453E+00
         25   -1    0    0    0    0  0.00000000000E+00  0.00000000000E+00  0.99999998245E-14  0.12509000000E+03  0.12509000000E+03 0.  0.
        -11    1    3    3    0    0 -0.22977241874E+02 -0.25237324648E+02 -0.13336317950E+02  0.36643329219E+02  0.51100000000E-03 0. -1.
         23    2    1    0    0    0  0.12702970179E+02  0.22639278739E+02 -0.12304452017E+02  0.96361931276E+02  0.91979997100E+02 0.  0.
         11    1    3    3    0    0  0.35680212052E+02  0.47876603388E+02  0.10318659335E+01  0.59718602057E+02  0.51100000000E-03 0.  1.
         22    1    1    0    0    0 -0.12702970179E+02 -0.22639278739E+02  0.12304452017E+02  0.28728068724E+02  0.00000000000E+00 0.  1.
</event>
<event>
 5    1  0.1059945E-009  0.9118800E+02  0.7815553E-02  0.1125453E+00
         25   -1    0    0    0    0  0.00000000000E+00  0.00000000000E+00  0.99999998245E-14  0.12509000000E+03  0.12509000000E+03 0.  0.
        -11    1    3    3    0    0 -0.18925436138E+02 -0.53421792590E+02  0.25140598745E+02  0.62000885171E+02  0.51100000000E-03 0.  1.
         23    2    1    0    0    0  0.75422284880E-01 -0.14034980504E+02  0.77041827123E+01  0.10907935362E+03  0.10789793598E+03 0.  0.
         11    1    3    3    0    0  0.19000858423E+02  0.39386812086E+02 -0.17436416033E+02  0.47078468448E+02  0.51100000000E-03 0. -1.
         22    1    1    0    0    0 -0.75422284880E-01  0.14034980504E+02 -0.77041827123E+01  0.16010646381E+02  0.00000000000E+00 0.  1.
</event>
<event>
 5    1  0.1059945E-009  0.9118800E+02  0.7815553E-02  0.1125453E+00
         25   -1    0    0    0    0  0.00000000000E+00  0.00000000000E+00  0.99999998245E-14  0.12509000000E+03  0.12509000000E+03 0.  0.
        -11    1    3    3    0    0  0.98733917715E+01 -0.23851328019E+02  0.22311345582E+02  0.34119874784E+02  0.51100000000E-03 0.  1.
         23    2    1    0    0    0  0.69410821158E+01  0.19874070096E+02 -0.20730085401E+02  0.95545225101E+02  0.90862513259E+02 0.  0.
         11    1    3    3    0    0 -0.29323096557E+01  0.43725398115E+02 -0.43041430983E+02  0.61425350317E+02  0.51100000000E-03 0. -1.
         22    1    1    0    0    0 -0.69410821158E+01 -0.19874070096E+02  0.20730085401E+02  0.29544774899E+02  0.00000000000E+00 0. -1.
</event>
<event>
 5    1  0.1059945E-009  0.9118800E+02  0.7815553E-02  0.1125453E+00
         25   -1    0    0    0    0  0.00000000000E+00  0.00000000000E+00  0.99999998245E-14  0.12509000000E+03  0.12509000000E+03 0.  0.
        -11    1    3    3    0    0  0.19676105410E+02 -0.12006516480E+02 -0.41626305400E+02  0.47582085532E+02  0.51100000000E-03 0.  1.
         23    2    1    0    0    0  0.24626757420E+02 -0.12182705164E+02  0.72223135128E+01  0.96681246092E+02  0.92413235239E+02 0.  0.
         11    1    3    3    0    0  0.49506520094E+01 -0.17618868431E+00  0.48848618913E+02  0.49099160560E+02  0.51100000000E-03 0. -1.
         22    1    1    0    0    0 -0.24626757420E+02  0.12182705164E+02 -0.72223135128E+01  0.28408753908E+02  0.00000000000E+00 0.  1.
</event>
<event>
 5    1  0.1059945E-009  0.9118800E+02  0.7815553E-02  0.1125453E+00
         25   -1    0    0    0    0  0.00000000000E+00  0.00000000000E+00  0.99999998245E-14  0.12509000000E+03  0.12509000000E+03 0.  0.
        -11    1    3    3    0    0  0.14061599559E+02 -0.15733747623E+02  0.31242226495E+02  0.37700876821E+02  0.51100000000E-03 0.  1.
         23    2    1    0    0    0 -0.85364686763E+01  0.28440193655E+02  0.19237599960E+01  0.95334046560E+02  0.90571318133E+02 0.  0.
         11    1    3    3    0    0 -0.22598068235E+02  0.44173941278E+02 -0.29318466499E+02  0.57633169739E+02  0.51100000000E-03 0. -1.
         22    1    1    0    0    0  0.85364686763E+01 -0.28440193655E+02 -0.19237599960E+01  0.29755953440E+02  0.00000000000E+00 0. -1.
</event>
<event>
 5    1  0.1059945E-009  0.9118800E+02  0.7815553E-02  0.1125453E+00
         25   -1    0    0    0    0  0.00000000000E+00  0.00000000000E+00  0.99999998245E-14  0.12509000000E+03  0.12509000000E+03 0.  0.
        -11    1    3    3    0    0  0.36369366590E+02 -0.11659483567E+02 -0.25785001747E+02  0.46081891222E+02  0.51100000000E-03 0. -1.
         23    2    1    0    0    0  0.14163316227E+02 -0.20960679804E+02  0.16603784835E+02  0.94830533791E+02  0.89873215387E+02 0.  0.
         11    1    3    3    0    0 -0.22206050363E+02 -0.93011962367E+01  0.42388786582E+02  0.48748642569E+02  0.51100000000E-03 0.  1.
         22    1    1    0    0    0 -0.14163316227E+02  0.20960679804E+02 -0.16603784835E+02  0.30259466209E+02  0.00000000000E+00 0.  1.
</event>
<event>
 5    1  0.1059945E-009  0.9118800E+02  0.7815553E-02  0.1125453E+00
         25   -1    0    0    0    0  0.00000000000E+00  0.00000000000E+00  0.99999998245E-14  0.12509000000E+03  0.12509000000E+03 0.  0.
        -11    1    3    3    0    0 -0.56146563508E+02 -0.18276156648E+02  0.10445435839E+02  0.59963002141E+02  0.51100000000E-03 0.  1.
         23    2    1    0    0    0 -0.22733409807E+02 -0.81481211502E+01  0.17091336282E+02  0.95504301164E+02  0.90806155987E+02 0.  0.
         11    1    3    3    0    0  0.33413153701E+02  0.10128035498E+02  0.66459004429E+01  0.35541299023E+02  0.51100000000E-03 0. -1.
         22    1    1    0    0    0  0.22733409807E+02  0.81481211502E+01 -0.17091336282E+02  0.29585698836E+02  0.00000000000E+00 0.  1.
</event>
<event>
 5    1  0.1059945E-009  0.9118800E+02  0.7815553E-02  0.1125453E+00
         25   -1    0    0    0    0  0.00000000000E+00  0.00000000000E+00  0.99999998245E-14  0.12509000000E+03  0.12509000000E+03 0.  0.
        -11    1    3    3    0    0 -0.26933698572E+02 -0.44514597905E+02  0.32749968598E+02  0.61477914643E+02  0.51100000000E-03 0.  1.
         23    2    1    0    0    0 -0.17606672352E+02 -0.17995959720E+02  0.87625317180E+01  0.98432328690E+02  0.94753848954E+02 0.  0.
         11    1    3    3    0    0  0.93270262203E+01  0.26518638184E+02 -0.23987436880E+02  0.36954414047E+02  0.51100000000E-03 0. -1.
         22    1    1    0    0    0  0.17606672352E+02  0.17995959720E+02 -0.87625317180E+01  0.26657671310E+02  0.00000000000E+00 0.  1.
</event>
<event>
 5    1  0.1059945E-009  0.9118800E+02  0.7815553E-02  0.1125453E+00
         25   -1    0    0    0    0  0.00000000000E+00  0.00000000000E+00  0.99999998245E-14  0.12509000000E+03  0.12509000000E+03 0.  0.
        -11    1    3    3    0    0 -0.14672400613E+02  0.72573286694E+00  0.37372059914E+02  0.40155658262E+02  0.51100000000E-03 0. -1.
         23    2    1    0    0    0 -0.11140065045E+02  0.31626698658E+02 -0.33445918003E+01  0.91392293675E+02  0.84953021910E+02 0.  0.
         11    1    3    3    0    0  0.35323355679E+01  0.30900965792E+02 -0.40716651714E+02  0.51236635414E+02  0.51100000000E-03 0.  1.
         22    1    1    0    0    0  0.11140065045E+02 -0.31626698658E+02  0.33445918003E+01  0.33697706325E+02  0.00000000000E+00 0.  1.
</event>
<event>
 5    1  0.1059945E-009  0.9118800E+02  0.7815553E-02  0.1125453E+00
         25   -1    0    0    0    0  0.00000000000E+00  0.00000000000E+00  0.99999998245E-14  0.12509000000E+03  0.12509000000E+03 0.  0.
        -11    1    3    3    0    0  0.66908842047E+00 -0.45608297533E+01  0.34131204693E+02  0.34441079853E+02  0.51100000000E-03 0. -1.
         23    2    1    0    0    0  0.16191967065E+02  0.75585850300E+01 -0.23628227231E+02  0.95465599126E+02  0.90752826343E+02 0.  0.
         11    1    3    3    0    0  0.15522878644E+02  0.12119414783E+02 -0.57759431924E+02  0.61024519273E+02  0.51100000000E-03 0.  1.
         22    1    1    0    0    0 -0.16191967065E+02 -0.75585850300E+01  0.23628227231E+02  0.29624400874E+02  0.00000000000E+00 0.  1.
</event>
<event>
 5    1  0.1059945E-009  0.9118800E+02  0.7815553E-02  0.1125453E+00
         25   -1    0    0    0    0  0.00000000000E+00  0.00000000000E+00  0.99999998245E-14  0.12509000000E+03  0.12509000000E+03 0.  0.
        -11    1    3    3    0    0  0.33966290637E+02 -0.26251763179E+02  0.20953757364E+01  0.42979699503E+02  0.51100000000E-03 0. -1.
         23    2    1    0    0    0  0.28456720389E+02 -0.15904027471E+01 -0.29921220543E+02  0.83766958547E+02  0.72865009361E+02 0.  0.
         11    1    3    3    0    0 -0.55095702484E+01  0.24661360432E+02 -0.32016596279E+02  0.40787259043E+02  0.51100000000E-03 0.  1.
         22    1    1    0    0    0 -0.28456720389E+02  0.15904027471E+01  0.29921220543E+02  0.41323041453E+02  0.00000000000E+00 0. -1.
</event>
<event>
 5    1  0.1059945E-009  0.9118800E+02  0.7815553E-02  0.1125453E+00
         25   -1    0    0    0    0  0.00000000000E+00  0.00000000000E+00  0.99999998245E-14  0.12509000000E+03  0.12509000000E+03 0.  0.
        -11    1    3    3    0    0  0.39529250291E+02  0.44758767431E+02 -0.25207734619E+01  0.59768412976E+02  0.51100000000E-03 0. -1.
         23    2    1    0    0    0  0.11126930773E+02  0.25181615962E+02 -0.11247130226E+02  0.95350795081E+02  0.90594446923E+02 0.  0.
         11    1    3    3    0    0 -0.28402319518E+02 -0.19577151469E+02 -0.87263567641E+01  0.35582382105E+02  0.51100000000E-03 0.  1.
         22    1    1    0    0    0 -0.11126930773E+02 -0.25181615962E+02  0.11247130226E+02  0.29739204919E+02  0.00000000000E+00 0. -1.
</event>
<event>
 5    1  0.1059945E-009  0.9118800E+02  0.7815553E-02  0.1125453E+00
         25   -1    0    0    0    0  0.00000000000E+00  0.00000000000E+00  0.99999998245E-14  0.12509000000E+03  0.12509000000E+03 0.  0.
        -11    1    3    3    0    0 -0.35167722711E+01 -0.16449979146E+02  0.33568176324E+02  0.37547196474E+02  0.51100000000E-03 0.  1.
         23    2    1    0    0    0 -0.15542441339E+02  0.24997047217E+02 -0.47673620533E+01  0.95271422011E+02  0.90484784681E+02 0.  0.
         11    1    3    3    0    0 -0.12025669068E+02  0.41447026363E+02 -0.38335538377E+02  0.57724225537E+02  0.51100000000E-03 0. -1.
         22    1    1    0    0    0  0.15542441339E+02 -0.24997047217E+02  0.47673620533E+01  0.29818577989E+02  0.00000000000E+00 0. -1.
</event>
<event>
 5    1  0.1059945E-009  0.9118800E+02  0.7815553E-02  0.1125453E+00
         25   -1    0    0    0    0  0.00000000000E+00  0.00000000000E+00  0.99999998245E-14  0.12509000000E+03  0.12509000000E+03 0.  0.
        -11    1    3    3    0    0 -0.65916234583E+01  0.29148200672E+02  0.42333582055E+02  0.51818908441E+02  0.51100000000E-03 0. -1.
         23    2    1    0    0    0  0.21835896496E+02  0.16063102648E+02  0.11853397324E+02  0.95503978459E+02  0.90805711445E+02 0.  0.
         11    1    3    3    0    0  0.28427519954E+02 -0.13085098023E+02 -0.30480184730E+02  0.43685070018E+02  0.51100000000E-03 0.  1.
         22    1    1    0    0    0 -0.21835896496E+02 -0.16063102648E+02 -0.11853397324E+02  0.29586021541E+02  0.00000000000E+00 0.  1.
</event>
<event>
 5    1  0.1059945E-009  0.9118800E+02  0.7815553E-02  0.1125453E+00
         25   -1    0    0    0    0  0.00000000000E+00  0.00000000000E+00  0.99999998245E-14  0.12509000000E+03  0.12509000000E+03 0.  0.
        -11    1    3    3    0    0 -0.12102102243E+02 -0.15240736787E+02 -0.27870204702E+02  0.33992488096E+02  0.51100000000E-03 0.  1.
         23    2    1    0    0    0  0.17948784206E+02  0.19888002299E+02  0.12648100921E+02  0.95464572630E+02  0.90751411453E+02 0.  0.
         11    1    3    3    0    0  0.30050886450E+02  0.35128739086E+02  0.40518305623E+02  0.61472084535E+02  0.51100000000E-03 0. -1.
         22    1    1    0    0    0 -0.17948784206E+02 -0.19888002299E+02 -0.12648100921E+02  0.29625427370E+02  0.00000000000E+00 0. -1.
</event>
<event>
 5    1  0.1059945E-009  0.9118800E+02  0.7815553E-02  0.1125453E+00
         25   -1    0    0    0    0  0.00000000000E+00  0.00000000000E+00  0.99999998245E-14  0.12509000000E+03  0.12509000000E+03 0.  0.
        -11    1    3    3    0    0 -0.32566212549E+02 -0.32652703881E+02 -0.70053140982E+01  0.46645811135E+02  0.51100000000E-03 0.  1.
         23    2    1    0    0    0 -0.26414162279E+02  0.12752261465E+02  0.76950146103E+01  0.94766059108E+02  0.89783431476E+02 0.  0.
         11    1    3    3    0    0  0.61520502703E+01  0.45404965346E+02  0.14700328708E+02  0.48120247973E+02  0.51100000000E-03 0. -1.
         22    1    1    0    0    0  0.26414162279E+02 -0.12752261465E+02 -0.76950146103E+01  0.30323940892E+02  0.00000000000E+00 0. -1.
</event>
<event>
 5    1  0.1059945E-009  0.9118800E+02  0.7815553E-02  0.1125453E+00
         25   -1    0    0    0    0  0.00000000000E+00  0.00000000000E+00  0.99999998245E-14  0.12509000000E+03  0.12509000000E+03 0.  0.
        -11    1    3    3    0    0  0.40471670894E+02  0.15584343606E+02  0.34887049925E+02  0.55659088775E+02  0.51100000000E-03 0. -1.
         23    2    1    0    0    0  0.12092712399E+02  0.25459298986E+02  0.84936046177E+01  0.95652763081E+02  0.91010439883E+02 0.  0.
         11    1    3    3    0    0 -0.28378958495E+02  0.98749553798E+01 -0.26393445308E+02  0.39993674306E+02  0.51100000000E-03 0.  1.
         22    1    1    0    0    0 -0.12092712399E+02 -0.25459298986E+02 -0.84936046177E+01  0.29437236919E+02  0.00000000000E+00 0. -1.
</event>
<event>
 5    1  0.1059945E-009  0.9118800E+02  0.7815553E-02  0.1125453E+00
         25   -1    0    0    0    0  0.00000000000E+00  0.00000000000E+00  0.99999998245E-14  0.12509000000E+03  0.12509000000E+03 0.  0.
        -11    1    3    3    0    0  0.44065008780E+02  0.33774282610E+02 -0.21760776372E+02  0.59631858542E+02  0.51100000000E-03 0. -1.
         23    2    1    0    0    0  0.11599062238E+02  0.25733366661E+02 -0.11418607593E+02  0.94641206857E+02  0.89609313307E+02 0.  0.
         11    1    3    3    0    0 -0.32465946542E+02 -0.80409159486E+01  0.10342168779E+02  0.35009348315E+02  0.51100000000E-03 0.  1.
         22    1    1    0    0    0 -0.11599062238E+02 -0.25733366661E+02  0.11418607593E+02  0.30448793143E+02  0.00000000000E+00 0. -1.
</event>
<event>
 5    1  0.1059945E-009  0.9118800E+02  0.7815553E-02  0.1125453E+00
         25   -1    0    0    0    0  0.00000000000E+00  0.00000000000E+00  0.99999998245E-14  0.12509000000E+03  0.12509000000E+03 0.  0.
        -11    1    3    3    0    0 -0.40172391786E+02  0.61065023740E+01  0.21898402454E+02  0.46158969479E+02  0.51100000000E-03 0.  1.
         23    2    1    0    0    0 -0.21969993695E+02 -0.99009552539E+01 -0.19472406242E+02  0.94108002925E+02  0.88861870743E+02 0.  0.
         11    1    3    3    0    0  0.18202398091E+02 -0.16007457628E+02 -0.41370808697E+02  0.47949033446E+02  0.51100000000E-03 0. -1.
         22    1    1    0    0    0  0.21969993695E+02  0.99009552539E+01  0.19472406242E+02  0.30981997075E+02  0.00000000000E+00 0.  1.
</event>
<event>
 5    1  0.1059945E-009  0.9118800E+02  0.7815553E-02  0.1125453E+00
         25   -1    0    0    0    0  0.00000000000E+00  0.00000000000E+00  0.99999998245E-14  0.12509000000E+03  0.12509000000E+03 0.  0.
        -11    1    3    3    0    0 -0.30218684507E+02 -0.21276985043E+02  0.42581504416E+02  0.56383184589E+02  0.51100000000E-03 0.  1.
         23    2    1    0    0    0  0.34322647159E+01 -0.62991192189E+01  0.28310357219E+02  0.95884937598E+02  0.91328996427E+02 0.  0.
         11    1    3    3    0    0  0.33650949223E+02  0.14977865824E+02 -0.14271147197E+02  0.39501753009E+02  0.51100000000E-03 0. -1.
         22    1    1    0    0    0 -0.34322647159E+01  0.62991192189E+01 -0.28310357219E+02  0.29205062402E+02  0.00000000000E+00 0.  1.
</event>
<event>
 5    1  0.1059945E-009  0.9118800E+02  0.7815553E-02  0.1125453E+00
         25   -1    0    0    0    0  0.00000000000E+00  0.00000000000E+00  0.99999998245E-14  0.12509000000E+03  0.12509000000E+03 0.  0.
        -11    1    3    3    0    0  0.26179762355E+02  0.19361134917E+02 -0.44844474346E+02  0.55418953273E+02  0.51100000000E-03 0. -1.
         23    2    1    0    0    0  0.19485720201E+02  0.21511423962E+02 -0.52978403811E+01  0.95585733099E+02  0.90918263329E+02 0.  0.
         11    1    3    3    0    0 -0.66940421543E+01  0.21502890451E+01  0.39546633965E+02  0.40166779826E+02  0.51100000000E-03 0.  1.
         22    1    1    0    0    0 -0.19485720201E+02 -0.21511423962E+02  0.52978403811E+01  0.29504266901E+02  0.00000000000E+00 0. -1.
</event>
<event>
 5    1  0.1059945E-009  0.9118800E+02  0.7815553E-02  0.1125453E+00
         25   -1    0    0    0    0  0.00000000000E+00  0.00000000000E+00  0.99999998245E-14  0.12509000000E+03  0.12509000000E+03 0.  0.
        -11    1    3    3    0    0 -0.23250286596E+02 -0.32486535730E+02  0.93206608283E+01  0.41022256753E+02  0.51100000000E-03 0.  1.
         23    2    1    0    0    0  0.22176765285E+02 -0.16328495424E+02  0.20791663465E+02  0.90583160809E+02  0.83753131710E+02 0.  0.
         11    1    3    3    0    0  0.45427051881E+02  0.16158040307E+02  0.11471002636E+02  0.49560904056E+02  0.51100000000E-03 0. -1.
         22    1    1    0    0    0 -0.22176765285E+02  0.16328495424E+02 -0.20791663465E+02  0.34506839191E+02  0.00000000000E+00 0. -1.
</event>
<event>
 5    1  0.1059945E-009  0.9118800E+02  0.7815553E-02  0.1125453E+00
         25   -1    0    0    0    0  0.00000000000E+00  0.00000000000E+00  0.99999998245E-14  0.12509000000E+03  0.12509000000E+03 0.  0.
        -11    1    3    3    0    0  0.24627161857E+02 -0.38128426670E+02  0.12708382425E+02  0.47135729606E+02  0.51100000000E-03 0.  1.
         23    2    1    0    0    0 -0.40170410931E+00 -0.18751233350E+02 -0.23365641881E+02  0.95127968379E+02  0.90286250498E+02 0.  0.
         11    1    3    3    0    0 -0.25028865966E+02  0.19377193320E+02 -0.36074024306E+02  0.47992238773E+02  0.51100000000E-03 0. -1.
         22    1    1    0    0    0  0.40170410931E+00  0.18751233350E+02  0.23365641881E+02  0.29962031621E+02  0.00000000000E+00 0. -1.
</event>
<event>
 5    1  0.1059945E-009  0.9118800E+02  0.7815553E-02  0.1125453E+00
         25   -1    0    0    0    0  0.00000000000E+00  0.00000000000E+00  0.99999998245E-14  0.12509000000E+03  0.12509000000E+03 0.  0.
        -11    1    3    3    0    0  0.84272513475E+01 -0.44516617971E+01  0.42720894494E+02  0.43771117014E+02  0.51100000000E-03 0.  1.
         23    2    1    0    0    0  0.13341299696E+02 -0.21202526330E+02 -0.90878396105E+01  0.98441806269E+02  0.94766360025E+02 0.  0.
         11    1    3    3    0    0  0.49140483484E+01 -0.16750864533E+02 -0.51808734105E+02  0.54670689255E+02  0.51100000000E-03 0. -1.
         22    1    1    0    0    0 -0.13341299696E+02  0.21202526330E+02  0.90878396105E+01  0.26648193731E+02  0.00000000000E+00 0. -1.
</event>
<event>
 5    1  0.1059945E-009  0.9118800E+02  0.7815553E-02  0.1125453E+00
         25   -1    0    0    0    0  0.00000000000E+00  0.00000000000E+00  0.99999998245E-14  0.12509000000E+03  0.12509000000E+03 0.  0.
        -11    1    3    3    0    0  0.29504224466E+02 -0.31511163776E+02  0.14112902598E+02  0.45416150474E+02  0.51100000000E-03 0.  1.
         23    2    1    0    0    0 -0.63382600629E+01 -0.34501808088E+01  0.30463090020E+02  0.93783816237E+02  0.88404338390E+02 0.  0.
         11    1    3    3    0    0 -0.35842484529E+02  0.28060982968E+02  0.16350187422E+02  0.48367665763E+02  0.51100000000E-03 0. -1.
         22    1    1    0    0    0  0.63382600629E+01  0.34501808088E+01 -0.30463090020E+02  0.31306183763E+02  0.00000000000E+00 0. -1.
</event>
<event>
 5    1  0.1059945E-009  0.9118800E+02  0.7815553E-02  0.1125453E+00
         25   -1    0    0    0    0  0.00000000000E+00  0.00000000000E+00  0.99999998245E-14  0.12509000000E+03  0.12509000000E+03 0.  0.
        -11    1    3    3    0    0 -0.36193032562E+01  0.18474815665E-01  0.35528643044E+02  0.35712521252E+02  0.51100000000E-03 0. -1.
         23    2    1    0    0    0 -0.15923135143E+02  0.43292246188E+01 -0.23617790259E+02  0.96278744642E+02  0.91866796148E+02 0.  0.
         11    1    3    3    0    0 -0.12303831887E+02  0.43107498031E+01 -0.59146433303E+02  0.60566223390E+02  0.51100000000E-03 0.  1.
         22    1    1    0    0    0  0.15923135143E+02 -0.43292246188E+01  0.23617790259E+02  0.28811255358E+02  0.00000000000E+00 0. -1.
</event>
<event>
 5    1  0.1059945E-009  0.9118800E+02  0.7815553E-02  0.1125453E+00
         25   -1    0    0    0    0  0.00000000000E+00  0.00000000000E+00  0.99999998245E-14  0.12509000000E+03  0.12509000000E+03 0.  0.
        -11    1    3    3    0    0  0.13780927189E+02  0.28706006397E+02 -0.99722086566E+01  0.33367554648E+02  0.51100000000E-03 0.  1.
         23    2    1    0    0    0 -0.16765484138E+02 -0.10296439824E+02  0.24460258745E+02  0.93698880407E+02  0.88284074443E+02 0.  0.
         11    1    3    3    0    0 -0.30546411327E+02 -0.39002446221E+02  0.34432467401E+02  0.60331325759E+02  0.51100000000E-03 0. -1.
         22    1    1    0    0    0  0.16765484138E+02  0.10296439824E+02 -0.24460258745E+02  0.31391119593E+02  0.00000000000E+00 0. -1.
</event>
<event>
 5    1  0.1059945E-009  0.9118800E+02  0.7815553E-02  0.1125453E+00
         25   -1    0    0    0    0  0.00000000000E+00  0.00000000000E+00  0.99999998245E-14  0.12509000000E+03  0.12509000000E+03 0.  0.
        -11    1    3    3    0    0 -0.15717123360E+02 -0.22721737143E+02  0.37889426837E+02  0.46892579070E+02  0.51100000000E-03 0.  1.
         23    2    1    0    0    0  0.16800338320E+02 -0.23420982388E+02  0.75543788918E+00  0.96256608418E+02  0.91836649515E+02 0.  0.
         11    1    3    3    0    0  0.32517461680E+02 -0.69924524501E+00 -0.37133988948E+02  0.49364029348E+02  0.51100000000E-03 0. -1.
         22    1    1    0    0    0 -0.16800338320E+02  0.23420982388E+02 -0.75543788918E+00  0.28833391582E+02  0.00000000000E+00 0.  1.
</event>
<event>
 5    1  0.1059945E-009  0.9118800E+02  0.7815553E-02  0.1125453E+00
         25   -1    0    0    0    0  0.00000000000E+00  0.00000000000E+00  0.99999998245E-14  0.12509000000E+03  0.12509000000E+03 0.  0.
        -11    1    3    3    0    0 -0.28723601742E+02  0.20130576778E+01  0.19400096336E+02  0.34719755707E+02  0.51100000000E-03 0. -1.
         23    2    1    0    0    0  0.27924560907E+02  0.12376920875E+01 -0.54971324630E+01  0.96602608950E+02  0.92306731104E+02 0.  0.
         11    1    3    3    0    0  0.56648162649E+02 -0.77536559031E+00 -0.24897228799E+02  0.61882853243E+02  0.51100000000E-03 0.  1.
         22    1    1    0    0    0 -0.27924560907E+02 -0.12376920875E+01  0.54971324630E+01  0.28487391050E+02  0.00000000000E+00 0.  1.
</event>
<event>
 5    1  0.1059945E-009  0.9118800E+02  0.7815553E-02  0.1125453E+00
         25   -1    0    0    0    0  0.00000000000E+00  0.00000000000E+00  0.99999998245E-14  0.12509000000E+03  0.12509000000E+03 0.  0.
        -11    1    3    3    0    0 -0.21119834834E+02  0.36154749837E+02 -0.18792589238E+02  0.45895258685E+02  0.51100000000E-03 0. -1.
         23    2    1    0    0    0 -0.13252521614E+01 -0.13285116195E+02 -0.22118597478E+02  0.99254308409E+02  0.95832848115E+02 0.  0.
         11    1    3    3    0    0  0.19794582673E+02 -0.49439866032E+02 -0.33260082395E+01  0.53359049724E+02  0.51100000000E-03 0.  1.
         22    1    1    0    0    0  0.13252521614E+01  0.13285116195E+02  0.22118597478E+02  0.25835691591E+02  0.00000000000E+00 0.  1.
</event>
<event>
 5    1  0.1059945E-009  0.9118800E+02  0.7815553E-02  0.1125453E+00
         25   -1    0    0    0    0  0.00000000000E+00  0.00000000000E+00  0.99999998245E-14  0.12509000000E+03  0.12509000000E+03 0.  0.
        -11    1    3    3    0    0  0.39141749768E+02 -0.46994457353E+01  0.32022486773E+01  0.39552696014E+02  0.51100000000E-03 0.  1.
         23    2    1    0    0    0 -0.93604690052E+01 -0.26010858380E+02  0.14724808836E+02  0.93769030524E+02  0.88383414488E+02 0.  0.
         11    1    3    3    0    0 -0.48502218773E+02 -0.21311412644E+02  0.11522560159E+02  0.54216334510E+02  0.51100000000E-03 0. -1.
         22    1    1    0    0    0  0.93604690052E+01  0.26010858380E+02 -0.14724808836E+02  0.31320969476E+02  0.00000000000E+00 0. -1.
</event>
<event>
 5    1  0.1059945E-009  0.9118800E+02  0.7815553E-02  0.1125453E+00
         25   -1    0    0    0    0  0.00000000000E+00  0.00000000000E+00  0.99999998245E-14  0.12509000000E+03  0.12509000000E+03 0.  0.
        -11    1    3    3    0    0 -0.35033398063E+02  0.32553614220E+02  0.75220388748E+00  0.47829306806E+02  0.51100000000E-03 0.  1.
         23    2    1    0    0    0  0.10215838286E+02  0.25159079852E+02 -0.11975363810E+02  0.95412533982E+02  0.90679654011E+02 0.  0.
         11    1    3    3    0    0  0.45249236349E+02 -0.73945343683E+01 -0.12727567697E+02  0.47583227176E+02  0.51100000000E-03 0. -1.
         22    1    1    0    0    0 -0.10215838286E+02 -0.25159079852E+02  0.11975363810E+02  0.29677466018E+02  0.00000000000E+00 0. -1.
</event>
<event>
 5    1  0.1059945E-009  0.9118800E+02  0.7815553E-02  0.1125453E+00
         25   -1    0    0    0    0  0.00000000000E+00  0.00000000000E+00  0.99999998245E-14  0.12509000000E+03  0.12509000000E+03 0.  0.
        -11    1    3    3    0    0 -0.47359340750E+01  0.94962971780E+01  0.56722225700E+02  0.57706322186E+02  0.51100000000E-03 0. -1.
         23    2    1    0    0    0  0.14278044495E+02 -0.10926630641E+01  0.26771576631E+02  0.94729272365E+02  0.89732164024E+02 0.  0.
         11    1    3    3    0    0  0.19013978570E+02 -0.10588960242E+02 -0.29950649069E+02  0.37022950179E+02  0.51100000000E-03 0.  1.
         22    1    1    0    0    0 -0.14278044495E+02  0.10926630641E+01 -0.26771576631E+02  0.30360727635E+02  0.00000000000E+00 0.  1.
</event>
<event>
 5    1  0.1059945E-009  0.9118800E+02  0.7815553E-02  0.1125453E+00
         25   -1    0    0    0    0  0.00000000000E+00  0.00000000000E+00  0.99999998245E-14  0.12509000000E+03  0.12509000000E+03 0.  0.
        -11    1    3    3    0    0 -0.36823838932E+02 -0.31787513583E+02  0.38139530597E+01  0.48795362195E+02  0.51100000000E-03 0.  1.
         23    2    1    0    0    0 -0.87842221871E+01 -0.44195539611E+02  0.64493338227E+01  0.79570749262E+02  0.65264859997E+02 0.  0.
         11    1    3    3    0    0  0.28039616745E+02 -0.12408026028E+02  0.26353807630E+01  0.30775387068E+02  0.51100000000E-03 0. -1.
         22    1    1    0    0    0  0.87842221871E+01  0.44195539611E+02 -0.64493338227E+01  0.45519250738E+02  0.00000000000E+00 0. -1.
</event>
<event>
 5    1  0.1059945E-009  0.9118800E+02  0.7815553E-02  0.1125453E+00
         25   -1    0    0    0    0  0.00000000000E+00  0.00000000000E+00  0.99999998245E-14  0.12509000000E+03  0.12509000000E+03 0.  0.
        -11    1    3    3    0    0  0.24917724162E+02 -0.26721554291E+02 -0.11939449642E+02  0.38438065757E+02  0.51100000000E-03 0. -1.
         23    2    1    0    0    0 -0.27282591748E+02 -0.32027671623E+01 -0.10414139208E+02  0.95712256291E+02  0.91092174082E+02 0.  0.
         11    1    3    3    0    0 -0.52200315910E+02  0.23518787129E+02  0.15253104337E+01  0.57274190534E+02  0.51100000000E-03 0.  1.
         22    1    1    0    0    0  0.27282591748E+02  0.32027671623E+01  0.10414139208E+02  0.29377743709E+02  0.00000000000E+00 0.  1.
</event>
<event>
 5    1  0.1059945E-009  0.9118800E+02  0.7815553E-02  0.1125453E+00
         25   -1    0    0    0    0  0.00000000000E+00  0.00000000000E+00  0.99999998245E-14  0.12509000000E+03  0.12509000000E+03 0.  0.
        -11    1    3    3    0    0  0.14676127610E+01  0.35375433351E+02 -0.34555778457E+02  0.49474003244E+02  0.51100000000E-03 0.  1.
         23    2    1    0    0    0 -0.21125814055E+02  0.14585117645E+02  0.43677250400E+01  0.99049594891E+02  0.95565263301E+02 0.  0.
         11    1    3    3    0    0 -0.22593426816E+02 -0.20790315706E+02  0.38923503497E+02  0.49575591647E+02  0.51100000000E-03 0. -1.
         22    1    1    0    0    0  0.21125814055E+02 -0.14585117645E+02 -0.43677250400E+01  0.26040405109E+02  0.00000000000E+00 0. -1.
</event>
<event>
 5    1  0.1059945E-009  0.9118800E+02  0.7815553E-02  0.1125453E+00
         25   -1    0    0    0    0  0.00000000000E+00  0.00000000000E+00  0.99999998245E-14  0.12509000000E+03  0.12509000000E+03 0.  0.
        -11    1    3    3    0    0 -0.40916384822E+02  0.28541264286E+02  0.20895910449E+02  0.54086905879E+02  0.51100000000E-03 0.  1.
         23    2    1    0    0    0 -0.14234077055E+02  0.32811409344E+02 -0.16600243675E+01  0.89285625774E+02  0.81792235305E+02 0.  0.
         11    1    3    3    0    0  0.26682307766E+02  0.42701450589E+01 -0.22555934816E+02  0.35198719895E+02  0.51100000000E-03 0. -1.
         22    1    1    0    0    0  0.14234077055E+02 -0.32811409344E+02  0.16600243675E+01  0.35804374226E+02  0.00000000000E+00 0.  1.
</event>
<event>
 5    1  0.1059945E-009  0.9118800E+02  0.7815553E-02  0.1125453E+00
         25   -1    0    0    0    0  0.00000000000E+00  0.00000000000E+00  0.99999998245E-14  0.12509000000E+03  0.12509000000E+03 0.  0.
        -11    1    3    3    0    0  0.45453467030E+02 -0.19613429910E+01 -0.71197540765E+01  0.46049488919E+02  0.51100000000E-03 0.  1.
         23    2    1    0    0    0  0.18463241128E+02 -0.31718070086E+02  0.50910922130E+01  0.88038057233E+02  0.79861461660E+02 0.  0.
         11    1    3    3    0    0 -0.26990225902E+02 -0.29756727095E+02  0.12210846290E+02  0.41988568313E+02  0.51100000000E-03 0. -1.
         22    1    1    0    0    0 -0.18463241128E+02  0.31718070086E+02 -0.50910922130E+01  0.37051942767E+02  0.00000000000E+00 0.  1.
</event>
<event>
 5    1  0.1059945E-009  0.9118800E+02  0.7815553E-02  0.1125453E+00
         25   -1    0    0    0    0  0.00000000000E+00  0.00000000000E+00  0.99999998245E-14  0.12509000000E+03  0.12509000000E+03 0.  0.
        -11    1    3    3    0    0 -0.44496337898E+01 -0.55230603214E+02  0.28656519481E+02  0.62381206155E+02  0.51100000000E-03 0. -1.
         23    2    1    0    0    0 -0.51438533548E+01 -0.25711904007E+02  0.12455728691E+02  0.96060594009E+02  0.91569270550E+02 0.  0.
         11    1    3    3    0    0 -0.69421956504E+00  0.29518699208E+02 -0.16200790790E+02  0.33679387854E+02  0.51100000000E-03 0.  1.
         22    1    1    0    0    0  0.51438533548E+01  0.25711904007E+02 -0.12455728691E+02  0.29029405991E+02  0.00000000000E+00 0. -1.
</event>
<event>
 5    1  0.1059945E-009  0.9118800E+02  0.7815553E-02  0.1125453E+00
         25   -1    0    0    0    0  0.00000000000E+00  0.00000000000E+00  0.99999998245E-14  0.12509000000E+03  0.12509000000E+03 0.  0.
        -11    1    3    3    0    0  0.27994585977E+01 -0.69583341063E+01  0.31317954580E+02  0.32203565972E+02  0.51100000000E-03 0. -1.
         23    2    1    0    0    0 -0.17739192915E+02 -0.17664615452E+01 -0.26144161076E+02  0.93446414393E+02  0.87925626827E+02 0.  0.
         11    1    3    3    0    0 -0.20538651513E+02  0.51918725611E+01 -0.57462115657E+02  0.61242848421E+02  0.51100000000E-03 0.  1.
         22    1    1    0    0    0  0.17739192915E+02  0.17664615452E+01  0.26144161076E+02  0.31643585607E+02  0.00000000000E+00 0.  1.
</event>
<event>
 5    1  0.1059945E-009  0.9118800E+02  0.7815553E-02  0.1125453E+00
         25   -1    0    0    0    0  0.00000000000E+00  0.00000000000E+00  0.99999998245E-14  0.12509000000E+03  0.12509000000E+03 0.  0.
        -11    1    3    3    0    0  0.34919669519E+02  0.12878295437E+02 -0.23767119415E+02  0.44160047308E+02  0.51100000000E-03 0.  1.
         23    2    1    0    0    0 -0.12459359738E+02  0.25417818529E+02 -0.73936434886E+01  0.95833084444E+02  0.91257947414E+02 0.  0.
         11    1    3    3    0    0 -0.47379029257E+02  0.12539523092E+02  0.16373475927E+02  0.51673037136E+02  0.51100000000E-03 0. -1.
         22    1    1    0    0    0  0.12459359738E+02 -0.25417818529E+02  0.73936434886E+01  0.29256915556E+02  0.00000000000E+00 0. -1.
</event>
<event>
 5    1  0.1059945E-009  0.9118800E+02  0.7815553E-02  0.1125453E+00
         25   -1    0    0    0    0  0.00000000000E+00  0.00000000000E+00  0.99999998245E-14  0.12509000000E+03  0.12509000000E+03 0.  0.
        -11    1    3    3    0    0 -0.14158010760E+02 -0.34146121937E+02  0.63588131495E+01  0.37507884730E+02  0.51100000000E-03 0.  1.
         23    2    1    0    0    0 -0.89108848019E+01  0.11338167676E+02 -0.27219193654E+02  0.94286714179E+02  0.89113085758E+02 0.  0.
         11    1    3    3    0    0  0.52471259584E+01  0.45484289613E+02 -0.33578006803E+02  0.56778829449E+02  0.51100000000E-03 0. -1.
         22    1    1    0    0    0  0.89108848019E+01 -0.11338167676E+02  0.27219193654E+02  0.30803285821E+02  0.00000000000E+00 0. -1.
</event>
<event>
 5    1  0.1059945E-009  0.9118800E+02  0.7815553E-02  0.1125453E+00
         25   -1    0    0    0    0  0.00000000000E+00  0.00000000000E+00  0.99999998245E-14  0.12509000000E+03  0.12509000000E+03 0.  0.
        -11    1    3    3    0    0  0.12623277236E+02  0.48437769125E+01  0.37054298041E+02  0.39444014838E+02  0.51100000000E-03 0. -1.
         23    2    1    0    0    0  0.13322433193E+02  0.20656483763E+02 -0.16629846224E+02  0.95412915691E+02  0.90680180567E+02 0.  0.
         11    1    3    3    0    0  0.69915595721E+00  0.15812706851E+02 -0.53684144265E+02  0.55968900853E+02  0.51100000000E-03 0.  1.
         22    1    1    0    0    0 -0.13322433193E+02 -0.20656483763E+02  0.16629846224E+02  0.29677084309E+02  0.00000000000E+00 0.  1.
</event>
<event>
 5    1  0.1059945E-009  0.9118800E+02  0.7815553E-02  0.1125453E+00
         25   -1    0    0    0    0  0.00000000000E+00  0.00000000000E+00  0.99999998245E-14  0.12509000000E+03  0.12509000000E+03 0.  0.
        -11    1    3    3    0    0  0.39867718925E+02  0.34048143898E+02  0.23753979537E+02  0.57558341352E+02  0.51100000000E-03 0.  1.
         23    2    1    0    0    0  0.17625691806E+02  0.25276473317E+02 -0.38024058695E+01  0.94041273691E+02  0.88767886942E+02 0.  0.
         11    1    3    3    0    0 -0.22242027119E+02 -0.87716705810E+01 -0.27556385406E+02  0.36482932339E+02  0.51100000000E-03 0. -1.
         22    1    1    0    0    0 -0.17625691806E+02 -0.25276473317E+02  0.38024058695E+01  0.31048726309E+02  0.00000000000E+00 0.  1.
</event>
<event>
 5    1  0.1059945E-009  0.9118800E+02  0.7815553E-02  0.1125453E+00
         25   -1    0    0    0    0  0.00000000000E+00  0.00000000000E+00  0.99999998245E-14  0.12509000000E+03  0.12509000000E+03 0.  0.
        -11    1    3    3    0    0 -0.31009803177E+02 -0.21316422650E+02  0.45897524461E+02  0.59351331237E+02  0.51100000000E-03 0. -1.
         23    2    1    0    0    0 -0.13277224971E+02  0.36833339687E+01  0.50596538199E+01  0.11041172528E+03  0.10943170167E+03 0.  0.
         11    1    3    3    0    0  0.17732578206E+02  0.24999756619E+02 -0.40837870641E+02  0.51060394041E+02  0.51100000000E-03 0.  1.
         22    1    1    0    0    0  0.13277224971E+02 -0.36833339687E+01 -0.50596538199E+01  0.14678274723E+02  0.00000000000E+00 0. -1.
</event>
<event>
 4    1  0.1059945E-009  0.9118800E+02  0.7815553E-02  0.1125453E+00
         25   -1    0    0    0    0  0.00000000000E+00  0.00000000000E+00  0.99999998245E-14  0.12509000000E+03  0.12509000000E+03 0.  0.
        -11    1    1    0    0    0  0.29588834519E+01 -0.50094931837E+02  0.93043168986E+01  0.51037510718E+02  0.51100000000E-03 0. -1.
         11    1    1    0    0    0  0.50471930146E+01 -0.10728390668E+02 -0.38353095275E+01  0.12461224783E+02  0.51100000000E-03 0.  1.
         22    1    1    0    0    0 -0.80060764665E+01  0.60823322505E+02 -0.54690073712E+01  0.61591264499E+02  0.00000000000E+00 0. -1.
</event>
<event>
 5    1  0.1059945E-009  0.9118800E+02  0.7815553E-02  0.1125453E+00
         25   -1    0    0    0    0  0.00000000000E+00  0.00000000000E+00  0.99999998245E-14  0.12509000000E+03  0.12509000000E+03 0.  0.
        -11    1    3    3    0    0  0.35070766696E+02  0.12084554721E+02  0.67785718360E+01  0.37708675074E+02  0.51100000000E-03 0. -1.
         23    2    1    0    0    0 -0.23697715466E+02  0.14598688677E+02  0.63910292017E+01  0.96532186995E+02  0.92211249001E+02 0.  0.
         11    1    3    3    0    0 -0.58768482162E+02  0.25141339563E+01 -0.38754263428E+00  0.58823511921E+02  0.51100000000E-03 0.  1.
         22    1    1    0    0    0  0.23697715466E+02 -0.14598688677E+02 -0.63910292017E+01  0.28557813005E+02  0.00000000000E+00 0.  1.
</event>
<event>
 5    1  0.1059945E-009  0.9118800E+02  0.7815553E-02  0.1125453E+00
         25   -1    0    0    0    0  0.00000000000E+00  0.00000000000E+00  0.99999998245E-14  0.12509000000E+03  0.12509000000E+03 0.  0.
        -11    1    3    3    0    0 -0.15249855749E+02 -0.40284991651E+02 -0.39152367681E+02  0.58209505650E+02  0.51100000000E-03 0. -1.
         23    2    1    0    0    0  0.93472685001E+01 -0.20867124264E+02 -0.17406013728E+02  0.96353653375E+02  0.91968738718E+02 0.  0.
         11    1    3    3    0    0  0.24597124249E+02  0.19417867387E+02  0.21746353954E+02  0.38144147726E+02  0.51100000000E-03 0.  1.
         22    1    1    0    0    0 -0.93472685001E+01  0.20867124264E+02  0.17406013728E+02  0.28736346625E+02  0.00000000000E+00 0. -1.
</event>
<event>
 5    1  0.1059945E-009  0.9118800E+02  0.7815553E-02  0.1125453E+00
         25   -1    0    0    0    0  0.00000000000E+00  0.00000000000E+00  0.99999998245E-14  0.12509000000E+03  0.12509000000E+03 0.  0.
        -11    1    3    3    0    0 -0.25039319730E+02 -0.43501492948E+02 -0.36607873061E+02  0.62124743795E+02  0.51100000000E-03 0.  1.
         23    2    1    0    0    0 -0.10098316541E+02 -0.17452943678E+02 -0.21033543721E+02  0.95952546414E+02  0.91421550861E+02 0.  0.
         11    1    3    3    0    0  0.14941003189E+02  0.26048549270E+02  0.15574329340E+02  0.33827802619E+02  0.51100000000E-03 0. -1.
         22    1    1    0    0    0  0.10098316541E+02  0.17452943678E+02  0.21033543721E+02  0.29137453586E+02  0.00000000000E+00 0.  1.
</event>
<event>
 5    1  0.1059945E-009  0.9118800E+02  0.7815553E-02  0.1125453E+00
         25   -1    0    0    0    0  0.00000000000E+00  0.00000000000E+00  0.99999998245E-14  0.12509000000E+03  0.12509000000E+03 0.  0.
        -11    1    3    3    0    0  0.35501020429E+01 -0.34899695807E+02  0.19802392868E+02  0.40283082745E+02  0.51100000000E-03 0. -1.
         23    2    1    0    0    0 -0.31147201504E+02  0.75038550170E+00 -0.28307709890E+00  0.93932474865E+02  0.88614437095E+02 0.  0.
         11    1    3    3    0    0 -0.34697303547E+02  0.35650081308E+02 -0.20085469967E+02  0.53649392119E+02  0.51100000000E-03 0.  1.
         22    1    1    0    0    0  0.31147201504E+02 -0.75038550170E+00  0.28307709890E+00  0.31157525135E+02  0.00000000000E+00 0.  1.
</event>
<event>
 5    1  0.1059945E-009  0.9118800E+02  0.7815553E-02  0.1125453E+00
         25   -1    0    0    0    0  0.00000000000E+00  0.00000000000E+00  0.99999998245E-14  0.12509000000E+03  0.12509000000E+03 0.  0.
        -11    1    3    3    0    0  0.13349769403E+02  0.37241000306E+02 -0.16985564345E+02  0.43053662368E+02  0.51100000000E-03 0. -1.
         23    2    1    0    0    0 -0.27292963127E+02  0.10413997146E+02  0.30634566988E+01  0.95717530922E+02  0.91099417046E+02 0.  0.
         11    1    3    3    0    0 -0.40642732530E+02 -0.26827003160E+02  0.20049021044E+02  0.52663868554E+02  0.51100000000E-03 0.  1.
         22    1    1    0    0    0  0.27292963127E+02 -0.10413997146E+02 -0.30634566988E+01  0.29372469078E+02  0.00000000000E+00 0.  1.
</event>
<event>
 5    1  0.1059945E-009  0.9118800E+02  0.7815553E-02  0.1125453E+00
         25   -1    0    0    0    0  0.00000000000E+00  0.00000000000E+00  0.99999998245E-14  0.12509000000E+03  0.12509000000E+03 0.  0.
        -11    1    3    3    0    0  0.14312523674E+02  0.40741367934E+02 -0.17358494167E+02  0.46540570635E+02  0.51100000000E-03 0.  1.
         23    2    1    0    0    0 -0.21346988263E+02  0.66563691493E+01 -0.18778097153E+02  0.95890375159E+02  0.91336443753E+02 0.  0.
         11    1    3    3    0    0 -0.35659511937E+02 -0.34084998784E+02 -0.14196029852E+01  0.49349804524E+02  0.51100000000E-03 0. -1.
         22    1    1    0    0    0  0.21346988263E+02 -0.66563691493E+01  0.18778097153E+02  0.29199624841E+02  0.00000000000E+00 0. -1.
</event>
<event>
 5    1  0.1059945E-009  0.9118800E+02  0.7815553E-02  0.1125453E+00
         25   -1    0    0    0    0  0.00000000000E+00  0.00000000000E+00  0.99999998245E-14  0.12509000000E+03  0.12509000000E+03 0.  0.
        -11    1    3    3    0    0 -0.97815050578E+01  0.28861451478E+02  0.20029327031E+02  0.36466905054E+02  0.51100000000E-03 0. -1.
         23    2    1    0    0    0  0.14519482993E+02 -0.64672077178E+00 -0.25391665207E+02  0.95833029956E+02  0.91257872726E+02 0.  0.
         11    1    3    3    0    0  0.24300988051E+02 -0.29508172250E+02 -0.45420992238E+02  0.59366124903E+02  0.51100000000E-03 0.  1.
         22    1    1    0    0    0 -0.14519482993E+02  0.64672077178E+00  0.25391665207E+02  0.29256970044E+02  0.00000000000E+00 0.  1.
</event>
<event>
 5    1  0.1059945E-009  0.9118800E+02  0.7815553E-02  0.1125453E+00
         25   -1    0    0    0    0  0.00000000000E+00  0.00000000000E+00  0.99999998245E-14  0.12509000000E+03  0.12509000000E+03 0.  0.
        -11    1    3    3    0    0 -0.15378166873E+02  0.73698306834E+01 -0.58704841558E+02  0.61131504507E+02  0.51100000000E-03 0. -1.
         23    2    1    0    0    0 -0.81839472158E+01 -0.58721787231E+01 -0.27955817318E+02  0.95374899514E+02  0.90627723464E+02 0.  0.
         11    1    3    3    0    0  0.71942196573E+01 -0.13242009407E+02  0.30749024240E+02  0.34243395007E+02  0.51100000000E-03 0.  1.
         22    1    1    0    0    0  0.81839472158E+01  0.58721787231E+01  0.27955817318E+02  0.29715100486E+02  0.00000000000E+00 0. -1.
</event>
<event>
 5    1  0.1059945E-009  0.9118800E+02  0.7815553E-02  0.1125453E+00
         25   -1    0    0    0    0  0.00000000000E+00  0.00000000000E+00  0.99999998245E-14  0.12509000000E+03  0.12509000000E+03 0.  0.
        -11    1    3    3    0    0  0.41784232720E+02  0.56682002540E-01 -0.32013078551E+01  0.41906726060E+02  0.51100000000E-03 0.  1.
         23    2    1    0    0    0 -0.15670291158E+01 -0.11418160427E+02 -0.29168853288E+02  0.93726773605E+02  0.88323587566E+02 0.  0.
         11    1    3    3    0    0 -0.43351261835E+02 -0.11474842430E+02 -0.25967545433E+02  0.51820047545E+02  0.51100000000E-03 0. -1.
         22    1    1    0    0    0  0.15670291158E+01  0.11418160427E+02  0.29168853288E+02  0.31363226395E+02  0.00000000000E+00 0. -1.
</event>
<event>
 5    1  0.1059945E-009  0.9118800E+02  0.7815553E-02  0.1125453E+00
         25   -1    0    0    0    0  0.00000000000E+00  0.00000000000E+00  0.99999998245E-14  0.12509000000E+03  0.12509000000E+03 0.  0.
        -11    1    3    3    0    0  0.31073280034E+02 -0.17770323102E+02  0.51159459762E+01  0.36159452688E+02  0.51100000000E-03 0.  1.
         23    2    1    0    0    0 -0.91012527498E+01  0.27054919865E+02  0.29651156403E+01  0.96391682954E+02  0.92020449583E+02 0.  0.
         11    1    3    3    0    0 -0.40174532784E+02  0.44825242967E+02 -0.21508303359E+01  0.60232230266E+02  0.51100000000E-03 0. -1.
         22    1    1    0    0    0  0.91012527498E+01 -0.27054919865E+02 -0.29651156403E+01  0.28698317046E+02  0.00000000000E+00 0. -1.
</event>
<event>
 5    1  0.1059945E-009  0.9118800E+02  0.7815553E-02  0.1125453E+00
         25   -1    0    0    0    0  0.00000000000E+00  0.00000000000E+00  0.99999998245E-14  0.12509000000E+03  0.12509000000E+03 0.  0.
        -11    1    3    3    0    0  0.18386338909E+02 -0.37595003136E+02  0.95873543333E+01  0.42934357834E+02  0.51100000000E-03 0.  1.
         23    2    1    0    0    0  0.25884919965E+02  0.13376024310E+02  0.94661587365E+01  0.94454150588E+02  0.89347810797E+02 0.  0.
         11    1    3    3    0    0  0.74985810567E+01  0.50971027446E+02 -0.12119559688E+00  0.51519792754E+02  0.51100000000E-03 0. -1.
         22    1    1    0    0    0 -0.25884919965E+02 -0.13376024310E+02 -0.94661587365E+01  0.30635849412E+02  0.00000000000E+00 0. -1.
</event>
<event>
 5    1  0.1059945E-009  0.9118800E+02  0.7815553E-02  0.1125453E+00
         25   -1    0    0    0    0  0.00000000000E+00  0.00000000000E+00  0.99999998245E-14  0.12509000000E+03  0.12509000000E+03 0.  0.
        -11    1    3    3    0    0  0.52956228666E+02 -0.67988433663E+01  0.26246350534E+02  0.59493338638E+02  0.51100000000E-03 0. -1.
         23    2    1    0    0    0  0.18275353057E+02 -0.63492823355E+01  0.24018531149E+02  0.94248603240E+02  0.89059572526E+02 0.  0.
         11    1    3    3    0    0 -0.34680875609E+02  0.44956103082E+00 -0.22278193843E+01  0.34755264602E+02  0.51100000000E-03 0.  1.
         22    1    1    0    0    0 -0.18275353057E+02  0.63492823355E+01 -0.24018531149E+02  0.30841396760E+02  0.00000000000E+00 0. -1.
</event>
<event>
 5    1  0.1059945E-009  0.9118800E+02  0.7815553E-02  0.1125453E+00
         25   -1    0    0    0    0  0.00000000000E+00  0.00000000000E+00  0.99999998245E-14  0.12509000000E+03  0.12509000000E+03 0.  0.
        -11    1    3    3    0    0  0.33558588828E+02  0.48100573185E+01 -0.36753116466E+02  0.50001071046E+02  0.51100000000E-03 0. -1.
         23    2    1    0    0    0  0.27295696608E+02  0.60122914858E+01  0.86361739529E+01  0.95836176271E+02  0.91262185376E+02 0.  0.
         11    1    3    3    0    0 -0.62628922201E+01  0.12022341673E+01  0.45389290419E+02  0.45835105225E+02  0.51100000000E-03 0.  1.
         22    1    1    0    0    0 -0.27295696608E+02 -0.60122914858E+01 -0.86361739529E+01  0.29253823729E+02  0.00000000000E+00 0.  1.
</event>
<event>
 5    1  0.1059945E-009  0.9118800E+02  0.7815553E-02  0.1125453E+00
         25   -1    0    0    0    0  0.00000000000E+00  0.00000000000E+00  0.99999998245E-14  0.12509000000E+03  0.12509000000E+03 0.  0.
        -11    1    3    3    0    0  0.25242878524E+02  0.93440062959E+01  0.44863735042E+02  0.52318907596E+02  0.51100000000E-03 0.  1.
         23    2    1    0    0    0  0.25097800712E+02 -0.13847072761E+02  0.89664298412E+01  0.95056054393E+02  0.90186559908E+02 0.  0.
         11    1    3    3    0    0 -0.14507781252E+00 -0.23191079057E+02 -0.35897305201E+02  0.42737146797E+02  0.51100000000E-03 0. -1.
         22    1    1    0    0    0 -0.25097800712E+02  0.13847072761E+02 -0.89664298412E+01  0.30033945607E+02  0.00000000000E+00 0.  1.
</event>
<event>
 5    1  0.1059945E-009  0.9118800E+02  0.7815553E-02  0.1125453E+00
         25   -1    0    0    0    0  0.00000000000E+00  0.00000000000E+00  0.99999998245E-14  0.12509000000E+03  0.12509000000E+03 0.  0.
        -11    1    3    3    0    0  0.38665349787E+01  0.13801706361E+02 -0.33716752615E+02  0.36636820255E+02  0.51100000000E-03 0. -1.
         23    2    1    0    0    0  0.89487388875E+01 -0.15318970373E+02  0.20248948638E+02  0.98168434260E+02  0.94404823940E+02 0.  0.
         11    1    3    3    0    0  0.50822039088E+01 -0.29120676734E+02  0.53965701253E+02  0.61531614005E+02  0.51100000000E-03 0.  1.
         22    1    1    0    0    0 -0.89487388875E+01  0.15318970373E+02 -0.20248948638E+02  0.26921565740E+02  0.00000000000E+00 0.  1.
</event>
<event>
 5    1  0.1059945E-009  0.9118800E+02  0.7815553E-02  0.1125453E+00
         25   -1    0    0    0    0  0.00000000000E+00  0.00000000000E+00  0.99999998245E-14  0.12509000000E+03  0.12509000000E+03 0.  0.
        -11    1    3    3    0    0  0.24646145588E+02 -0.17435315439E+02 -0.25815409898E+02  0.39722262087E+02  0.51100000000E-03 0. -1.
         23    2    1    0    0    0  0.82641597763E+00 -0.45562056275E+01  0.26264076747E+02  0.98420847399E+02  0.94738690630E+02 0.  0.
         11    1    3    3    0    0 -0.23819729611E+02  0.12879109812E+02  0.52079486645E+02  0.58698585313E+02  0.51100000000E-03 0.  1.
         22    1    1    0    0    0 -0.82641597763E+00  0.45562056275E+01 -0.26264076747E+02  0.26669152601E+02  0.00000000000E+00 0.  1.
</event>
<event>
 5    1  0.1059945E-009  0.9118800E+02  0.7815553E-02  0.1125453E+00
         25   -1    0    0    0    0  0.00000000000E+00  0.00000000000E+00  0.99999998245E-14  0.12509000000E+03  0.12509000000E+03 0.  0.
        -11    1    3    3    0    0 -0.15193140458E+02  0.28976908068E+02 -0.84386741486E+01  0.33789109781E+02  0.51100000000E-03 0.  1.
         23    2    1    0    0    0  0.17168827537E+02 -0.17075908235E+02  0.16945703191E+02  0.95534761248E+02  0.90848106579E+02 0.  0.
         11    1    3    3    0    0  0.32361967995E+02 -0.46052816303E+02  0.25384377340E+02  0.61745651467E+02  0.51100000000E-03 0. -1.
         22    1    1    0    0    0 -0.17168827537E+02  0.17075908235E+02 -0.16945703191E+02  0.29555238752E+02  0.00000000000E+00 0. -1.
</event>
<event>
 5    1  0.1059945E-009  0.9118800E+02  0.7815553E-02  0.1125453E+00
         25   -1    0    0    0    0  0.00000000000E+00  0.00000000000E+00  0.99999998245E-14  0.12509000000E+03  0.12509000000E+03 0.  0.
        -11    1    3    3    0    0 -0.42656851936E+02  0.31784393076E+02 -0.32368404902E+02  0.62270123626E+02  0.51100000000E-03 0. -1.
         23    2    1    0    0    0 -0.22033959511E+02  0.11511008633E+02 -0.16445897920E+02  0.95282849014E+02  0.90500580475E+02 0.  0.
         11    1    3    3    0    0  0.20622892424E+02 -0.20273384443E+02  0.15922506981E+02  0.33012725388E+02  0.51100000000E-03 0.  1.
         22    1    1    0    0    0  0.22033959511E+02 -0.11511008633E+02  0.16445897920E+02  0.29807150986E+02  0.00000000000E+00 0. -1.
</event>
<event>
 5    1  0.1059945E-009  0.9118800E+02  0.7815553E-02  0.1125453E+00
         25   -1    0    0    0    0  0.00000000000E+00  0.00000000000E+00  0.99999998245E-14  0.12509000000E+03  0.12509000000E+03 0.  0.
        -11    1    3    3    0    0  0.64392801564E+01  0.25867938863E+02 -0.30917893101E+02  0.40823163817E+02  0.51100000000E-03 0.  1.
         23    2    1    0    0    0  0.39923824863E+02  0.18289315407E+02 -0.19885610263E+02  0.76883689778E+02  0.59893684213E+02 0.  0.
         11    1    3    3    0    0  0.33484544706E+02 -0.75786234561E+01  0.11032282839E+02  0.36060525961E+02  0.51100000000E-03 0. -1.
         22    1    1    0    0    0 -0.39923824863E+02 -0.18289315407E+02  0.19885610263E+02  0.48206310222E+02  0.00000000000E+00 0.  1.
</event>
<event>
 5    1  0.1059945E-009  0.9118800E+02  0.7815553E-02  0.1125453E+00
         25   -1    0    0    0    0  0.00000000000E+00  0.00000000000E+00  0.99999998245E-14  0.12509000000E+03  0.12509000000E+03 0.  0.
        -11    1    3    3    0    0  0.30103447069E+02 -0.25759712484E+02 -0.11045633631E+01  0.39635847073E+02  0.51100000000E-03 0. -1.
         23    2    1    0    0    0  0.41878171277E+01  0.18740406898E+02 -0.22595763172E+02  0.95436852169E+02  0.90713194055E+02 0.  0.
         11    1    3    3    0    0 -0.25915629942E+02  0.44500119381E+02 -0.21491199809E+02  0.55801005096E+02  0.51100000000E-03 0.  1.
         22    1    1    0    0    0 -0.41878171277E+01 -0.18740406898E+02  0.22595763172E+02  0.29653147831E+02  0.00000000000E+00 0.  1.
</event>
<event>
 5    1  0.1059945E-009  0.9118800E+02  0.7815553E-02  0.1125453E+00
         25   -1    0    0    0    0  0.00000000000E+00  0.00000000000E+00  0.99999998245E-14  0.12509000000E+03  0.12509000000E+03 0.  0.
        -11    1    3    3    0    0  0.74495516635E+01 -0.56542837707E+02 -0.23586495430E+01  0.57080220251E+02  0.51100000000E-03 0.  1.
         23    2    1    0    0    0  0.17385795209E+02 -0.19965445571E+02  0.97609449673E+01  0.96873676026E+02  0.92673341195E+02 0.  0.
         11    1    3    3    0    0  0.99362435459E+01  0.36577392135E+02  0.12119594510E+02  0.39793455776E+02  0.51100000000E-03 0. -1.
         22    1    1    0    0    0 -0.17385795209E+02  0.19965445571E+02 -0.97609449673E+01  0.28216323974E+02  0.00000000000E+00 0.  1.
</event>
<event>
 5    1  0.1059945E-009  0.9118800E+02  0.7815553E-02  0.1125453E+00
         25   -1    0    0    0    0  0.00000000000E+00  0.00000000000E+00  0.99999998245E-14  0.12509000000E+03  0.12509000000E+03 0.  0.
        -11    1    3    3    0    0 -0.31732914741E+02  0.34794923486E+02  0.10895780782E+02  0.48336141938E+02  0.51100000000E-03 0.  1.
         23    2    1    0    0    0 -0.19443508062E+02 -0.10948359932E+02  0.18242699583E+02  0.96267913347E+02  0.91852046582E+02 0.  0.
         11    1    3    3    0    0  0.12289406679E+02 -0.45743283417E+02  0.73469188001E+01  0.47931771409E+02  0.51100000000E-03 0. -1.
         22    1    1    0    0    0  0.19443508062E+02  0.10948359932E+02 -0.18242699583E+02  0.28822086653E+02  0.00000000000E+00 0. -1.
</event>
<event>
 5    1  0.1059945E-009  0.9118800E+02  0.7815553E-02  0.1125453E+00
         25   -1    0    0    0    0  0.00000000000E+00  0.00000000000E+00  0.99999998245E-14  0.12509000000E+03  0.12509000000E+03 0.  0.
        -11    1    3    3    0    0 -0.79586077990E+01 -0.32156496319E+02  0.10888215503E+02  0.34870229864E+02  0.51100000000E-03 0.  1.
         23    2    1    0    0    0  0.19261100174E+02  0.19594548400E+02 -0.82609873912E+01  0.96398882566E+02  0.92030236012E+02 0.  0.
         11    1    3    3    0    0  0.27219707973E+02  0.51751044719E+02 -0.19149202894E+02  0.61528652703E+02  0.51100000000E-03 0. -1.
         22    1    1    0    0    0 -0.19261100174E+02 -0.19594548400E+02  0.82609873912E+01  0.28691117434E+02  0.00000000000E+00 0. -1.
</event>
<event>
 5    1  0.1059945E-009  0.9118800E+02  0.7815553E-02  0.1125453E+00
         25   -1    0    0    0    0  0.00000000000E+00  0.00000000000E+00  0.99999998245E-14  0.12509000000E+03  0.12509000000E+03 0.  0.
        -11    1    3    3    0    0 -0.15315298215E+01 -0.45695939428E+02 -0.32178119035E+02  0.55909711220E+02  0.51100000000E-03 0.  1.
         23    2    1    0    0    0 -0.20969155971E+02 -0.20213592645E+02 -0.16927231074E+02  0.91402821703E+02  0.84968522605E+02 0.  0.
         11    1    3    3    0    0 -0.19437626149E+02  0.25482346784E+02  0.15250887961E+02  0.35493110483E+02  0.51100000000E-03 0. -1.
         22    1    1    0    0    0  0.20969155971E+02  0.20213592645E+02  0.16927231074E+02  0.33687178297E+02  0.00000000000E+00 0.  1.
</event>
<event>
 5    1  0.1059945E-009  0.9118800E+02  0.7815553E-02  0.1125453E+00
         25   -1    0    0    0    0  0.00000000000E+00  0.00000000000E+00  0.99999998245E-14  0.12509000000E+03  0.12509000000E+03 0.  0.
        -11    1    3    3    0    0  0.88148474915E+01  0.37872734299E+02 -0.18950400649E+02  0.43256944235E+02  0.51100000000E-03 0.  1.
         23    2    1    0    0    0  0.27560265963E+02 -0.90358923117E+01 -0.87847086657E+01  0.94785104089E+02  0.89809961814E+02 0.  0.
         11    1    3    3    0    0  0.18745418472E+02 -0.46908626610E+02  0.10165691983E+02  0.51528159854E+02  0.51100000000E-03 0. -1.
         22    1    1    0    0    0 -0.27560265963E+02  0.90358923117E+01  0.87847086657E+01  0.30304895911E+02  0.00000000000E+00 0. -1.
</event>
<event>
 5    1  0.1059945E-009  0.9118800E+02  0.7815553E-02  0.1125453E+00
         25   -1    0    0    0    0  0.00000000000E+00  0.00000000000E+00  0.99999998245E-14  0.12509000000E+03  0.12509000000E+03 0.  0.
        -11    1    3    3    0    0 -0.41220598588E+02  0.27192866480E+02  0.37073515078E+02  0.61749779399E+02  0.51100000000E-03 0. -1.
         23    2    1    0    0    0 -0.20893609080E+02  0.74357084239E+01  0.21986007598E+02  0.93861532374E+02  0.88514236535E+02 0.  0.
         11    1    3    3    0    0  0.20326989508E+02 -0.19757158056E+02 -0.15087507479E+02  0.32111752975E+02  0.51100000000E-03 0.  1.
         22    1    1    0    0    0  0.20893609080E+02 -0.74357084239E+01 -0.21986007598E+02  0.31228467626E+02  0.00000000000E+00 0. -1.
</event>
<event>
 5    1  0.1059945E-009  0.9118800E+02  0.7815553E-02  0.1125453E+00
         25   -1    0    0    0    0  0.00000000000E+00  0.00000000000E+00  0.99999998245E-14  0.12509000000E+03  0.12509000000E+03 0.  0.
        -11    1    3    3    0    0  0.27997813608E+02 -0.35392052392E+02  0.23757872725E+02  0.50999131915E+02  0.51100000000E-03 0.  1.
         23    2    1    0    0    0  0.12186157058E+02 -0.17039537815E+02 -0.16797458689E+02  0.98238502999E+02  0.94497622088E+02 0.  0.
         11    1    3    3    0    0 -0.15811656550E+02  0.18352514578E+02 -0.40555331413E+02  0.47239371085E+02  0.51100000000E-03 0. -1.
         22    1    1    0    0    0 -0.12186157058E+02  0.17039537815E+02  0.16797458689E+02  0.26851497001E+02  0.00000000000E+00 0.  1.
</event>
<event>
 5    1  0.1059945E-009  0.9118800E+02  0.7815553E-02  0.1125453E+00
         25   -1    0    0    0    0  0.00000000000E+00  0.00000000000E+00  0.99999998245E-14  0.12509000000E+03  0.12509000000E+03 0.  0.
        -11    1    3    3    0    0  0.36895865500E+02  0.43111312688E+02  0.75399793132E+01  0.57242828904E+02  0.51100000000E-03 0. -1.
         23    2    1    0    0    0  0.66187244040E+01  0.34143285601E+02  0.99606479722E+01  0.88912852898E+02  0.81220129513E+02 0.  0.
         11    1    3    3    0    0 -0.30277141096E+02 -0.89680270870E+01  0.24206686590E+01  0.31670023994E+02  0.51100000000E-03 0.  1.
         22    1    1    0    0    0 -0.66187244040E+01 -0.34143285601E+02 -0.99606479722E+01  0.36177147102E+02  0.00000000000E+00 0. -1.
</event>
<event>
 5    1  0.1059945E-009  0.9118800E+02  0.7815553E-02  0.1125453E+00
         25   -1    0    0    0    0  0.00000000000E+00  0.00000000000E+00  0.99999998245E-14  0.12509000000E+03  0.12509000000E+03 0.  0.
        -11    1    3    3    0    0  0.35150878443E+02  0.30424069613E+01  0.36427648938E+02  0.50713056533E+02  0.51100000000E-03 0. -1.
         23    2    1    0    0    0  0.27322342137E+02  0.89138868695E+01 -0.72307303255E+01  0.95454696391E+02  0.90737797213E+02 0.  0.
         11    1    3    3    0    0 -0.78285363065E+01  0.58714799082E+01 -0.43658379264E+02  0.44741639858E+02  0.51100000000E-03 0.  1.
         22    1    1    0    0    0 -0.27322342137E+02 -0.89138868695E+01  0.72307303255E+01  0.29635303609E+02  0.00000000000E+00 0. -1.
</event>
<event>
 5    1  0.1059945E-009  0.9118800E+02  0.7815553E-02  0.1125453E+00
         25   -1    0    0    0    0  0.00000000000E+00  0.00000000000E+00  0.99999998245E-14  0.12509000000E+03  0.12509000000E+03 0.  0.
        -11    1    3    3    0    0  0.37712694747E+02 -0.82131210840E+01 -0.45417330542E+02  0.59602320566E+02  0.51100000000E-03 0.  1.
         23    2    1    0    0    0  0.16865728583E+02  0.91828302187E+01 -0.12943310621E+02  0.10193170858E+03  0.99266141023E+02 0.  0.
         11    1    3    3    0    0 -0.20846966164E+02  0.17395951303E+02  0.32474019920E+02  0.42329388018E+02  0.51100000000E-03 0. -1.
         22    1    1    0    0    0 -0.16865728583E+02 -0.91828302187E+01  0.12943310621E+02  0.23158291416E+02  0.00000000000E+00 0.  1.
</event>
<event>
 5    1  0.1059945E-009  0.9118800E+02  0.7815553E-02  0.1125453E+00
         25   -1    0    0    0    0  0.00000000000E+00  0.00000000000E+00  0.99999998245E-14  0.12509000000E+03  0.12509000000E+03 0.  0.
        -11    1    3    3    0    0  0.22472819485E+02 -0.40184420590E+01  0.31925574668E+02  0.39248156776E+02  0.51100000000E-03 0.  1.
         23    2    1    0    0    0 -0.11464023572E+02 -0.25743714147E+02 -0.78173398746E+01  0.95844941319E+02  0.91274198541E+02 0.  0.
         11    1    3    3    0    0 -0.33936843057E+02 -0.21725272088E+02 -0.39742914543E+02  0.56596784543E+02  0.51100000000E-03 0. -1.
         22    1    1    0    0    0  0.11464023572E+02  0.25743714147E+02  0.78173398746E+01  0.29245058681E+02  0.00000000000E+00 0. -1.
</event>
<event>
 5    1  0.1059945E-009  0.9118800E+02  0.7815553E-02  0.1125453E+00
         25   -1    0    0    0    0  0.00000000000E+00  0.00000000000E+00  0.99999998245E-14  0.12509000000E+03  0.12509000000E+03 0.  0.
        -11    1    3    3    0    0 -0.16603045425E+02 -0.10791904961E+02  0.22107612243E+02  0.29679502176E+02  0.51100000000E-03 0.  1.
         23    2    1    0    0    0  0.11637784192E+02  0.31809157132E+02 -0.96714069191E+01  0.89865056989E+02  0.82673646693E+02 0.  0.
         11    1    3    3    0    0  0.28240829617E+02  0.42601062093E+02 -0.31779019162E+02  0.60185554812E+02  0.51100000000E-03 0. -1.
         22    1    1    0    0    0 -0.11637784192E+02 -0.31809157132E+02  0.96714069191E+01  0.35224943011E+02  0.00000000000E+00 0. -1.
</event>
<event>
 5    1  0.1059945E-009  0.9118800E+02  0.7815553E-02  0.1125453E+00
         25   -1    0    0    0    0  0.00000000000E+00  0.00000000000E+00  0.99999998245E-14  0.12509000000E+03  0.12509000000E+03 0.  0.
        -11    1    3    3    0    0  0.51744486065E+01 -0.34368050762E+02  0.12768598938E+02  0.37026678904E+02  0.51100000000E-03 0.  1.
         23    2    1    0    0    0  0.22285369635E+02  0.20063012935E+02  0.25064634000E+01  0.94999394380E+02  0.90107937420E+02 0.  0.
         11    1    3    3    0    0  0.17110921029E+02  0.54431063697E+02 -0.10262135538E+02  0.57972715476E+02  0.51100000000E-03 0. -1.
         22    1    1    0    0    0 -0.22285369635E+02 -0.20063012935E+02 -0.25064634000E+01  0.30090605620E+02  0.00000000000E+00 0. -1.
</event>
<event>
 5    1  0.1059945E-009  0.9118800E+02  0.7815553E-02  0.1125453E+00
         25   -1    0    0    0    0  0.00000000000E+00  0.00000000000E+00  0.99999998245E-14  0.12509000000E+03  0.12509000000E+03 0.  0.
        -11    1    3    3    0    0  0.97083244319E+01 -0.50804922819E+02 -0.25247155475E+02  0.57557020473E+02  0.51100000000E-03 0. -1.
         23    2    1    0    0    0  0.16464612471E+01 -0.30657296552E+02  0.41639414930E+01  0.94107439175E+02  0.88861077153E+02 0.  0.
         11    1    3    3    0    0 -0.80618631847E+01  0.20147626267E+02  0.29411096968E+02  0.36550418702E+02  0.51100000000E-03 0.  1.
         22    1    1    0    0    0 -0.16464612471E+01  0.30657296552E+02 -0.41639414930E+01  0.30982560825E+02  0.00000000000E+00 0. -1.
</event>
<event>
 5    1  0.1059945E-009  0.9118800E+02  0.7815553E-02  0.1125453E+00
         25   -1    0    0    0    0  0.00000000000E+00  0.00000000000E+00  0.99999998245E-14  0.12509000000E+03  0.12509000000E+03 0.  0.
        -11    1    3    3    0    0 -0.48664510246E+02  0.13165196748E+02 -0.87759564743E+00  0.50421494794E+02  0.51100000000E-03 0. -1.
         23    2    1    0    0    0 -0.18446422351E+02  0.17957509527E+02 -0.24864502370E+02  0.89299133511E+02  0.81812890927E+02 0.  0.
         11    1    3    3    0    0  0.30218087896E+02  0.47923127792E+01 -0.23986906722E+02  0.38877638717E+02  0.51100000000E-03 0.  1.
         22    1    1    0    0    0  0.18446422351E+02 -0.17957509527E+02  0.24864502370E+02  0.35790866489E+02  0.00000000000E+00 0.  1.
</event>
<event>
 5    1  0.1059945E-009  0.9118800E+02  0.7815553E-02  0.1125453E+00
         25   -1    0    0    0    0  0.00000000000E+00  0.00000000000E+00  0.99999998245E-14  0.12509000000E+03  0.12509000000E+03 0.  0.
        -11    1    3    3    0    0 -0.37140035834E+02 -0.24132864427E+02 -0.17048790671E+02  0.47459863788E+02  0.51100000000E-03 0.  1.
         23    2    1    0    0    0  0.71039885657E+01 -0.55255620352E+01 -0.27131270325E+02  0.96504963376E+02  0.92174311158E+02 0.  0.
         11    1    3    3    0    0  0.44244024400E+02  0.18607302392E+02 -0.10082479654E+02  0.49045099588E+02  0.51100000000E-03 0. -1.
         22    1    1    0    0    0 -0.71039885657E+01  0.55255620352E+01  0.27131270325E+02  0.28585036624E+02  0.00000000000E+00 0. -1.
</event>
<event>
 5    1  0.1059945E-009  0.9118800E+02  0.7815553E-02  0.1125453E+00
         25   -1    0    0    0    0  0.00000000000E+00  0.00000000000E+00  0.99999998245E-14  0.12509000000E+03  0.12509000000E+03 0.  0.
        -11    1    3    3    0    0 -0.29633500979E+02  0.16108014330E+02  0.10775418166E+02  0.35407938980E+02  0.51100000000E-03 0.  1.
         23    2    1    0    0    0  0.18934642641E+02 -0.13113486175E+02 -0.14926283179E+02  0.97644086987E+02  0.93707468124E+02 0.  0.
         11    1    3    3    0    0  0.48568143619E+02 -0.29221500505E+02 -0.25701701345E+02  0.62236148007E+02  0.51100000000E-03 0. -1.
         22    1    1    0    0    0 -0.18934642641E+02  0.13113486175E+02  0.14926283179E+02  0.27445913013E+02  0.00000000000E+00 0. -1.
</event>
<event>
 5    1  0.1059945E-009  0.9118800E+02  0.7815553E-02  0.1125453E+00
         25   -1    0    0    0    0  0.00000000000E+00  0.00000000000E+00  0.99999998245E-14  0.12509000000E+03  0.12509000000E+03 0.  0.
        -11    1    3    3    0    0  0.12066901311E+02 -0.27617346941E+02  0.23563380860E+02  0.38256514178E+02  0.51100000000E-03 0.  1.
         23    2    1    0    0    0  0.73473202567E+01  0.27346946559E+02  0.60727819043E+01  0.96129383965E+02  0.91663194252E+02 0.  0.
         11    1    3    3    0    0 -0.47195810539E+01  0.54964293500E+02 -0.17490598955E+02  0.57872869787E+02  0.51100000000E-03 0. -1.
         22    1    1    0    0    0 -0.73473202567E+01 -0.27346946559E+02 -0.60727819043E+01  0.28960616035E+02  0.00000000000E+00 0. -1.
</event>
<event>
 5    1  0.1059945E-009  0.9118800E+02  0.7815553E-02  0.1125453E+00
         25   -1    0    0    0    0  0.00000000000E+00  0.00000000000E+00  0.99999998245E-14  0.12509000000E+03  0.12509000000E+03 0.  0.
        -11    1    3    3    0    0 -0.61088921480E+02  0.62415197571E+01  0.12762580387E+01  0.61420206214E+02  0.51100000000E-03 0.  1.
         23    2    1    0    0    0 -0.27920909287E+02  0.10994211579E+02 -0.15241551194E+01  0.95043820335E+02  0.90169589504E+02 0.  0.
         11    1    3    3    0    0  0.33168012194E+02  0.47526918224E+01 -0.28004131581E+01  0.33623614121E+02  0.51100000000E-03 0. -1.
         22    1    1    0    0    0  0.27920909287E+02 -0.10994211579E+02  0.15241551194E+01  0.30046179665E+02  0.00000000000E+00 0.  1.
</event>
<event>
 5    1  0.1059945E-009  0.9118800E+02  0.7815553E-02  0.1125453E+00
         25   -1    0    0    0    0  0.00000000000E+00  0.00000000000E+00  0.99999998245E-14  0.12509000000E+03  0.12509000000E+03 0.  0.
        -11    1    3    3    0    0 -0.22614749616E+01 -0.35590333909E+02 -0.10494722460E+02  0.37174256368E+02  0.51100000000E-03 0.  1.
         23    2    1    0    0    0 -0.15211383789E+02  0.15560221531E+02  0.17737101275E+02  0.97016677209E+02  0.92866162860E+02 0.  0.
         11    1    3    3    0    0 -0.12949908827E+02  0.51150555440E+02  0.28231823735E+02  0.59842420841E+02  0.51100000000E-03 0. -1.
         22    1    1    0    0    0  0.15211383789E+02 -0.15560221531E+02 -0.17737101275E+02  0.28073322791E+02  0.00000000000E+00 0. -1.
</event>
<event>
 5    1  0.1059945E-009  0.9118800E+02  0.7815553E-02  0.1125453E+00
         25   -1    0    0    0    0  0.00000000000E+00  0.00000000000E+00  0.99999998245E-14  0.12509000000E+03  0.12509000000E+03 0.  0.
        -11    1    3    3    0    0 -0.22182631384E+02 -0.29993484281E+02  0.32681618019E+02  0.49596032009E+02  0.51100000000E-03 0.  1.
         23    2    1    0    0    0  0.16446398665E+02 -0.21846582968E+01  0.20480719218E+02  0.98732522492E+02  0.95149326729E+02 0.  0.
         11    1    3    3    0    0  0.38629030049E+02  0.27808825984E+02 -0.12200898801E+02  0.49136490483E+02  0.51100000000E-03 0. -1.
         22    1    1    0    0    0 -0.16446398665E+02  0.21846582968E+01 -0.20480719218E+02  0.26357477508E+02  0.00000000000E+00 0.  1.
</event>
<event>
 5    1  0.1059945E-009  0.9118800E+02  0.7815553E-02  0.1125453E+00
         25   -1    0    0    0    0  0.00000000000E+00  0.00000000000E+00  0.99999998245E-14  0.12509000000E+03  0.12509000000E+03 0.  0.
        -11    1    3    3    0    0  0.46739429631E+00 -0.53682034465E+02 -0.47843791047E+01  0.53896841887E+02  0.51100000000E-03 0.  1.
         23    2    1    0    0    0 -0.21349341727E+02 -0.19204772009E+02  0.52142770522E+01  0.95904278401E+02  0.91355482979E+02 0.  0.
         11    1    3    3    0    0 -0.21816736023E+02  0.34477262457E+02  0.99986561569E+01  0.42007436513E+02  0.51100000000E-03 0. -1.
         22    1    1    0    0    0  0.21349341727E+02  0.19204772009E+02 -0.52142770522E+01  0.29185721599E+02  0.00000000000E+00 0.  1.
</event>
<event>
 5    1  0.1059945E-009  0.9118800E+02  0.7815553E-02  0.1125453E+00
         25   -1    0    0    0    0  0.00000000000E+00  0.00000000000E+00  0.99999998245E-14  0.12509000000E+03  0.12509000000E+03 0.  0.
        -11    1    3    3    0    0 -0.34337789875E+02 -0.26549035362E+02 -0.79978253364E+01  0.44135023536E+02  0.51100000000E-03 0. -1.
         23    2    1    0    0    0 -0.10373885171E+02  0.73284025270E+01  0.24931599679E+02  0.97109513234E+02  0.92991128184E+02 0.  0.
         11    1    3    3    0    0  0.23963904705E+02  0.33877437889E+02  0.32929425015E+02  0.52974489697E+02  0.51100000000E-03 0.  1.
         22    1    1    0    0    0  0.10373885171E+02 -0.73284025270E+01 -0.24931599679E+02  0.27980486766E+02  0.00000000000E+00 0.  1.
</event>
<event>
 5    1  0.1059945E-009  0.9118800E+02  0.7815553E-02  0.1125453E+00
         25   -1    0    0    0    0  0.00000000000E+00  0.00000000000E+00  0.99999998245E-14  0.12509000000E+03  0.12509000000E+03 0.  0.
        -11    1    3    3    0    0  0.38436230923E+02  0.18298674148E+02  0.16535077714E+02  0.45668305403E+02  0.51100000000E-03 0.  1.
         23    2    1    0    0    0 -0.11631063809E+01  0.29961556090E+02 -0.84706579350E+01  0.93932341140E+02  0.88614248327E+02 0.  0.
         11    1    3    3    0    0 -0.39599337303E+02  0.11662881941E+02 -0.25005735649E+02  0.48264035737E+02  0.51100000000E-03 0. -1.
         22    1    1    0    0    0  0.11631063809E+01 -0.29961556090E+02  0.84706579350E+01  0.31157658860E+02  0.00000000000E+00 0.  1.
</event>
<event>
 5    1  0.1059945E-009  0.9118800E+02  0.7815553E-02  0.1125453E+00
         25   -1    0    0    0    0  0.00000000000E+00  0.00000000000E+00  0.99999998245E-14  0.12509000000E+03  0.12509000000E+03 0.  0.
        -11    1    3    3    0    0  0.92286568812E+01 -0.51411175403E+02  0.12733790608E+02  0.53762686760E+02  0.51100000000E-03 0.  1.
         23    2    1    0    0    0  0.17168390320E+02 -0.12432217543E+02  0.21928910945E+02  0.94590970598E+02  0.89539158608E+02 0.  0.
         11    1    3    3    0    0  0.79397334386E+01  0.38978957860E+02  0.91951203367E+01  0.40828283838E+02  0.51100000000E-03 0. -1.
         22    1    1    0    0    0 -0.17168390320E+02  0.12432217543E+02 -0.21928910945E+02  0.30499029402E+02  0.00000000000E+00 0.  1.
</event>
<event>
 5    1  0.1059945E-009  0.9118800E+02  0.7815553E-02  0.1125453E+00
         25   -1    0    0    0    0  0.00000000000E+00  0.00000000000E+00  0.99999998245E-14  0.12509000000E+03  0.12509000000E+03 0.  0.
        -11    1    3    3    0    0  0.25298587576E+02  0.11032394788E+02  0.18366454337E+02  0.33152057451E+02  0.51100000000E-03 0.  1.
         23    2    1    0    0    0 -0.18318291915E+02 -0.11479315440E+02 -0.20145081199E+02  0.95540739465E+02  0.90856337695E+02 0.  0.
         11    1    3    3    0    0 -0.43616879491E+02 -0.22511710228E+02 -0.38511535535E+02  0.62388682014E+02  0.51100000000E-03 0. -1.
         22    1    1    0    0    0  0.18318291915E+02  0.11479315440E+02  0.20145081199E+02  0.29549260535E+02  0.00000000000E+00 0. -1.
</event>
<event>
 5    1  0.1059945E-009  0.9118800E+02  0.7815553E-02  0.1125453E+00
         25   -1    0    0    0    0  0.00000000000E+00  0.00000000000E+00  0.99999998245E-14  0.12509000000E+03  0.12509000000E+03 0.  0.
        -11    1    3    3    0    0  0.36663076099E+02  0.26532803683E+02 -0.38379816880E+02  0.59339541323E+02  0.51100000000E-03 0.  1.
         23    2    1    0    0    0  0.16058951930E+02  0.25678031524E+02 -0.12765557186E+02  0.92223441155E+02  0.86168163541E+02 0.  0.
         11    1    3    3    0    0 -0.20604124170E+02 -0.85477215905E+00  0.25614259694E+02  0.32883899832E+02  0.51100000000E-03 0. -1.
         22    1    1    0    0    0 -0.16058951930E+02 -0.25678031524E+02  0.12765557186E+02  0.32866558845E+02  0.00000000000E+00 0.  1.
</event>
<event>
 5    1  0.1059945E-009  0.9118800E+02  0.7815553E-02  0.1125453E+00
         25   -1    0    0    0    0  0.00000000000E+00  0.00000000000E+00  0.99999998245E-14  0.12509000000E+03  0.12509000000E+03 0.  0.
        -11    1    3    3    0    0 -0.21049717416E+02 -0.23467750373E+01 -0.39291390057E+02  0.44636434549E+02  0.51100000000E-03 0.  1.
         23    2    1    0    0    0  0.20251562189E+02  0.15005481856E+02 -0.17115703293E+02  0.94623008747E+02  0.89583906078E+02 0.  0.
         11    1    3    3    0    0  0.41301279605E+02  0.17352256893E+02  0.22175686764E+02  0.49986574198E+02  0.51100000000E-03 0. -1.
         22    1    1    0    0    0 -0.20251562189E+02 -0.15005481856E+02  0.17115703293E+02  0.30466991253E+02  0.00000000000E+00 0. -1.
</event>
<event>
 5    1  0.1059945E-009  0.9118800E+02  0.7815553E-02  0.1125453E+00
         25   -1    0    0    0    0  0.00000000000E+00  0.00000000000E+00  0.99999998245E-14  0.12509000000E+03  0.12509000000E+03 0.  0.
        -11    1    3    3    0    0  0.15341344405E+02 -0.16590611643E+02  0.26390622700E+02  0.34742915963E+02  0.51100000000E-03 0.  1.
         23    2    1    0    0    0 -0.17110284341E+02  0.18498289977E+02 -0.13052914705E+02  0.96711713502E+02  0.92454466543E+02 0.  0.
         11    1    3    3    0    0 -0.32451628745E+02  0.35088901620E+02 -0.39443537405E+02  0.61968797539E+02  0.51100000000E-03 0. -1.
         22    1    1    0    0    0  0.17110284341E+02 -0.18498289977E+02  0.13052914705E+02  0.28378286498E+02  0.00000000000E+00 0. -1.
</event>
<event>
 5    1  0.1059945E-009  0.9118800E+02  0.7815553E-02  0.1125453E+00
         25   -1    0    0    0    0  0.00000000000E+00  0.00000000000E+00  0.99999998245E-14  0.12509000000E+03  0.12509000000E+03 0.  0.
        -11    1    3    3    0    0 -0.10091706477E+02  0.34423317828E+02 -0.93697609165E+01  0.37075595339E+02  0.51100000000E-03 0.  1.
         23    2    1    0    0    0  0.16916174701E+02 -0.54850226299E+01  0.23656343531E+02  0.95494983037E+02  0.90793318897E+02 0.  0.
         11    1    3    3    0    0  0.27007881178E+02 -0.39908340457E+02  0.33026104448E+02  0.58419387698E+02  0.51100000000E-03 0. -1.
         22    1    1    0    0    0 -0.16916174701E+02  0.54850226299E+01 -0.23656343531E+02  0.29595016963E+02  0.00000000000E+00 0. -1.
</event>
<event>
 5    1  0.1059945E-009  0.9118800E+02  0.7815553E-02  0.1125453E+00
         25   -1    0    0    0    0  0.00000000000E+00  0.00000000000E+00  0.99999998245E-14  0.12509000000E+03  0.12509000000E+03 0.  0.
        -11    1    3    3    0    0  0.68284955132E+01  0.47603357573E+02 -0.31788853390E+02  0.57647542908E+02  0.51100000000E-03 0. -1.
         23    2    1    0    0    0  0.14923549658E+02  0.24613155308E+02 -0.18596120441E+01  0.96245972793E+02  0.91822161667E+02 0.  0.
         11    1    3    3    0    0  0.80950541448E+01 -0.22990202265E+02  0.29929241346E+02  0.38598429885E+02  0.51100000000E-03 0.  1.
         22    1    1    0    0    0 -0.14923549658E+02 -0.24613155308E+02  0.18596120441E+01  0.28844027207E+02  0.00000000000E+00 0. -1.
</event>
<event>
 5    1  0.1059945E-009  0.9118800E+02  0.7815553E-02  0.1125453E+00
         25   -1    0    0    0    0  0.00000000000E+00  0.00000000000E+00  0.99999998245E-14  0.12509000000E+03  0.12509000000E+03 0.  0.
        -11    1    3    3    0    0  0.35907337202E+02 -0.13102029118E+02  0.30089445723E+01  0.38341280360E+02  0.51100000000E-03 0.  1.
         23    2    1    0    0    0  0.11381977310E+02  0.13076025680E+02 -0.32146084756E+02  0.88567368384E+02  0.80686282119E+02 0.  0.
         11    1    3    3    0    0 -0.24525359892E+02  0.26178054798E+02 -0.35155029328E+02  0.50226088024E+02  0.51100000000E-03 0. -1.
         22    1    1    0    0    0 -0.11381977310E+02 -0.13076025680E+02  0.32146084756E+02  0.36522631616E+02  0.00000000000E+00 0. -1.
</event>
<event>
 5    1  0.1059945E-009  0.9118800E+02  0.7815553E-02  0.1125453E+00
         25   -1    0    0    0    0  0.00000000000E+00  0.00000000000E+00  0.99999998245E-14  0.12509000000E+03  0.12509000000E+03 0.  0.
        -11    1    3    3    0    0  0.11047149998E+01  0.19768729841E+02 -0.39377107011E+02  0.44074705122E+02  0.51100000000E-03 0.  1.
         23    2    1    0    0    0 -0.35584826646E+00  0.28145740000E+02  0.10780637172E+02  0.94948144616E+02  0.90036763159E+02 0.  0.
         11    1    3    3    0    0 -0.14605632662E+01  0.83770101588E+01  0.50157744182E+02  0.50873439494E+02  0.51100000000E-03 0. -1.
         22    1    1    0    0    0  0.35584826646E+00 -0.28145740000E+02 -0.10780637172E+02  0.30141855384E+02  0.00000000000E+00 0. -1.
</event>
<event>
 5    1  0.1059945E-009  0.9118800E+02  0.7815553E-02  0.1125453E+00
         25   -1    0    0    0    0  0.00000000000E+00  0.00000000000E+00  0.99999998245E-14  0.12509000000E+03  0.12509000000E+03 0.  0.
        -11    1    3    3    0    0  0.18224258471E+02 -0.38946763000E+02  0.27800891925E+01  0.43089474830E+02  0.51100000000E-03 0.  1.
         23    2    1    0    0    0  0.32345936128E+02  0.57400190607E+01  0.10532946709E+02  0.90591443955E+02  0.83765502139E+02 0.  0.
         11    1    3    3    0    0  0.14121677657E+02  0.44686782060E+02  0.77528575163E+01  0.47501969124E+02  0.51100000000E-03 0. -1.
         22    1    1    0    0    0 -0.32345936128E+02 -0.57400190607E+01 -0.10532946709E+02  0.34498556045E+02  0.00000000000E+00 0. -1.
</event>
<event>
 5    1  0.1059945E-009  0.9118800E+02  0.7815553E-02  0.1125453E+00
         25   -1    0    0    0    0  0.00000000000E+00  0.00000000000E+00  0.99999998245E-14  0.12509000000E+03  0.12509000000E+03 0.  0.
        -11    1    3    3    0    0  0.48444375316E+02  0.13971368060E+02 -0.27817990081E+02  0.57583827571E+02  0.51100000000E-03 0. -1.
         23    2    1    0    0    0  0.28322883329E+02  0.80406946766E+01  0.36705118006E+01  0.95419962119E+02  0.90689900336E+02 0.  0.
         11    1    3    3    0    0 -0.20121491987E+02 -0.59306733836E+01  0.31488501882E+02  0.37836134549E+02  0.51100000000E-03 0.  1.
         22    1    1    0    0    0 -0.28322883329E+02 -0.80406946766E+01 -0.36705118006E+01  0.29670037881E+02  0.00000000000E+00 0. -1.
</event>
<event>
 5    1  0.1059945E-009  0.9118800E+02  0.7815553E-02  0.1125453E+00
         25   -1    0    0    0    0  0.00000000000E+00  0.00000000000E+00  0.99999998245E-14  0.12509000000E+03  0.12509000000E+03 0.  0.
        -11    1    3    3    0    0  0.17819688805E+02 -0.10535787595E+02  0.34006614148E+02  0.39811982310E+02  0.51100000000E-03 0.  1.
         23    2    1    0    0    0 -0.14972060321E+00 -0.17399044619E+02 -0.20844304784E+02  0.97937942770E+02  0.94098918284E+02 0.  0.
         11    1    3    3    0    0 -0.17969409408E+02 -0.68632570238E+01 -0.54850918932E+02  0.58125960460E+02  0.51100000000E-03 0. -1.
         22    1    1    0    0    0  0.14972060321E+00  0.17399044619E+02  0.20844304784E+02  0.27152057230E+02  0.00000000000E+00 0. -1.
</event>
<event>
 5    1  0.1059945E-009  0.9118800E+02  0.7815553E-02  0.1125453E+00
         25   -1    0    0    0    0  0.00000000000E+00  0.00000000000E+00  0.99999998245E-14  0.12509000000E+03  0.12509000000E+03 0.  0.
        -11    1    3    3    0    0  0.26455976481E+02  0.32079722834E+02 -0.44658926333E+01  0.41820706665E+02  0.51100000000E-03 0. -1.
         23    2    1    0    0    0  0.37129965500E+01 -0.39471841671E+01  0.28743802712E+02  0.95839823923E+02  0.91267184952E+02 0.  0.
         11    1    3    3    0    0 -0.22742979931E+02 -0.36026907001E+02  0.33209695345E+02  0.54019117258E+02  0.51100000000E-03 0.  1.
         22    1    1    0    0    0 -0.37129965500E+01  0.39471841671E+01 -0.28743802712E+02  0.29250176077E+02  0.00000000000E+00 0.  1.
</event>
<event>
 5    1  0.1059945E-009  0.9118800E+02  0.7815553E-02  0.1125453E+00
         25   -1    0    0    0    0  0.00000000000E+00  0.00000000000E+00  0.99999998245E-14  0.12509000000E+03  0.12509000000E+03 0.  0.
        -11    1    3    3    0    0  0.27694186664E+02  0.22312429018E+02 -0.25571006644E+01  0.35656012505E+02  0.51100000000E-03 0. -1.
         23    2    1    0    0    0 -0.21656808689E+02 -0.44273685183E+00  0.21030813360E+02  0.94898801132E+02  0.89968183083E+02 0.  0.
         11    1    3    3    0    0 -0.49350995353E+02 -0.22755165870E+02  0.23587914024E+02  0.59242788627E+02  0.51100000000E-03 0.  1.
         22    1    1    0    0    0  0.21656808689E+02  0.44273685183E+00 -0.21030813360E+02  0.30191198868E+02  0.00000000000E+00 0.  1.
</event>
<event>
 5    1  0.1059945E-009  0.9118800E+02  0.7815553E-02  0.1125453E+00
         25   -1    0    0    0    0  0.00000000000E+00  0.00000000000E+00  0.99999998245E-14  0.12509000000E+03  0.12509000000E+03 0.  0.
        -11    1    3    3    0    0 -0.93759718690E+01 -0.58182448276E+02 -0.10059690354E+02  0.59785479058E+02  0.51100000000E-03 0.  1.
         23    2    1    0    0    0 -0.13786011762E+02 -0.22753536902E+02 -0.12748910861E+02  0.95588944256E+02  0.90922681295E+02 0.  0.
         11    1    3    3    0    0 -0.44100398934E+01  0.35428911374E+02 -0.26892205074E+01  0.35803465198E+02  0.51100000000E-03 0. -1.
         22    1    1    0    0    0  0.13786011762E+02  0.22753536902E+02  0.12748910861E+02  0.29501055744E+02  0.00000000000E+00 0.  1.
</event>
<event>
 5    1  0.1059945E-009  0.9118800E+02  0.7815553E-02  0.1125453E+00
         25   -1    0    0    0    0  0.00000000000E+00  0.00000000000E+00  0.99999998245E-14  0.12509000000E+03  0.12509000000E+03 0.  0.
        -11    1    3    3    0    0  0.33210779020E+00 -0.35189897659E+02 -0.14987621292E+02  0.38250071700E+02  0.51100000000E-03 0.  1.
         23    2    1    0    0    0 -0.42526228533E+01 -0.56534717490E+01  0.31107602969E+02  0.93188126913E+02  0.87557395411E+02 0.  0.
         11    1    3    3    0    0 -0.45847306435E+01  0.29536425910E+02  0.46095224261E+02  0.54938055213E+02  0.51100000000E-03 0. -1.
         22    1    1    0    0    0  0.42526228533E+01  0.56534717490E+01 -0.31107602969E+02  0.31901873087E+02  0.00000000000E+00 0. -1.
</event>
<event>
 5    1  0.1059945E-009  0.9118800E+02  0.7815553E-02  0.1125453E+00
         25   -1    0    0    0    0  0.00000000000E+00  0.00000000000E+00  0.99999998245E-14  0.12509000000E+03  0.12509000000E+03 0.  0.
        -11    1    3    3    0    0 -0.27080502016E+01  0.40260894006E+02  0.19561434683E+01  0.40399252710E+02  0.51100000000E-03 0. -1.
         23    2    1    0    0    0 -0.16928921910E+01 -0.67114473016E+01  0.29451134026E+02  0.94836426587E+02  0.89881416898E+02 0.  0.
         11    1    3    3    0    0  0.10151580107E+01 -0.46972341307E+02  0.27494990557E+02  0.54437173877E+02  0.51100000000E-03 0.  1.
         22    1    1    0    0    0  0.16928921910E+01  0.67114473016E+01 -0.29451134026E+02  0.30253573413E+02  0.00000000000E+00 0.  1.
</event>
<event>
 5    1  0.1059945E-009  0.9118800E+02  0.7815553E-02  0.1125453E+00
         25   -1    0    0    0    0  0.00000000000E+00  0.00000000000E+00  0.99999998245E-14  0.12509000000E+03  0.12509000000E+03 0.  0.
        -11    1    3    3    0    0  0.26215194121E+02  0.24945230775E+02  0.28333340399E+02  0.45959537853E+02  0.51100000000E-03 0. -1.
         23    2    1    0    0    0 -0.17211056101E+02  0.22886358946E+02  0.29489542098E+01  0.96302811724E+02  0.91899561136E+02 0.  0.
         11    1    3    3    0    0 -0.43426250222E+02 -0.20588718290E+01 -0.25384386189E+02  0.50343273870E+02  0.51100000000E-03 0.  1.
         22    1    1    0    0    0  0.17211056101E+02 -0.22886358946E+02 -0.29489542098E+01  0.28787188276E+02  0.00000000000E+00 0. -1.
</event>
<event>
 5    1  0.1059945E-009  0.9118800E+02  0.7815553E-02  0.1125453E+00
         25   -1    0    0    0    0  0.00000000000E+00  0.00000000000E+00  0.99999998245E-14  0.12509000000E+03  0.12509000000E+03 0.  0.
        -11    1    3    3    0    0 -0.25421751055E+02 -0.24846527526E+02 -0.23403697869E+02  0.42559939274E+02  0.51100000000E-03 0. -1.
         23    2    1    0    0    0  0.58994984936E+01  0.19292243592E+02 -0.19832230555E+02  0.96800211841E+02  0.92574126507E+02 0.  0.
         11    1    3    3    0    0  0.31321249549E+02  0.44138771118E+02  0.35714673146E+01  0.54240272567E+02  0.51100000000E-03 0.  1.
         22    1    1    0    0    0 -0.58994984936E+01 -0.19292243592E+02  0.19832230555E+02  0.28289788159E+02  0.00000000000E+00 0.  1.
</event>
<event>
 5    1  0.1059945E-009  0.9118800E+02  0.7815553E-02  0.1125453E+00
         25   -1    0    0    0    0  0.00000000000E+00  0.00000000000E+00  0.99999998245E-14  0.12509000000E+03  0.12509000000E+03 0.  0.
        -11    1    3    3    0    0  0.34925863333E+02 -0.13902095837E+02  0.42013234913E+02  0.56375492072E+02  0.51100000000E-03 0. -1.
         23    2    1    0    0    0  0.31159055818E+02 -0.36882108695E+00  0.83843723186E+01  0.92820502210E+02  0.87030598888E+02 0.  0.
         11    1    3    3    0    0 -0.37668075151E+01  0.13533274750E+02 -0.33628862594E+02  0.36445010138E+02  0.51100000000E-03 0.  1.
         22    1    1    0    0    0 -0.31159055818E+02  0.36882108695E+00 -0.83843723186E+01  0.32269497790E+02  0.00000000000E+00 0. -1.
</event>
<event>
 5    1  0.1059945E-009  0.9118800E+02  0.7815553E-02  0.1125453E+00
         25   -1    0    0    0    0  0.00000000000E+00  0.00000000000E+00  0.99999998245E-14  0.12509000000E+03  0.12509000000E+03 0.  0.
        -11    1    3    3    0    0  0.98380564283E+01  0.61397024575E+01 -0.29007239260E+02  0.31239449904E+02  0.51100000000E-03 0. -1.
         23    2    1    0    0    0 -0.20068214805E+01 -0.15588408195E+02  0.27772985102E+02  0.93178176110E+02  0.87543177914E+02 0.  0.
         11    1    3    3    0    0 -0.11844877909E+02 -0.21728110652E+02  0.56780224362E+02  0.61938726206E+02  0.51100000000E-03 0.  1.
         22    1    1    0    0    0  0.20068214805E+01  0.15588408195E+02 -0.27772985102E+02  0.31911823890E+02  0.00000000000E+00 0.  1.
</event>
<event>
 5    1  0.1059945E-009  0.9118800E+02  0.7815553E-02  0.1125453E+00
         25   -1    0    0    0    0  0.00000000000E+00  0.00000000000E+00  0.99999998245E-14  0.12509000000E+03  0.12509000000E+03 0.  0.
        -11    1    3    3    0    0  0.21550838187E+02 -0.20450225817E+02  0.44539190070E+02  0.53538675879E+02  0.51100000000E-03 0.  1.
         23    2    1    0    0    0  0.23909035486E+02  0.91704392311E+01  0.15125282454E+02  0.95349234998E+02  0.90592292784E+02 0.  0.
         11    1    3    3    0    0  0.23581972991E+01  0.29620665048E+02 -0.29413907615E+02  0.41810559119E+02  0.51100000000E-03 0. -1.
         22    1    1    0    0    0 -0.23909035486E+02 -0.91704392311E+01 -0.15125282454E+02  0.29740765002E+02  0.00000000000E+00 0.  1.
</event>
<event>
 5    1  0.1059945E-009  0.9118800E+02  0.7815553E-02  0.1125453E+00
         25   -1    0    0    0    0  0.00000000000E+00  0.00000000000E+00  0.99999998245E-14  0.12509000000E+03  0.12509000000E+03 0.  0.
        -11    1    3    3    0    0  0.15286817597E+02  0.97748612953E+01 -0.31897522942E+02  0.36697229809E+02  0.51100000000E-03 0. -1.
         23    2    1    0    0    0 -0.20060482302E+02 -0.20135930809E+02  0.54045041204E+01  0.96157538568E+02  0.91701607941E+02 0.  0.
         11    1    3    3    0    0 -0.35347299899E+02 -0.29910792104E+02  0.37302027063E+02  0.59460308759E+02  0.51100000000E-03 0.  1.
         22    1    1    0    0    0  0.20060482302E+02  0.20135930809E+02 -0.54045041204E+01  0.28932461432E+02  0.00000000000E+00 0.  1.
</event>
<event>
 5    1  0.1059945E-009  0.9118800E+02  0.7815553E-02  0.1125453E+00
         25   -1    0    0    0    0  0.00000000000E+00  0.00000000000E+00  0.99999998245E-14  0.12509000000E+03  0.12509000000E+03 0.  0.
        -11    1    3    3    0    0  0.44027478640E+02  0.99755144237E+01 -0.91377185601E+01  0.46058958565E+02  0.51100000000E-03 0. -1.
         23    2    1    0    0    0  0.22455565173E+02 -0.30147591109E+00  0.27366585116E+02  0.89688400094E+02  0.82405921119E+02 0.  0.
         11    1    3    3    0    0 -0.21571913466E+02 -0.10276990335E+02  0.36504303676E+02  0.43629441529E+02  0.51100000000E-03 0.  1.
         22    1    1    0    0    0 -0.22455565173E+02  0.30147591109E+00 -0.27366585116E+02  0.35401599906E+02  0.00000000000E+00 0.  1.
</event>
<event>
 5    1  0.1059945E-009  0.9118800E+02  0.7815553E-02  0.1125453E+00
         25   -1    0    0    0    0  0.00000000000E+00  0.00000000000E+00  0.99999998245E-14  0.12509000000E+03  0.12509000000E+03 0.  0.
        -11    1    3    3    0    0 -0.47066090676E+02  0.32035468691E+02 -0.45369511678E+01  0.57114552191E+02  0.51100000000E-03 0.  1.
         23    2    1    0    0    0 -0.13750185440E+02  0.20067689510E+02 -0.17830653601E+02  0.94928568175E+02  0.90009561081E+02 0.  0.
         11    1    3    3    0    0  0.33315905236E+02 -0.11967779182E+02 -0.13293702433E+02  0.37814015984E+02  0.51100000000E-03 0. -1.
         22    1    1    0    0    0  0.13750185440E+02 -0.20067689510E+02  0.17830653601E+02  0.30161431825E+02  0.00000000000E+00 0.  1.
</event>
<event>
 5    1  0.1059945E-009  0.9118800E+02  0.7815553E-02  0.1125453E+00
         25   -1    0    0    0    0  0.00000000000E+00  0.00000000000E+00  0.99999998245E-14  0.12509000000E+03  0.12509000000E+03 0.  0.
        -11    1    3    3    0    0 -0.29019184680E+02  0.43090312937E+02 -0.86506072833E+01  0.52666129107E+02  0.51100000000E-03 0.  1.
         23    2    1    0    0    0  0.10421212576E+02  0.27308047897E+02 -0.61535251808E+01  0.95220332716E+02  0.90414129089E+02 0.  0.
         11    1    3    3    0    0  0.39440397256E+02 -0.15782265040E+02  0.24970821026E+01  0.42554203609E+02  0.51100000000E-03 0. -1.
         22    1    1    0    0    0 -0.10421212576E+02 -0.27308047897E+02  0.61535251808E+01  0.29869667284E+02  0.00000000000E+00 0.  1.
</event>
<event>
 5    1  0.1059945E-009  0.9118800E+02  0.7815553E-02  0.1125453E+00
         25   -1    0    0    0    0  0.00000000000E+00  0.00000000000E+00  0.99999998245E-14  0.12509000000E+03  0.12509000000E+03 0.  0.
        -11    1    3    3    0    0  0.26065205707E+02  0.31946975528E+02 -0.14550439221E+02  0.43723214381E+02  0.51100000000E-03 0. -1.
         23    2    1    0    0    0  0.11017823347E+02  0.59704728439E+01  0.27197718108E+02  0.95144134717E+02  0.90308645896E+02 0.  0.
         11    1    3    3    0    0 -0.15047382360E+02 -0.25976502685E+02  0.41748157329E+02  0.51420920336E+02  0.51100000000E-03 0.  1.
         22    1    1    0    0    0 -0.11017823347E+02 -0.59704728439E+01 -0.27197718108E+02  0.29945865283E+02  0.00000000000E+00 0.  1.
</event>
<event>
 5    1  0.1059945E-009  0.9118800E+02  0.7815553E-02  0.1125453E+00
         25   -1    0    0    0    0  0.00000000000E+00  0.00000000000E+00  0.99999998245E-14  0.12509000000E+03  0.12509000000E+03 0.  0.
        -11    1    3    3    0    0 -0.32143115101E+02  0.15560060592E+02 -0.34411440334E+01  0.35876688901E+02  0.51100000000E-03 0.  1.
         23    2    1    0    0    0  0.20174609566E+02 -0.13932295695E+02 -0.14001460700E+02  0.96855895866E+02  0.92649338518E+02 0.  0.
         11    1    3    3    0    0  0.52317724667E+02 -0.29492356288E+02 -0.10560316667E+02  0.60979206965E+02  0.51100000000E-03 0. -1.
         22    1    1    0    0    0 -0.20174609566E+02  0.13932295695E+02  0.14001460700E+02  0.28234104134E+02  0.00000000000E+00 0. -1.
</event>
<event>
 5    1  0.1059945E-009  0.9118800E+02  0.7815553E-02  0.1125453E+00
         25   -1    0    0    0    0  0.00000000000E+00  0.00000000000E+00  0.99999998245E-14  0.12509000000E+03  0.12509000000E+03 0.  0.
        -11    1    3    3    0    0 -0.34243407329E+02  0.36557675534E+02  0.36390957571E+02  0.61914266362E+02  0.51100000000E-03 0. -1.
         23    2    1    0    0    0 -0.17386045070E+02  0.26738257324E+02  0.19590280706E+02  0.87660224873E+02  0.79267439461E+02 0.  0.
         11    1    3    3    0    0  0.16857362259E+02 -0.98194182093E+01 -0.16800676865E+02  0.25745958511E+02  0.51100000000E-03 0.  1.
         22    1    1    0    0    0  0.17386045070E+02 -0.26738257324E+02 -0.19590280706E+02  0.37429775127E+02  0.00000000000E+00 0. -1.
</event>
<event>
 5    1  0.1059945E-009  0.9118800E+02  0.7815553E-02  0.1125453E+00
         25   -1    0    0    0    0  0.00000000000E+00  0.00000000000E+00  0.99999998245E-14  0.12509000000E+03  0.12509000000E+03 0.  0.
        -11    1    3    3    0    0  0.57129942192E+02  0.24705762204E+02  0.49817763885E+01  0.62442157852E+02  0.51100000000E-03 0.  1.
         23    2    1    0    0    0  0.29972440001E+02  0.15158820430E+02  0.11519604964E+01  0.91482500697E+02  0.85085744542E+02 0.  0.
         11    1    3    3    0    0 -0.27157502191E+02 -0.95469417736E+01 -0.38298158921E+01  0.29040342845E+02  0.51100000000E-03 0. -1.
         22    1    1    0    0    0 -0.29972440001E+02 -0.15158820430E+02 -0.11519604964E+01  0.33607499303E+02  0.00000000000E+00 0.  1.
</event>
<event>
 5    1  0.1059945E-009  0.9118800E+02  0.7815553E-02  0.1125453E+00
         25   -1    0    0    0    0  0.00000000000E+00  0.00000000000E+00  0.99999998245E-14  0.12509000000E+03  0.12509000000E+03 0.  0.
        -11    1    3    3    0    0  0.42519917028E+02 -0.35201575602E+01 -0.10943557163E+02  0.44046524233E+02  0.51100000000E-03 0.  1.
         23    2    1    0    0    0  0.97976416843E+01  0.30250644379E+02  0.31498916164E+01  0.93136642037E+02  0.87483809959E+02 0.  0.
         11    1    3    3    0    0 -0.32722275344E+02  0.33770801939E+02  0.14093448779E+02  0.49090117804E+02  0.51100000000E-03 0. -1.
         22    1    1    0    0    0 -0.97976416843E+01 -0.30250644379E+02 -0.31498916164E+01  0.31953357963E+02  0.00000000000E+00 0. -1.
</event>
<event>
 5    1  0.1059945E-009  0.9118800E+02  0.7815553E-02  0.1125453E+00
         25   -1    0    0    0    0  0.00000000000E+00  0.00000000000E+00  0.99999998245E-14  0.12509000000E+03  0.12509000000E+03 0.  0.
        -11    1    3    3    0    0 -0.60126357508E+01  0.39211717043E+02  0.74460603249E+01  0.40362784303E+02  0.51100000000E-03 0.  1.
         23    2    1    0    0    0  0.27114988701E+02 -0.10810548941E+01 -0.11165292600E+02  0.95746260450E+02  0.91138857462E+02 0.  0.
         11    1    3    3    0    0  0.33127624452E+02 -0.40292771937E+02 -0.18611352925E+02  0.55383476147E+02  0.51100000000E-03 0. -1.
         22    1    1    0    0    0 -0.27114988701E+02  0.10810548941E+01  0.11165292600E+02  0.29343739550E+02  0.00000000000E+00 0.  1.
</event>
<event>
 5    1  0.1059945E-009  0.9118800E+02  0.7815553E-02  0.1125453E+00
         25   -1    0    0    0    0  0.00000000000E+00  0.00000000000E+00  0.99999998245E-14  0.12509000000E+03  0.12509000000E+03 0.  0.
        -11    1    3    3    0    0  0.30556362467E+02 -0.57306803026E+01 -0.21976943041E+02  0.38072536160E+02  0.51100000000E-03 0.  1.
         23    2    1    0    0    0  0.77712685578E+00  0.14208550910E+02  0.24497068085E+02  0.96759924288E+02  0.92519672278E+02 0.  0.
         11    1    3    3    0    0 -0.29779235611E+02  0.19939231212E+02  0.46474011126E+02  0.58687388128E+02  0.51100000000E-03 0. -1.
         22    1    1    0    0    0 -0.77712685578E+00 -0.14208550910E+02 -0.24497068085E+02  0.28330075712E+02  0.00000000000E+00 0. -1.
</event>
<event>
 5    1  0.1059945E-009  0.9118800E+02  0.7815553E-02  0.1125453E+00
         25   -1    0    0    0    0  0.00000000000E+00  0.00000000000E+00  0.99999998245E-14  0.12509000000E+03  0.12509000000E+03 0.  0.
        -11    1    3    3    0    0  0.40223550055E+02 -0.29785862621E+02  0.29179527625E+02  0.57935968308E+02  0.51100000000E-03 0. -1.
         23    2    1    0    0    0  0.45800609085E+01 -0.23279320583E+02  0.15918599118E+02  0.96518939071E+02  0.92193275659E+02 0.  0.
         11    1    3    3    0    0 -0.35643489146E+02  0.65065420375E+01 -0.13260928507E+02  0.38582970763E+02  0.51100000000E-03 0.  1.
         22    1    1    0    0    0 -0.45800609085E+01  0.23279320583E+02 -0.15918599118E+02  0.28571060929E+02  0.00000000000E+00 0. -1.
</event>
<event>
 5    1  0.1059945E-009  0.9118800E+02  0.7815553E-02  0.1125453E+00
         25   -1    0    0    0    0  0.00000000000E+00  0.00000000000E+00  0.99999998245E-14  0.12509000000E+03  0.12509000000E+03 0.  0.
        -11    1    3    3    0    0 -0.11394409047E+02  0.40380867016E+02  0.40937295381E+02  0.58620040361E+02  0.51100000000E-03 0.  1.
         23    2    1    0    0    0 -0.23896367481E+01  0.56373043331E+01  0.27455427283E+02  0.96960121734E+02  0.92789951802E+02 0.  0.
         11    1    3    3    0    0  0.90047722984E+01 -0.34743562683E+02 -0.13481868098E+02  0.38340081374E+02  0.51100000000E-03 0. -1.
         22    1    1    0    0    0  0.23896367481E+01 -0.56373043331E+01 -0.27455427283E+02  0.28129878266E+02  0.00000000000E+00 0.  1.
</event>
<event>
 5    1  0.1059945E-009  0.9118800E+02  0.7815553E-02  0.1125453E+00
         25   -1    0    0    0    0  0.00000000000E+00  0.00000000000E+00  0.99999998245E-14  0.12509000000E+03  0.12509000000E+03 0.  0.
        -11    1    3    3    0    0 -0.16278281771E+01  0.13115242545E+02 -0.52571108140E+02  0.54206833729E+02  0.51100000000E-03 0. -1.
         23    2    1    0    0    0 -0.14024848743E+02  0.22245790963E+02 -0.14988907702E+02  0.94820560760E+02  0.89859333354E+02 0.  0.
         11    1    3    3    0    0 -0.12397020566E+02  0.91305484177E+01  0.37582200438E+02  0.40613727031E+02  0.51100000000E-03 0.  1.
         22    1    1    0    0    0  0.14024848743E+02 -0.22245790963E+02  0.14988907702E+02  0.30269439240E+02  0.00000000000E+00 0. -1.
</event>
<event>
 5    1  0.1059945E-009  0.9118800E+02  0.7815553E-02  0.1125453E+00
         25   -1    0    0    0    0  0.00000000000E+00  0.00000000000E+00  0.99999998245E-14  0.12509000000E+03  0.12509000000E+03 0.  0.
        -11    1    3    3    0    0  0.48393402402E+02 -0.15517920001E+02  0.29280932726E+02  0.58652367887E+02  0.51100000000E-03 0.  1.
         23    2    1    0    0    0  0.18415823929E+02 -0.33819898231E+01 -0.49277852607E+01  0.10572860817E+03  0.10394072874E+03 0.  0.
         11    1    3    3    0    0 -0.29977578473E+02  0.12135930178E+02 -0.34208717986E+02  0.47076240280E+02  0.51100000000E-03 0. -1.
         22    1    1    0    0    0 -0.18415823929E+02  0.33819898231E+01  0.49277852607E+01  0.19361391833E+02  0.00000000000E+00 0.  1.
</event>
<event>
 5    1  0.1059945E-009  0.9118800E+02  0.7815553E-02  0.1125453E+00
         25   -1    0    0    0    0  0.00000000000E+00  0.00000000000E+00  0.99999998245E-14  0.12509000000E+03  0.12509000000E+03 0.  0.
        -11    1    3    3    0    0 -0.16088903236E+02  0.34307874978E+02  0.46015632106E+01  0.38171422257E+02  0.51100000000E-03 0.  1.
         23    2    1    0    0    0  0.20490744073E+02 -0.71222486135E+00 -0.21700762113E+02  0.95235336491E+02  0.90434884770E+02 0.  0.
         11    1    3    3    0    0  0.36579647309E+02 -0.35020099840E+02 -0.26302325324E+02  0.57063914234E+02  0.51100000000E-03 0. -1.
         22    1    1    0    0    0 -0.20490744073E+02  0.71222486135E+00  0.21700762113E+02  0.29854663509E+02  0.00000000000E+00 0. -1.
</event>
<event>
 5    1  0.1059945E-009  0.9118800E+02  0.7815553E-02  0.1125453E+00
         25   -1    0    0    0    0  0.00000000000E+00  0.00000000000E+00  0.99999998245E-14  0.12509000000E+03  0.12509000000E+03 0.  0.
        -11    1    3    3    0    0 -0.35943465228E+02  0.92277421224E+00  0.47140779500E+00  0.35958398608E+02  0.51100000000E-03 0.  1.
         23    2    1    0    0    0  0.25659418390E+02  0.72107404206E+01 -0.44133917903E+01  0.98073735332E+02  0.94279260738E+02 0.  0.
         11    1    3    3    0    0  0.61602883618E+02  0.62879662084E+01 -0.48847995853E+01  0.62115336724E+02  0.51100000000E-03 0. -1.
         22    1    1    0    0    0 -0.25659418390E+02 -0.72107404206E+01  0.44133917903E+01  0.27016264668E+02  0.00000000000E+00 0. -1.
</event>
<event>
 5    1  0.1059945E-009  0.9118800E+02  0.7815553E-02  0.1125453E+00
         25   -1    0    0    0    0  0.00000000000E+00  0.00000000000E+00  0.99999998245E-14  0.12509000000E+03  0.12509000000E+03 0.  0.
        -11    1    3    3    0    0 -0.25600691751E+02 -0.51986452259E+01 -0.22102369235E+02  0.34218942947E+02  0.51100000000E-03 0. -1.
         23    2    1    0    0    0  0.17203412763E+02 -0.11430275114E+02  0.21247310216E+02  0.95457976929E+02  0.90742319610E+02 0.  0.
         11    1    3    3    0    0  0.42804104514E+02 -0.62316298882E+01  0.43349679451E+02  0.61239033982E+02  0.51100000000E-03 0.  1.
         22    1    1    0    0    0 -0.17203412763E+02  0.11430275114E+02 -0.21247310216E+02  0.29632023071E+02  0.00000000000E+00 0.  1.
</event>
<event>
 5    1  0.1059945E-009  0.9118800E+02  0.7815553E-02  0.1125453E+00
         25   -1    0    0    0    0  0.00000000000E+00  0.00000000000E+00  0.99999998245E-14  0.12509000000E+03  0.12509000000E+03 0.  0.
        -11    1    3    3    0    0  0.11249471459E+02 -0.21100295419E+02 -0.32579790860E+02  0.40413065308E+02  0.51100000000E-03 0. -1.
         23    2    1    0    0    0  0.18803599759E+02  0.21611196697E+02  0.26901742483E+01  0.96317509248E+02  0.91919564640E+02 0.  0.
         11    1    3    3    0    0  0.75541283003E+01  0.42711492117E+02  0.35269965108E+02  0.55904443940E+02  0.51100000000E-03 0.  1.
         22    1    1    0    0    0 -0.18803599759E+02 -0.21611196697E+02 -0.26901742483E+01  0.28772490752E+02  0.00000000000E+00 0.  1.
</event>
<event>
 5    1  0.1059945E-009  0.9118800E+02  0.7815553E-02  0.1125453E+00
         25   -1    0    0    0    0  0.00000000000E+00  0.00000000000E+00  0.99999998245E-14  0.12509000000E+03  0.12509000000E+03 0.  0.
        -11    1    3    3    0    0 -0.16207758634E+02 -0.81386842964E+01  0.57736126874E+02  0.60517683108E+02  0.51100000000E-03 0. -1.
         23    2    1    0    0    0  0.33931297412E+01 -0.50026088337E+01  0.29149477938E+02  0.95320359616E+02  0.90552412826E+02 0.  0.
         11    1    3    3    0    0  0.19600888375E+02  0.31360754627E+01 -0.28586648937E+02  0.34802676508E+02  0.51100000000E-03 0.  1.
         22    1    1    0    0    0 -0.33931297412E+01  0.50026088337E+01 -0.29149477938E+02  0.29769640384E+02  0.00000000000E+00 0. -1.
</event>
<event>
 5    1  0.1059945E-009  0.9118800E+02  0.7815553E-02  0.1125453E+00
         25   -1    0    0    0    0  0.00000000000E+00  0.00000000000E+00  0.99999998245E-14  0.12509000000E+03  0.12509000000E+03 0.  0.
        -11    1    3    3    0    0  0.19850048046E+02  0.38678476780E+02  0.42247957767E+01  0.43679490303E+02  0.51100000000E-03 0. -1.
         23    2    1    0    0    0  0.28256517474E+01  0.72490007605E+00 -0.28397727353E+02  0.96542833648E+02  0.92225690683E+02 0.  0.
         11    1    3    3    0    0 -0.17024396298E+02 -0.37953576704E+02 -0.32622523130E+02  0.52863343345E+02  0.51100000000E-03 0.  1.
         22    1    1    0    0    0 -0.28256517474E+01 -0.72490007605E+00  0.28397727353E+02  0.28547166352E+02  0.00000000000E+00 0.  1.
</event>
<event>
 5    1  0.1059945E-009  0.9118800E+02  0.7815553E-02  0.1125453E+00
         25   -1    0    0    0    0  0.00000000000E+00  0.00000000000E+00  0.99999998245E-14  0.12509000000E+03  0.12509000000E+03 0.  0.
        -11    1    3    3    0    0  0.13700127739E+01 -0.46895851779E+02  0.34500857773E+02  0.58235788278E+02  0.51100000000E-03 0.  1.
         23    2    1    0    0    0 -0.14236480150E+02 -0.21841261892E+02  0.82315501650E+01  0.97749983427E+02  0.93848722707E+02 0.  0.
         11    1    3    3    0    0 -0.15606492924E+02  0.25054589887E+02 -0.26269307608E+02  0.39514195149E+02  0.51100000000E-03 0. -1.
         22    1    1    0    0    0  0.14236480150E+02  0.21841261892E+02 -0.82315501650E+01  0.27340016573E+02  0.00000000000E+00 0. -1.
</event>
<event>
 5    1  0.1059945E-009  0.9118800E+02  0.7815553E-02  0.1125453E+00
         25   -1    0    0    0    0  0.00000000000E+00  0.00000000000E+00  0.99999998245E-14  0.12509000000E+03  0.12509000000E+03 0.  0.
        -11    1    3    3    0    0 -0.24868528206E+02 -0.54837536303E+02 -0.69732810095E+01  0.60615391867E+02  0.51100000000E-03 0. -1.
         23    2    1    0    0    0 -0.11213035590E+02 -0.23632160225E+02  0.78741613219E+01  0.97773089842E+02  0.93879515959E+02 0.  0.
         11    1    3    3    0    0  0.13655492616E+02  0.31205376078E+02  0.14847442331E+02  0.37157697975E+02  0.51100000000E-03 0.  1.
         22    1    1    0    0    0  0.11213035590E+02  0.23632160225E+02 -0.78741613219E+01  0.27316910158E+02  0.00000000000E+00 0. -1.
</event>
<event>
 5    1  0.1059945E-009  0.9118800E+02  0.7815553E-02  0.1125453E+00
         25   -1    0    0    0    0  0.00000000000E+00  0.00000000000E+00  0.99999998245E-14  0.12509000000E+03  0.12509000000E+03 0.  0.
        -11    1    3    3    0    0  0.11012958243E+02 -0.41260344423E+02  0.35806036619E+02  0.55729467338E+02  0.51100000000E-03 0.  1.
         23    2    1    0    0    0 -0.15083401770E+02 -0.16049401073E+02  0.20115284391E+02  0.95261876527E+02  0.90471587637E+02 0.  0.
         11    1    3    3    0    0 -0.26096360013E+02  0.25210943351E+02 -0.15690752228E+02  0.39532409189E+02  0.51100000000E-03 0. -1.
         22    1    1    0    0    0  0.15083401770E+02  0.16049401073E+02 -0.20115284391E+02  0.29828123473E+02  0.00000000000E+00 0.  1.
</event>
<event>
 5    1  0.1059945E-009  0.9118800E+02  0.7815553E-02  0.1125453E+00
         25   -1    0    0    0    0  0.00000000000E+00  0.00000000000E+00  0.99999998245E-14  0.12509000000E+03  0.12509000000E+03 0.  0.
        -11    1    3    3    0    0  0.31773660447E+01  0.38268427239E+02  0.47550205743E+02  0.61119475167E+02  0.51100000000E-03 0.  1.
         23    2    1    0    0    0  0.63806544705E+01  0.83728373465E+01  0.22481341230E+02  0.10026606276E+03  0.97144508237E+02 0.  0.
         11    1    3    3    0    0  0.32032884258E+01 -0.29895589892E+02 -0.25068864512E+02  0.39146587590E+02  0.51100000000E-03 0. -1.
         22    1    1    0    0    0 -0.63806544705E+01 -0.83728373465E+01 -0.22481341230E+02  0.24823937243E+02  0.00000000000E+00 0.  1.
</event>
<event>
 5    1  0.1059945E-009  0.9118800E+02  0.7815553E-02  0.1125453E+00
         25   -1    0    0    0    0  0.00000000000E+00  0.00000000000E+00  0.99999998245E-14  0.12509000000E+03  0.12509000000E+03 0.  0.
        -11    1    3    3    0    0 -0.13783818200E+02  0.25885050058E+02  0.42601141112E+01  0.29634068792E+02  0.51100000000E-03 0.  1.
         23    2    1    0    0    0  0.14432307549E+02 -0.27451329982E+02  0.14528751948E+02  0.90841618255E+02  0.84138266889E+02 0.  0.
         11    1    3    3    0    0  0.28216125749E+02 -0.53336380039E+02  0.10268637837E+02  0.61207549463E+02  0.51100000000E-03 0. -1.
         22    1    1    0    0    0 -0.14432307549E+02  0.27451329982E+02 -0.14528751948E+02  0.34248381745E+02  0.00000000000E+00 0. -1.
</event>
<event>
 5    1  0.1059945E-009  0.9118800E+02  0.7815553E-02  0.1125453E+00
         25   -1    0    0    0    0  0.00000000000E+00  0.00000000000E+00  0.99999998245E-14  0.12509000000E+03  0.12509000000E+03 0.  0.
        -11    1    3    3    0    0  0.19292294359E+02 -0.41788439442E+02  0.24763488385E+02  0.52265635458E+02  0.51100000000E-03 0.  1.
         23    2    1    0    0    0  0.26623590060E+02 -0.78275758314E+01 -0.35879125364E+01  0.97108584607E+02  0.92989879002E+02 0.  0.
         11    1    3    3    0    0  0.73312957008E+01  0.33960863610E+02 -0.28351400922E+02  0.44842949148E+02  0.51100000000E-03 0. -1.
         22    1    1    0    0    0 -0.26623590060E+02  0.78275758314E+01  0.35879125364E+01  0.27981415393E+02  0.00000000000E+00 0.  1.
</event>
<event>
 5    1  0.1059945E-009  0.9118800E+02  0.7815553E-02  0.1125453E+00
         25   -1    0    0    0    0  0.00000000000E+00  0.00000000000E+00  0.99999998245E-14  0.12509000000E+03  0.12509000000E+03 0.  0.
        -11    1    3    3    0    0 -0.48274498083E+01 -0.34481166048E+02  0.20859899587E+02  0.40588058524E+02  0.51100000000E-03 0. -1.
         23    2    1    0    0    0 -0.15244759850E+02  0.19745130171E+02  0.14667343302E+02  0.96152069391E+02  0.91694147143E+02 0.  0.
         11    1    3    3    0    0 -0.10417310042E+02  0.54226296219E+02 -0.61925562847E+01  0.55564010868E+02  0.51100000000E-03 0.  1.
         22    1    1    0    0    0  0.15244759850E+02 -0.19745130171E+02 -0.14667343302E+02  0.28937930609E+02  0.00000000000E+00 0.  1.
</event>
<event>
 5    1  0.1059945E-009  0.9118800E+02  0.7815553E-02  0.1125453E+00
         25   -1    0    0    0    0  0.00000000000E+00  0.00000000000E+00  0.99999998245E-14  0.12509000000E+03  0.12509000000E+03 0.  0.
        -11    1    3    3    0    0 -0.43712189310E+02 -0.11353678279E+02 -0.41105358805E+00  0.45164482395E+02  0.51100000000E-03 0. -1.
         23    2    1    0    0    0 -0.99121250083E+01 -0.95835806773E+01  0.30888028489E+02  0.91264483821E+02  0.84764617987E+02 0.  0.
         11    1    3    3    0    0  0.33800064302E+02  0.17700976013E+01  0.31299082078E+02  0.46100001426E+02  0.51100000000E-03 0.  1.
         22    1    1    0    0    0  0.99121250083E+01  0.95835806773E+01 -0.30888028489E+02  0.33825516179E+02  0.00000000000E+00 0. -1.
</event>
<event>
 5    1  0.1059945E-009  0.9118800E+02  0.7815553E-02  0.1125453E+00
         25   -1    0    0    0    0  0.00000000000E+00  0.00000000000E+00  0.99999998245E-14  0.12509000000E+03  0.12509000000E+03 0.  0.
        -11    1    3    3    0    0  0.28950896750E+02 -0.71000547099E+01 -0.13969131038E+02  0.32919626695E+02  0.51100000000E-03 0. -1.
         23    2    1    0    0    0 -0.20372225597E+02  0.21002163512E+02 -0.19457629881E+02  0.89951448399E+02  0.82804258710E+02 0.  0.
         11    1    3    3    0    0 -0.49323122348E+02  0.28102218222E+02 -0.54884988437E+01  0.57031821705E+02  0.51100000000E-03 0.  1.
         22    1    1    0    0    0  0.20372225597E+02 -0.21002163512E+02  0.19457629881E+02  0.35138551601E+02  0.00000000000E+00 0.  1.
</event>
<event>
 5    1  0.1059945E-009  0.9118800E+02  0.7815553E-02  0.1125453E+00
         25   -1    0    0    0    0  0.00000000000E+00  0.00000000000E+00  0.99999998245E-14  0.12509000000E+03  0.12509000000E+03 0.  0.
        -11    1    3    3    0    0  0.42496642815E+02 -0.30515262842E+02 -0.24934510020E+02  0.57955808225E+02  0.51100000000E-03 0. -1.
         23    2    1    0    0    0  0.33334438395E+02 -0.36271718635E+01 -0.97281049711E+01  0.90176146229E+02  0.83143010311E+02 0.  0.
         11    1    3    3    0    0 -0.91622044199E+01  0.26888090979E+02  0.15206405049E+02  0.32220338004E+02  0.51100000000E-03 0.  1.
         22    1    1    0    0    0 -0.33334438395E+02  0.36271718635E+01  0.97281049711E+01  0.34913853771E+02  0.00000000000E+00 0. -1.
</event>
<event>
 5    1  0.1059945E-009  0.9118800E+02  0.7815553E-02  0.1125453E+00
         25   -1    0    0    0    0  0.00000000000E+00  0.00000000000E+00  0.99999998245E-14  0.12509000000E+03  0.12509000000E+03 0.  0.
        -11    1    3    3    0    0 -0.42156794017E+02 -0.43068937698E+02  0.58675544842E+01  0.60552100477E+02  0.51100000000E-03 0. -1.
         23    2    1    0    0    0 -0.25435362179E+02 -0.29554412810E+02 -0.68037688022E+01  0.85508284075E+02  0.75795477502E+02 0.  0.
         11    1    3    3    0    0  0.16721431839E+02  0.13514524888E+02 -0.12671323286E+02  0.24956183598E+02  0.51100000000E-03 0.  1.
         22    1    1    0    0    0  0.25435362179E+02  0.29554412810E+02  0.68037688022E+01  0.39581715925E+02  0.00000000000E+00 0. -1.
</event>
<event>
 5    1  0.1059945E-009  0.9118800E+02  0.7815553E-02  0.1125453E+00
         25   -1    0    0    0    0  0.00000000000E+00  0.00000000000E+00  0.99999998245E-14  0.12509000000E+03  0.12509000000E+03 0.  0.
        -11    1    3    3    0    0 -0.12315516179E+02  0.16367609556E+02  0.40760674772E+02  0.45618013870E+02  0.51100000000E-03 0. -1.
         23    2    1    0    0    0 -0.35247493398E+02 -0.20559078952E+01  0.95339063559E+01  0.88518044644E+02  0.80609777999E+02 0.  0.
         11    1    3    3    0    0 -0.22931977220E+02 -0.18423517451E+02 -0.31226768416E+02  0.42900030774E+02  0.51100000000E-03 0.  1.
         22    1    1    0    0    0  0.35247493398E+02  0.20559078952E+01 -0.95339063559E+01  0.36571955356E+02  0.00000000000E+00 0. -1.
</event>
<event>
 5    1  0.1059945E-009  0.9118800E+02  0.7815553E-02  0.1125453E+00
         25   -1    0    0    0    0  0.00000000000E+00  0.00000000000E+00  0.99999998245E-14  0.12509000000E+03  0.12509000000E+03 0.  0.
        -11    1    3    3    0    0 -0.30800555469E+02  0.12255112225E+02  0.98980534887E+01  0.34595280834E+02  0.51100000000E-03 0.  1.
         23    2    1    0    0    0  0.25614175301E+02  0.17873363858E+02 -0.55750687822E+01  0.93362653690E+02  0.87806381317E+02 0.  0.
         11    1    3    3    0    0  0.56414730770E+02  0.56182516332E+01 -0.15473122271E+02  0.58767372856E+02  0.51100000000E-03 0. -1.
         22    1    1    0    0    0 -0.25614175301E+02 -0.17873363858E+02  0.55750687822E+01  0.31727346310E+02  0.00000000000E+00 0. -1.
</event>
<event>
 5    1  0.1059945E-009  0.9118800E+02  0.7815553E-02  0.1125453E+00
         25   -1    0    0    0    0  0.00000000000E+00  0.00000000000E+00  0.99999998245E-14  0.12509000000E+03  0.12509000000E+03 0.  0.
        -11    1    3    3    0    0 -0.24349425338E+02 -0.28400776355E+02  0.26914732837E+02  0.46085805362E+02  0.51100000000E-03 0.  1.
         23    2    1    0    0    0  0.78210371974E+01 -0.29221996989E+02 -0.82315808664E+01  0.93739519072E+02  0.88341636737E+02 0.  0.
         11    1    3    3    0    0  0.32170462536E+02 -0.82122063377E+00 -0.35146313704E+02  0.47653713710E+02  0.51100000000E-03 0. -1.
         22    1    1    0    0    0 -0.78210371974E+01  0.29221996989E+02  0.82315808664E+01  0.31350480928E+02  0.00000000000E+00 0. -1.
</event>
<event>
 5    1  0.1059945E-009  0.9118800E+02  0.7815553E-02  0.1125453E+00
         25   -1    0    0    0    0  0.00000000000E+00  0.00000000000E+00  0.99999998245E-14  0.12509000000E+03  0.12509000000E+03 0.  0.
        -11    1    3    3    0    0 -0.30208960640E+02  0.38883780869E+02  0.35016190929E+02  0.60420719501E+02  0.51100000000E-03 0. -1.
         23    2    1    0    0    0 -0.77786906921E+01  0.15208499866E+02  0.25505289235E+02  0.94392666630E+02  0.89261689641E+02 0.  0.
         11    1    3    3    0    0  0.22430269948E+02 -0.23675281002E+02 -0.95109016935E+01  0.33971947129E+02  0.51100000000E-03 0.  1.
         22    1    1    0    0    0  0.77786906921E+01 -0.15208499866E+02 -0.25505289235E+02  0.30697333370E+02  0.00000000000E+00 0. -1.
</event>
<event>
 5    1  0.1059945E-009  0.9118800E+02  0.7815553E-02  0.1125453E+00
         25   -1    0    0    0    0  0.00000000000E+00  0.00000000000E+00  0.99999998245E-14  0.12509000000E+03  0.12509000000E+03 0.  0.
        -11    1    3    3    0    0 -0.84934182575E+01  0.28122322329E+02 -0.23709765975E+02  0.37751240638E+02  0.51100000000E-03 0. -1.
         23    2    1    0    0    0 -0.22685975728E+02 -0.72773187043E+01  0.18711274339E+02  0.94796029484E+02  0.89825177741E+02 0.  0.
         11    1    3    3    0    0 -0.14192557471E+02 -0.35399641034E+02  0.42421040313E+02  0.57044788845E+02  0.51100000000E-03 0.  1.
         22    1    1    0    0    0  0.22685975728E+02  0.72773187043E+01 -0.18711274339E+02  0.30293970516E+02  0.00000000000E+00 0.  1.
</event>
<event>
 5    1  0.1059945E-009  0.9118800E+02  0.7815553E-02  0.1125453E+00
         25   -1    0    0    0    0  0.00000000000E+00  0.00000000000E+00  0.99999998245E-14  0.12509000000E+03  0.12509000000E+03 0.  0.
        -11    1    3    3    0    0  0.26597642517E+01  0.38341405660E+01 -0.52834502448E+02  0.53040169956E+02  0.51100000000E-03 0. -1.
         23    2    1    0    0    0  0.97383514322E+01  0.23556727033E+02 -0.17331637710E+02  0.94265650164E+02  0.89083512829E+02 0.  0.
         11    1    3    3    0    0  0.70785871805E+01  0.19722586467E+02  0.35502864739E+02  0.41225480208E+02  0.51100000000E-03 0.  1.
         22    1    1    0    0    0 -0.97383514322E+01 -0.23556727033E+02  0.17331637710E+02  0.30824349836E+02  0.00000000000E+00 0. -1.
</event>
<event>
 5    1  0.1059945E-009  0.9118800E+02  0.7815553E-02  0.1125453E+00
         25   -1    0    0    0    0  0.00000000000E+00  0.00000000000E+00  0.99999998245E-14  0.12509000000E+03  0.12509000000E+03 0.  0.
        -11    1    3    3    0    0 -0.49828774189E+02 -0.10713784912E+02 -0.19906068357E+02  0.54716939626E+02  0.51100000000E-03 0.  1.
         23    2    1    0    0    0 -0.28045090377E+02  0.13687935502E+02  0.15632491330E+01  0.93843713494E+02  0.88489050971E+02 0.  0.
         11    1    3    3    0    0  0.21783683812E+02  0.24401720414E+02  0.21469317490E+02  0.39126773868E+02  0.51100000000E-03 0. -1.
         22    1    1    0    0    0  0.28045090377E+02 -0.13687935502E+02 -0.15632491330E+01  0.31246286506E+02  0.00000000000E+00 0.  1.
</event>
<event>
 5    1  0.1059945E-009  0.9118800E+02  0.7815553E-02  0.1125453E+00
         25   -1    0    0    0    0  0.00000000000E+00  0.00000000000E+00  0.99999998245E-14  0.12509000000E+03  0.12509000000E+03 0.  0.
        -11    1    3    3    0    0  0.75473328267E+01 -0.42137048145E+02  0.55705220463E+01  0.43168550767E+02  0.51100000000E-03 0.  1.
         23    2    1    0    0    0  0.16123350928E+02  0.10901266575E+02  0.18291134844E+02  0.98381093771E+02  0.94686186636E+02 0.  0.
         11    1    3    3    0    0  0.85760181009E+01  0.53038314720E+02  0.12720612797E+02  0.55212543004E+02  0.51100000000E-03 0. -1.
         22    1    1    0    0    0 -0.16123350928E+02 -0.10901266575E+02 -0.18291134844E+02  0.26708906229E+02  0.00000000000E+00 0. -1.
</event>
<event>
 5    1  0.1059945E-009  0.9118800E+02  0.7815553E-02  0.1125453E+00
         25   -1    0    0    0    0  0.00000000000E+00  0.00000000000E+00  0.99999998245E-14  0.12509000000E+03  0.12509000000E+03 0.  0.
        -11    1    3    3    0    0  0.23051307345E+02  0.24012400243E+02 -0.14906685069E+02  0.36471460017E+02  0.51100000000E-03 0.  1.
         23    2    1    0    0    0 -0.12851675107E+02 -0.22944007134E+02 -0.13340495062E+02  0.95601666291E+02  0.90940182388E+02 0.  0.
         11    1    3    3    0    0 -0.35902982451E+02 -0.46956407377E+02  0.15661900073E+01  0.59130206275E+02  0.51100000000E-03 0. -1.
         22    1    1    0    0    0  0.12851675107E+02  0.22944007134E+02  0.13340495062E+02  0.29488333709E+02  0.00000000000E+00 0. -1.
</event>
<event>
 5    1  0.1059945E-009  0.9118800E+02  0.7815553E-02  0.1125453E+00
         25   -1    0    0    0    0  0.00000000000E+00  0.00000000000E+00  0.99999998245E-14  0.12509000000E+03  0.12509000000E+03 0.  0.
        -11    1    3    3    0    0 -0.50229403169E+02  0.44222124275E+01  0.20965479788E+02  0.54608609655E+02  0.51100000000E-03 0.  1.
         23    2    1    0    0    0 -0.18836491993E+02  0.21375321672E+02 -0.11343672531E+01  0.96576764543E+02  0.92271701260E+02 0.  0.
         11    1    3    3    0    0  0.31392911177E+02  0.16953109244E+02 -0.22099847041E+02  0.41968154888E+02  0.51100000000E-03 0. -1.
         22    1    1    0    0    0  0.18836491993E+02 -0.21375321672E+02  0.11343672531E+01  0.28513235457E+02  0.00000000000E+00 0.  1.
</event>
<event>
 5    1  0.1059945E-009  0.9118800E+02  0.7815553E-02  0.1125453E+00
         25   -1    0    0    0    0  0.00000000000E+00  0.00000000000E+00  0.99999998245E-14  0.12509000000E+03  0.12509000000E+03 0.  0.
        -11    1    3    3    0    0  0.23859481676E+02 -0.25171598095E+02  0.21344030739E+02  0.40724094403E+02  0.51100000000E-03 0.  1.
         23    2    1    0    0    0  0.65734890429E+01 -0.10653473362E+02 -0.27688339839E+02  0.94703301990E+02  0.89695953041E+02 0.  0.
         11    1    3    3    0    0 -0.17285992633E+02  0.14518124732E+02 -0.49032370578E+02  0.53979207588E+02  0.51100000000E-03 0. -1.
         22    1    1    0    0    0 -0.65734890429E+01  0.10653473362E+02  0.27688339839E+02  0.30386698010E+02  0.00000000000E+00 0. -1.
</event>
<event>
 5    1  0.1059945E-009  0.9118800E+02  0.7815553E-02  0.1125453E+00
         25   -1    0    0    0    0  0.00000000000E+00  0.00000000000E+00  0.99999998245E-14  0.12509000000E+03  0.12509000000E+03 0.  0.
        -11    1    3    3    0    0 -0.17088393908E+02 -0.24637884837E+02 -0.45406245444E+02  0.54412918513E+02  0.51100000000E-03 0.  1.
         23    2    1    0    0    0  0.14103054942E+02 -0.16817193300E+02 -0.16835669821E+02  0.97428584138E+02  0.93419350670E+02 0.  0.
         11    1    3    3    0    0  0.31191448850E+02  0.78206915367E+01  0.28570575623E+02  0.43015665625E+02  0.51100000000E-03 0. -1.
         22    1    1    0    0    0 -0.14103054942E+02  0.16817193300E+02  0.16835669821E+02  0.27661415862E+02  0.00000000000E+00 0.  1.
</event>
<event>
 5    1  0.1059945E-009  0.9118800E+02  0.7815553E-02  0.1125453E+00
         25   -1    0    0    0    0  0.00000000000E+00  0.00000000000E+00  0.99999998245E-14  0.12509000000E+03  0.12509000000E+03 0.  0.
        -11    1    3    3    0    0 -0.23773258833E+02 -0.69958334322E+01 -0.25539510515E+02  0.35586178758E+02  0.51100000000E-03 0. -1.
         23    2    1    0    0    0  0.84237566181E+01  0.21898312476E+02  0.16889169665E+02  0.96180835072E+02  0.91733381156E+02 0.  0.
         11    1    3    3    0    0  0.32197015451E+02  0.28894145908E+02  0.42428680180E+02  0.60594656314E+02  0.51100000000E-03 0.  1.
         22    1    1    0    0    0 -0.84237566181E+01 -0.21898312476E+02 -0.16889169665E+02  0.28909164928E+02  0.00000000000E+00 0.  1.
</event>
<event>
 5    1  0.1059945E-009  0.9118800E+02  0.7815553E-02  0.1125453E+00
         25   -1    0    0    0    0  0.00000000000E+00  0.00000000000E+00  0.99999998245E-14  0.12509000000E+03  0.12509000000E+03 0.  0.
        -11    1    3    3    0    0  0.82232255146E+01 -0.49857679149E+01  0.37793868024E+02  0.38998150982E+02  0.51100000000E-03 0. -1.
         23    2    1    0    0    0 -0.31127100898E+02 -0.42338789534E+01  0.34404700407E+02  0.78501315200E+02  0.63181887726E+02 0.  0.
         11    1    3    3    0    0 -0.39350326413E+02  0.75188896150E+00 -0.33891676166E+01  0.39503164217E+02  0.51100000000E-03 0.  1.
         22    1    1    0    0    0  0.31127100898E+02  0.42338789534E+01 -0.34404700407E+02  0.46588684800E+02  0.00000000000E+00 0.  1.
</event>
<event>
 5    1  0.1059945E-009  0.9118800E+02  0.7815553E-02  0.1125453E+00
         25   -1    0    0    0    0  0.00000000000E+00  0.00000000000E+00  0.99999998245E-14  0.12509000000E+03  0.12509000000E+03 0.  0.
        -11    1    3    3    0    0  0.14504185682E+02 -0.46117586342E+02 -0.36568935493E+02  0.60617573489E+02  0.51100000000E-03 0. -1.
         23    2    1    0    0    0  0.11432279853E+02 -0.99446904429E+01 -0.18524198723E+02  0.10115801661E+03  0.98286339313E+02 0.  0.
         11    1    3    3    0    0 -0.30719058292E+01  0.36172895899E+02  0.18044736770E+02  0.40540443122E+02  0.51100000000E-03 0.  1.
         22    1    1    0    0    0 -0.11432279853E+02  0.99446904429E+01  0.18524198723E+02  0.23931983390E+02  0.00000000000E+00 0. -1.
</event>
<event>
 4    1  0.1059945E-009  0.9118800E+02  0.7815553E-02  0.1125453E+00
         25   -1    0    0    0    0  0.00000000000E+00  0.00000000000E+00  0.99999998245E-14  0.12509000000E+03  0.12509000000E+03 0.  0.
        -11    1    1    0    0    0 -0.34184452339E+02  0.13547325042E+02 -0.54885350446E+01  0.37178364874E+02  0.51100000000E-03 0.  1.
         11    1    1    0    0    0 -0.40796603007E+01 -0.90679556640E+01 -0.32391235100E+02  0.33883086632E+02  0.51100000000E-03 0. -1.
         22    1    1    0    0    0  0.38264112640E+02 -0.44793693781E+01  0.37879770145E+02  0.54028548494E+02  0.00000000000E+00 0. -1.
</event>
<event>
 5    1  0.1059945E-009  0.9118800E+02  0.7815553E-02  0.1125453E+00
         25   -1    0    0    0    0  0.00000000000E+00  0.00000000000E+00  0.99999998245E-14  0.12509000000E+03  0.12509000000E+03 0.  0.
        -11    1    3    3    0    0 -0.13849935710E+02  0.17511166909E+02 -0.25359003445E+02  0.33786694743E+02  0.51100000000E-03 0. -1.
         23    2    1    0    0    0  0.26492250119E+02  0.17972123083E+02  0.13999463027E+02  0.90149743998E+02  0.83103278235E+02 0.  0.
         11    1    3    3    0    0  0.40342185828E+02  0.46095617431E+00  0.39358466472E+02  0.56363049255E+02  0.51100000000E-03 0.  1.
         22    1    1    0    0    0 -0.26492250119E+02 -0.17972123083E+02 -0.13999463027E+02  0.34940256002E+02  0.00000000000E+00 0.  1.
</event>
<event>
 5    1  0.1059945E-009  0.9118800E+02  0.7815553E-02  0.1125453E+00
         25   -1    0    0    0    0  0.00000000000E+00  0.00000000000E+00  0.99999998245E-14  0.12509000000E+03  0.12509000000E+03 0.  0.
        -11    1    3    3    0    0 -0.39422558674E+02 -0.46628689084E+02 -0.61973065544E+01  0.61374093777E+02  0.51100000000E-03 0.  1.
         23    2    1    0    0    0 -0.19317835910E+02 -0.23407699783E+02 -0.11672148129E+02  0.92573262228E+02  0.86674509771E+02 0.  0.
         11    1    3    3    0    0  0.20104722764E+02  0.23220989300E+02 -0.54748415749E+01  0.31199168451E+02  0.51100000000E-03 0. -1.
         22    1    1    0    0    0  0.19317835910E+02  0.23407699783E+02  0.11672148129E+02  0.32516737772E+02  0.00000000000E+00 0.  1.
</event>
<event>
 5    1  0.1059945E-009  0.9118800E+02  0.7815553E-02  0.1125453E+00
         25   -1    0    0    0    0  0.00000000000E+00  0.00000000000E+00  0.99999998245E-14  0.12509000000E+03  0.12509000000E+03 0.  0.
        -11    1    3    3    0    0  0.22723708286E+02  0.29442241729E+02  0.28613524962E+02  0.46924900930E+02  0.51100000000E-03 0. -1.
         23    2    1    0    0    0 -0.17148803217E+02  0.23746761355E+02  0.95766664137E+00  0.95782880523E+02  0.91189105431E+02 0.  0.
         11    1    3    3    0    0 -0.39872511503E+02 -0.56954803735E+01 -0.27655858320E+02  0.48857979593E+02  0.51100000000E-03 0.  1.
         22    1    1    0    0    0  0.17148803217E+02 -0.23746761355E+02 -0.95766664137E+00  0.29307119477E+02  0.00000000000E+00 0. -1.
</event>
<event>
 5    1  0.1059945E-009  0.9118800E+02  0.7815553E-02  0.1125453E+00
         25   -1    0    0    0    0  0.00000000000E+00  0.00000000000E+00  0.99999998245E-14  0.12509000000E+03  0.12509000000E+03 0.  0.
        -11    1    3    3    0    0 -0.29923046830E+01  0.25063290476E+02  0.26453193988E+02  0.36563559581E+02  0.51100000000E-03 0.  1.
         23    2    1    0    0    0  0.12139098642E+02  0.63755924786E+01 -0.26795720228E+02  0.94989891731E+02  0.90094744648E+02 0.  0.
         11    1    3    3    0    0  0.15131403325E+02 -0.18687697997E+02 -0.53248914216E+02  0.58426332150E+02  0.51100000000E-03 0. -1.
         22    1    1    0    0    0 -0.12139098642E+02 -0.63755924786E+01  0.26795720228E+02  0.30100108269E+02  0.00000000000E+00 0. -1.
</event>
<event>
 5    1  0.1059945E-009  0.9118800E+02  0.7815553E-02  0.1125453E+00
         25   -1    0    0    0    0  0.00000000000E+00  0.00000000000E+00  0.99999998245E-14  0.12509000000E+03  0.12509000000E+03 0.  0.
        -11    1    3    3    0    0 -0.88123906227E+01 -0.43514185087E+02 -0.65880466800E+01  0.44883681797E+02  0.51100000000E-03 0. -1.
         23    2    1    0    0    0 -0.27357888290E+02  0.33373534134E+01 -0.10890724118E+02  0.95455563084E+02  0.90738992018E+02 0.  0.
         11    1    3    3    0    0 -0.18545497667E+02  0.46851538501E+02 -0.43026774384E+01  0.50571881288E+02  0.51100000000E-03 0.  1.
         22    1    1    0    0    0  0.27357888290E+02 -0.33373534134E+01  0.10890724118E+02  0.29634436916E+02  0.00000000000E+00 0.  1.
</event>
<event>
 5    1  0.1059945E-009  0.9118800E+02  0.7815553E-02  0.1125453E+00
         25   -1    0    0    0    0  0.00000000000E+00  0.00000000000E+00  0.99999998245E-14  0.12509000000E+03  0.12509000000E+03 0.  0.
        -11    1    3    3    0    0  0.12340389347E+01  0.24601149397E+02  0.28681717245E+02  0.37807146258E+02  0.51100000000E-03 0. -1.
         23    2    1    0    0    0  0.20574983004E+02  0.31245367757E+01 -0.21152846839E+02  0.95416180140E+02  0.90684683643E+02 0.  0.
         11    1    3    3    0    0  0.19340944070E+02 -0.21476612621E+02 -0.49834564084E+02  0.57609033883E+02  0.51100000000E-03 0.  1.
         22    1    1    0    0    0 -0.20574983004E+02 -0.31245367757E+01  0.21152846839E+02  0.29673819860E+02  0.00000000000E+00 0.  1.
</event>
<event>
 5    1  0.1059945E-009  0.9118800E+02  0.7815553E-02  0.1125453E+00
         25   -1    0    0    0    0  0.00000000000E+00  0.00000000000E+00  0.99999998245E-14  0.12509000000E+03  0.12509000000E+03 0.  0.
        -11    1    3    3    0    0  0.36895514641E+02  0.14313197668E+02 -0.96011067293E+01  0.40722572104E+02  0.51100000000E-03 0.  1.
         23    2    1    0    0    0  0.70586472481E+00 -0.26069599646E+02 -0.14640700269E+02  0.95182268975E+02  0.90361451694E+02 0.  0.
         11    1    3    3    0    0 -0.36189649916E+02 -0.40382797314E+02 -0.50395935393E+01  0.54459696871E+02  0.51100000000E-03 0. -1.
         22    1    1    0    0    0 -0.70586472481E+00  0.26069599646E+02  0.14640700269E+02  0.29907731025E+02  0.00000000000E+00 0. -1.
</event>
<event>
 5    1  0.1059945E-009  0.9118800E+02  0.7815553E-02  0.1125453E+00
         25   -1    0    0    0    0  0.00000000000E+00  0.00000000000E+00  0.99999998245E-14  0.12509000000E+03  0.12509000000E+03 0.  0.
        -11    1    3    3    0    0 -0.79278192773E+01 -0.18207445292E+02 -0.52557631795E+02  0.56184215245E+02  0.51100000000E-03 0.  1.
         23    2    1    0    0    0  0.16341198541E+02 -0.68649971488E+01 -0.19376516339E+02  0.98829528925E+02  0.95276772860E+02 0.  0.
         11    1    3    3    0    0  0.24269017819E+02  0.11342448143E+02  0.33181115456E+02  0.42645313680E+02  0.51100000000E-03 0. -1.
         22    1    1    0    0    0 -0.16341198541E+02  0.68649971488E+01  0.19376516339E+02  0.26260471075E+02  0.00000000000E+00 0. -1.
</event>
<event>
 5    1  0.1059945E-009  0.9118800E+02  0.7815553E-02  0.1125453E+00
         25   -1    0    0    0    0  0.00000000000E+00  0.00000000000E+00  0.99999998245E-14  0.12509000000E+03  0.12509000000E+03 0.  0.
        -11    1    3    3    0    0  0.39547834817E+02  0.87445210289E+00  0.45258563024E+02  0.60109345633E+02  0.51100000000E-03 0. -1.
         23    2    1    0    0    0  0.21403092176E+02 -0.10455562989E+02  0.15837547405E+02  0.96485121746E+02  0.92147380095E+02 0.  0.
         11    1    3    3    0    0 -0.18144742641E+02 -0.11330015092E+02 -0.29421015619E+02  0.36375776113E+02  0.51100000000E-03 0.  1.
         22    1    1    0    0    0 -0.21403092176E+02  0.10455562989E+02 -0.15837547405E+02  0.28604878254E+02  0.00000000000E+00 0.  1.
</event>
<event>
 5    1  0.1059945E-009  0.9118800E+02  0.7815553E-02  0.1125453E+00
         25   -1    0    0    0    0  0.00000000000E+00  0.00000000000E+00  0.99999998245E-14  0.12509000000E+03  0.12509000000E+03 0.  0.
        -11    1    3    3    0    0  0.35361529532E+02  0.17488672218E-01 -0.20070150079E+02  0.40660164795E+02  0.51100000000E-03 0.  1.
         23    2    1    0    0    0 -0.56489436231E+01 -0.30201650986E+02 -0.11307289648E+02  0.92350038401E+02  0.86351748720E+02 0.  0.
         11    1    3    3    0    0 -0.41010473155E+02 -0.30219139658E+02  0.87628604316E+01  0.51689873605E+02  0.51100000000E-03 0. -1.
         22    1    1    0    0    0  0.56489436231E+01  0.30201650986E+02  0.11307289648E+02  0.32739961599E+02  0.00000000000E+00 0. -1.
</event>
<event>
 5    1  0.1059945E-009  0.9118800E+02  0.7815553E-02  0.1125453E+00
         25   -1    0    0    0    0  0.00000000000E+00  0.00000000000E+00  0.99999998245E-14  0.12509000000E+03  0.12509000000E+03 0.  0.
        -11    1    3    3    0    0  0.19760981601E+02 -0.29417646231E+02  0.41830696564E+02  0.54824278189E+02  0.51100000000E-03 0.  1.
         23    2    1    0    0    0  0.30686322944E+01  0.54889515566E+01  0.28738260139E+02  0.95671762643E+02  0.91036550232E+02 0.  0.
         11    1    3    3    0    0 -0.16692349307E+02  0.34906597787E+02 -0.13092436425E+02  0.40847484455E+02  0.51100000000E-03 0. -1.
         22    1    1    0    0    0 -0.30686322944E+01 -0.54889515566E+01 -0.28738260139E+02  0.29418237357E+02  0.00000000000E+00 0.  1.
</event>
<event>
 5    1  0.1059945E-009  0.9118800E+02  0.7815553E-02  0.1125453E+00
         25   -1    0    0    0    0  0.00000000000E+00  0.00000000000E+00  0.99999998245E-14  0.12509000000E+03  0.12509000000E+03 0.  0.
        -11    1    3    3    0    0 -0.23364608841E+02  0.60047860263E+01 -0.63916619330E+00  0.24132362818E+02  0.51100000000E-03 0.  1.
         23    2    1    0    0    0  0.38578256905E+02 -0.10072751496E+01 -0.13517702090E+01  0.86474927920E+02  0.77374345665E+02 0.  0.
         11    1    3    3    0    0  0.61942865746E+02 -0.70120611759E+01 -0.71260401567E+00  0.62342565102E+02  0.51100000000E-03 0. -1.
         22    1    1    0    0    0 -0.38578256905E+02  0.10072751496E+01  0.13517702090E+01  0.38615072080E+02  0.00000000000E+00 0. -1.
</event>
<event>
 5    1  0.1059945E-009  0.9118800E+02  0.7815553E-02  0.1125453E+00
         25   -1    0    0    0    0  0.00000000000E+00  0.00000000000E+00  0.99999998245E-14  0.12509000000E+03  0.12509000000E+03 0.  0.
        -11    1    3    3    0    0  0.35749171632E+02 -0.12368551183E+02  0.38156235505E+02  0.53729718396E+02  0.51100000000E-03 0. -1.
         23    2    1    0    0    0  0.11787601616E+02 -0.25888922104E+02  0.60574855281E+01  0.96006035853E+02  0.91494709955E+02 0.  0.
         11    1    3    3    0    0 -0.23961570015E+02 -0.13520370921E+02 -0.32098749977E+02  0.42276317457E+02  0.51100000000E-03 0.  1.
         22    1    1    0    0    0 -0.11787601616E+02  0.25888922104E+02 -0.60574855281E+01  0.29083964147E+02  0.00000000000E+00 0.  1.
</event>
<event>
 5    1  0.1059945E-009  0.9118800E+02  0.7815553E-02  0.1125453E+00
         25   -1    0    0    0    0  0.00000000000E+00  0.00000000000E+00  0.99999998245E-14  0.12509000000E+03  0.12509000000E+03 0.  0.
        -11    1    3    3    0    0  0.58447033943E+01  0.30716147736E+02 -0.46618658680E+02  0.56133248854E+02  0.51100000000E-03 0. -1.
         23    2    1    0    0    0 -0.38299389124E+01 -0.24884330200E+01 -0.30428770905E+02  0.94320358634E+02  0.89160300712E+02 0.  0.
         11    1    3    3    0    0 -0.96746423067E+01 -0.33204580756E+02  0.16189887775E+02  0.38187109780E+02  0.51100000000E-03 0.  1.
         22    1    1    0    0    0  0.38299389124E+01  0.24884330200E+01  0.30428770905E+02  0.30769641366E+02  0.00000000000E+00 0. -1.
</event>
<event>
 5    1  0.1059945E-009  0.9118800E+02  0.7815553E-02  0.1125453E+00
         25   -1    0    0    0    0  0.00000000000E+00  0.00000000000E+00  0.99999998245E-14  0.12509000000E+03  0.12509000000E+03 0.  0.
        -11    1    3    3    0    0  0.79345604139E+01 -0.13538495300E+02 -0.57146764059E+02  0.59262135860E+02  0.51100000000E-03 0.  1.
         23    2    1    0    0    0  0.55834712037E+01  0.79206353160E+01 -0.27475770051E+02  0.95955320417E+02  0.91425346387E+02 0.  0.
         11    1    3    3    0    0 -0.23510892102E+01  0.21459130616E+02  0.29670994008E+02  0.36693184558E+02  0.51100000000E-03 0. -1.
         22    1    1    0    0    0 -0.55834712037E+01 -0.79206353160E+01  0.27475770051E+02  0.29134679583E+02  0.00000000000E+00 0.  1.
</event>
<event>
 5    1  0.1059945E-009  0.9118800E+02  0.7815553E-02  0.1125453E+00
         25   -1    0    0    0    0  0.00000000000E+00  0.00000000000E+00  0.99999998245E-14  0.12509000000E+03  0.12509000000E+03 0.  0.
        -11    1    3    3    0    0 -0.52189945419E+02 -0.26835150180E+02 -0.20422906182E+02  0.62137032317E+02  0.51100000000E-03 0. -1.
         23    2    1    0    0    0 -0.26046070881E+02 -0.13544930015E+02 -0.48781672484E+01  0.95329968865E+02  0.90565686166E+02 0.  0.
         11    1    3    3    0    0  0.26143874538E+02  0.13290220165E+02  0.15544738934E+02  0.33192936548E+02  0.51100000000E-03 0.  1.
         22    1    1    0    0    0  0.26046070881E+02  0.13544930015E+02  0.48781672484E+01  0.29760031135E+02  0.00000000000E+00 0. -1.
</event>
<event>
 5    1  0.1059945E-009  0.9118800E+02  0.7815553E-02  0.1125453E+00
         25   -1    0    0    0    0  0.00000000000E+00  0.00000000000E+00  0.99999998245E-14  0.12509000000E+03  0.12509000000E+03 0.  0.
        -11    1    3    3    0    0 -0.43382337680E+01 -0.26769758616E+02 -0.27495191819E+02  0.38618982664E+02  0.51100000000E-03 0. -1.
         23    2    1    0    0    0  0.24519736458E+02 -0.33282827938E+02  0.60100579393E+01  0.83315786567E+02  0.72086305103E+02 0.  0.
         11    1    3    3    0    0  0.28857970226E+02 -0.65130693221E+01  0.33505249758E+02  0.44696803903E+02  0.51100000000E-03 0.  1.
         22    1    1    0    0    0 -0.24519736458E+02  0.33282827938E+02 -0.60100579393E+01  0.41774213433E+02  0.00000000000E+00 0.  1.
</event>
<event>
 5    1  0.1059945E-009  0.9118800E+02  0.7815553E-02  0.1125453E+00
         25   -1    0    0    0    0  0.00000000000E+00  0.00000000000E+00  0.99999998245E-14  0.12509000000E+03  0.12509000000E+03 0.  0.
        -11    1    3    3    0    0  0.17099984261E+02 -0.57317339251E+02  0.14246704869E+01  0.59830732294E+02  0.51100000000E-03 0. -1.
         23    2    1    0    0    0 -0.27143808884E+01 -0.28521085519E+02  0.78790589425E+01  0.95376370929E+02  0.90629754380E+02 0.  0.
         11    1    3    3    0    0 -0.19814365150E+02  0.28796253733E+02  0.64543884556E+01  0.35545638635E+02  0.51100000000E-03 0.  1.
         22    1    1    0    0    0  0.27143808884E+01  0.28521085519E+02 -0.78790589425E+01  0.29713629071E+02  0.00000000000E+00 0. -1.
</event>
<event>
 5    1  0.1059945E-009  0.9118800E+02  0.7815553E-02  0.1125453E+00
         25   -1    0    0    0    0  0.00000000000E+00  0.00000000000E+00  0.99999998245E-14  0.12509000000E+03  0.12509000000E+03 0.  0.
        -11    1    3    3    0    0 -0.64098052299E+01 -0.57285779590E+02 -0.21953667359E+02  0.61682328564E+02  0.51100000000E-03 0. -1.
         23    2    1    0    0    0 -0.24180618190E+01 -0.29015991805E+02 -0.32981248253E+01  0.95787228275E+02  0.91195069329E+02 0.  0.
         11    1    3    3    0    0  0.39917434109E+01  0.28269787784E+02  0.18655542533E+02  0.34104899711E+02  0.51100000000E-03 0.  1.
         22    1    1    0    0    0  0.24180618190E+01  0.29015991805E+02  0.32981248253E+01  0.29302771725E+02  0.00000000000E+00 0. -1.
</event>
<event>
 5    1  0.1059945E-009  0.9118800E+02  0.7815553E-02  0.1125453E+00
         25   -1    0    0    0    0  0.00000000000E+00  0.00000000000E+00  0.99999998245E-14  0.12509000000E+03  0.12509000000E+03 0.  0.
        -11    1    3    3    0    0  0.11108385139E+02  0.10149394244E+02 -0.45609299617E+02  0.48027228067E+02  0.51100000000E-03 0.  1.
         23    2    1    0    0    0 -0.19682698933E+02 -0.12966173742E+02 -0.18743869847E+02  0.94975834635E+02  0.90075225278E+02 0.  0.
         11    1    3    3    0    0 -0.30791084072E+02 -0.23115567987E+02  0.26865429770E+02  0.46948606568E+02  0.51100000000E-03 0. -1.
         22    1    1    0    0    0  0.19682698933E+02  0.12966173742E+02  0.18743869847E+02  0.30114165365E+02  0.00000000000E+00 0. -1.
</event>
<event>
 5    1  0.1059945E-009  0.9118800E+02  0.7815553E-02  0.1125453E+00
         25   -1    0    0    0    0  0.00000000000E+00  0.00000000000E+00  0.99999998245E-14  0.12509000000E+03  0.12509000000E+03 0.  0.
        -11    1    3    3    0    0  0.22065878795E+02 -0.63204704614E+01  0.46089517836E+02  0.51488785269E+02  0.51100000000E-03 0.  1.
         23    2    1    0    0    0 -0.12894920926E+02  0.10223777991E+02  0.23878113146E+02  0.96090536048E+02  0.91610164329E+02 0.  0.
         11    1    3    3    0    0 -0.34960799721E+02  0.16544248453E+02 -0.22211404690E+02  0.44601750779E+02  0.51100000000E-03 0. -1.
         22    1    1    0    0    0  0.12894920926E+02 -0.10223777991E+02 -0.23878113146E+02  0.28999463952E+02  0.00000000000E+00 0. -1.
</event>
<event>
 5    1  0.1059945E-009  0.9118800E+02  0.7815553E-02  0.1125453E+00
         25   -1    0    0    0    0  0.00000000000E+00  0.00000000000E+00  0.99999998245E-14  0.12509000000E+03  0.12509000000E+03 0.  0.
        -11    1    3    3    0    0 -0.45830304850E+01  0.30166234974E+02 -0.19399366509E+02  0.36157175251E+02  0.51100000000E-03 0. -1.
         23    2    1    0    0    0  0.23091757739E+02 -0.19286725186E+02 -0.79239562618E+01  0.93977363874E+02  0.88677780723E+02 0.  0.
         11    1    3    3    0    0  0.27674788224E+02 -0.49452960159E+02  0.11475410247E+02  0.57820188623E+02  0.51100000000E-03 0.  1.
         22    1    1    0    0    0 -0.23091757739E+02  0.19286725186E+02  0.79239562618E+01  0.31112636126E+02  0.00000000000E+00 0.  1.
</event>
<event>
 5    1  0.1059945E-009  0.9118800E+02  0.7815553E-02  0.1125453E+00
         25   -1    0    0    0    0  0.00000000000E+00  0.00000000000E+00  0.99999998245E-14  0.12509000000E+03  0.12509000000E+03 0.  0.
        -11    1    3    3    0    0  0.69439492427E+01  0.20759986012E+02  0.34959735905E+02  0.41247770668E+02  0.51100000000E-03 0. -1.
         23    2    1    0    0    0 -0.72516592528E+01 -0.26126159504E+02  0.10372269667E+02  0.96059899236E+02  0.91568321437E+02 0.  0.
         11    1    3    3    0    0 -0.14195608495E+02 -0.46886145516E+02 -0.24587466237E+02  0.54812128568E+02  0.51100000000E-03 0.  1.
         22    1    1    0    0    0  0.72516592528E+01  0.26126159504E+02 -0.10372269667E+02  0.29030100764E+02  0.00000000000E+00 0.  1.
</event>
<event>
 5    1  0.1059945E-009  0.9118800E+02  0.7815553E-02  0.1125453E+00
         25   -1    0    0    0    0  0.00000000000E+00  0.00000000000E+00  0.99999998245E-14  0.12509000000E+03  0.12509000000E+03 0.  0.
        -11    1    3    3    0    0  0.46346795238E+02 -0.29732907641E+02 -0.15516271331E+02  0.57208617374E+02  0.51100000000E-03 0.  1.
         23    2    1    0    0    0  0.25361402344E+02  0.28697996129E+01 -0.13927882805E+02  0.96013851732E+02  0.91505395066E+02 0.  0.
         11    1    3    3    0    0 -0.20985392894E+02  0.32602707253E+02  0.15883885261E+01  0.38805234357E+02  0.51100000000E-03 0. -1.
         22    1    1    0    0    0 -0.25361402344E+02 -0.28697996129E+01  0.13927882805E+02  0.29076148268E+02  0.00000000000E+00 0.  1.
</event>
<event>
 5    1  0.1059945E-009  0.9118800E+02  0.7815553E-02  0.1125453E+00
         25   -1    0    0    0    0  0.00000000000E+00  0.00000000000E+00  0.99999998245E-14  0.12509000000E+03  0.12509000000E+03 0.  0.
        -11    1    3    3    0    0 -0.36486356485E+02  0.21027179470E+02 -0.18493289510E+02  0.45993458700E+02  0.51100000000E-03 0. -1.
         23    2    1    0    0    0 -0.17969533338E+02  0.15231999919E+01  0.23259604495E+02  0.95658155548E+02  0.91017851298E+02 0.  0.
         11    1    3    3    0    0  0.18516823147E+02 -0.19503979478E+02  0.41752894005E+02  0.49664696848E+02  0.51100000000E-03 0.  1.
         22    1    1    0    0    0  0.17969533338E+02 -0.15231999919E+01 -0.23259604495E+02  0.29431844452E+02  0.00000000000E+00 0.  1.
</event>
<event>
 5    1  0.1059945E-009  0.9118800E+02  0.7815553E-02  0.1125453E+00
         25   -1    0    0    0    0  0.00000000000E+00  0.00000000000E+00  0.99999998245E-14  0.12509000000E+03  0.12509000000E+03 0.  0.
        -11    1    3    3    0    0  0.56371121238E+01  0.76067157552E+01 -0.40617327402E+02  0.41706191905E+02  0.51100000000E-03 0. -1.
         23    2    1    0    0    0 -0.30436880207E+02  0.67009601212E+01 -0.30848702290E+01  0.93771906705E+02  0.88387485084E+02 0.  0.
         11    1    3    3    0    0 -0.36073992331E+02 -0.90575563400E+00  0.37532457173E+02  0.52065714800E+02  0.51100000000E-03 0.  1.
         22    1    1    0    0    0  0.30436880207E+02 -0.67009601212E+01  0.30848702290E+01  0.31318093295E+02  0.00000000000E+00 0.  1.
</event>
<event>
 5    1  0.1059945E-009  0.9118800E+02  0.7815553E-02  0.1125453E+00
         25   -1    0    0    0    0  0.00000000000E+00  0.00000000000E+00  0.99999998245E-14  0.12509000000E+03  0.12509000000E+03 0.  0.
        -11    1    3    3    0    0  0.56329264647E+01  0.18150158846E+02  0.19299659405E+02  0.27085696965E+02  0.51100000000E-03 0. -1.
         23    2    1    0    0    0  0.12411289903E+02 -0.23692436296E+02 -0.25057488183E+02  0.88439633444E+02  0.80488007771E+02 0.  0.
         11    1    3    3    0    0  0.67783634382E+01 -0.41842595142E+02 -0.44357147587E+02  0.61353936479E+02  0.51100000000E-03 0.  1.
         22    1    1    0    0    0 -0.12411289903E+02  0.23692436296E+02  0.25057488183E+02  0.36650366556E+02  0.00000000000E+00 0.  1.
</event>
<event>
 5    1  0.1059945E-009  0.9118800E+02  0.7815553E-02  0.1125453E+00
         25   -1    0    0    0    0  0.00000000000E+00  0.00000000000E+00  0.99999998245E-14  0.12509000000E+03  0.12509000000E+03 0.  0.
        -11    1    3    3    0    0  0.24582526934E+02 -0.36081768465E+02  0.12506085925E+01  0.43677896792E+02  0.51100000000E-03 0. -1.
         23    2    1    0    0    0  0.51312271585E+01  0.41630336819E+01  0.28370198247E+02  0.95960487643E+02  0.91432416015E+02 0.  0.
         11    1    3    3    0    0 -0.19451299775E+02  0.40244802147E+02  0.27119589655E+02  0.52282590851E+02  0.51100000000E-03 0.  1.
         22    1    1    0    0    0 -0.51312271585E+01 -0.41630336819E+01 -0.28370198247E+02  0.29129512357E+02  0.00000000000E+00 0.  1.
</event>
<event>
 5    1  0.1059945E-009  0.9118800E+02  0.7815553E-02  0.1125453E+00
         25   -1    0    0    0    0  0.00000000000E+00  0.00000000000E+00  0.99999998245E-14  0.12509000000E+03  0.12509000000E+03 0.  0.
        -11    1    3    3    0    0  0.70833817901E+01 -0.27470058075E+02  0.25824714054E+02  0.38362667327E+02  0.51100000000E-03 0.  1.
         23    2    1    0    0    0  0.18957298371E+02  0.22248165478E+02 -0.49329588361E+00  0.95856399991E+02  0.91289901138E+02 0.  0.
         11    1    3    3    0    0  0.11873916581E+02  0.49718223553E+02 -0.26318009938E+02  0.57493732664E+02  0.51100000000E-03 0. -1.
         22    1    1    0    0    0 -0.18957298371E+02 -0.22248165478E+02  0.49329588361E+00  0.29233600009E+02  0.00000000000E+00 0. -1.
</event>
<event>
 5    1  0.1059945E-009  0.9118800E+02  0.7815553E-02  0.1125453E+00
         25   -1    0    0    0    0  0.00000000000E+00  0.00000000000E+00  0.99999998245E-14  0.12509000000E+03  0.12509000000E+03 0.  0.
        -11    1    3    3    0    0  0.53595428845E+02 -0.20238412896E+00  0.21237132527E+02  0.57650036865E+02  0.51100000000E-03 0.  1.
         23    2    1    0    0    0  0.23078755858E+02  0.16450628265E+02  0.39544767636E+01  0.96473745375E+02  0.92131935385E+02 0.  0.
         11    1    3    3    0    0 -0.30516672986E+02  0.16653012394E+02 -0.17282655763E+02  0.38823708509E+02  0.51100000000E-03 0. -1.
         22    1    1    0    0    0 -0.23078755858E+02 -0.16450628265E+02 -0.39544767636E+01  0.28616254625E+02  0.00000000000E+00 0.  1.
</event>
<event>
 5    1  0.1059945E-009  0.9118800E+02  0.7815553E-02  0.1125453E+00
         25   -1    0    0    0    0  0.00000000000E+00  0.00000000000E+00  0.99999998245E-14  0.12509000000E+03  0.12509000000E+03 0.  0.
        -11    1    3    3    0    0  0.29717426175E+01 -0.12406380528E+02  0.52313219612E+02  0.53846285651E+02  0.51100000000E-03 0.  1.
         23    2    1    0    0    0  0.22993848266E+02 -0.10875031600E+02  0.16915635156E+02  0.94542952956E+02  0.89472050778E+02 0.  0.
         11    1    3    3    0    0  0.20022105649E+02  0.15313489283E+01 -0.35397584456E+02  0.40696667305E+02  0.51100000000E-03 0. -1.
         22    1    1    0    0    0 -0.22993848266E+02  0.10875031600E+02 -0.16915635156E+02  0.30547047044E+02  0.00000000000E+00 0.  1.
</event>
<event>
 5    1  0.1059945E-009  0.9118800E+02  0.7815553E-02  0.1125453E+00
         25   -1    0    0    0    0  0.00000000000E+00  0.00000000000E+00  0.99999998245E-14  0.12509000000E+03  0.12509000000E+03 0.  0.
        -11    1    3    3    0    0 -0.12996111793E+02 -0.21121074016E+02 -0.22195782643E+02  0.33281398058E+02  0.51100000000E-03 0. -1.
         23    2    1    0    0    0  0.16780839370E+02  0.21591939610E+02  0.11631614884E+02  0.95372952857E+02  0.90625036528E+02 0.  0.
         11    1    3    3    0    0  0.29776951164E+02  0.42713013626E+02  0.33827397527E+02  0.62091554799E+02  0.51100000000E-03 0.  1.
         22    1    1    0    0    0 -0.16780839370E+02 -0.21591939610E+02 -0.11631614884E+02  0.29717047143E+02  0.00000000000E+00 0.  1.
</event>
<event>
 5    1  0.1059945E-009  0.9118800E+02  0.7815553E-02  0.1125453E+00
         25   -1    0    0    0    0  0.00000000000E+00  0.00000000000E+00  0.99999998245E-14  0.12509000000E+03  0.12509000000E+03 0.  0.
        -11    1    3    3    0    0  0.49136880548E+02  0.55045737554E+01  0.65797698365E+01  0.49880123633E+02  0.51100000000E-03 0. -1.
         23    2    1    0    0    0  0.11371182786E+01  0.24746493205E+01  0.23927203051E+02  0.10100830627E+03  0.98095616425E+02 0.  0.
         11    1    3    3    0    0 -0.47999762270E+02 -0.30299244348E+01  0.17347433214E+02  0.51128182634E+02  0.51100000000E-03 0.  1.
         22    1    1    0    0    0 -0.11371182786E+01 -0.24746493205E+01 -0.23927203051E+02  0.24081693733E+02  0.00000000000E+00 0.  1.
</event>
<event>
 5    1  0.1059945E-009  0.9118800E+02  0.7815553E-02  0.1125453E+00
         25   -1    0    0    0    0  0.00000000000E+00  0.00000000000E+00  0.99999998245E-14  0.12509000000E+03  0.12509000000E+03 0.  0.
        -11    1    3    3    0    0 -0.28146674551E+02  0.36844323279E+02 -0.35302466016E+02  0.58275239624E+02  0.51100000000E-03 0.  1.
         23    2    1    0    0    0  0.17869497506E+01  0.15206940917E+02 -0.23484517774E+02  0.97054900276E+02  0.92917634769E+02 0.  0.
         11    1    3    3    0    0  0.29933624301E+02 -0.21637382363E+02  0.11817948243E+02  0.38779660652E+02  0.51100000000E-03 0. -1.
         22    1    1    0    0    0 -0.17869497506E+01 -0.15206940917E+02  0.23484517774E+02  0.28035099724E+02  0.00000000000E+00 0.  1.
</event>
<event>
 5    1  0.1059945E-009  0.9118800E+02  0.7815553E-02  0.1125453E+00
         25   -1    0    0    0    0  0.00000000000E+00  0.00000000000E+00  0.99999998245E-14  0.12509000000E+03  0.12509000000E+03 0.  0.
        -11    1    3    3    0    0  0.15717667428E+02 -0.41212494592E+02 -0.84295270459E+01  0.44906254646E+02  0.51100000000E-03 0.  1.
         23    2    1    0    0    0  0.60017483713E+01 -0.66302992467E+01  0.27777104470E+02  0.95908680901E+02  0.91361510977E+02 0.  0.
         11    1    3    3    0    0 -0.97159190565E+01  0.34582195345E+02  0.36206631516E+02  0.51002426256E+02  0.51100000000E-03 0. -1.
         22    1    1    0    0    0 -0.60017483713E+01  0.66302992467E+01 -0.27777104470E+02  0.29181319099E+02  0.00000000000E+00 0. -1.
</event>
<event>
 5    1  0.1059945E-009  0.9118800E+02  0.7815553E-02  0.1125453E+00
         25   -1    0    0    0    0  0.00000000000E+00  0.00000000000E+00  0.99999998245E-14  0.12509000000E+03  0.12509000000E+03 0.  0.
        -11    1    3    3    0    0  0.46858431097E+02  0.25695404285E+02  0.17348715609E+02  0.56186691483E+02  0.51100000000E-03 0.  1.
         23    2    1    0    0    0  0.20103341325E+02 -0.22387198951E+01  0.22068658368E+02  0.95153702945E+02  0.90321898247E+02 0.  0.
         11    1    3    3    0    0 -0.26755089772E+02 -0.27934124181E+02  0.47199427590E+01  0.38967011463E+02  0.51100000000E-03 0. -1.
         22    1    1    0    0    0 -0.20103341325E+02  0.22387198951E+01 -0.22068658368E+02  0.29936297055E+02  0.00000000000E+00 0. -1.
</event>
<event>
 5    1  0.1059945E-009  0.9118800E+02  0.7815553E-02  0.1125453E+00
         25   -1    0    0    0    0  0.00000000000E+00  0.00000000000E+00  0.99999998245E-14  0.12509000000E+03  0.12509000000E+03 0.  0.
        -11    1    3    3    0    0  0.19378068674E+02 -0.38573324954E+02  0.22992673835E+02  0.48908833496E+02  0.51100000000E-03 0. -1.
         23    2    1    0    0    0  0.22293570216E+02 -0.10156654951E+02 -0.14940835607E+02  0.96395235993E+02  0.92025279358E+02 0.  0.
         11    1    3    3    0    0  0.29155015421E+01  0.28416670004E+02 -0.37933509442E+02  0.47486402498E+02  0.51100000000E-03 0.  1.
         22    1    1    0    0    0 -0.22293570216E+02  0.10156654951E+02  0.14940835607E+02  0.28694764007E+02  0.00000000000E+00 0.  1.
</event>
<event>
 5    1  0.1059945E-009  0.9118800E+02  0.7815553E-02  0.1125453E+00
         25   -1    0    0    0    0  0.00000000000E+00  0.00000000000E+00  0.99999998245E-14  0.12509000000E+03  0.12509000000E+03 0.  0.
        -11    1    3    3    0    0  0.45428838933E+02 -0.30383261736E+02  0.21752499321E+02  0.58822557131E+02  0.51100000000E-03 0.  1.
         23    2    1    0    0    0  0.28097385336E+02 -0.70754624231E+00  0.77235224367E+01  0.95941818526E+02  0.91406870961E+02 0.  0.
         11    1    3    3    0    0 -0.17331453597E+02  0.29675715493E+02 -0.14028976885E+02  0.37119261395E+02  0.51100000000E-03 0. -1.
         22    1    1    0    0    0 -0.28097385336E+02  0.70754624231E+00 -0.77235224367E+01  0.29148181474E+02  0.00000000000E+00 0.  1.
</event>
<event>
 5    1  0.1059945E-009  0.9118800E+02  0.7815553E-02  0.1125453E+00
         25   -1    0    0    0    0  0.00000000000E+00  0.00000000000E+00  0.99999998245E-14  0.12509000000E+03  0.12509000000E+03 0.  0.
        -11    1    3    3    0    0 -0.57987077100E+02 -0.16190053218E+01 -0.23611422797E+01  0.58057706482E+02  0.51100000000E-03 0. -1.
         23    2    1    0    0    0 -0.23103616464E+02 -0.11134394717E+02  0.11760458144E+02  0.96875460926E+02  0.92675750412E+02 0.  0.
         11    1    3    3    0    0  0.34883460636E+02 -0.95153893953E+01  0.14121600424E+02  0.38817754444E+02  0.51100000000E-03 0.  1.
         22    1    1    0    0    0  0.23103616464E+02  0.11134394717E+02 -0.11760458144E+02  0.28214539074E+02  0.00000000000E+00 0. -1.
</event>
<event>
 5    1  0.1059945E-009  0.9118800E+02  0.7815553E-02  0.1125453E+00
         25   -1    0    0    0    0  0.00000000000E+00  0.00000000000E+00  0.99999998245E-14  0.12509000000E+03  0.12509000000E+03 0.  0.
        -11    1    3    3    0    0  0.22443427947E+02  0.36988127242E+02 -0.38918810744E+01  0.43439334173E+02  0.51100000000E-03 0.  1.
         23    2    1    0    0    0 -0.16809345249E+02  0.66611779008E+01 -0.22328893452E+02  0.96358399600E+02  0.91975194003E+02 0.  0.
         11    1    3    3    0    0 -0.39252773197E+02 -0.30326949341E+02 -0.18437012378E+02  0.52919065427E+02  0.51100000000E-03 0. -1.
         22    1    1    0    0    0  0.16809345249E+02 -0.66611779008E+01  0.22328893452E+02  0.28731600400E+02  0.00000000000E+00 0. -1.
</event>
<event>
 5    1  0.1059945E-009  0.9118800E+02  0.7815553E-02  0.1125453E+00
         25   -1    0    0    0    0  0.00000000000E+00  0.00000000000E+00  0.99999998245E-14  0.12509000000E+03  0.12509000000E+03 0.  0.
        -11    1    3    3    0    0 -0.41124187239E+02  0.31112834069E+01 -0.26492801721E+02  0.49017827408E+02  0.51100000000E-03 0.  1.
         23    2    1    0    0    0 -0.26271777236E+02  0.40746913888E+01  0.16013020172E+02  0.94054114253E+02  0.88785979771E+02 0.  0.
         11    1    3    3    0    0  0.14852410003E+02  0.96340798194E+00  0.42505821892E+02  0.45036286845E+02  0.51100000000E-03 0. -1.
         22    1    1    0    0    0  0.26271777236E+02 -0.40746913888E+01 -0.16013020172E+02  0.31035885747E+02  0.00000000000E+00 0.  1.
</event>
<event>
 5    1  0.1059945E-009  0.9118800E+02  0.7815553E-02  0.1125453E+00
         25   -1    0    0    0    0  0.00000000000E+00  0.00000000000E+00  0.99999998245E-14  0.12509000000E+03  0.12509000000E+03 0.  0.
        -11    1    3    3    0    0 -0.37478044479E+02  0.27773151967E+01 -0.69806772018E+01  0.38223646505E+02  0.51100000000E-03 0.  1.
         23    2    1    0    0    0  0.62256417007E+01  0.24632235581E+02  0.18811953505E+02  0.93476786956E+02  0.87968826642E+02 0.  0.
         11    1    3    3    0    0  0.43703686180E+02  0.21854920384E+02  0.25792630707E+02  0.55253140451E+02  0.51100000000E-03 0. -1.
         22    1    1    0    0    0 -0.62256417007E+01 -0.24632235581E+02 -0.18811953505E+02  0.31613213044E+02  0.00000000000E+00 0. -1.
</event>
<event>
 5    1  0.1059945E-009  0.9118800E+02  0.7815553E-02  0.1125453E+00
         25   -1    0    0    0    0  0.00000000000E+00  0.00000000000E+00  0.99999998245E-14  0.12509000000E+03  0.12509000000E+03 0.  0.
        -11    1    3    3    0    0  0.56992726218E+02  0.64689446253E+01 -0.67832332234E+01  0.57758378955E+02  0.51100000000E-03 0.  1.
         23    2    1    0    0    0  0.23263564592E+02 -0.18659677227E+01 -0.19419804839E+02  0.94728773196E+02  0.89731468160E+02 0.  0.
         11    1    3    3    0    0 -0.33729161626E+02 -0.83349123481E+01 -0.12636571615E+02  0.36970394241E+02  0.51100000000E-03 0. -1.
         22    1    1    0    0    0 -0.23263564592E+02  0.18659677227E+01  0.19419804839E+02  0.30361226804E+02  0.00000000000E+00 0.  1.
</event>
<event>
 5    1  0.1059945E-009  0.9118800E+02  0.7815553E-02  0.1125453E+00
         25   -1    0    0    0    0  0.00000000000E+00  0.00000000000E+00  0.99999998245E-14  0.12509000000E+03  0.12509000000E+03 0.  0.
        -11    1    3    3    0    0  0.49730054207E+01 -0.38170934251E+02 -0.12374935695E+02  0.40433773484E+02  0.51100000000E-03 0. -1.
         23    2    1    0    0    0 -0.56708970716E+01  0.14038238575E+02 -0.25612984030E+02  0.95336745274E+02  0.90575045309E+02 0.  0.
         11    1    3    3    0    0 -0.10643902492E+02  0.52209172825E+02 -0.13238048335E+02  0.54902971790E+02  0.51100000000E-03 0.  1.
         22    1    1    0    0    0  0.56708970716E+01 -0.14038238575E+02  0.25612984030E+02  0.29753254726E+02  0.00000000000E+00 0.  1.
</event>
<event>
 5    1  0.1059945E-009  0.9118800E+02  0.7815553E-02  0.1125453E+00
         25   -1    0    0    0    0  0.00000000000E+00  0.00000000000E+00  0.99999998245E-14  0.12509000000E+03  0.12509000000E+03 0.  0.
        -11    1    3    3    0    0  0.55253120114E+02 -0.53322733705E+01 -0.89977954904E+00  0.55517114704E+02  0.51100000000E-03 0. -1.
         23    2    1    0    0    0  0.19047172718E+02  0.17590528615E+02  0.47207286254E+01  0.98736503756E+02  0.95154560636E+02 0.  0.
         11    1    3    3    0    0 -0.36205947395E+02  0.22922801985E+02  0.56205081744E+01  0.43219389052E+02  0.51100000000E-03 0.  1.
         22    1    1    0    0    0 -0.19047172718E+02 -0.17590528615E+02 -0.47207286254E+01  0.26353496244E+02  0.00000000000E+00 0. -1.
</event>
<event>
 5    1  0.1059945E-009  0.9118800E+02  0.7815553E-02  0.1125453E+00
         25   -1    0    0    0    0  0.00000000000E+00  0.00000000000E+00  0.99999998245E-14  0.12509000000E+03  0.12509000000E+03 0.  0.
        -11    1    3    3    0    0 -0.58828867364E+00 -0.24923017764E+02  0.23430980474E+02  0.34212771654E+02  0.51100000000E-03 0.  1.
         23    2    1    0    0    0 -0.25441674824E+01  0.14054729916E+02 -0.24930911673E+02  0.96357464817E+02  0.91973922652E+02 0.  0.
         11    1    3    3    0    0 -0.19558788087E+01  0.38977747680E+02 -0.48361892147E+02  0.62144693163E+02  0.51100000000E-03 0. -1.
         22    1    1    0    0    0  0.25441674824E+01 -0.14054729916E+02  0.24930911673E+02  0.28732535183E+02  0.00000000000E+00 0. -1.
</event>
<event>
 5    1  0.1059945E-009  0.9118800E+02  0.7815553E-02  0.1125453E+00
         25   -1    0    0    0    0  0.00000000000E+00  0.00000000000E+00  0.99999998245E-14  0.12509000000E+03  0.12509000000E+03 0.  0.
        -11    1    3    3    0    0  0.32064625038E+02  0.22702664217E+01 -0.22846935064E+02  0.39436996977E+02  0.51100000000E-03 0.  1.
         23    2    1    0    0    0  0.86209090359E+01 -0.20218070883E+02  0.21456186984E+02  0.94374231693E+02  0.89235851455E+02 0.  0.
         11    1    3    3    0    0 -0.23443716002E+02 -0.22488337304E+02  0.44303122048E+02  0.54937234716E+02  0.51100000000E-03 0. -1.
         22    1    1    0    0    0 -0.86209090359E+01  0.20218070883E+02 -0.21456186984E+02  0.30715768307E+02  0.00000000000E+00 0. -1.
</event>
<event>
 5    1  0.1059945E-009  0.9118800E+02  0.7815553E-02  0.1125453E+00
         25   -1    0    0    0    0  0.00000000000E+00  0.00000000000E+00  0.99999998245E-14  0.12509000000E+03  0.12509000000E+03 0.  0.
        -11    1    3    3    0    0  0.88251049973E+01 -0.22908416262E+02  0.48837200009E+02  0.54660315758E+02  0.51100000000E-03 0.  1.
         23    2    1    0    0    0  0.16952964108E+02  0.74420330329E+01  0.24378739112E+02  0.94477751334E+02  0.89380846543E+02 0.  0.
         11    1    3    3    0    0  0.81278591103E+01  0.30350449295E+02 -0.24458460897E+02  0.39817435576E+02  0.51100000000E-03 0. -1.
         22    1    1    0    0    0 -0.16952964108E+02 -0.74420330329E+01 -0.24378739112E+02  0.30612248666E+02  0.00000000000E+00 0.  1.
</event>
<event>
 5    1  0.1059945E-009  0.9118800E+02  0.7815553E-02  0.1125453E+00
         25   -1    0    0    0    0  0.00000000000E+00  0.00000000000E+00  0.99999998245E-14  0.12509000000E+03  0.12509000000E+03 0.  0.
        -11    1    3    3    0    0  0.35102953877E+02 -0.78036497787E+01 -0.14261300647E+02  0.38684609564E+02  0.51100000000E-03 0.  1.
         23    2    1    0    0    0 -0.44563874298E+01 -0.12094330357E+02  0.26483657272E+02  0.95636370033E+02  0.90987905542E+02 0.  0.
         11    1    3    3    0    0 -0.39559341306E+02 -0.42906805779E+01  0.40744957919E+02  0.56951760469E+02  0.51100000000E-03 0. -1.
         22    1    1    0    0    0  0.44563874298E+01  0.12094330357E+02 -0.26483657272E+02  0.29453629967E+02  0.00000000000E+00 0. -1.
</event>
<event>
 5    1  0.1059945E-009  0.9118800E+02  0.7815553E-02  0.1125453E+00
         25   -1    0    0    0    0  0.00000000000E+00  0.00000000000E+00  0.99999998245E-14  0.12509000000E+03  0.12509000000E+03 0.  0.
        -11    1    3    3    0    0 -0.30931325133E+02 -0.68714020238E+01  0.52646361427E+02  0.61445930801E+02  0.51100000000E-03 0. -1.
         23    2    1    0    0    0 -0.20328036377E+02  0.11698736617E+01  0.20695977310E+02  0.96056895720E+02  0.91564218291E+02 0.  0.
         11    1    3    3    0    0  0.10603288756E+02  0.80412756855E+01 -0.31950384117E+02  0.34610964918E+02  0.51100000000E-03 0.  1.
         22    1    1    0    0    0  0.20328036377E+02 -0.11698736617E+01 -0.20695977310E+02  0.29033104280E+02  0.00000000000E+00 0. -1.
</event>
<event>
 5    1  0.1059945E-009  0.9118800E+02  0.7815553E-02  0.1125453E+00
         25   -1    0    0    0    0  0.00000000000E+00  0.00000000000E+00  0.99999998245E-14  0.12509000000E+03  0.12509000000E+03 0.  0.
        -11    1    3    3    0    0 -0.32757875106E+02  0.31604638748E+02 -0.15526476692E+02  0.48093690341E+02  0.51100000000E-03 0.  1.
         23    2    1    0    0    0 -0.17894141337E+02  0.33848076671E+01  0.21467264560E+02  0.96938611672E+02  0.92760949586E+02 0.  0.
         11    1    3    3    0    0  0.14863733769E+02 -0.28219831081E+02  0.36993741251E+02  0.48844921331E+02  0.51100000000E-03 0. -1.
         22    1    1    0    0    0  0.17894141337E+02 -0.33848076671E+01 -0.21467264560E+02  0.28151388328E+02  0.00000000000E+00 0.  1.
</event>
<event>
 5    1  0.1059945E-009  0.9118800E+02  0.7815553E-02  0.1125453E+00
         25   -1    0    0    0    0  0.00000000000E+00  0.00000000000E+00  0.99999998245E-14  0.12509000000E+03  0.12509000000E+03 0.  0.
        -11    1    3    3    0    0  0.15097976589E+02  0.38376437417E+02 -0.48619013664E+01  0.41525148176E+02  0.51100000000E-03 0.  1.
         23    2    1    0    0    0 -0.17565935439E+02  0.20975858349E+02 -0.28613810506E+02  0.85500874309E+02  0.75783247717E+02 0.  0.
         11    1    3    3    0    0 -0.32663912028E+02 -0.17400579068E+02 -0.23751909140E+02  0.43975726133E+02  0.51100000000E-03 0. -1.
         22    1    1    0    0    0  0.17565935439E+02 -0.20975858349E+02  0.28613810506E+02  0.39589125691E+02  0.00000000000E+00 0. -1.
</event>
<event>
 5    1  0.1059945E-009  0.9118800E+02  0.7815553E-02  0.1125453E+00
         25   -1    0    0    0    0  0.00000000000E+00  0.00000000000E+00  0.99999998245E-14  0.12509000000E+03  0.12509000000E+03 0.  0.
        -11    1    3    3    0    0 -0.97423903681E+01  0.32052417080E+02 -0.72453021600E+01  0.34274859802E+02  0.51100000000E-03 0. -1.
         23    2    1    0    0    0 -0.27192378324E+01 -0.26632880077E+02  0.11023524877E+02  0.96137924836E+02  0.91674848980E+02 0.  0.
         11    1    3    3    0    0  0.70231525357E+01 -0.58685297157E+02  0.18268827037E+02  0.61863065035E+02  0.51100000000E-03 0.  1.
         22    1    1    0    0    0  0.27192378324E+01  0.26632880077E+02 -0.11023524877E+02  0.28952075164E+02  0.00000000000E+00 0.  1.
</event>
<event>
 5    1  0.1059945E-009  0.9118800E+02  0.7815553E-02  0.1125453E+00
         25   -1    0    0    0    0  0.00000000000E+00  0.00000000000E+00  0.99999998245E-14  0.12509000000E+03  0.12509000000E+03 0.  0.
        -11    1    3    3    0    0  0.13384658006E+02 -0.27102191882E+02 -0.14416258345E+02  0.33488899350E+02  0.51100000000E-03 0.  1.
         23    2    1    0    0    0  0.39462103013E+01  0.23604341935E+02  0.18644473935E+02  0.94752664220E+02  0.89764767222E+02 0.  0.
         11    1    3    3    0    0 -0.94384477044E+01  0.50706533818E+02  0.33060732280E+02  0.61263764870E+02  0.51100000000E-03 0. -1.
         22    1    1    0    0    0 -0.39462103013E+01 -0.23604341935E+02 -0.18644473935E+02  0.30337335780E+02  0.00000000000E+00 0. -1.
</event>
<event>
 5    1  0.1059945E-009  0.9118800E+02  0.7815553E-02  0.1125453E+00
         25   -1    0    0    0    0  0.00000000000E+00  0.00000000000E+00  0.99999998245E-14  0.12509000000E+03  0.12509000000E+03 0.  0.
        -11    1    3    3    0    0  0.55478695850E+01  0.19232531460E+02  0.44130915402E+02  0.48458299782E+02  0.51100000000E-03 0. -1.
         23    2    1    0    0    0  0.19426126737E+02  0.22174904256E+02 -0.82335851960E+00  0.95597989251E+02  0.90935124407E+02 0.  0.
         11    1    3    3    0    0  0.13878257152E+02  0.29423727959E+01 -0.44954273921E+02  0.47139689470E+02  0.51100000000E-03 0.  1.
         22    1    1    0    0    0 -0.19426126737E+02 -0.22174904256E+02  0.82335851960E+00  0.29492010749E+02  0.00000000000E+00 0.  1.
</event>
<event>
 5    1  0.1059945E-009  0.9118800E+02  0.7815553E-02  0.1125453E+00
         25   -1    0    0    0    0  0.00000000000E+00  0.00000000000E+00  0.99999998245E-14  0.12509000000E+03  0.12509000000E+03 0.  0.
        -11    1    3    3    0    0  0.56254318820E+02  0.56787268543E+01  0.22851967093E+02  0.60983675888E+02  0.51100000000E-03 0.  1.
         23    2    1    0    0    0  0.23045554932E+02 -0.50995732495E+01  0.16030497804E+02  0.96557910885E+02  0.92246138375E+02 0.  0.
         11    1    3    3    0    0 -0.33208763887E+02 -0.10778300104E+02 -0.68214692891E+01  0.35574234996E+02  0.51100000000E-03 0. -1.
         22    1    1    0    0    0 -0.23045554932E+02  0.50995732495E+01 -0.16030497804E+02  0.28532089115E+02  0.00000000000E+00 0.  1.
</event>
<event>
 5    1  0.1059945E-009  0.9118800E+02  0.7815553E-02  0.1125453E+00
         25   -1    0    0    0    0  0.00000000000E+00  0.00000000000E+00  0.99999998245E-14  0.12509000000E+03  0.12509000000E+03 0.  0.
        -11    1    3    3    0    0 -0.18735117812E+02 -0.45162081898E+02 -0.12269704066E+02  0.50409958530E+02  0.51100000000E-03 0. -1.
         23    2    1    0    0    0 -0.24738512432E+02 -0.13177522175E+01 -0.17190790607E+02  0.94936165253E+02  0.90020118434E+02 0.  0.
         11    1    3    3    0    0 -0.60033946202E+01  0.43844329681E+02 -0.49210865410E+01  0.44526206723E+02  0.51100000000E-03 0.  1.
         22    1    1    0    0    0  0.24738512432E+02  0.13177522175E+01  0.17190790607E+02  0.30153834747E+02  0.00000000000E+00 0.  1.
</event>
<event>
 5    1  0.1059945E-009  0.9118800E+02  0.7815553E-02  0.1125453E+00
         25   -1    0    0    0    0  0.00000000000E+00  0.00000000000E+00  0.99999998245E-14  0.12509000000E+03  0.12509000000E+03 0.  0.
        -11    1    3    3    0    0  0.44698082048E+02 -0.26421124680E+02 -0.17820677598E+01  0.51953538223E+02  0.51100000000E-03 0.  1.
         23    2    1    0    0    0  0.66445493320E+01 -0.33500118340E+02  0.22137126614E+01  0.90865615588E+02  0.84173936630E+02 0.  0.
         11    1    3    3    0    0 -0.38053532716E+02 -0.70789936606E+01  0.39957804212E+01  0.38912077365E+02  0.51100000000E-03 0. -1.
         22    1    1    0    0    0 -0.66445493320E+01  0.33500118340E+02 -0.22137126614E+01  0.34224384412E+02  0.00000000000E+00 0.  1.
</event>
<event>
 5    1  0.1059945E-009  0.9118800E+02  0.7815553E-02  0.1125453E+00
         25   -1    0    0    0    0  0.00000000000E+00  0.00000000000E+00  0.99999998245E-14  0.12509000000E+03  0.12509000000E+03 0.  0.
        -11    1    3    3    0    0 -0.83304302703E+01  0.12777243139E+02 -0.55548090201E+02  0.57604204152E+02  0.51100000000E-03 0.  1.
         23    2    1    0    0    0  0.63306227455E+01 -0.84181486537E+01 -0.27229457814E+02  0.95894360189E+02  0.91341901295E+02 0.  0.
         11    1    3    3    0    0  0.14661053016E+02 -0.21195391793E+02  0.28318632388E+02  0.38290156037E+02  0.51100000000E-03 0. -1.
         22    1    1    0    0    0 -0.63306227455E+01  0.84181486537E+01  0.27229457814E+02  0.29195639811E+02  0.00000000000E+00 0.  1.
</event>
<event>
 5    1  0.1059945E-009  0.9118800E+02  0.7815553E-02  0.1125453E+00
         25   -1    0    0    0    0  0.00000000000E+00  0.00000000000E+00  0.99999998245E-14  0.12509000000E+03  0.12509000000E+03 0.  0.
        -11    1    3    3    0    0  0.15434334286E+02  0.13792173102E+02  0.52120848353E+02  0.56080527343E+02  0.51100000000E-03 0.  1.
         23    2    1    0    0    0  0.40317933626E+01  0.24395376740E+02  0.15415503186E+02  0.95951923494E+02  0.91420698529E+02 0.  0.
         11    1    3    3    0    0 -0.11402540923E+02  0.10603203638E+02 -0.36705345167E+02  0.39871396151E+02  0.51100000000E-03 0. -1.
         22    1    1    0    0    0 -0.40317933626E+01 -0.24395376740E+02 -0.15415503186E+02  0.29138076506E+02  0.00000000000E+00 0.  1.
</event>
<event>
 5    1  0.1059945E-009  0.9118800E+02  0.7815553E-02  0.1125453E+00
         25   -1    0    0    0    0  0.00000000000E+00  0.00000000000E+00  0.99999998245E-14  0.12509000000E+03  0.12509000000E+03 0.  0.
        -11    1    3    3    0    0 -0.10895363195E+01  0.24869038206E+02 -0.25629870761E+02  0.35728789878E+02  0.51100000000E-03 0. -1.
         23    2    1    0    0    0 -0.98190397964E+01 -0.27112713166E+02  0.36484912225E+01  0.96024139511E+02  0.91519457619E+02 0.  0.
         11    1    3    3    0    0 -0.87295034769E+01 -0.51981751372E+02  0.29278361984E+02  0.60295349633E+02  0.51100000000E-03 0.  1.
         22    1    1    0    0    0  0.98190397964E+01  0.27112713166E+02 -0.36484912225E+01  0.29065860489E+02  0.00000000000E+00 0.  1.
</event>
<event>
 5    1  0.1059945E-009  0.9118800E+02  0.7815553E-02  0.1125453E+00
         25   -1    0    0    0    0  0.00000000000E+00  0.00000000000E+00  0.99999998245E-14  0.12509000000E+03  0.12509000000E+03 0.  0.
        -11    1    3    3    0    0  0.25283520327E+00 -0.16624205827E+02  0.29789472640E+02  0.34115111395E+02  0.51100000000E-03 0. -1.
         23    2    1    0    0    0  0.74231530839E+01  0.10668196136E+02 -0.25656854181E+02  0.96329127674E+02  0.91935374375E+02 0.  0.
         11    1    3    3    0    0  0.71703178806E+01  0.27292401963E+02 -0.55446326821E+02  0.62214016279E+02  0.51100000000E-03 0.  1.
         22    1    1    0    0    0 -0.74231530839E+01 -0.10668196136E+02  0.25656854181E+02  0.28760872326E+02  0.00000000000E+00 0.  1.
</event>
<event>
 5    1  0.1059945E-009  0.9118800E+02  0.7815553E-02  0.1125453E+00
         25   -1    0    0    0    0  0.00000000000E+00  0.00000000000E+00  0.99999998245E-14  0.12509000000E+03  0.12509000000E+03 0.  0.
        -11    1    3    3    0    0 -0.46261939291E+01 -0.87215315809E+01 -0.39032178659E+02  0.40261368016E+02  0.51100000000E-03 0.  1.
         23    2    1    0    0    0 -0.24127977659E+02  0.15295033257E+02  0.69566200565E+01  0.95687756703E+02  0.91058524434E+02 0.  0.
         11    1    3    3    0    0 -0.19501783730E+02  0.24016564838E+02  0.45988798716E+02  0.55426388687E+02  0.51100000000E-03 0. -1.
         22    1    1    0    0    0  0.24127977659E+02 -0.15295033257E+02 -0.69566200565E+01  0.29402243297E+02  0.00000000000E+00 0.  1.
</event>
<event>
 5    1  0.1059945E-009  0.9118800E+02  0.7815553E-02  0.1125453E+00
         25   -1    0    0    0    0  0.00000000000E+00  0.00000000000E+00  0.99999998245E-14  0.12509000000E+03  0.12509000000E+03 0.  0.
        -11    1    3    3    0    0 -0.21414169494E+02  0.20075893443E+02  0.15410043271E+02  0.33152339081E+02  0.51100000000E-03 0.  1.
         23    2    1    0    0    0  0.21164667859E+02 -0.17691059922E+02 -0.10352776940E+02  0.95626518245E+02  0.90974360314E+02 0.  0.
         11    1    3    3    0    0  0.42578837353E+02 -0.37766953364E+02 -0.25762820211E+02  0.62474179165E+02  0.51100000000E-03 0. -1.
         22    1    1    0    0    0 -0.21164667859E+02  0.17691059922E+02  0.10352776940E+02  0.29463481755E+02  0.00000000000E+00 0. -1.
</event>
<event>
 5    1  0.1059945E-009  0.9118800E+02  0.7815553E-02  0.1125453E+00
         25   -1    0    0    0    0  0.00000000000E+00  0.00000000000E+00  0.99999998245E-14  0.12509000000E+03  0.12509000000E+03 0.  0.
        -11    1    3    3    0    0  0.28576261986E+02 -0.20410532204E+02  0.20351131177E+01  0.35175762389E+02  0.51100000000E-03 0. -1.
         23    2    1    0    0    0 -0.14753911119E+02  0.15229032723E+02 -0.20462659602E+02  0.95622700005E+02  0.90969110072E+02 0.  0.
         11    1    3    3    0    0 -0.43330173106E+02  0.35639564928E+02 -0.22497772719E+02  0.60446937616E+02  0.51100000000E-03 0.  1.
         22    1    1    0    0    0  0.14753911119E+02 -0.15229032723E+02  0.20462659602E+02  0.29467299995E+02  0.00000000000E+00 0.  1.
</event>
<event>
 5    1  0.1059945E-009  0.9118800E+02  0.7815553E-02  0.1125453E+00
         25   -1    0    0    0    0  0.00000000000E+00  0.00000000000E+00  0.99999998245E-14  0.12509000000E+03  0.12509000000E+03 0.  0.
        -11    1    3    3    0    0  0.14231108095E+02  0.30609950239E+02 -0.90125810243E+01  0.34938805192E+02  0.51100000000E-03 0. -1.
         23    2    1    0    0    0  0.54050627588E+01 -0.28948130615E+02 -0.16562199952E+01  0.95595050700E+02  0.90931082057E+02 0.  0.
         11    1    3    3    0    0 -0.88260453365E+01 -0.59558080854E+02  0.73563610291E+01  0.60656245508E+02  0.51100000000E-03 0.  1.
         22    1    1    0    0    0 -0.54050627588E+01  0.28948130615E+02  0.16562199952E+01  0.29494949300E+02  0.00000000000E+00 0.  1.
</event>
<event>
 5    1  0.1059945E-009  0.9118800E+02  0.7815553E-02  0.1125453E+00
         25   -1    0    0    0    0  0.00000000000E+00  0.00000000000E+00  0.99999998245E-14  0.12509000000E+03  0.12509000000E+03 0.  0.
        -11    1    3    3    0    0 -0.20354457126E+01  0.38879432828E+02 -0.58341617443E+00  0.38937048052E+02  0.51100000000E-03 0.  1.
         23    2    1    0    0    0 -0.37484599752E+02  0.32160596572E+02  0.50020272693E+01  0.75447080392E+02  0.56814104521E+02 0.  0.
         11    1    3    3    0    0 -0.35449154039E+02 -0.67188362567E+01  0.55854434437E+01  0.36510032340E+02  0.51100000000E-03 0. -1.
         22    1    1    0    0    0  0.37484599752E+02 -0.32160596572E+02 -0.50020272693E+01  0.49642919608E+02  0.00000000000E+00 0. -1.
</event>
<event>
 5    1  0.1059945E-009  0.9118800E+02  0.7815553E-02  0.1125453E+00
         25   -1    0    0    0    0  0.00000000000E+00  0.00000000000E+00  0.99999998245E-14  0.12509000000E+03  0.12509000000E+03 0.  0.
        -11    1    3    3    0    0 -0.33513876972E+02  0.48068479998E+02 -0.11020880003E+02  0.59625653164E+02  0.51100000000E-03 0. -1.
         23    2    1    0    0    0 -0.21081165195E+02  0.25010215948E+02  0.72779735582E+01  0.91580369640E+02  0.85229506490E+02 0.  0.
         11    1    3    3    0    0  0.12432711776E+02 -0.23058264050E+02  0.18298853561E+02  0.31954716476E+02  0.51100000000E-03 0.  1.
         22    1    1    0    0    0  0.21081165195E+02 -0.25010215948E+02 -0.72779735582E+01  0.33509630360E+02  0.00000000000E+00 0. -1.
</event>
<event>
 5    1  0.1059945E-009  0.9118800E+02  0.7815553E-02  0.1125453E+00
         25   -1    0    0    0    0  0.00000000000E+00  0.00000000000E+00  0.99999998245E-14  0.12509000000E+03  0.12509000000E+03 0.  0.
        -11    1    3    3    0    0  0.85805510547E+01  0.36266061872E+02  0.11485735901E+02  0.38997118221E+02  0.51100000000E-03 0.  1.
         23    2    1    0    0    0  0.13690885239E+02 -0.18709490191E+02  0.19509598451E+02  0.94789673375E+02  0.89816325827E+02 0.  0.
         11    1    3    3    0    0  0.51103341846E+01 -0.54975552063E+02  0.80238625496E+01  0.55792555154E+02  0.51100000000E-03 0. -1.
         22    1    1    0    0    0 -0.13690885239E+02  0.18709490191E+02 -0.19509598451E+02  0.30300326625E+02  0.00000000000E+00 0. -1.
</event>
<event>
 5    1  0.1059945E-009  0.9118800E+02  0.7815553E-02  0.1125453E+00
         25   -1    0    0    0    0  0.00000000000E+00  0.00000000000E+00  0.99999998245E-14  0.12509000000E+03  0.12509000000E+03 0.  0.
        -11    1    3    3    0    0 -0.47524519592E+01 -0.49296606208E+02 -0.23275816500E+02  0.54722068832E+02  0.51100000000E-03 0. -1.
         23    2    1    0    0    0  0.17321809884E+02 -0.21057868376E+02 -0.21067092887E+02  0.90632760980E+02  0.83827179614E+02 0.  0.
         11    1    3    3    0    0  0.22074261843E+02  0.28238737833E+02  0.22087236128E+01  0.35910692148E+02  0.51100000000E-03 0.  1.
         22    1    1    0    0    0 -0.17321809884E+02  0.21057868376E+02  0.21067092887E+02  0.34457239020E+02  0.00000000000E+00 0. -1.
</event>
<event>
 5    1  0.1059945E-009  0.9118800E+02  0.7815553E-02  0.1125453E+00
         25   -1    0    0    0    0  0.00000000000E+00  0.00000000000E+00  0.99999998245E-14  0.12509000000E+03  0.12509000000E+03 0.  0.
        -11    1    3    3    0    0  0.15955165166E+02 -0.18257051282E+02 -0.48445265168E+02  0.54174079914E+02  0.51100000000E-03 0.  1.
         23    2    1    0    0    0  0.26679274725E+02 -0.10294497224E+02 -0.10127538000E+02  0.94753101693E+02  0.89765376853E+02 0.  0.
         11    1    3    3    0    0  0.10724109559E+02  0.79625540580E+01  0.38317727169E+02  0.40579021780E+02  0.51100000000E-03 0. -1.
         22    1    1    0    0    0 -0.26679274725E+02  0.10294497224E+02  0.10127538000E+02  0.30336898307E+02  0.00000000000E+00 0.  1.
</event>
<event>
 5    1  0.1059945E-009  0.9118800E+02  0.7815553E-02  0.1125453E+00
         25   -1    0    0    0    0  0.00000000000E+00  0.00000000000E+00  0.99999998245E-14  0.12509000000E+03  0.12509000000E+03 0.  0.
        -11    1    3    3    0    0  0.15367321581E+02  0.30430085405E+02 -0.14480910329E+02  0.37038377860E+02  0.51100000000E-03 0. -1.
         23    2    1    0    0    0 -0.71968004879E+01 -0.24050374793E+02 -0.14683495734E+02  0.96007023675E+02  0.91496060478E+02 0.  0.
         11    1    3    3    0    0 -0.22564122069E+02 -0.54480460198E+02 -0.20258540497E+00  0.58968645815E+02  0.51100000000E-03 0.  1.
         22    1    1    0    0    0  0.71968004879E+01  0.24050374793E+02  0.14683495734E+02  0.29082976325E+02  0.00000000000E+00 0.  1.
</event>
<event>
 5    1  0.1059945E-009  0.9118800E+02  0.7815553E-02  0.1125453E+00
         25   -1    0    0    0    0  0.00000000000E+00  0.00000000000E+00  0.99999998245E-14  0.12509000000E+03  0.12509000000E+03 0.  0.
        -11    1    3    3    0    0 -0.31857562852E+02 -0.18450943859E+02  0.28145012624E+02  0.46340947077E+02  0.51100000000E-03 0.  1.
         23    2    1    0    0    0 -0.14494019574E+02 -0.28001977497E+02 -0.12192940703E+02  0.91283859284E+02  0.84793206188E+02 0.  0.
         11    1    3    3    0    0  0.17363543277E+02 -0.95510336377E+01 -0.40337953327E+02  0.44942912206E+02  0.51100000000E-03 0. -1.
         22    1    1    0    0    0  0.14494019574E+02  0.28001977497E+02  0.12192940703E+02  0.33806140716E+02  0.00000000000E+00 0. -1.
</event>
<event>
 5    1  0.1059945E-009  0.9118800E+02  0.7815553E-02  0.1125453E+00
         25   -1    0    0    0    0  0.00000000000E+00  0.00000000000E+00  0.99999998245E-14  0.12509000000E+03  0.12509000000E+03 0.  0.
        -11    1    3    3    0    0 -0.24972133387E+02  0.13424308657E+02 -0.27438407340E+02  0.39454856564E+02  0.51100000000E-03 0.  1.
         23    2    1    0    0    0 -0.87338343430E+01 -0.26403982830E+02  0.90343266576E+01  0.95848433185E+02  0.91278983968E+02 0.  0.
         11    1    3    3    0    0  0.16238299044E+02 -0.39828291487E+02  0.36472733998E+02  0.56393576622E+02  0.51100000000E-03 0. -1.
         22    1    1    0    0    0  0.87338343430E+01  0.26403982830E+02 -0.90343266576E+01  0.29241566815E+02  0.00000000000E+00 0. -1.
</event>
<event>
 5    1  0.1059945E-009  0.9118800E+02  0.7815553E-02  0.1125453E+00
         25   -1    0    0    0    0  0.00000000000E+00  0.00000000000E+00  0.99999998245E-14  0.12509000000E+03  0.12509000000E+03 0.  0.
        -11    1    3    3    0    0  0.28517759340E+02 -0.30088934039E+01 -0.16693266482E+02  0.33181036503E+02  0.51100000000E-03 0.  1.
         23    2    1    0    0    0 -0.20591322592E+02 -0.24620661097E+01  0.21366481980E+02  0.95314323890E+02  0.90544074631E+02 0.  0.
         11    1    3    3    0    0 -0.49109081932E+02  0.54682729418E+00  0.38059748462E+02  0.62133287387E+02  0.51100000000E-03 0. -1.
         22    1    1    0    0    0  0.20591322592E+02  0.24620661097E+01 -0.21366481980E+02  0.29775676110E+02  0.00000000000E+00 0. -1.
</event>
<event>
 5    1  0.1059945E-009  0.9118800E+02  0.7815553E-02  0.1125453E+00
         25   -1    0    0    0    0  0.00000000000E+00  0.00000000000E+00  0.99999998245E-14  0.12509000000E+03  0.12509000000E+03 0.  0.
        -11    1    3    3    0    0 -0.20799582764E+02  0.10069553353E+02 -0.29774346020E+02  0.37689922115E+02  0.51100000000E-03 0.  1.
         23    2    1    0    0    0  0.29365688282E+02  0.38953312589E+01 -0.19100237452E+01  0.95405568986E+02  0.90670045489E+02 0.  0.
         11    1    3    3    0    0  0.50165271046E+02 -0.61742220941E+01  0.27864322275E+02  0.57715646871E+02  0.51100000000E-03 0. -1.
         22    1    1    0    0    0 -0.29365688282E+02 -0.38953312589E+01  0.19100237452E+01  0.29684431014E+02  0.00000000000E+00 0. -1.
</event>
<event>
 5    1  0.1059945E-009  0.9118800E+02  0.7815553E-02  0.1125453E+00
         25   -1    0    0    0    0  0.00000000000E+00  0.00000000000E+00  0.99999998245E-14  0.12509000000E+03  0.12509000000E+03 0.  0.
        -11    1    3    3    0    0 -0.21415053298E+02  0.21677351112E+02  0.33074604593E+02  0.44971563551E+02  0.51100000000E-03 0. -1.
         23    2    1    0    0    0  0.58236361623E+01  0.12371406566E+01 -0.17872187839E+02  0.10625226252E+03  0.10456903432E+03 0.  0.
         11    1    3    3    0    0  0.27238689460E+02 -0.20440210455E+02 -0.50946792432E+02  0.61280698971E+02  0.51100000000E-03 0.  1.
         22    1    1    0    0    0 -0.58236361623E+01 -0.12371406566E+01  0.17872187839E+02  0.18837737479E+02  0.00000000000E+00 0.  1.
</event>
<event>
 5    1  0.1059945E-009  0.9118800E+02  0.7815553E-02  0.1125453E+00
         25   -1    0    0    0    0  0.00000000000E+00  0.00000000000E+00  0.99999998245E-14  0.12509000000E+03  0.12509000000E+03 0.  0.
        -11    1    3    3    0    0 -0.11479787752E+02 -0.14243675596E+02  0.32219218158E+02  0.37050584885E+02  0.51100000000E-03 0.  1.
         23    2    1    0    0    0  0.21891274212E+02  0.18667408947E+02 -0.36758265806E+01  0.96086349463E+02  0.91604447538E+02 0.  0.
         11    1    3    3    0    0  0.33371061964E+02  0.32911084543E+02 -0.35895044739E+02  0.59035764579E+02  0.51100000000E-03 0. -1.
         22    1    1    0    0    0 -0.21891274212E+02 -0.18667408947E+02  0.36758265806E+01  0.29003650537E+02  0.00000000000E+00 0. -1.
</event>
<event>
 5    1  0.1059945E-009  0.9118800E+02  0.7815553E-02  0.1125453E+00
         25   -1    0    0    0    0  0.00000000000E+00  0.00000000000E+00  0.99999998245E-14  0.12509000000E+03  0.12509000000E+03 0.  0.
        -11    1    3    3    0    0 -0.32190466380E+02  0.12893205845E+02  0.20085722639E+02  0.40073646414E+02  0.51100000000E-03 0.  1.
         23    2    1    0    0    0  0.12702653789E+02 -0.15331530127E+02  0.24771545442E+02  0.93308831159E+02  0.87729671602E+02 0.  0.
         11    1    3    3    0    0  0.44893120169E+02 -0.28224735972E+02  0.46858228027E+01  0.53235184745E+02  0.51100000000E-03 0. -1.
         22    1    1    0    0    0 -0.12702653789E+02  0.15331530127E+02 -0.24771545442E+02  0.31781168841E+02  0.00000000000E+00 0. -1.
</event>
<event>
 5    1  0.1059945E-009  0.9118800E+02  0.7815553E-02  0.1125453E+00
         25   -1    0    0    0    0  0.00000000000E+00  0.00000000000E+00  0.99999998245E-14  0.12509000000E+03  0.12509000000E+03 0.  0.
        -11    1    3    3    0    0 -0.43156391706E+02 -0.13281568034E+02  0.37919495032E+02  0.58964076336E+02  0.51100000000E-03 0.  1.
         23    2    1    0    0    0 -0.10950161003E+02 -0.14281920123E+02  0.26310531588E+02  0.93213310384E+02  0.87593366712E+02 0.  0.
         11    1    3    3    0    0  0.32206230703E+02 -0.10003520893E+01 -0.11608963443E+02  0.34249234048E+02  0.51100000000E-03 0. -1.
         22    1    1    0    0    0  0.10950161003E+02  0.14281920123E+02 -0.26310531588E+02  0.31876689616E+02  0.00000000000E+00 0.  1.
</event>
<event>
 5    1  0.1059945E-009  0.9118800E+02  0.7815553E-02  0.1125453E+00
         25   -1    0    0    0    0  0.00000000000E+00  0.00000000000E+00  0.99999998245E-14  0.12509000000E+03  0.12509000000E+03 0.  0.
        -11    1    3    3    0    0 -0.18827733997E+02  0.38714409572E+02 -0.21506144382E+02  0.48122794208E+02  0.51100000000E-03 0.  1.
         23    2    1    0    0    0 -0.26062711321E+02 -0.67609952505E+01 -0.13880752855E+02  0.94797240502E+02  0.89826864182E+02 0.  0.
         11    1    3    3    0    0 -0.72349773239E+01 -0.45475404822E+02  0.76253915269E+01  0.46674446294E+02  0.51100000000E-03 0. -1.
         22    1    1    0    0    0  0.26062711321E+02  0.67609952505E+01  0.13880752855E+02  0.30292759498E+02  0.00000000000E+00 0. -1.
</event>
<event>
 5    1  0.1059945E-009  0.9118800E+02  0.7815553E-02  0.1125453E+00
         25   -1    0    0    0    0  0.00000000000E+00  0.00000000000E+00  0.99999998245E-14  0.12509000000E+03  0.12509000000E+03 0.  0.
        -11    1    3    3    0    0 -0.35111645525E+02  0.11756738468E+02 -0.45186601307E+02  0.58419838144E+02  0.51100000000E-03 0. -1.
         23    2    1    0    0    0 -0.16673252255E+02 -0.10433172060E+02 -0.23078862400E+02  0.94767033297E+02  0.89784788747E+02 0.  0.
         11    1    3    3    0    0  0.18438393270E+02 -0.22189910528E+02  0.22107738908E+02  0.36347195153E+02  0.51100000000E-03 0.  1.
         22    1    1    0    0    0  0.16673252255E+02  0.10433172060E+02  0.23078862400E+02  0.30322966703E+02  0.00000000000E+00 0. -1.
</event>
<event>
 5    1  0.1059945E-009  0.9118800E+02  0.7815553E-02  0.1125453E+00
         25   -1    0    0    0    0  0.00000000000E+00  0.00000000000E+00  0.99999998245E-14  0.12509000000E+03  0.12509000000E+03 0.  0.
        -11    1    3    3    0    0 -0.46725847998E+02  0.37149433093E+01  0.23047534532E+02  0.52233078821E+02  0.51100000000E-03 0. -1.
         23    2    1    0    0    0 -0.20281066033E+02  0.10848440408E+02 -0.13892433291E+02  0.98219756207E+02  0.94472803006E+02 0.  0.
         11    1    3    3    0    0  0.26444781964E+02  0.71334970989E+01 -0.36939967823E+02  0.45986677386E+02  0.51100000000E-03 0.  1.
         22    1    1    0    0    0  0.20281066033E+02 -0.10848440408E+02  0.13892433291E+02  0.26870243793E+02  0.00000000000E+00 0. -1.
</event>
<event>
 5    1  0.1059945E-009  0.9118800E+02  0.7815553E-02  0.1125453E+00
         25   -1    0    0    0    0  0.00000000000E+00  0.00000000000E+00  0.99999998245E-14  0.12509000000E+03  0.12509000000E+03 0.  0.
        -11    1    3    3    0    0 -0.40802189087E+02 -0.49494578503E+01  0.40287329868E+01  0.41298262156E+02  0.51100000000E-03 0.  1.
         23    2    1    0    0    0  0.67611091916E+01  0.15758770069E+02  0.22883641649E+02  0.96494327483E+02  0.92159876029E+02 0.  0.
         11    1    3    3    0    0  0.47563298279E+02  0.20708227920E+02  0.18854908662E+02  0.55196065328E+02  0.51100000000E-03 0. -1.
         22    1    1    0    0    0 -0.67611091916E+01 -0.15758770069E+02 -0.22883641649E+02  0.28595672517E+02  0.00000000000E+00 0. -1.
</event>
<event>
 5    1  0.1059945E-009  0.9118800E+02  0.7815553E-02  0.1125453E+00
         25   -1    0    0    0    0  0.00000000000E+00  0.00000000000E+00  0.99999998245E-14  0.12509000000E+03  0.12509000000E+03 0.  0.
        -11    1    3    3    0    0 -0.28215466050E+01 -0.27917641186E+02 -0.11505024317E+02  0.30326908834E+02  0.51100000000E-03 0. -1.
         23    2    1    0    0    0 -0.19688352091E+02  0.27624011211E+02  0.52986743926E+01  0.90756442746E+02  0.84011539363E+02 0.  0.
         11    1    3    3    0    0 -0.16866805486E+02  0.55541652397E+02  0.16803698709E+02  0.60429533912E+02  0.51100000000E-03 0.  1.
         22    1    1    0    0    0  0.19688352091E+02 -0.27624011211E+02 -0.52986743926E+01  0.34333557254E+02  0.00000000000E+00 0.  1.
</event>
<event>
 5    1  0.1059945E-009  0.9118800E+02  0.7815553E-02  0.1125453E+00
         25   -1    0    0    0    0  0.00000000000E+00  0.00000000000E+00  0.99999998245E-14  0.12509000000E+03  0.12509000000E+03 0.  0.
        -11    1    3    3    0    0  0.19519418021E+02 -0.13269921918E+02 -0.25713570486E+02  0.34903957011E+02  0.51100000000E-03 0.  1.
         23    2    1    0    0    0 -0.26574428444E+02  0.37511564401E+00  0.11927955810E+02  0.95958966913E+02  0.91430335460E+02 0.  0.
         11    1    3    3    0    0 -0.46093846466E+02  0.13645037562E+02  0.37641526296E+02  0.61055009903E+02  0.51100000000E-03 0. -1.
         22    1    1    0    0    0  0.26574428444E+02 -0.37511564401E+00 -0.11927955810E+02  0.29131033087E+02  0.00000000000E+00 0. -1.
</event>
<event>
 5    1  0.1059945E-009  0.9118800E+02  0.7815553E-02  0.1125453E+00
         25   -1    0    0    0    0  0.00000000000E+00  0.00000000000E+00  0.99999998245E-14  0.12509000000E+03  0.12509000000E+03 0.  0.
        -11    1    3    3    0    0  0.37024733967E+01 -0.62478919590E+01  0.53605916169E+02  0.54095644110E+02  0.51100000000E-03 0.  1.
         23    2    1    0    0    0 -0.20524949860E+02 -0.82242420207E+01  0.22918453831E+02  0.93244007323E+02  0.87637193314E+02 0.  0.
         11    1    3    3    0    0 -0.24227423257E+02 -0.19763500617E+01 -0.30687462337E+02  0.39148363212E+02  0.51100000000E-03 0. -1.
         22    1    1    0    0    0  0.20524949860E+02  0.82242420207E+01 -0.22918453831E+02  0.31845992677E+02  0.00000000000E+00 0.  1.
</event>
<event>
 5    1  0.1059945E-009  0.9118800E+02  0.7815553E-02  0.1125453E+00
         25   -1    0    0    0    0  0.00000000000E+00  0.00000000000E+00  0.99999998245E-14  0.12509000000E+03  0.12509000000E+03 0.  0.
        -11    1    3    3    0    0 -0.22861580837E+02  0.13399314168E+02  0.22667881952E+02  0.34871569666E+02  0.51100000000E-03 0. -1.
         23    2    1    0    0    0 -0.48585590726E+02 -0.10857652985E+02  0.32737307201E+01  0.75198461966E+02  0.56264048154E+02 0.  0.
         11    1    3    3    0    0 -0.25724009890E+02 -0.24256967153E+02 -0.19394151232E+02  0.40326892300E+02  0.51100000000E-03 0.  1.
         22    1    1    0    0    0  0.48585590726E+02  0.10857652985E+02 -0.32737307201E+01  0.49891538034E+02  0.00000000000E+00 0. -1.
</event>
<event>
 5    1  0.1059945E-009  0.9118800E+02  0.7815553E-02  0.1125453E+00
         25   -1    0    0    0    0  0.00000000000E+00  0.00000000000E+00  0.99999998245E-14  0.12509000000E+03  0.12509000000E+03 0.  0.
        -11    1    3    3    0    0 -0.32187205532E+02  0.37824097704E+02 -0.20250389962E+02  0.53635406785E+02  0.51100000000E-03 0. -1.
         23    2    1    0    0    0 -0.28761775780E+02 -0.17056118588E+01 -0.73950696427E+01  0.95343808432E+02  0.90584799461E+02 0.  0.
         11    1    3    3    0    0  0.34254297530E+01 -0.39529709563E+02  0.12855320319E+02  0.41708401646E+02  0.51100000000E-03 0.  1.
         22    1    1    0    0    0  0.28761775780E+02  0.17056118588E+01  0.73950696427E+01  0.29746191568E+02  0.00000000000E+00 0. -1.
</event>
<event>
 5    1  0.1059945E-009  0.9118800E+02  0.7815553E-02  0.1125453E+00
         25   -1    0    0    0    0  0.00000000000E+00  0.00000000000E+00  0.99999998245E-14  0.12509000000E+03  0.12509000000E+03 0.  0.
        -11    1    3    3    0    0 -0.63106661847E+01 -0.12166918705E+02 -0.44418735728E+02  0.46485293399E+02  0.51100000000E-03 0.  1.
         23    2    1    0    0    0 -0.26317622854E+02 -0.26506885118E+01  0.26493826995E+01  0.98506872815E+02  0.94852207885E+02 0.  0.
         11    1    3    3    0    0 -0.20006956669E+02  0.95162301935E+01  0.47068118428E+02  0.52021579415E+02  0.51100000000E-03 0. -1.
         22    1    1    0    0    0  0.26317622854E+02  0.26506885118E+01 -0.26493826995E+01  0.26583127185E+02  0.00000000000E+00 0. -1.
</event>
<event>
 5    1  0.1059945E-009  0.9118800E+02  0.7815553E-02  0.1125453E+00
         25   -1    0    0    0    0  0.00000000000E+00  0.00000000000E+00  0.99999998245E-14  0.12509000000E+03  0.12509000000E+03 0.  0.
        -11    1    3    3    0    0 -0.13843397141E+02 -0.59391099174E+01 -0.38977512996E+02  0.41787069658E+02  0.51100000000E-03 0.  1.
         23    2    1    0    0    0 -0.34795682691E+01  0.28872839710E+02  0.12440244868E+01  0.95981652998E+02  0.91461368058E+02 0.  0.
         11    1    3    3    0    0  0.10363828872E+02  0.34811949627E+02  0.40221537482E+02  0.54194583340E+02  0.51100000000E-03 0. -1.
         22    1    1    0    0    0  0.34795682691E+01 -0.28872839710E+02 -0.12440244868E+01  0.29108347002E+02  0.00000000000E+00 0. -1.
</event>
<event>
 5    1  0.1059945E-009  0.9118800E+02  0.7815553E-02  0.1125453E+00
         25   -1    0    0    0    0  0.00000000000E+00  0.00000000000E+00  0.99999998245E-14  0.12509000000E+03  0.12509000000E+03 0.  0.
        -11    1    3    3    0    0 -0.23785215551E+02  0.35761306698E+02 -0.15651642172E+02  0.45711939780E+02  0.51100000000E-03 0. -1.
         23    2    1    0    0    0 -0.24298604243E+00 -0.71485149071E+01 -0.28001224834E+02  0.96189673016E+02  0.91745432012E+02 0.  0.
         11    1    3    3    0    0  0.23542229509E+02 -0.42909821605E+02 -0.12349582662E+02  0.50477733235E+02  0.51100000000E-03 0.  1.
         22    1    1    0    0    0  0.24298604243E+00  0.71485149071E+01  0.28001224834E+02  0.28900326984E+02  0.00000000000E+00 0.  1.
</event>
<event>
 5    1  0.1059945E-009  0.9118800E+02  0.7815553E-02  0.1125453E+00
         25   -1    0    0    0    0  0.00000000000E+00  0.00000000000E+00  0.99999998245E-14  0.12509000000E+03  0.12509000000E+03 0.  0.
        -11    1    3    3    0    0 -0.24190958230E+02 -0.50286603783E+01  0.14462816964E+02  0.28629756550E+02  0.51100000000E-03 0.  1.
         23    2    1    0    0    0  0.27914042240E+02 -0.26490970503E+02  0.87578149282E+00  0.86596724411E+02  0.77571002398E+02 0.  0.
         11    1    3    3    0    0  0.52105000470E+02 -0.21462310125E+02 -0.13587035471E+02  0.57966967861E+02  0.51100000000E-03 0. -1.
         22    1    1    0    0    0 -0.27914042240E+02  0.26490970503E+02 -0.87578149282E+00  0.38493275589E+02  0.00000000000E+00 0. -1.
</event>
<event>
 5    1  0.1059945E-009  0.9118800E+02  0.7815553E-02  0.1125453E+00
         25   -1    0    0    0    0  0.00000000000E+00  0.00000000000E+00  0.99999998245E-14  0.12509000000E+03  0.12509000000E+03 0.  0.
        -11    1    3    3    0    0  0.52924480910E+02 -0.47105974392E+01  0.10541606720E+02  0.54169326010E+02  0.51100000000E-03 0.  1.
         23    2    1    0    0    0  0.18814429261E+02 -0.20102658656E+02 -0.86553219367E+01  0.96228014079E+02  0.91797693121E+02 0.  0.
         11    1    3    3    0    0 -0.34110051649E+02 -0.15392061217E+02 -0.19196928657E+02  0.42058688069E+02  0.51100000000E-03 0. -1.
         22    1    1    0    0    0 -0.18814429261E+02  0.20102658656E+02  0.86553219367E+01  0.28861985921E+02  0.00000000000E+00 0.  1.
</event>
<event>
 5    1  0.1059945E-009  0.9118800E+02  0.7815553E-02  0.1125453E+00
         25   -1    0    0    0    0  0.00000000000E+00  0.00000000000E+00  0.99999998245E-14  0.12509000000E+03  0.12509000000E+03 0.  0.
        -11    1    3    3    0    0  0.23200290838E+02  0.29876196311E+02 -0.37625464670E+02  0.53352752439E+02  0.51100000000E-03 0.  1.
         23    2    1    0    0    0  0.27537087956E+02  0.15505755456E+01 -0.45138023319E+01  0.97142372031E+02  0.93035318749E+02 0.  0.
         11    1    3    3    0    0  0.43367971181E+01 -0.28325620765E+02  0.33111662338E+02  0.43789619592E+02  0.51100000000E-03 0. -1.
         22    1    1    0    0    0 -0.27537087956E+02 -0.15505755456E+01  0.45138023319E+01  0.27947627969E+02  0.00000000000E+00 0.  1.
</event>
<event>
 5    1  0.1059945E-009  0.9118800E+02  0.7815553E-02  0.1125453E+00
         25   -1    0    0    0    0  0.00000000000E+00  0.00000000000E+00  0.99999998245E-14  0.12509000000E+03  0.12509000000E+03 0.  0.
        -11    1    3    3    0    0 -0.22795656227E+02 -0.42854861753E+02 -0.21369126089E+02  0.53036031797E+02  0.51100000000E-03 0.  1.
         23    2    1    0    0    0  0.13625492628E+02 -0.24437769544E+02 -0.95425399899E+01  0.95527884056E+02  0.90838636785E+02 0.  0.
         11    1    3    3    0    0  0.36421148855E+02  0.18417092208E+02  0.11826586099E+02  0.42491852259E+02  0.51100000000E-03 0. -1.
         22    1    1    0    0    0 -0.13625492628E+02  0.24437769544E+02  0.95425399899E+01  0.29562115944E+02  0.00000000000E+00 0.  1.
</event>
<event>
 5    1  0.1059945E-009  0.9118800E+02  0.7815553E-02  0.1125453E+00
         25   -1    0    0    0    0  0.00000000000E+00  0.00000000000E+00  0.99999998245E-14  0.12509000000E+03  0.12509000000E+03 0.  0.
        -11    1    3    3    0    0 -0.37517838230E+02  0.14561287002E+02  0.25944781454E+02  0.47882679014E+02  0.51100000000E-03 0. -1.
         23    2    1    0    0    0 -0.15218733244E+01  0.27113918437E+02 -0.55982456514E+01  0.97362377928E+02  0.93330657396E+02 0.  0.
         11    1    3    3    0    0  0.35995964905E+02  0.12552631435E+02 -0.31543027105E+02  0.49479698914E+02  0.51100000000E-03 0.  1.
         22    1    1    0    0    0  0.15218733244E+01 -0.27113918437E+02  0.55982456514E+01  0.27727622072E+02  0.00000000000E+00 0. -1.
</event>
<event>
 5    1  0.1059945E-009  0.9118800E+02  0.7815553E-02  0.1125453E+00
         25   -1    0    0    0    0  0.00000000000E+00  0.00000000000E+00  0.99999998245E-14  0.12509000000E+03  0.12509000000E+03 0.  0.
        -11    1    3    3    0    0 -0.11274844621E+02  0.36239582747E+02  0.47940394083E+02  0.61144998684E+02  0.51100000000E-03 0.  1.
         23    2    1    0    0    0 -0.82601895610E+01  0.19339863957E+02  0.39649014227E+02  0.80208986211E+02  0.66476883730E+02 0.  0.
         11    1    3    3    0    0  0.30146550602E+01 -0.16899718789E+02 -0.82913798559E+01  0.19063987528E+02  0.51100000000E-03 0. -1.
         22    1    1    0    0    0  0.82601895610E+01 -0.19339863957E+02 -0.39649014227E+02  0.44881013789E+02  0.00000000000E+00 0.  1.
</event>
<event>
 5    1  0.1059945E-009  0.9118800E+02  0.7815553E-02  0.1125453E+00
         25   -1    0    0    0    0  0.00000000000E+00  0.00000000000E+00  0.99999998245E-14  0.12509000000E+03  0.12509000000E+03 0.  0.
        -11    1    3    3    0    0 -0.16378628049E+02  0.38820808076E+02 -0.19131528653E+02  0.46274506861E+02  0.51100000000E-03 0.  1.
         23    2    1    0    0    0 -0.13831418412E+02  0.12918274425E+02  0.22695732091E+02  0.95538583713E+02  0.90853369631E+02 0.  0.
         11    1    3    3    0    0  0.25472096365E+01 -0.25902533651E+02  0.41827260744E+02  0.49264076852E+02  0.51100000000E-03 0. -1.
         22    1    1    0    0    0  0.13831418412E+02 -0.12918274425E+02 -0.22695732091E+02  0.29551416287E+02  0.00000000000E+00 0. -1.
</event>
<event>
 5    1  0.1059945E-009  0.9118800E+02  0.7815553E-02  0.1125453E+00
         25   -1    0    0    0    0  0.00000000000E+00  0.00000000000E+00  0.99999998245E-14  0.12509000000E+03  0.12509000000E+03 0.  0.
        -11    1    3    3    0    0 -0.27937549193E+02  0.33020094201E+02  0.38205673414E+02  0.57710542860E+02  0.51100000000E-03 0.  1.
         23    2    1    0    0    0  0.22257986548E+01  0.23764912001E+02  0.18257403165E+02  0.95039076680E+02  0.90163008511E+02 0.  0.
         11    1    3    3    0    0  0.30163347848E+02 -0.92551821995E+01 -0.19948270249E+02  0.37328533820E+02  0.51100000000E-03 0. -1.
         22    1    1    0    0    0 -0.22257986548E+01 -0.23764912001E+02 -0.18257403165E+02  0.30050923320E+02  0.00000000000E+00 0.  1.
</event>
<event>
 5    1  0.1059945E-009  0.9118800E+02  0.7815553E-02  0.1125453E+00
         25   -1    0    0    0    0  0.00000000000E+00  0.00000000000E+00  0.99999998245E-14  0.12509000000E+03  0.12509000000E+03 0.  0.
        -11    1    3    3    0    0  0.43684876175E+02 -0.27244179031E+02 -0.31407764220E+02  0.60308053783E+02  0.51100000000E-03 0. -1.
         23    2    1    0    0    0  0.13902059677E+02 -0.10323060089E+02 -0.24234333867E+02  0.95305175495E+02  0.90531434901E+02 0.  0.
         11    1    3    3    0    0 -0.29782816499E+02  0.16921118942E+02  0.71734303532E+01  0.34997121712E+02  0.51100000000E-03 0.  1.
         22    1    1    0    0    0 -0.13902059677E+02  0.10323060089E+02  0.24234333867E+02  0.29784824505E+02  0.00000000000E+00 0. -1.
</event>
<event>
 5    1  0.1059945E-009  0.9118800E+02  0.7815553E-02  0.1125453E+00
         25   -1    0    0    0    0  0.00000000000E+00  0.00000000000E+00  0.99999998245E-14  0.12509000000E+03  0.12509000000E+03 0.  0.
        -11    1    3    3    0    0  0.85634746646E+01  0.32650579306E+02 -0.34869414197E+02  0.48531118615E+02  0.51100000000E-03 0.  1.
         23    2    1    0    0    0 -0.16124310188E+02 -0.59901309750E+01 -0.23838979348E+02  0.95693197716E+02  0.91065998620E+02 0.  0.
         11    1    3    3    0    0 -0.24687784853E+02 -0.38640710281E+02  0.11030434849E+02  0.47162079101E+02  0.51100000000E-03 0. -1.
         22    1    1    0    0    0  0.16124310188E+02  0.59901309750E+01  0.23838979348E+02  0.29396802284E+02  0.00000000000E+00 0. -1.
</event>
<event>
 5    1  0.1059945E-009  0.9118800E+02  0.7815553E-02  0.1125453E+00
         25   -1    0    0    0    0  0.00000000000E+00  0.00000000000E+00  0.99999998245E-14  0.12509000000E+03  0.12509000000E+03 0.  0.
        -11    1    3    3    0    0  0.18458873324E+02  0.18269728293E+02  0.50758526206E+02  0.57017023415E+02  0.51100000000E-03 0.  1.
         23    2    1    0    0    0  0.14602955532E+02  0.22977153886E+02  0.13624657669E+02  0.94646163061E+02  0.89616231647E+02 0.  0.
         11    1    3    3    0    0 -0.38559177919E+01  0.47074255934E+01 -0.37133868537E+02  0.37629139646E+02  0.51100000000E-03 0. -1.
         22    1    1    0    0    0 -0.14602955532E+02 -0.22977153886E+02 -0.13624657669E+02  0.30443836939E+02  0.00000000000E+00 0. -1.
</event>
<event>
 5    1  0.1059945E-009  0.9118800E+02  0.7815553E-02  0.1125453E+00
         25   -1    0    0    0    0  0.00000000000E+00  0.00000000000E+00  0.99999998245E-14  0.12509000000E+03  0.12509000000E+03 0.  0.
        -11    1    3    3    0    0  0.22832829899E+01  0.57566853202E+02  0.23720864479E+02  0.62304376898E+02  0.51100000000E-03 0.  1.
         23    2    1    0    0    0 -0.62842400075E+00  0.24475863386E+02  0.13857007761E+02  0.96956755088E+02  0.92785413120E+02 0.  0.
         11    1    3    3    0    0 -0.29117069907E+01 -0.33090989816E+02 -0.98638567179E+01  0.34652378190E+02  0.51100000000E-03 0. -1.
         22    1    1    0    0    0  0.62842400075E+00 -0.24475863386E+02 -0.13857007761E+02  0.28133244912E+02  0.00000000000E+00 0.  1.
</event>
<event>
 5    1  0.1059945E-009  0.9118800E+02  0.7815553E-02  0.1125453E+00
         25   -1    0    0    0    0  0.00000000000E+00  0.00000000000E+00  0.99999998245E-14  0.12509000000E+03  0.12509000000E+03 0.  0.
        -11    1    3    3    0    0  0.81247881863E+01 -0.19798636476E+02 -0.57724945992E+02  0.61564336912E+02  0.51100000000E-03 0.  1.
         23    2    1    0    0    0 -0.14461682968E+01 -0.57526570833E+01 -0.32957527818E+02  0.91602941214E+02  0.85262627997E+02 0.  0.
         11    1    3    3    0    0 -0.95709564831E+01  0.14045979393E+02  0.24767418174E+02  0.30038604302E+02  0.51100000000E-03 0. -1.
         22    1    1    0    0    0  0.14461682968E+01  0.57526570833E+01  0.32957527818E+02  0.33487058786E+02  0.00000000000E+00 0.  1.
</event>
<event>
 5    1  0.1059945E-009  0.9118800E+02  0.7815553E-02  0.1125453E+00
         25   -1    0    0    0    0  0.00000000000E+00  0.00000000000E+00  0.99999998245E-14  0.12509000000E+03  0.12509000000E+03 0.  0.
        -11    1    3    3    0    0 -0.26136068882E+02  0.14444906218E+02 -0.21769977400E+02  0.36955125876E+02  0.51100000000E-03 0.  1.
         23    2    1    0    0    0  0.27895083911E+02  0.12598013619E+02 -0.23806848810E+01  0.94389620295E+02  0.89257420450E+02 0.  0.
         11    1    3    3    0    0  0.54031152793E+02 -0.18468925993E+01  0.19389292519E+02  0.57434494418E+02  0.51100000000E-03 0. -1.
         22    1    1    0    0    0 -0.27895083911E+02 -0.12598013619E+02  0.23806848810E+01  0.30700379705E+02  0.00000000000E+00 0. -1.
</event>
<event>
 5    1  0.1059945E-009  0.9118800E+02  0.7815553E-02  0.1125453E+00
         25   -1    0    0    0    0  0.00000000000E+00  0.00000000000E+00  0.99999998245E-14  0.12509000000E+03  0.12509000000E+03 0.  0.
        -11    1    3    3    0    0 -0.49464830654E+02 -0.16439066680E+02  0.79251458472E+01  0.52724001383E+02  0.51100000000E-03 0.  1.
         23    2    1    0    0    0 -0.46216263153E+01 -0.25451334393E+02  0.61662646285E+01  0.98497657651E+02  0.94840054255E+02 0.  0.
         11    1    3    3    0    0  0.44843204338E+02 -0.90122677123E+01 -0.17588812186E+01  0.45773656267E+02  0.51100000000E-03 0. -1.
         22    1    1    0    0    0  0.46216263153E+01  0.25451334393E+02 -0.61662646285E+01  0.26592342349E+02  0.00000000000E+00 0. -1.
</event>
<event>
 5    1  0.1059945E-009  0.9118800E+02  0.7815553E-02  0.1125453E+00
         25   -1    0    0    0    0  0.00000000000E+00  0.00000000000E+00  0.99999998245E-14  0.12509000000E+03  0.12509000000E+03 0.  0.
        -11    1    3    3    0    0 -0.57230545104E+01 -0.35978400742E+02 -0.12561073383E+02  0.38535428344E+02  0.51100000000E-03 0.  1.
         23    2    1    0    0    0  0.20046125631E+02  0.14711245735E+02 -0.16031330137E+02  0.95505013100E+02  0.90807136710E+02 0.  0.
         11    1    3    3    0    0  0.25769180141E+02  0.50689646477E+02 -0.34702567543E+01  0.56969584756E+02  0.51100000000E-03 0. -1.
         22    1    1    0    0    0 -0.20046125631E+02 -0.14711245735E+02  0.16031330137E+02  0.29584986900E+02  0.00000000000E+00 0. -1.
</event>
<event>
 5    1  0.1059945E-009  0.9118800E+02  0.7815553E-02  0.1125453E+00
         25   -1    0    0    0    0  0.00000000000E+00  0.00000000000E+00  0.99999998245E-14  0.12509000000E+03  0.12509000000E+03 0.  0.
        -11    1    3    3    0    0 -0.27797949175E+02  0.15200935385E+02 -0.16195384682E+02  0.35582086788E+02  0.51100000000E-03 0. -1.
         23    2    1    0    0    0  0.28019687432E+02 -0.26660233963E+00  0.37020606968E+01  0.96825548582E+02  0.92608356233E+02 0.  0.
         11    1    3    3    0    0  0.55817636607E+02 -0.15467537724E+02  0.19897445378E+02  0.61243461794E+02  0.51100000000E-03 0.  1.
         22    1    1    0    0    0 -0.28019687432E+02  0.26660233963E+00 -0.37020606968E+01  0.28264451418E+02  0.00000000000E+00 0.  1.
</event>
<event>
 5    1  0.1059945E-009  0.9118800E+02  0.7815553E-02  0.1125453E+00
         25   -1    0    0    0    0  0.00000000000E+00  0.00000000000E+00  0.99999998245E-14  0.12509000000E+03  0.12509000000E+03 0.  0.
        -11    1    3    3    0    0 -0.33117361112E+02 -0.21104207475E+02  0.24794222550E+02  0.46442444513E+02  0.51100000000E-03 0.  1.
         23    2    1    0    0    0 -0.23295189128E+02  0.90578901315E+01 -0.13910753863E+02  0.96485449957E+02  0.92147825640E+02 0.  0.
         11    1    3    3    0    0  0.98221719841E+01  0.30162097607E+02 -0.38704976413E+02  0.50043005444E+02  0.51100000000E-03 0. -1.
         22    1    1    0    0    0  0.23295189128E+02 -0.90578901315E+01  0.13910753863E+02  0.28604550043E+02  0.00000000000E+00 0.  1.
</event>
<event>
 5    1  0.1059945E-009  0.9118800E+02  0.7815553E-02  0.1125453E+00
         25   -1    0    0    0    0  0.00000000000E+00  0.00000000000E+00  0.99999998245E-14  0.12509000000E+03  0.12509000000E+03 0.  0.
        -11    1    3    3    0    0  0.34349024107E+02  0.26985233155E+02 -0.85612358025E+01  0.44512391806E+02  0.51100000000E-03 0.  1.
         23    2    1    0    0    0  0.57745178018E+01 -0.41421488451E+01 -0.31642241321E+02  0.92659553060E+02  0.86798956702E+02 0.  0.
         11    1    3    3    0    0 -0.28574506306E+02 -0.31127382000E+02 -0.23081005519E+02  0.48147161254E+02  0.51100000000E-03 0. -1.
         22    1    1    0    0    0 -0.57745178018E+01  0.41421488451E+01  0.31642241321E+02  0.32430446940E+02  0.00000000000E+00 0.  1.
</event>
<event>
 5    1  0.1059945E-009  0.9118800E+02  0.7815553E-02  0.1125453E+00
         25   -1    0    0    0    0  0.00000000000E+00  0.00000000000E+00  0.99999998245E-14  0.12509000000E+03  0.12509000000E+03 0.  0.
        -11    1    3    3    0    0 -0.32892549800E+02 -0.11401420140E+02 -0.43351418630E+02  0.55599080128E+02  0.51100000000E-03 0.  1.
         23    2    1    0    0    0 -0.24014391393E+02 -0.26146467975E+02 -0.20882813820E+02  0.83902372069E+02  0.73097109001E+02 0.  0.
         11    1    3    3    0    0  0.88781584074E+01 -0.14745047834E+02  0.22468604810E+02  0.28303291941E+02  0.51100000000E-03 0. -1.
         22    1    1    0    0    0  0.24014391393E+02  0.26146467975E+02  0.20882813820E+02  0.41187627931E+02  0.00000000000E+00 0.  1.
</event>
<event>
 5    1  0.1059945E-009  0.9118800E+02  0.7815553E-02  0.1125453E+00
         25   -1    0    0    0    0  0.00000000000E+00  0.00000000000E+00  0.99999998245E-14  0.12509000000E+03  0.12509000000E+03 0.  0.
        -11    1    3    3    0    0 -0.11092393755E+02  0.73284917538E+01  0.46321463776E+02  0.48191555248E+02  0.51100000000E-03 0.  1.
         23    2    1    0    0    0  0.13163816796E+02  0.24959223718E+02  0.10323603225E+02  0.95042941828E+02  0.90168370766E+02 0.  0.
         11    1    3    3    0    0  0.24256210552E+02  0.17630731964E+02 -0.35997860551E+02  0.46851386580E+02  0.51100000000E-03 0. -1.
         22    1    1    0    0    0 -0.13163816796E+02 -0.24959223718E+02 -0.10323603225E+02  0.30047058172E+02  0.00000000000E+00 0. -1.
</event>
<event>
 5    1  0.1059945E-009  0.9118800E+02  0.7815553E-02  0.1125453E+00
         25   -1    0    0    0    0  0.00000000000E+00  0.00000000000E+00  0.99999998245E-14  0.12509000000E+03  0.12509000000E+03 0.  0.
        -11    1    3    3    0    0 -0.33713927621E+02 -0.27175533605E+02 -0.39515675186E+02  0.58622752648E+02  0.51100000000E-03 0. -1.
         23    2    1    0    0    0 -0.22295949675E+02  0.17245818613E+01 -0.17136868142E+02  0.96916327818E+02  0.92730894493E+02 0.  0.
         11    1    3    3    0    0  0.11417977946E+02  0.28900115466E+02  0.22378807044E+02  0.38293575170E+02  0.51100000000E-03 0.  1.
         22    1    1    0    0    0  0.22295949675E+02 -0.17245818613E+01  0.17136868142E+02  0.28173672182E+02  0.00000000000E+00 0. -1.
</event>
<event>
 5    1  0.1059945E-009  0.9118800E+02  0.7815553E-02  0.1125453E+00
         25   -1    0    0    0    0  0.00000000000E+00  0.00000000000E+00  0.99999998245E-14  0.12509000000E+03  0.12509000000E+03 0.  0.
        -11    1    3    3    0    0 -0.24364005254E+02 -0.41507914257E+02 -0.15330072604E+02  0.50512600649E+02  0.51100000000E-03 0.  1.
         23    2    1    0    0    0  0.75289878456E+01 -0.12847019174E+02 -0.26384443181E+02  0.94793623953E+02  0.89821827751E+02 0.  0.
         11    1    3    3    0    0  0.31892993099E+02  0.28660895083E+02 -0.11054370576E+02  0.44281023304E+02  0.51100000000E-03 0. -1.
         22    1    1    0    0    0 -0.75289878456E+01  0.12847019174E+02  0.26384443181E+02  0.30296376047E+02  0.00000000000E+00 0.  1.
</event>
<event>
 5    1  0.1059945E-009  0.9118800E+02  0.7815553E-02  0.1125453E+00
         25   -1    0    0    0    0  0.00000000000E+00  0.00000000000E+00  0.99999998245E-14  0.12509000000E+03  0.12509000000E+03 0.  0.
        -11    1    3    3    0    0 -0.14776559518E+02  0.29173859189E+02  0.13697046807E+02  0.35455181041E+02  0.51100000000E-03 0. -1.
         23    2    1    0    0    0 -0.30845697731E+02 -0.12653767788E+02 -0.14858267680E+02  0.88588725691E+02  0.80719386106E+02 0.  0.
         11    1    3    3    0    0 -0.16069138213E+02 -0.41827626977E+02 -0.28555314487E+02  0.53133544650E+02  0.51100000000E-03 0.  1.
         22    1    1    0    0    0  0.30845697731E+02  0.12653767788E+02  0.14858267680E+02  0.36501274309E+02  0.00000000000E+00 0. -1.
</event>
<event>
 5    1  0.1059945E-009  0.9118800E+02  0.7815553E-02  0.1125453E+00
         25   -1    0    0    0    0  0.00000000000E+00  0.00000000000E+00  0.99999998245E-14  0.12509000000E+03  0.12509000000E+03 0.  0.
        -11    1    3    3    0    0  0.39534226067E+02 -0.14554236305E+02 -0.29875728022E+02  0.51646296578E+02  0.51100000000E-03 0.  1.
         23    2    1    0    0    0  0.40419586656E+01 -0.28447472517E+02 -0.97533412969E+01  0.94746569263E+02  0.89756273308E+02 0.  0.
         11    1    3    3    0    0 -0.35492267401E+02 -0.13893236211E+02  0.20122386725E+02  0.43100272685E+02  0.51100000000E-03 0. -1.
         22    1    1    0    0    0 -0.40419586656E+01  0.28447472517E+02  0.97533412969E+01  0.30343430737E+02  0.00000000000E+00 0.  1.
</event>
<event>
 5    1  0.1059945E-009  0.9118800E+02  0.7815553E-02  0.1125453E+00
         25   -1    0    0    0    0  0.00000000000E+00  0.00000000000E+00  0.99999998245E-14  0.12509000000E+03  0.12509000000E+03 0.  0.
        -11    1    3    3    0    0 -0.10302826338E+02 -0.21697146391E+02 -0.28299102978E+02  0.37118103692E+02  0.51100000000E-03 0.  1.
         23    2    1    0    0    0  0.17026910660E+02  0.22914434902E+02 -0.11995327739E+00  0.96541770593E+02  0.92224248801E+02 0.  0.
         11    1    3    3    0    0  0.27329736998E+02  0.44611581292E+02  0.28179149701E+02  0.59423666901E+02  0.51100000000E-03 0. -1.
         22    1    1    0    0    0 -0.17026910660E+02 -0.22914434902E+02  0.11995327739E+00  0.28548229407E+02  0.00000000000E+00 0. -1.
</event>
<event>
 5    1  0.1059945E-009  0.9118800E+02  0.7815553E-02  0.1125453E+00
         25   -1    0    0    0    0  0.00000000000E+00  0.00000000000E+00  0.99999998245E-14  0.12509000000E+03  0.12509000000E+03 0.  0.
        -11    1    3    3    0    0  0.11783481631E+02  0.30148507052E+02 -0.43019629983E+02  0.53837454258E+02  0.51100000000E-03 0.  1.
         23    2    1    0    0    0  0.18962965948E+02  0.21554344588E+02 -0.20518792264E+01  0.96308164469E+02  0.91906846790E+02 0.  0.
         11    1    3    3    0    0  0.71794843174E+01 -0.85941624642E+01  0.40967750757E+02  0.42470710211E+02  0.51100000000E-03 0. -1.
         22    1    1    0    0    0 -0.18962965948E+02 -0.21554344588E+02  0.20518792264E+01  0.28781835531E+02  0.00000000000E+00 0.  1.
</event>
<event>
 5    1  0.1059945E-009  0.9118800E+02  0.7815553E-02  0.1125453E+00
         25   -1    0    0    0    0  0.00000000000E+00  0.00000000000E+00  0.99999998245E-14  0.12509000000E+03  0.12509000000E+03 0.  0.
        -11    1    3    3    0    0  0.34600167897E+02 -0.34561712998E+02 -0.19854871736E+02  0.52781621383E+02  0.51100000000E-03 0.  1.
         23    2    1    0    0    0 -0.63157932198E+01 -0.18760126343E+02 -0.20425438153E+02  0.96646545426E+02  0.92366252682E+02 0.  0.
         11    1    3    3    0    0 -0.40915961117E+02  0.15801586655E+02 -0.57056641680E+00  0.43864924043E+02  0.51100000000E-03 0. -1.
         22    1    1    0    0    0  0.63157932198E+01  0.18760126343E+02  0.20425438153E+02  0.28443454574E+02  0.00000000000E+00 0.  1.
</event>
<event>
 5    1  0.1059945E-009  0.9118800E+02  0.7815553E-02  0.1125453E+00
         25   -1    0    0    0    0  0.00000000000E+00  0.00000000000E+00  0.99999998245E-14  0.12509000000E+03  0.12509000000E+03 0.  0.
        -11    1    3    3    0    0 -0.32916640118E+02  0.23559115308E+02  0.11560333646E+02  0.42097249613E+02  0.51100000000E-03 0.  1.
         23    2    1    0    0    0  0.69621791420E+01 -0.99052127462E+01  0.26244034761E+02  0.96187845435E+02  0.91742940169E+02 0.  0.
         11    1    3    3    0    0  0.39878819260E+02 -0.33464328054E+02  0.14683701115E+02  0.54090595822E+02  0.51100000000E-03 0. -1.
         22    1    1    0    0    0 -0.69621791420E+01  0.99052127462E+01 -0.26244034761E+02  0.28902154565E+02  0.00000000000E+00 0. -1.
</event>
<event>
 5    1  0.1059945E-009  0.9118800E+02  0.7815553E-02  0.1125453E+00
         25   -1    0    0    0    0  0.00000000000E+00  0.00000000000E+00  0.99999998245E-14  0.12509000000E+03  0.12509000000E+03 0.  0.
        -11    1    3    3    0    0  0.52988139115E+01 -0.39414541619E+02 -0.47485870481E+02  0.61939417301E+02  0.51100000000E-03 0. -1.
         23    2    1    0    0    0  0.81362469599E+01 -0.16031993482E+02 -0.22714977002E+02  0.96121163126E+02  0.91651974834E+02 0.  0.
         11    1    3    3    0    0  0.28374330485E+01  0.23382548137E+02  0.24770893479E+02  0.34181745826E+02  0.51100000000E-03 0.  1.
         22    1    1    0    0    0 -0.81362469599E+01  0.16031993482E+02  0.22714977002E+02  0.28968836874E+02  0.00000000000E+00 0. -1.
</event>
<event>
 5    1  0.1059945E-009  0.9118800E+02  0.7815553E-02  0.1125453E+00
         25   -1    0    0    0    0  0.00000000000E+00  0.00000000000E+00  0.99999998245E-14  0.12509000000E+03  0.12509000000E+03 0.  0.
        -11    1    3    3    0    0  0.20794931673E+02 -0.10199193320E+02  0.30036821546E+02  0.37929716272E+02  0.51100000000E-03 0. -1.
         23    2    1    0    0    0 -0.82766459621E+00  0.28750622654E+02 -0.65663256691E+01  0.95587458338E+02  0.90920636970E+02 0.  0.
         11    1    3    3    0    0 -0.21622596270E+02  0.38949815974E+02 -0.36603147215E+02  0.57657742066E+02  0.51100000000E-03 0.  1.
         22    1    1    0    0    0  0.82766459621E+00 -0.28750622654E+02  0.65663256691E+01  0.29502541662E+02  0.00000000000E+00 0.  1.
</event>
<event>
 5    1  0.1059945E-009  0.9118800E+02  0.7815553E-02  0.1125453E+00
         25   -1    0    0    0    0  0.00000000000E+00  0.00000000000E+00  0.99999998245E-14  0.12509000000E+03  0.12509000000E+03 0.  0.
        -11    1    3    3    0    0  0.42934907373E+02 -0.84018879647E+01  0.88878189241E+01  0.44642931333E+02  0.51100000000E-03 0. -1.
         23    2    1    0    0    0 -0.49648652786E+01 -0.21885453167E+02  0.19310292014E+02  0.95484082935E+02  0.90778300099E+02 0.  0.
         11    1    3    3    0    0 -0.47899772652E+02 -0.13483565202E+02  0.10422473090E+02  0.50841151602E+02  0.51100000000E-03 0.  1.
         22    1    1    0    0    0  0.49648652786E+01  0.21885453167E+02 -0.19310292014E+02  0.29605917065E+02  0.00000000000E+00 0.  1.
</event>
<event>
 5    1  0.1059945E-009  0.9118800E+02  0.7815553E-02  0.1125453E+00
         25   -1    0    0    0    0  0.00000000000E+00  0.00000000000E+00  0.99999998245E-14  0.12509000000E+03  0.12509000000E+03 0.  0.
        -11    1    3    3    0    0  0.79237841423E+01 -0.35248787204E+02 -0.50150183365E+02  0.61808609807E+02  0.51100000000E-03 0.  1.
         23    2    1    0    0    0 -0.16582791758E+01 -0.20071231673E+02 -0.21385410092E+02  0.95714159663E+02  0.91094787801E+02 0.  0.
         11    1    3    3    0    0 -0.95820633181E+01  0.15177555531E+02  0.28764773273E+02  0.33905549856E+02  0.51100000000E-03 0. -1.
         22    1    1    0    0    0  0.16582791758E+01  0.20071231673E+02  0.21385410092E+02  0.29375840337E+02  0.00000000000E+00 0.  1.
</event>
<event>
 5    1  0.1059945E-009  0.9118800E+02  0.7815553E-02  0.1125453E+00
         25   -1    0    0    0    0  0.00000000000E+00  0.00000000000E+00  0.99999998245E-14  0.12509000000E+03  0.12509000000E+03 0.  0.
        -11    1    3    3    0    0 -0.80493471379E+01  0.34811745339E+02 -0.12814694836E+02  0.37958740850E+02  0.51100000000E-03 0.  1.
         23    2    1    0    0    0  0.26474549179E+02 -0.10540360065E+02 -0.94999365046E+01  0.95052527767E+02  0.90181668297E+02 0.  0.
         11    1    3    3    0    0  0.34523896317E+02 -0.45352105404E+02  0.33147583312E+01  0.57093786917E+02  0.51100000000E-03 0. -1.
         22    1    1    0    0    0 -0.26474549179E+02  0.10540360065E+02  0.94999365046E+01  0.30037472233E+02  0.00000000000E+00 0. -1.
</event>
<event>
 5    1  0.1059945E-009  0.9118800E+02  0.7815553E-02  0.1125453E+00
         25   -1    0    0    0    0  0.00000000000E+00  0.00000000000E+00  0.99999998245E-14  0.12509000000E+03  0.12509000000E+03 0.  0.
        -11    1    3    3    0    0 -0.47205888669E+02 -0.23263961861E+02  0.92481575291E+01  0.53433475130E+02  0.51100000000E-03 0.  1.
         23    2    1    0    0    0 -0.24521583327E+02  0.44223906204E+01 -0.14379402513E+02  0.96321392034E+02  0.91924848431E+02 0.  0.
         11    1    3    3    0    0  0.22684305342E+02  0.27686352481E+02 -0.23627560043E+02  0.42887916904E+02  0.51100000000E-03 0. -1.
         22    1    1    0    0    0  0.24521583327E+02 -0.44223906204E+01  0.14379402513E+02  0.28768607966E+02  0.00000000000E+00 0.  1.
</event>
<event>
 5    1  0.1059945E-009  0.9118800E+02  0.7815553E-02  0.1125453E+00
         25   -1    0    0    0    0  0.00000000000E+00  0.00000000000E+00  0.99999998245E-14  0.12509000000E+03  0.12509000000E+03 0.  0.
        -11    1    3    3    0    0 -0.46723069346E+02 -0.31241925354E+02 -0.21249354261E+02  0.60088585985E+02  0.51100000000E-03 0.  1.
         23    2    1    0    0    0 -0.14029554123E+02 -0.20529767747E+02 -0.17473374465E+02  0.94698906439E+02  0.89689822795E+02 0.  0.
         11    1    3    3    0    0  0.32693515223E+02  0.10712157607E+02  0.37759797958E+01  0.34610320454E+02  0.51100000000E-03 0. -1.
         22    1    1    0    0    0  0.14029554123E+02  0.20529767747E+02  0.17473374465E+02  0.30391093561E+02  0.00000000000E+00 0.  1.
</event>
<event>
 5    1  0.1059945E-009  0.9118800E+02  0.7815553E-02  0.1125453E+00
         25   -1    0    0    0    0  0.00000000000E+00  0.00000000000E+00  0.99999998245E-14  0.12509000000E+03  0.12509000000E+03 0.  0.
        -11    1    3    3    0    0  0.27822843604E+02 -0.51756463333E+02 -0.19046868837E+02  0.61770748221E+02  0.51100000000E-03 0.  1.
         23    2    1    0    0    0  0.19065255639E+02 -0.21024525190E+02 -0.76791069546E+01  0.95687902870E+02  0.91058725227E+02 0.  0.
         11    1    3    3    0    0 -0.87575879648E+01  0.30731938143E+02  0.11367761883E+02  0.33917154649E+02  0.51100000000E-03 0. -1.
         22    1    1    0    0    0 -0.19065255639E+02  0.21024525190E+02  0.76791069546E+01  0.29402097130E+02  0.00000000000E+00 0.  1.
</event>
<event>
 5    1  0.1059945E-009  0.9118800E+02  0.7815553E-02  0.1125453E+00
         25   -1    0    0    0    0  0.00000000000E+00  0.00000000000E+00  0.99999998245E-14  0.12509000000E+03  0.12509000000E+03 0.  0.
        -11    1    3    3    0    0  0.35573127488E+02 -0.68325147511E+01 -0.19378280644E+02  0.41080998260E+02  0.51100000000E-03 0. -1.
         23    2    1    0    0    0 -0.16394680410E+02 -0.44854997011E+01  0.14152787526E+02  0.10297198363E+03  0.10056849788E+03 0.  0.
         11    1    3    3    0    0 -0.51967807898E+02  0.23470150500E+01  0.33531068170E+02  0.61890985371E+02  0.51100000000E-03 0.  1.
         22    1    1    0    0    0  0.16394680410E+02  0.44854997011E+01 -0.14152787526E+02  0.22118016368E+02  0.00000000000E+00 0.  1.
</event>
<event>
 5    1  0.1059945E-009  0.9118800E+02  0.7815553E-02  0.1125453E+00
         25   -1    0    0    0    0  0.00000000000E+00  0.00000000000E+00  0.99999998245E-14  0.12509000000E+03  0.12509000000E+03 0.  0.
        -11    1    3    3    0    0  0.12880067687E+02 -0.12974287903E+02 -0.26112270782E+02  0.31875993723E+02  0.51100000000E-03 0. -1.
         23    2    1    0    0    0 -0.27832995957E+02  0.65378266099E+01  0.14882114448E+02  0.92858087690E+02  0.87084604141E+02 0.  0.
         11    1    3    3    0    0 -0.40713063643E+02  0.19512114513E+02  0.40994385230E+02  0.60982093967E+02  0.51100000000E-03 0.  1.
         22    1    1    0    0    0  0.27832995957E+02 -0.65378266099E+01 -0.14882114448E+02  0.32231912310E+02  0.00000000000E+00 0.  1.
</event>
<event>
 5    1  0.1059945E-009  0.9118800E+02  0.7815553E-02  0.1125453E+00
         25   -1    0    0    0    0  0.00000000000E+00  0.00000000000E+00  0.99999998245E-14  0.12509000000E+03  0.12509000000E+03 0.  0.
        -11    1    3    3    0    0  0.51553790558E+02  0.34152031033E+02  0.56243245238E+01  0.62094988294E+02  0.51100000000E-03 0.  1.
         23    2    1    0    0    0  0.25158207678E+02  0.19183416604E+02  0.77603004911E+01  0.92514531471E+02  0.86589707144E+02 0.  0.
         11    1    3    3    0    0 -0.26395582880E+02 -0.14968614429E+02  0.21359759673E+01  0.30419543177E+02  0.51100000000E-03 0. -1.
         22    1    1    0    0    0 -0.25158207678E+02 -0.19183416604E+02 -0.77603004911E+01  0.32575468529E+02  0.00000000000E+00 0.  1.
</event>
<event>
 5    1  0.1059945E-009  0.9118800E+02  0.7815553E-02  0.1125453E+00
         25   -1    0    0    0    0  0.00000000000E+00  0.00000000000E+00  0.99999998245E-14  0.12509000000E+03  0.12509000000E+03 0.  0.
        -11    1    3    3    0    0  0.10028182599E+02  0.31073797552E+02 -0.87704577426E+01  0.33809263077E+02  0.51100000000E-03 0. -1.
         23    2    1    0    0    0 -0.17436785154E+02 -0.23793866576E+02 -0.31010852185E+01  0.95428471167E+02  0.90701636240E+02 0.  0.
         11    1    3    3    0    0 -0.27464967753E+02 -0.54867664128E+02  0.56693725241E+01  0.61619208090E+02  0.51100000000E-03 0.  1.
         22    1    1    0    0    0  0.17436785154E+02  0.23793866576E+02  0.31010852185E+01  0.29661528833E+02  0.00000000000E+00 0.  1.
</event>
<event>
 5    1  0.1059945E-009  0.9118800E+02  0.7815553E-02  0.1125453E+00
         25   -1    0    0    0    0  0.00000000000E+00  0.00000000000E+00  0.99999998245E-14  0.12509000000E+03  0.12509000000E+03 0.  0.
        -11    1    3    3    0    0  0.11223184764E+02 -0.66845452781E+01 -0.35330765566E+02  0.37668368927E+02  0.51100000000E-03 0.  1.
         23    2    1    0    0    0 -0.27702049238E+02 -0.66691673428E+01  0.75817244771E+01  0.95605022960E+02  0.90944799434E+02 0.  0.
         11    1    3    3    0    0 -0.38925234002E+02  0.15377935344E-01  0.42912490044E+02  0.57936654033E+02  0.51100000000E-03 0. -1.
         22    1    1    0    0    0  0.27702049238E+02  0.66691673428E+01 -0.75817244771E+01  0.29484977040E+02  0.00000000000E+00 0. -1.
</event>
<event>
 5    1  0.1059945E-009  0.9118800E+02  0.7815553E-02  0.1125453E+00
         25   -1    0    0    0    0  0.00000000000E+00  0.00000000000E+00  0.99999998245E-14  0.12509000000E+03  0.12509000000E+03 0.  0.
        -11    1    3    3    0    0  0.19317677067E+02 -0.29105766180E+02  0.14389184170E+01  0.34962676652E+02  0.51100000000E-03 0. -1.
         23    2    1    0    0    0 -0.28181040051E+02  0.86070481480E+01  0.50403002559E+00  0.95619568337E+02  0.90964803669E+02 0.  0.
         11    1    3    3    0    0 -0.47498717117E+02  0.37712814328E+02 -0.93488839146E+00  0.60656891685E+02  0.51100000000E-03 0.  1.
         22    1    1    0    0    0  0.28181040051E+02 -0.86070481480E+01 -0.50403002559E+00  0.29470431663E+02  0.00000000000E+00 0.  1.
</event>
<event>
 5    1  0.1059945E-009  0.9118800E+02  0.7815553E-02  0.1125453E+00
         25   -1    0    0    0    0  0.00000000000E+00  0.00000000000E+00  0.99999998245E-14  0.12509000000E+03  0.12509000000E+03 0.  0.
        -11    1    3    3    0    0  0.19985090708E+02 -0.29566768154E+02  0.40632798583E+02  0.54079773951E+02  0.51100000000E-03 0.  1.
         23    2    1    0    0    0  0.68973011993E+01  0.70791015159E+01  0.28630415001E+02  0.94801601145E+02  0.89832936468E+02 0.  0.
         11    1    3    3    0    0 -0.13087789508E+02  0.36645869670E+02 -0.12002383583E+02  0.40721827194E+02  0.51100000000E-03 0. -1.
         22    1    1    0    0    0 -0.68973011993E+01 -0.70791015159E+01 -0.28630415001E+02  0.30288398855E+02  0.00000000000E+00 0.  1.
</event>
<event>
 5    1  0.1059945E-009  0.9118800E+02  0.7815553E-02  0.1125453E+00
         25   -1    0    0    0    0  0.00000000000E+00  0.00000000000E+00  0.99999998245E-14  0.12509000000E+03  0.12509000000E+03 0.  0.
        -11    1    3    3    0    0  0.25685149538E+02 -0.38114741657E+02 -0.11615381460E+02  0.47406513529E+02  0.51100000000E-03 0.  1.
         23    2    1    0    0    0 -0.16964997154E+02 -0.26476687960E+02 -0.11474627556E+02  0.91616230997E+02  0.85282123395E+02 0.  0.
         11    1    3    3    0    0 -0.42650146691E+02  0.11638053697E+02  0.14075390355E+00  0.44209717467E+02  0.51100000000E-03 0. -1.
         22    1    1    0    0    0  0.16964997154E+02  0.26476687960E+02  0.11474627556E+02  0.33473769003E+02  0.00000000000E+00 0. -1.
</event>
<event>
 5    1  0.1059945E-009  0.9118800E+02  0.7815553E-02  0.1125453E+00
         25   -1    0    0    0    0  0.00000000000E+00  0.00000000000E+00  0.99999998245E-14  0.12509000000E+03  0.12509000000E+03 0.  0.
        -11    1    3    3    0    0 -0.16940467379E+02  0.24314134093E+02  0.66002524168E+00  0.29641055739E+02  0.51100000000E-03 0.  1.
         23    2    1    0    0    0  0.14735965985E+02 -0.29351108856E+02 -0.32920694095E+01  0.92082818878E+02  0.85963780320E+02 0.  0.
         11    1    3    3    0    0  0.31676433364E+02 -0.53665242950E+02 -0.39520946511E+01  0.62441763139E+02  0.51100000000E-03 0. -1.
         22    1    1    0    0    0 -0.14735965985E+02  0.29351108856E+02  0.32920694095E+01  0.33007181122E+02  0.00000000000E+00 0. -1.
</event>
<event>
 5    1  0.1059945E-009  0.9118800E+02  0.7815553E-02  0.1125453E+00
         25   -1    0    0    0    0  0.00000000000E+00  0.00000000000E+00  0.99999998245E-14  0.12509000000E+03  0.12509000000E+03 0.  0.
        -11    1    3    3    0    0  0.95103746355E+01 -0.15810453514E+02 -0.38820824672E+02  0.42982253250E+02  0.51100000000E-03 0.  1.
         23    2    1    0    0    0 -0.72274857733E+01 -0.29522209155E+02  0.72167223491E+01  0.93850946470E+02  0.88499275069E+02 0.  0.
         11    1    3    3    0    0 -0.16737860409E+02 -0.13711755642E+02  0.46037547021E+02  0.50868693219E+02  0.51100000000E-03 0. -1.
         22    1    1    0    0    0  0.72274857733E+01  0.29522209155E+02 -0.72167223491E+01  0.31239053530E+02  0.00000000000E+00 0. -1.
</event>
<event>
 5    1  0.1059945E-009  0.9118800E+02  0.7815553E-02  0.1125453E+00
         25   -1    0    0    0    0  0.00000000000E+00  0.00000000000E+00  0.99999998245E-14  0.12509000000E+03  0.12509000000E+03 0.  0.
        -11    1    3    3    0    0  0.28541208209E+02 -0.14284154996E+02  0.39971243749E+02  0.51150151290E+02  0.51100000000E-03 0.  1.
         23    2    1    0    0    0  0.30964609053E+02 -0.24676049377E+01 -0.11518554012E+01  0.94005874489E+02  0.88717989042E+02 0.  0.
         11    1    3    3    0    0  0.24234008438E+01  0.11816550058E+02 -0.41123099150E+02  0.42855723198E+02  0.51100000000E-03 0. -1.
         22    1    1    0    0    0 -0.30964609053E+02  0.24676049377E+01  0.11518554012E+01  0.31084125511E+02  0.00000000000E+00 0.  1.
</event>
<event>
 5    1  0.1059945E-009  0.9118800E+02  0.7815553E-02  0.1125453E+00
         25   -1    0    0    0    0  0.00000000000E+00  0.00000000000E+00  0.99999998245E-14  0.12509000000E+03  0.12509000000E+03 0.  0.
        -11    1    3    3    0    0  0.25099683378E+02  0.24346041098E+02  0.51150816576E+02  0.61960712225E+02  0.51100000000E-03 0.  1.
         23    2    1    0    0    0  0.16459784948E+02  0.77394657984E+01  0.23003944869E+02  0.95764152512E+02  0.91163411385E+02 0.  0.
         11    1    3    3    0    0 -0.86398984300E+01 -0.16606575299E+02 -0.28146871707E+02  0.33803440287E+02  0.51100000000E-03 0. -1.
         22    1    1    0    0    0 -0.16459784948E+02 -0.77394657984E+01 -0.23003944869E+02  0.29325847488E+02  0.00000000000E+00 0.  1.
</event>
<event>
 5    1  0.1059945E-009  0.9118800E+02  0.7815553E-02  0.1125453E+00
         25   -1    0    0    0    0  0.00000000000E+00  0.00000000000E+00  0.99999998245E-14  0.12509000000E+03  0.12509000000E+03 0.  0.
        -11    1    3    3    0    0 -0.47087181798E+02 -0.21185485342E+02  0.23134444404E+02  0.56579413191E+02  0.51100000000E-03 0.  1.
         23    2    1    0    0    0 -0.80496540125E+01 -0.14617521740E+02  0.23621564106E+02  0.96168603727E+02  0.91716700663E+02 0.  0.
         11    1    3    3    0    0  0.39037527786E+02  0.65679636013E+01  0.48711970161E+00  0.39589190537E+02  0.51100000000E-03 0. -1.
         22    1    1    0    0    0  0.80496540125E+01  0.14617521740E+02 -0.23621564106E+02  0.28921396273E+02  0.00000000000E+00 0.  1.
</event>
<event>
 5    1  0.1059945E-009  0.9118800E+02  0.7815553E-02  0.1125453E+00
         25   -1    0    0    0    0  0.00000000000E+00  0.00000000000E+00  0.99999998245E-14  0.12509000000E+03  0.12509000000E+03 0.  0.
        -11    1    3    3    0    0  0.45310859183E+01  0.13681289857E+02 -0.20817922533E+02  0.25319840651E+02  0.51100000000E-03 0.  1.
         23    2    1    0    0    0  0.20419649231E+02 -0.34155786089E+02 -0.28272702879E+02  0.76274781818E+02  0.58608163385E+02 0.  0.
         11    1    3    3    0    0  0.15888563312E+02 -0.47837075945E+02 -0.74547803462E+01  0.50954941168E+02  0.51100000000E-03 0. -1.
         22    1    1    0    0    0 -0.20419649231E+02  0.34155786089E+02  0.28272702879E+02  0.48815218182E+02  0.00000000000E+00 0. -1.
</event>
<event>
 5    1  0.1059945E-009  0.9118800E+02  0.7815553E-02  0.1125453E+00
         25   -1    0    0    0    0  0.00000000000E+00  0.00000000000E+00  0.99999998245E-14  0.12509000000E+03  0.12509000000E+03 0.  0.
        -11    1    3    3    0    0 -0.34896485385E+02  0.20351896971E+02  0.29432076758E+02  0.49982112251E+02  0.51100000000E-03 0. -1.
         23    2    1    0    0    0 -0.25935400650E+02  0.15238024067E+01 -0.12081388681E+02  0.96438177491E+02  0.92083631253E+02 0.  0.
         11    1    3    3    0    0  0.89610847353E+01 -0.18828094564E+02 -0.41513465439E+02  0.46456065240E+02  0.51100000000E-03 0.  1.
         22    1    1    0    0    0  0.25935400650E+02 -0.15238024067E+01  0.12081388681E+02  0.28651822509E+02  0.00000000000E+00 0. -1.
</event>
<event>
 5    1  0.1059945E-009  0.9118800E+02  0.7815553E-02  0.1125453E+00
         25   -1    0    0    0    0  0.00000000000E+00  0.00000000000E+00  0.99999998245E-14  0.12509000000E+03  0.12509000000E+03 0.  0.
        -11    1    3    3    0    0  0.64743245674E+01 -0.30259608833E+02  0.27725520590E+02  0.41548348915E+02  0.51100000000E-03 0.  1.
         23    2    1    0    0    0  0.45000814763E+01 -0.13792522748E+02 -0.24650226091E+02  0.96487236787E+02  0.92150251218E+02 0.  0.
         11    1    3    3    0    0 -0.19742430912E+01  0.16467086085E+02 -0.52375746682E+02  0.54938887872E+02  0.51100000000E-03 0. -1.
         22    1    1    0    0    0 -0.45000814763E+01  0.13792522748E+02  0.24650226091E+02  0.28602763213E+02  0.00000000000E+00 0.  1.
</event>
<event>
 5    1  0.1059945E-009  0.9118800E+02  0.7815553E-02  0.1125453E+00
         25   -1    0    0    0    0  0.00000000000E+00  0.00000000000E+00  0.99999998245E-14  0.12509000000E+03  0.12509000000E+03 0.  0.
        -11    1    3    3    0    0 -0.20963914231E+02  0.48057028096E+02 -0.25227571516E+02  0.58184138854E+02  0.51100000000E-03 0. -1.
         23    2    1    0    0    0 -0.23353567001E+02  0.12855691066E+02 -0.98826912170E+01  0.96658934770E+02  0.92383029831E+02 0.  0.
         11    1    3    3    0    0 -0.23896527702E+01 -0.35201337031E+02  0.15344880299E+02  0.38474795916E+02  0.51100000000E-03 0.  1.
         22    1    1    0    0    0  0.23353567001E+02 -0.12855691066E+02  0.98826912170E+01  0.28431065230E+02  0.00000000000E+00 0. -1.
</event>
<event>
 5    1  0.1059945E-009  0.9118800E+02  0.7815553E-02  0.1125453E+00
         25   -1    0    0    0    0  0.00000000000E+00  0.00000000000E+00  0.99999998245E-14  0.12509000000E+03  0.12509000000E+03 0.  0.
        -11    1    3    3    0    0 -0.18187047531E+02 -0.20610420482E+02 -0.51185688941E+02  0.58099336339E+02  0.51100000000E-03 0. -1.
         23    2    1    0    0    0 -0.18873578006E+02 -0.19934998819E+02 -0.15965075167E+02  0.93333114924E+02  0.87764289957E+02 0.  0.
         11    1    3    3    0    0 -0.68653047502E+00  0.67542166365E+00  0.35220613774E+02  0.35233778585E+02  0.51100000000E-03 0.  1.
         22    1    1    0    0    0  0.18873578006E+02  0.19934998819E+02  0.15965075167E+02  0.31756885076E+02  0.00000000000E+00 0. -1.
</event>
<event>
 5    1  0.1059945E-009  0.9118800E+02  0.7815553E-02  0.1125453E+00
         25   -1    0    0    0    0  0.00000000000E+00  0.00000000000E+00  0.99999998245E-14  0.12509000000E+03  0.12509000000E+03 0.  0.
        -11    1    3    3    0    0 -0.24168373163E+01 -0.23327393705E+02 -0.13837711690E+02  0.27230326196E+02  0.51100000000E-03 0.  1.
         23    2    1    0    0    0 -0.31204579863E+02 -0.93420755513E+01  0.29526429241E+02  0.81126262627E+02  0.68181084504E+02 0.  0.
         11    1    3    3    0    0 -0.28787742547E+02  0.13985318154E+02  0.43364140931E+02  0.53895936431E+02  0.51100000000E-03 0. -1.
         22    1    1    0    0    0  0.31204579863E+02  0.93420755513E+01 -0.29526429241E+02  0.43963737373E+02  0.00000000000E+00 0. -1.
</event>
<event>
 5    1  0.1059945E-009  0.9118800E+02  0.7815553E-02  0.1125453E+00
         25   -1    0    0    0    0  0.00000000000E+00  0.00000000000E+00  0.99999998245E-14  0.12509000000E+03  0.12509000000E+03 0.  0.
        -11    1    3    3    0    0  0.38834736327E+02  0.37416576168E+01 -0.13034576815E+01  0.39036338833E+02  0.51100000000E-03 0. -1.
         23    2    1    0    0    0 -0.11672200293E+02 -0.24959527010E+02 -0.42842393439E+01  0.97205004841E+02  0.93119493186E+02 0.  0.
         11    1    3    3    0    0 -0.50506936619E+02 -0.28701184627E+02 -0.29807816624E+01  0.58168666009E+02  0.51100000000E-03 0.  1.
         22    1    1    0    0    0  0.11672200293E+02  0.24959527010E+02  0.42842393439E+01  0.27884995159E+02  0.00000000000E+00 0.  1.
</event>
<event>
 5    1  0.1059945E-009  0.9118800E+02  0.7815553E-02  0.1125453E+00
         25   -1    0    0    0    0  0.00000000000E+00  0.00000000000E+00  0.99999998245E-14  0.12509000000E+03  0.12509000000E+03 0.  0.
        -11    1    3    3    0    0  0.14543174920E+02 -0.15294401578E+02 -0.31985921408E+02  0.38321297277E+02  0.51100000000E-03 0. -1.
         23    2    1    0    0    0 -0.19438139380E+02 -0.14555223643E+02  0.15175461625E+02  0.96454524914E+02  0.92105835553E+02 0.  0.
         11    1    3    3    0    0 -0.33981314300E+02  0.73917793431E+00  0.47161383034E+02  0.58133227637E+02  0.51100000000E-03 0.  1.
         22    1    1    0    0    0  0.19438139380E+02  0.14555223643E+02 -0.15175461625E+02  0.28635475086E+02  0.00000000000E+00 0.  1.
</event>
<event>
 5    1  0.1059945E-009  0.9118800E+02  0.7815553E-02  0.1125453E+00
         25   -1    0    0    0    0  0.00000000000E+00  0.00000000000E+00  0.99999998245E-14  0.12509000000E+03  0.12509000000E+03 0.  0.
        -11    1    3    3    0    0 -0.20297682752E+02  0.29326480534E+02  0.32156523734E+02  0.48021665992E+02  0.51100000000E-03 0.  1.
         23    2    1    0    0    0 -0.27888786439E+02 -0.82743691579E+01  0.37395518787E+01  0.95760256696E+02  0.91158065580E+02 0.  0.
         11    1    3    3    0    0 -0.75911036866E+01 -0.37600849692E+02 -0.28416971856E+02  0.47738590705E+02  0.51100000000E-03 0. -1.
         22    1    1    0    0    0  0.27888786439E+02  0.82743691579E+01 -0.37395518787E+01  0.29329743304E+02  0.00000000000E+00 0.  1.
</event>
<event>
 5    1  0.1059945E-009  0.9118800E+02  0.7815553E-02  0.1125453E+00
         25   -1    0    0    0    0  0.00000000000E+00  0.00000000000E+00  0.99999998245E-14  0.12509000000E+03  0.12509000000E+03 0.  0.
        -11    1    3    3    0    0  0.94065741691E+01  0.46434830470E+02  0.39115978683E+02  0.61438887579E+02  0.51100000000E-03 0.  1.
         23    2    1    0    0    0  0.12207256154E+01  0.16296148391E+02  0.23791648357E+02  0.96226577560E+02  0.91795735598E+02 0.  0.
         11    1    3    3    0    0 -0.81858485537E+01 -0.30138682079E+02 -0.15324330326E+02  0.34787689981E+02  0.51100000000E-03 0. -1.
         22    1    1    0    0    0 -0.12207256154E+01 -0.16296148391E+02 -0.23791648357E+02  0.28863422440E+02  0.00000000000E+00 0.  1.
</event>
<event>
 5    1  0.1059945E-009  0.9118800E+02  0.7815553E-02  0.1125453E+00
         25   -1    0    0    0    0  0.00000000000E+00  0.00000000000E+00  0.99999998245E-14  0.12509000000E+03  0.12509000000E+03 0.  0.
        -11    1    3    3    0    0 -0.58144915366E+01 -0.37431262899E+02  0.44099619694E+02  0.58135051488E+02  0.51100000000E-03 0. -1.
         23    2    1    0    0    0 -0.16066356255E+02 -0.20957412850E+02  0.11040462343E+02  0.96467757505E+02  0.92123805136E+02 0.  0.
         11    1    3    3    0    0 -0.10251864718E+02  0.16473850049E+02 -0.33059157351E+02  0.38332706018E+02  0.51100000000E-03 0.  1.
         22    1    1    0    0    0  0.16066356255E+02  0.20957412850E+02 -0.11040462343E+02  0.28622242495E+02  0.00000000000E+00 0. -1.
</event>
<event>
 5    1  0.1059945E-009  0.9118800E+02  0.7815553E-02  0.1125453E+00
         25   -1    0    0    0    0  0.00000000000E+00  0.00000000000E+00  0.99999998245E-14  0.12509000000E+03  0.12509000000E+03 0.  0.
        -11    1    3    3    0    0 -0.14557179678E+02  0.28005503829E+02 -0.15317613961E+02  0.35083457962E+02  0.51100000000E-03 0. -1.
         23    2    1    0    0    0  0.10821482583E+01 -0.26736878268E+02  0.88109444379E+01  0.96917949200E+02  0.92733081642E+02 0.  0.
         11    1    3    3    0    0  0.15639327936E+02 -0.54742382097E+02  0.24128558399E+02  0.61834491238E+02  0.51100000000E-03 0.  1.
         22    1    1    0    0    0 -0.10821482583E+01  0.26736878268E+02 -0.88109444379E+01  0.28172050800E+02  0.00000000000E+00 0.  1.
</event>
<event>
 5    1  0.1059945E-009  0.9118800E+02  0.7815553E-02  0.1125453E+00
         25   -1    0    0    0    0  0.00000000000E+00  0.00000000000E+00  0.99999998245E-14  0.12509000000E+03  0.12509000000E+03 0.  0.
        -11    1    3    3    0    0  0.24515643011E+02  0.13301218443E+02 -0.11120994646E+02  0.30026916033E+02  0.51100000000E-03 0.  1.
         23    2    1    0    0    0 -0.30070997441E+02 -0.14024264392E+02 -0.67700148515E+01  0.91225889500E+02  0.84707643900E+02 0.  0.
         11    1    3    3    0    0 -0.54586640452E+02 -0.27325482835E+02  0.43509797946E+01  0.61198973467E+02  0.51100000000E-03 0. -1.
         22    1    1    0    0    0  0.30070997441E+02  0.14024264392E+02  0.67700148515E+01  0.33864110500E+02  0.00000000000E+00 0. -1.
</event>
<event>
 5    1  0.1059945E-009  0.9118800E+02  0.7815553E-02  0.1125453E+00
         25   -1    0    0    0    0  0.00000000000E+00  0.00000000000E+00  0.99999998245E-14  0.12509000000E+03  0.12509000000E+03 0.  0.
        -11    1    3    3    0    0 -0.41545963055E+02  0.15793730986E+02  0.37211976938E+02  0.57967578978E+02  0.51100000000E-03 0. -1.
         23    2    1    0    0    0 -0.73900522882E+01  0.18574737228E+02  0.21704764216E+02  0.95581856623E+02  0.90912929718E+02 0.  0.
         11    1    3    3    0    0  0.34155910767E+02  0.27810062418E+01 -0.15507212722E+02  0.37614277645E+02  0.51100000000E-03 0.  1.
         22    1    1    0    0    0  0.73900522882E+01 -0.18574737228E+02 -0.21704764216E+02  0.29508143377E+02  0.00000000000E+00 0. -1.
</event>
<event>
 5    1  0.1059945E-009  0.9118800E+02  0.7815553E-02  0.1125453E+00
         25   -1    0    0    0    0  0.00000000000E+00  0.00000000000E+00  0.99999998245E-14  0.12509000000E+03  0.12509000000E+03 0.  0.
        -11    1    3    3    0    0 -0.49434082809E+01  0.46056999726E+02  0.30326290491E+02  0.55365769248E+02  0.51100000000E-03 0.  1.
         23    2    1    0    0    0  0.18768312996E+02  0.19954141997E+02  0.11083626125E+02  0.95538957317E+02  0.90853884021E+02 0.  0.
         11    1    3    3    0    0  0.23711721277E+02 -0.26102857729E+02 -0.19242664366E+02  0.40173188070E+02  0.51100000000E-03 0. -1.
         22    1    1    0    0    0 -0.18768312996E+02 -0.19954141997E+02 -0.11083626125E+02  0.29551042683E+02  0.00000000000E+00 0.  1.
</event>
<event>
 5    1  0.1059945E-009  0.9118800E+02  0.7815553E-02  0.1125453E+00
         25   -1    0    0    0    0  0.00000000000E+00  0.00000000000E+00  0.99999998245E-14  0.12509000000E+03  0.12509000000E+03 0.  0.
        -11    1    3    3    0    0  0.14032897900E+02  0.81306003886E+01  0.30466018351E+02  0.34513869105E+02  0.51100000000E-03 0.  1.
         23    2    1    0    0    0  0.12987140684E+02 -0.13054088072E+02 -0.25082412966E+02  0.93974047841E+02  0.88673102962E+02 0.  0.
         11    1    3    3    0    0 -0.10457572160E+01 -0.21184688461E+02 -0.55548431317E+02  0.59460178736E+02  0.51100000000E-03 0. -1.
         22    1    1    0    0    0 -0.12987140684E+02  0.13054088072E+02  0.25082412966E+02  0.31115952159E+02  0.00000000000E+00 0. -1.
</event>
<event>
 5    1  0.1059945E-009  0.9118800E+02  0.7815553E-02  0.1125453E+00
         25   -1    0    0    0    0  0.00000000000E+00  0.00000000000E+00  0.99999998245E-14  0.12509000000E+03  0.12509000000E+03 0.  0.
        -11    1    3    3    0    0  0.25695440452E+02 -0.35333608618E+02  0.28368267224E+02  0.52091056272E+02  0.51100000000E-03 0. -1.
         23    2    1    0    0    0  0.19449932131E+02  0.68108043514E+01  0.21611032987E+02  0.95228257543E+02  0.90425092602E+02 0.  0.
         11    1    3    3    0    0 -0.62455083208E+01  0.42144412969E+02 -0.67572342374E+01  0.43137201271E+02  0.51100000000E-03 0.  1.
         22    1    1    0    0    0 -0.19449932131E+02 -0.68108043514E+01 -0.21611032987E+02  0.29861742457E+02  0.00000000000E+00 0. -1.
</event>
<event>
 5    1  0.1059945E-009  0.9118800E+02  0.7815553E-02  0.1125453E+00
         25   -1    0    0    0    0  0.00000000000E+00  0.00000000000E+00  0.99999998245E-14  0.12509000000E+03  0.12509000000E+03 0.  0.
        -11    1    3    3    0    0  0.77203204848E+01 -0.25439239380E+02 -0.45582957607E+02  0.52768970741E+02  0.51100000000E-03 0.  1.
         23    2    1    0    0    0 -0.59452497888E+01  0.73596401765E+01 -0.33469580814E+02  0.90308925571E+02  0.83342539554E+02 0.  0.
         11    1    3    3    0    0 -0.13665570274E+02  0.32798879556E+02  0.12113376792E+02  0.37539954830E+02  0.51100000000E-03 0. -1.
         22    1    1    0    0    0  0.59452497888E+01 -0.73596401765E+01  0.33469580814E+02  0.34781074429E+02  0.00000000000E+00 0.  1.
</event>
<event>
 5    1  0.1059945E-009  0.9118800E+02  0.7815553E-02  0.1125453E+00
         25   -1    0    0    0    0  0.00000000000E+00  0.00000000000E+00  0.99999998245E-14  0.12509000000E+03  0.12509000000E+03 0.  0.
        -11    1    3    3    0    0  0.26667928770E+02  0.42625985634E+01  0.51266192252E+02  0.57944547972E+02  0.51100000000E-03 0.  1.
         23    2    1    0    0    0  0.22654267149E+02  0.11806172436E+02  0.14447996018E+02  0.95741301280E+02  0.91132050642E+02 0.  0.
         11    1    3    3    0    0 -0.40136616213E+01  0.75435738723E+01 -0.36818196234E+02  0.37796753307E+02  0.51100000000E-03 0. -1.
         22    1    1    0    0    0 -0.22654267149E+02 -0.11806172436E+02 -0.14447996018E+02  0.29348698720E+02  0.00000000000E+00 0.  1.
</event>
<event>
 5    1  0.1059945E-009  0.9118800E+02  0.7815553E-02  0.1125453E+00
         25   -1    0    0    0    0  0.00000000000E+00  0.00000000000E+00  0.99999998245E-14  0.12509000000E+03  0.12509000000E+03 0.  0.
        -11    1    3    3    0    0  0.30281417415E+02 -0.74115843224E+01 -0.34116597841E+02  0.46215128165E+02  0.51100000000E-03 0.  1.
         23    2    1    0    0    0  0.25238345493E+02  0.78858719725E+01  0.12722801723E+02  0.95746674631E+02  0.91139425932E+02 0.  0.
         11    1    3    3    0    0 -0.50430719218E+01  0.15297456295E+02  0.46839399564E+02  0.49531546466E+02  0.51100000000E-03 0. -1.
         22    1    1    0    0    0 -0.25238345493E+02 -0.78858719725E+01 -0.12722801723E+02  0.29343325369E+02  0.00000000000E+00 0. -1.
</event>
<event>
 5    1  0.1059945E-009  0.9118800E+02  0.7815553E-02  0.1125453E+00
         25   -1    0    0    0    0  0.00000000000E+00  0.00000000000E+00  0.99999998245E-14  0.12509000000E+03  0.12509000000E+03 0.  0.
        -11    1    3    3    0    0  0.17899360011E+02 -0.55142797950E+02  0.11051530971E+02  0.59019078200E+02  0.51100000000E-03 0. -1.
         23    2    1    0    0    0  0.21213942302E+02 -0.20200626210E+02  0.67593448835E-01  0.95796635288E+02  0.91207971781E+02 0.  0.
         11    1    3    3    0    0  0.33145822912E+01  0.34942171740E+02 -0.10983937522E+02  0.36777557089E+02  0.51100000000E-03 0.  1.
         22    1    1    0    0    0 -0.21213942302E+02  0.20200626210E+02 -0.67593448835E-01  0.29293364712E+02  0.00000000000E+00 0. -1.
</event>
<event>
 5    1  0.1059945E-009  0.9118800E+02  0.7815553E-02  0.1125453E+00
         25   -1    0    0    0    0  0.00000000000E+00  0.00000000000E+00  0.99999998245E-14  0.12509000000E+03  0.12509000000E+03 0.  0.
        -11    1    3    3    0    0  0.43813980452E+02  0.29737497433E+02  0.94952883743E+01  0.53797250285E+02  0.51100000000E-03 0.  1.
         23    2    1    0    0    0 -0.71681998406E+01  0.85496342748E+01  0.11531683941E+02  0.10904446886E+03  0.10785748522E+03 0.  0.
         11    1    3    3    0    0 -0.50982180293E+02 -0.21187863159E+02  0.20363955666E+01  0.55247218571E+02  0.51100000000E-03 0. -1.
         22    1    1    0    0    0  0.71681998406E+01 -0.85496342748E+01 -0.11531683941E+02  0.16045531144E+02  0.00000000000E+00 0.  1.
</event>
<event>
 5    1  0.1059945E-009  0.9118800E+02  0.7815553E-02  0.1125453E+00
         25   -1    0    0    0    0  0.00000000000E+00  0.00000000000E+00  0.99999998245E-14  0.12509000000E+03  0.12509000000E+03 0.  0.
        -11    1    3    3    0    0 -0.41013984603E+02 -0.27317449510E+02  0.33632194093E+01  0.49393331795E+02  0.51100000000E-03 0.  1.
         23    2    1    0    0    0 -0.24893571661E+02  0.12273195486E+02 -0.12047800896E+02  0.94833252919E+02  0.89876999923E+02 0.  0.
         11    1    3    3    0    0  0.16120412941E+02  0.39590644996E+02 -0.15411020306E+02  0.45439921124E+02  0.51100000000E-03 0. -1.
         22    1    1    0    0    0  0.24893571661E+02 -0.12273195486E+02  0.12047800896E+02  0.30256747081E+02  0.00000000000E+00 0. -1.
</event>
<event>
 5    1  0.1059945E-009  0.9118800E+02  0.7815553E-02  0.1125453E+00
         25   -1    0    0    0    0  0.00000000000E+00  0.00000000000E+00  0.99999998245E-14  0.12509000000E+03  0.12509000000E+03 0.  0.
        -11    1    3    3    0    0  0.34148118331E+02  0.54267813010E+01 -0.23911668954E+01  0.34659221287E+02  0.51100000000E-03 0. -1.
         23    2    1    0    0    0 -0.27037226827E+02  0.95463561484E+01  0.32072936349E+01  0.96238114747E+02  0.91811455970E+02 0.  0.
         11    1    3    3    0    0 -0.61185345159E+02  0.41195748474E+01  0.55984605302E+01  0.61578893459E+02  0.51100000000E-03 0.  1.
         22    1    1    0    0    0  0.27037226827E+02 -0.95463561484E+01 -0.32072936349E+01  0.28851885253E+02  0.00000000000E+00 0.  1.
</event>
<event>
 5    1  0.1059945E-009  0.9118800E+02  0.7815553E-02  0.1125453E+00
         25   -1    0    0    0    0  0.00000000000E+00  0.00000000000E+00  0.99999998245E-14  0.12509000000E+03  0.12509000000E+03 0.  0.
        -11    1    3    3    0    0  0.10422728959E+01  0.36603680778E+02 -0.35202190979E+02  0.50794783485E+02  0.51100000000E-03 0.  1.
         23    2    1    0    0    0 -0.33211750609E+01 -0.84476416447E+01 -0.26753353188E+02  0.96838721092E+02  0.92626147187E+02 0.  0.
         11    1    3    3    0    0 -0.43634479567E+01 -0.45051322422E+02  0.84488377910E+01  0.46043937607E+02  0.51100000000E-03 0. -1.
         22    1    1    0    0    0  0.33211750609E+01  0.84476416447E+01  0.26753353188E+02  0.28251278908E+02  0.00000000000E+00 0.  1.
</event>
<event>
 5    1  0.1059945E-009  0.9118800E+02  0.7815553E-02  0.1125453E+00
         25   -1    0    0    0    0  0.00000000000E+00  0.00000000000E+00  0.99999998245E-14  0.12509000000E+03  0.12509000000E+03 0.  0.
        -11    1    3    3    0    0  0.22178105131E+02  0.39418022071E+02 -0.23666823330E+02  0.51046717211E+02  0.51100000000E-03 0. -1.
         23    2    1    0    0    0 -0.15881500111E+02  0.17109851267E+02 -0.18178425180E+02  0.95502431696E+02  0.90803580665E+02 0.  0.
         11    1    3    3    0    0 -0.38059605242E+02 -0.22308170804E+02  0.54883981504E+01  0.44455714485E+02  0.51100000000E-03 0.  1.
         22    1    1    0    0    0  0.15881500111E+02 -0.17109851267E+02  0.18178425180E+02  0.29587568304E+02  0.00000000000E+00 0. -1.
</event>
<event>
 5    1  0.1059945E-009  0.9118800E+02  0.7815553E-02  0.1125453E+00
         25   -1    0    0    0    0  0.00000000000E+00  0.00000000000E+00  0.99999998245E-14  0.12509000000E+03  0.12509000000E+03 0.  0.
        -11    1    3    3    0    0 -0.14044316699E+02  0.28976538074E+02  0.18183845506E+02  0.36980195077E+02  0.51100000000E-03 0. -1.
         23    2    1    0    0    0  0.34922681348E+01 -0.14495763538E+02 -0.21858334766E+02  0.98630410132E+02  0.95014987800E+02 0.  0.
         11    1    3    3    0    0  0.17536584833E+02 -0.43472301612E+02 -0.40042180272E+02  0.61650215054E+02  0.51100000000E-03 0.  1.
         22    1    1    0    0    0 -0.34922681348E+01  0.14495763538E+02  0.21858334766E+02  0.26459589868E+02  0.00000000000E+00 0.  1.
</event>
<event>
 5    1  0.1059945E-009  0.9118800E+02  0.7815553E-02  0.1125453E+00
         25   -1    0    0    0    0  0.00000000000E+00  0.00000000000E+00  0.99999998245E-14  0.12509000000E+03  0.12509000000E+03 0.  0.
        -11    1    3    3    0    0 -0.42074921955E+02  0.83232529568E+01 -0.27481887714E+02  0.50939471433E+02  0.51100000000E-03 0.  1.
         23    2    1    0    0    0 -0.23931479654E+02 -0.12581992107E+02  0.88738375080E+01  0.96633590600E+02  0.92348706522E+02 0.  0.
         11    1    3    3    0    0  0.18143442301E+02 -0.20905245064E+02  0.36355725222E+02  0.45694119166E+02  0.51100000000E-03 0. -1.
         22    1    1    0    0    0  0.23931479654E+02  0.12581992107E+02 -0.88738375080E+01  0.28456409400E+02  0.00000000000E+00 0.  1.
</event>
<event>
 5    1  0.1059945E-009  0.9118800E+02  0.7815553E-02  0.1125453E+00
         25   -1    0    0    0    0  0.00000000000E+00  0.00000000000E+00  0.99999998245E-14  0.12509000000E+03  0.12509000000E+03 0.  0.
        -11    1    3    3    0    0  0.10694590768E+02  0.26994127972E+02  0.35126585622E+02  0.45573393931E+02  0.51100000000E-03 0.  1.
         23    2    1    0    0    0 -0.22671317614E+02 -0.68777896626E+01  0.13682309166E+02  0.97731304543E+02  0.93823822511E+02 0.  0.
         11    1    3    3    0    0 -0.33365908382E+02 -0.33871917635E+02 -0.21444276456E+02  0.52157910612E+02  0.51100000000E-03 0. -1.
         22    1    1    0    0    0  0.22671317614E+02  0.68777896626E+01 -0.13682309166E+02  0.27358695457E+02  0.00000000000E+00 0. -1.
</event>
<event>
 5    1  0.1059945E-009  0.9118800E+02  0.7815553E-02  0.1125453E+00
         25   -1    0    0    0    0  0.00000000000E+00  0.00000000000E+00  0.99999998245E-14  0.12509000000E+03  0.12509000000E+03 0.  0.
        -11    1    3    3    0    0  0.33483642602E+02 -0.22224789999E+02 -0.29896593104E+02  0.50088939816E+02  0.51100000000E-03 0. -1.
         23    2    1    0    0    0  0.74244781939E+00  0.11789038030E+02 -0.24857479986E+02  0.97568609089E+02  0.93606658534E+02 0.  0.
         11    1    3    3    0    0 -0.32741194783E+02  0.34013828029E+02  0.50391131179E+01  0.47479669273E+02  0.51100000000E-03 0.  1.
         22    1    1    0    0    0 -0.74244781939E+00 -0.11789038030E+02  0.24857479986E+02  0.27521390911E+02  0.00000000000E+00 0.  1.
</event>
<event>
 5    1  0.1059945E-009  0.9118800E+02  0.7815553E-02  0.1125453E+00
         25   -1    0    0    0    0  0.00000000000E+00  0.00000000000E+00  0.99999998245E-14  0.12509000000E+03  0.12509000000E+03 0.  0.
        -11    1    3    3    0    0 -0.64317936959E+00  0.30404104230E+02 -0.20564498560E+02  0.36711331153E+02  0.51100000000E-03 0. -1.
         23    2    1    0    0    0  0.72929107112E-01 -0.13024089513E+02  0.23271815473E+02  0.98421486324E+02  0.94739534243E+02 0.  0.
         11    1    3    3    0    0  0.71610847670E+00 -0.43428193743E+02  0.43836314032E+02  0.61710155171E+02  0.51100000000E-03 0.  1.
         22    1    1    0    0    0 -0.72929107112E-01  0.13024089513E+02 -0.23271815473E+02  0.26668513676E+02  0.00000000000E+00 0.  1.
</event>
<event>
 5    1  0.1059945E-009  0.9118800E+02  0.7815553E-02  0.1125453E+00
         25   -1    0    0    0    0  0.00000000000E+00  0.00000000000E+00  0.99999998245E-14  0.12509000000E+03  0.12509000000E+03 0.  0.
        -11    1    3    3    0    0 -0.30591281610E+01  0.29570967403E+02 -0.32768774952E+02  0.44244694489E+02  0.51100000000E-03 0. -1.
         23    2    1    0    0    0 -0.22830843374E+02 -0.28855267208E+01  0.86942407055E+01  0.10048992896E+03  0.97432347441E+02 0.  0.
         11    1    3    3    0    0 -0.19771715213E+02 -0.32456494124E+02  0.41463015658E+02  0.56245234474E+02  0.51100000000E-03 0.  1.
         22    1    1    0    0    0  0.22830843374E+02  0.28855267208E+01 -0.86942407055E+01  0.24600071038E+02  0.00000000000E+00 0.  1.
</event>
<event>
 5    1  0.1059945E-009  0.9118800E+02  0.7815553E-02  0.1125453E+00
         25   -1    0    0    0    0  0.00000000000E+00  0.00000000000E+00  0.99999998245E-14  0.12509000000E+03  0.12509000000E+03 0.  0.
        -11    1    3    3    0    0  0.36842395067E+02 -0.20857075727E+02 -0.36525425579E+02  0.55914992588E+02  0.51100000000E-03 0. -1.
         23    2    1    0    0    0  0.98880934237E+01  0.11832362018E+02 -0.15545443155E+02  0.10319388196E+03  0.10084412372E+03 0.  0.
         11    1    3    3    0    0 -0.26954301643E+02  0.32689437745E+02  0.20979982424E+02  0.47278889369E+02  0.51100000000E-03 0.  1.
         22    1    1    0    0    0 -0.98880934237E+01 -0.11832362018E+02  0.15545443155E+02  0.21896118043E+02  0.00000000000E+00 0.  1.
</event>
<event>
 5    1  0.1059945E-009  0.9118800E+02  0.7815553E-02  0.1125453E+00
         25   -1    0    0    0    0  0.00000000000E+00  0.00000000000E+00  0.99999998245E-14  0.12509000000E+03  0.12509000000E+03 0.  0.
        -11    1    3    3    0    0 -0.31942328554E+02 -0.18742458706E+02  0.33395887784E+02  0.49868601675E+02  0.51100000000E-03 0. -1.
         23    2    1    0    0    0  0.76981076485E+01  0.46991427777E+01  0.27318991227E+02  0.96320744085E+02  0.91923966707E+02 0.  0.
         11    1    3    3    0    0  0.39640436203E+02  0.23441601484E+02 -0.60768965565E+01  0.46452142410E+02  0.51100000000E-03 0.  1.
         22    1    1    0    0    0 -0.76981076485E+01 -0.46991427777E+01 -0.27318991227E+02  0.28769255915E+02  0.00000000000E+00 0. -1.
</event>
<event>
 5    1  0.1059945E-009  0.9118800E+02  0.7815553E-02  0.1125453E+00
         25   -1    0    0    0    0  0.00000000000E+00  0.00000000000E+00  0.99999998245E-14  0.12509000000E+03  0.12509000000E+03 0.  0.
        -11    1    3    3    0    0  0.12104892572E+02  0.14652419463E+02 -0.34773352815E+02  0.39628372242E+02  0.51100000000E-03 0. -1.
         23    2    1    0    0    0 -0.95517058068E+01  0.28624023261E+02  0.11664346014E+02  0.92738388612E+02  0.86912496012E+02 0.  0.
         11    1    3    3    0    0 -0.21656598379E+02  0.13971603797E+02  0.46437698829E+02  0.53110016370E+02  0.51100000000E-03 0.  1.
         22    1    1    0    0    0  0.95517058068E+01 -0.28624023261E+02 -0.11664346014E+02  0.32351611388E+02  0.00000000000E+00 0.  1.
</event>
<event>
 5    1  0.1059945E-009  0.9118800E+02  0.7815553E-02  0.1125453E+00
         25   -1    0    0    0    0  0.00000000000E+00  0.00000000000E+00  0.99999998245E-14  0.12509000000E+03  0.12509000000E+03 0.  0.
        -11    1    3    3    0    0  0.64356965135E+01 -0.46856098159E+02 -0.25614151121E+01  0.47365314017E+02  0.51100000000E-03 0.  1.
         23    2    1    0    0    0  0.54124196956E+01 -0.96737250676E+01  0.27660060361E+02  0.95291439920E+02  0.90512454056E+02 0.  0.
         11    1    3    3    0    0 -0.10232768178E+01  0.37182373091E+02  0.30221475473E+02  0.47926125904E+02  0.51100000000E-03 0. -1.
         22    1    1    0    0    0 -0.54124196956E+01  0.96737250676E+01 -0.27660060361E+02  0.29798560080E+02  0.00000000000E+00 0. -1.
</event>
<event>
 5    1  0.1059945E-009  0.9118800E+02  0.7815553E-02  0.1125453E+00
         25   -1    0    0    0    0  0.00000000000E+00  0.00000000000E+00  0.99999998245E-14  0.12509000000E+03  0.12509000000E+03 0.  0.
        -11    1    3    3    0    0  0.27825344629E+02 -0.83595065755E+00  0.19358862728E+02  0.33907435521E+02  0.51100000000E-03 0.  1.
         23    2    1    0    0    0 -0.22984865373E+02 -0.10363736575E+02 -0.14785322062E+02  0.95861301423E+02  0.91296617079E+02 0.  0.
         11    1    3    3    0    0 -0.50810210002E+02 -0.95277859179E+01 -0.34144184790E+02  0.61953865902E+02  0.51100000000E-03 0. -1.
         22    1    1    0    0    0  0.22984865373E+02  0.10363736575E+02  0.14785322062E+02  0.29228698577E+02  0.00000000000E+00 0. -1.
</event>
<event>
 5    1  0.1059945E-009  0.9118800E+02  0.7815553E-02  0.1125453E+00
         25   -1    0    0    0    0  0.00000000000E+00  0.00000000000E+00  0.99999998245E-14  0.12509000000E+03  0.12509000000E+03 0.  0.
        -11    1    3    3    0    0 -0.23532621865E+02 -0.13447788678E+02  0.55028641996E+02  0.61341492910E+02  0.51100000000E-03 0. -1.
         23    2    1    0    0    0 -0.18355526338E+02 -0.27549399086E+01  0.22799907449E+02  0.95690156111E+02  0.91061820517E+02 0.  0.
         11    1    3    3    0    0  0.51770955266E+01  0.10692848769E+02 -0.32228734548E+02  0.34348663201E+02  0.51100000000E-03 0.  1.
         22    1    1    0    0    0  0.18355526338E+02  0.27549399086E+01 -0.22799907449E+02  0.29399843889E+02  0.00000000000E+00 0. -1.
</event>
<event>
 5    1  0.1059945E-009  0.9118800E+02  0.7815553E-02  0.1125453E+00
         25   -1    0    0    0    0  0.00000000000E+00  0.00000000000E+00  0.99999998245E-14  0.12509000000E+03  0.12509000000E+03 0.  0.
        -11    1    3    3    0    0 -0.40714376803E+01  0.20787406071E+01  0.61589127289E+02  0.61758548945E+02  0.51100000000E-03 0.  1.
         23    2    1    0    0    0 -0.58563251478E+01  0.68614499656E+01  0.29813386735E+02  0.93941740523E+02  0.88627515727E+02 0.  0.
         11    1    3    3    0    0 -0.17848874675E+01  0.47827093585E+01 -0.31775740554E+02  0.32183191577E+02  0.51100000000E-03 0. -1.
         22    1    1    0    0    0  0.58563251478E+01 -0.68614499656E+01 -0.29813386735E+02  0.31148259477E+02  0.00000000000E+00 0.  1.
</event>
<event>
 5    1  0.1059945E-009  0.9118800E+02  0.7815553E-02  0.1125453E+00
         25   -1    0    0    0    0  0.00000000000E+00  0.00000000000E+00  0.99999998245E-14  0.12509000000E+03  0.12509000000E+03 0.  0.
        -11    1    3    3    0    0 -0.11541174723E+02 -0.18225046122E+02  0.33619258844E+02  0.39945032052E+02  0.51100000000E-03 0.  1.
         23    2    1    0    0    0 -0.16633375889E+01  0.28857640137E+02  0.55065895102E+01  0.95664626353E+02  0.91026743988E+02 0.  0.
         11    1    3    3    0    0  0.98778371337E+01  0.47082686259E+02 -0.28112669334E+02  0.55719594302E+02  0.51100000000E-03 0. -1.
         22    1    1    0    0    0  0.16633375889E+01 -0.28857640137E+02 -0.55065895102E+01  0.29425373647E+02  0.00000000000E+00 0. -1.
</event>
<event>
 5    1  0.1059945E-009  0.9118800E+02  0.7815553E-02  0.1125453E+00
         25   -1    0    0    0    0  0.00000000000E+00  0.00000000000E+00  0.99999998245E-14  0.12509000000E+03  0.12509000000E+03 0.  0.
        -11    1    3    3    0    0 -0.45836168709E+02  0.14201136147E+02 -0.39968376457E+02  0.62450762579E+02  0.51100000000E-03 0. -1.
         23    2    1    0    0    0 -0.20822678696E+02  0.89474315251E+01 -0.19347617234E+02  0.95291161572E+02  0.90512069373E+02 0.  0.
         11    1    3    3    0    0  0.25013490013E+02 -0.52537046218E+01  0.20620759223E+02  0.32840398994E+02  0.51100000000E-03 0.  1.
         22    1    1    0    0    0  0.20822678696E+02 -0.89474315251E+01  0.19347617234E+02  0.29798838428E+02  0.00000000000E+00 0. -1.
</event>
<event>
 5    1  0.1059945E-009  0.9118800E+02  0.7815553E-02  0.1125453E+00
         25   -1    0    0    0    0  0.00000000000E+00  0.00000000000E+00  0.99999998245E-14  0.12509000000E+03  0.12509000000E+03 0.  0.
        -11    1    3    3    0    0 -0.72919535880E+01  0.29779200277E+02  0.28537701581E+02  0.41885245231E+02  0.51100000000E-03 0. -1.
         23    2    1    0    0    0 -0.24396301537E+02 -0.15625026481E+02  0.54770503939E+01  0.95605782828E+02  0.90945844588E+02 0.  0.
         11    1    3    3    0    0 -0.17104347949E+02 -0.45404226758E+02 -0.23060651187E+02  0.53720537597E+02  0.51100000000E-03 0.  1.
         22    1    1    0    0    0  0.24396301537E+02  0.15625026481E+02 -0.54770503939E+01  0.29484217172E+02  0.00000000000E+00 0.  1.
</event>
<event>
 5    1  0.1059945E-009  0.9118800E+02  0.7815553E-02  0.1125453E+00
         25   -1    0    0    0    0  0.00000000000E+00  0.00000000000E+00  0.99999998245E-14  0.12509000000E+03  0.12509000000E+03 0.  0.
        -11    1    3    3    0    0 -0.93297539859E+01 -0.52368482151E+02 -0.15374814550E+02  0.55370453808E+02  0.51100000000E-03 0. -1.
         23    2    1    0    0    0 -0.23154086561E+02 -0.14868306399E+02 -0.10517119811E+02  0.95631757202E+02  0.90981563609E+02 0.  0.
         11    1    3    3    0    0 -0.13824332575E+02  0.37500175751E+02  0.48576947392E+01  0.40261303394E+02  0.51100000000E-03 0.  1.
         22    1    1    0    0    0  0.23154086561E+02  0.14868306399E+02  0.10517119811E+02  0.29458242798E+02  0.00000000000E+00 0. -1.
</event>
<event>
 5    1  0.1059945E-009  0.9118800E+02  0.7815553E-02  0.1125453E+00
         25   -1    0    0    0    0  0.00000000000E+00  0.00000000000E+00  0.99999998245E-14  0.12509000000E+03  0.12509000000E+03 0.  0.
        -11    1    3    3    0    0 -0.27175024166E+02  0.57269175270E+01 -0.33600707259E+02  0.43592282015E+02  0.51100000000E-03 0.  1.
         23    2    1    0    0    0 -0.22125053479E+02 -0.12034344134E+02  0.15133145293E+02  0.95707088016E+02  0.91085076604E+02 0.  0.
         11    1    3    3    0    0  0.50499706864E+01 -0.17761261661E+02  0.48733852551E+02  0.52114806001E+02  0.51100000000E-03 0. -1.
         22    1    1    0    0    0  0.22125053479E+02  0.12034344134E+02 -0.15133145293E+02  0.29382911984E+02  0.00000000000E+00 0. -1.
</event>
<event>
 5    1  0.1059945E-009  0.9118800E+02  0.7815553E-02  0.1125453E+00
         25   -1    0    0    0    0  0.00000000000E+00  0.00000000000E+00  0.99999998245E-14  0.12509000000E+03  0.12509000000E+03 0.  0.
        -11    1    3    3    0    0 -0.28978139589E+01 -0.28037683733E+02  0.51227231218E+02  0.58469977367E+02  0.51100000000E-03 0. -1.
         23    2    1    0    0    0  0.80876315960E+01 -0.22629705548E+02  0.14878870134E+02  0.96825284638E+02  0.92607999713E+02 0.  0.
         11    1    3    3    0    0  0.10985445555E+02  0.54079781852E+01 -0.36348361084E+02  0.38355307271E+02  0.51100000000E-03 0.  1.
         22    1    1    0    0    0 -0.80876315960E+01  0.22629705548E+02 -0.14878870134E+02  0.28264715362E+02  0.00000000000E+00 0. -1.
</event>
<event>
 5    1  0.1059945E-009  0.9118800E+02  0.7815553E-02  0.1125453E+00
         25   -1    0    0    0    0  0.00000000000E+00  0.00000000000E+00  0.99999998245E-14  0.12509000000E+03  0.12509000000E+03 0.  0.
        -11    1    3    3    0    0 -0.46684495287E+01 -0.98270109165E+01 -0.45966605035E+02  0.47236567860E+02  0.51100000000E-03 0. -1.
         23    2    1    0    0    0 -0.28814805827E+02 -0.12886109990E+02 -0.76808486533E+01  0.92603998376E+02  0.86718857313E+02 0.  0.
         11    1    3    3    0    0 -0.24146356298E+02 -0.30590990730E+01  0.38285756381E+02  0.45367430515E+02  0.51100000000E-03 0.  1.
         22    1    1    0    0    0  0.28814805827E+02  0.12886109990E+02  0.76808486533E+01  0.32486001624E+02  0.00000000000E+00 0.  1.
</event>
<event>
 5    1  0.1059945E-009  0.9118800E+02  0.7815553E-02  0.1125453E+00
         25   -1    0    0    0    0  0.00000000000E+00  0.00000000000E+00  0.99999998245E-14  0.12509000000E+03  0.12509000000E+03 0.  0.
        -11    1    3    3    0    0 -0.35160659110E+02  0.72789866156E+01 -0.20158020563E+02  0.41177680708E+02  0.51100000000E-03 0. -1.
         23    2    1    0    0    0  0.17057052875E+02 -0.10932817994E+02 -0.20200371588E+02  0.96480131522E+02  0.92140605620E+02 0.  0.
         11    1    3    3    0    0  0.52217711985E+02 -0.18211804609E+02 -0.42351024935E-01  0.55302450813E+02  0.51100000000E-03 0.  1.
         22    1    1    0    0    0 -0.17057052875E+02  0.10932817994E+02  0.20200371588E+02  0.28609868478E+02  0.00000000000E+00 0.  1.
</event>
<event>
 5    1  0.1059945E-009  0.9118800E+02  0.7815553E-02  0.1125453E+00
         25   -1    0    0    0    0  0.00000000000E+00  0.00000000000E+00  0.99999998245E-14  0.12509000000E+03  0.12509000000E+03 0.  0.
        -11    1    3    3    0    0  0.40264966244E+02  0.47258489403E+02  0.30610374646E+01  0.62161099394E+02  0.51100000000E-03 0.  1.
         23    2    1    0    0    0  0.14806652619E+02  0.24030901832E+02  0.36524292186E+01  0.96628421621E+02  0.92341704669E+02 0.  0.
         11    1    3    3    0    0 -0.25458313625E+02 -0.23227587571E+02  0.59139175396E+00  0.34467322227E+02  0.51100000000E-03 0. -1.
         22    1    1    0    0    0 -0.14806652619E+02 -0.24030901832E+02 -0.36524292186E+01  0.28461578379E+02  0.00000000000E+00 0.  1.
</event>
<event>
 5    1  0.1059945E-009  0.9118800E+02  0.7815553E-02  0.1125453E+00
         25   -1    0    0    0    0  0.00000000000E+00  0.00000000000E+00  0.99999998245E-14  0.12509000000E+03  0.12509000000E+03 0.  0.
        -11    1    3    3    0    0 -0.46313604789E+02 -0.55023395813E+00  0.11815360999E+02  0.47800162152E+02  0.51100000000E-03 0.  1.
         23    2    1    0    0    0 -0.44818258085E+01 -0.23634137109E+02  0.16668077950E+02  0.95824251726E+02  0.91245839340E+02 0.  0.
         11    1    3    3    0    0  0.41831778980E+02 -0.23083903151E+02  0.48527169518E+01  0.48024089574E+02  0.51100000000E-03 0. -1.
         22    1    1    0    0    0  0.44818258085E+01  0.23634137109E+02 -0.16668077950E+02  0.29265748274E+02  0.00000000000E+00 0.  1.
</event>
<event>
 5    1  0.1059945E-009  0.9118800E+02  0.7815553E-02  0.1125453E+00
         25   -1    0    0    0    0  0.00000000000E+00  0.00000000000E+00  0.99999998245E-14  0.12509000000E+03  0.12509000000E+03 0.  0.
        -11    1    3    3    0    0 -0.14945005965E+02 -0.57754499408E+01 -0.45172226372E+02  0.47929521810E+02  0.51100000000E-03 0.  1.
         23    2    1    0    0    0  0.14307585720E+02 -0.18900094881E+02 -0.25733789723E+01  0.10124586288E+03  0.98398078616E+02 0.  0.
         11    1    3    3    0    0  0.29252591685E+02 -0.13124644940E+02  0.42598847399E+02  0.53316341070E+02  0.51100000000E-03 0. -1.
         22    1    1    0    0    0 -0.14307585720E+02  0.18900094881E+02  0.25733789723E+01  0.23844137120E+02  0.00000000000E+00 0. -1.
</event>
<event>
 5    1  0.1059945E-009  0.9118800E+02  0.7815553E-02  0.1125453E+00
         25   -1    0    0    0    0  0.00000000000E+00  0.00000000000E+00  0.99999998245E-14  0.12509000000E+03  0.12509000000E+03 0.  0.
        -11    1    3    3    0    0  0.13650794015E+02  0.33861276668E+02  0.37529392173E+02  0.52358242063E+02  0.51100000000E-03 0.  1.
         23    2    1    0    0    0 -0.15401119692E+01  0.29161411869E+02 -0.28435831970E+01  0.95749825283E+02  0.91143750138E+02 0.  0.
         11    1    3    3    0    0 -0.15190905984E+02 -0.46998647992E+01 -0.40372975370E+02  0.43391583219E+02  0.51100000000E-03 0. -1.
         22    1    1    0    0    0  0.15401119692E+01 -0.29161411869E+02  0.28435831970E+01  0.29340174717E+02  0.00000000000E+00 0.  1.
</event>
<event>
 5    1  0.1059945E-009  0.9118800E+02  0.7815553E-02  0.1125453E+00
         25   -1    0    0    0    0  0.00000000000E+00  0.00000000000E+00  0.99999998245E-14  0.12509000000E+03  0.12509000000E+03 0.  0.
        -11    1    3    3    0    0 -0.73906292950E+01  0.44801508785E+02 -0.88489178824E+01  0.46261214194E+02  0.51100000000E-03 0. -1.
         23    2    1    0    0    0  0.95952429920E+01  0.32066303121E+01  0.22076966641E+02  0.10080536243E+03  0.97836483337E+02 0.  0.
         11    1    3    3    0    0  0.16985872287E+02 -0.41594878473E+02  0.30925884523E+02  0.54544148232E+02  0.51100000000E-03 0.  1.
         22    1    1    0    0    0 -0.95952429920E+01 -0.32066303121E+01 -0.22076966641E+02  0.24284637574E+02  0.00000000000E+00 0.  1.
</event>
<event>
 5    1  0.1059945E-009  0.9118800E+02  0.7815553E-02  0.1125453E+00
         25   -1    0    0    0    0  0.00000000000E+00  0.00000000000E+00  0.99999998245E-14  0.12509000000E+03  0.12509000000E+03 0.  0.
        -11    1    3    3    0    0 -0.37185220760E+02  0.39016560743E+02 -0.12271427917E+02  0.55277668172E+02  0.51100000000E-03 0.  1.
         23    2    1    0    0    0 -0.26817088631E+01  0.22843628966E+02  0.10647134876E+02  0.99744696139E+02  0.96470824501E+02 0.  0.
         11    1    3    3    0    0  0.34503511897E+02 -0.16172931777E+02  0.22918562793E+02  0.44467027967E+02  0.51100000000E-03 0. -1.
         22    1    1    0    0    0  0.26817088631E+01 -0.22843628966E+02 -0.10647134876E+02  0.25345303861E+02  0.00000000000E+00 0. -1.
</event>
<event>
 5    1  0.1059945E-009  0.9118800E+02  0.7815553E-02  0.1125453E+00
         25   -1    0    0    0    0  0.00000000000E+00  0.00000000000E+00  0.99999998245E-14  0.12509000000E+03  0.12509000000E+03 0.  0.
        -11    1    3    3    0    0 -0.49361216282E-01 -0.79113126911E+01  0.61578795515E+02  0.62084936678E+02  0.51100000000E-03 0. -1.
         23    2    1    0    0    0 -0.37376424726E+00  0.15118773205E+01  0.30203831495E+02  0.94846043418E+02  0.89894799863E+02 0.  0.
         11    1    3    3    0    0 -0.32440303098E+00  0.94231900117E+01 -0.31374964020E+02  0.32761106740E+02  0.51100000000E-03 0.  1.
         22    1    1    0    0    0  0.37376424726E+00 -0.15118773205E+01 -0.30203831495E+02  0.30243956582E+02  0.00000000000E+00 0. -1.
</event>
<event>
 5    1  0.1059945E-009  0.9118800E+02  0.7815553E-02  0.1125453E+00
         25   -1    0    0    0    0  0.00000000000E+00  0.00000000000E+00  0.99999998245E-14  0.12509000000E+03  0.12509000000E+03 0.  0.
        -11    1    3    3    0    0 -0.14819643528E+02  0.29833627072E+01 -0.27436243252E+02  0.31325225161E+02  0.51100000000E-03 0.  1.
         23    2    1    0    0    0 -0.44090475431E+01  0.18505405436E+02  0.28793517848E+02  0.90579763829E+02  0.83748057975E+02 0.  0.
         11    1    3    3    0    0  0.10410595985E+02  0.15522042728E+02  0.56229761099E+02  0.59254538668E+02  0.51100000000E-03 0. -1.
         22    1    1    0    0    0  0.44090475431E+01 -0.18505405436E+02 -0.28793517848E+02  0.34510236171E+02  0.00000000000E+00 0. -1.
</event>
<event>
 5    1  0.1059945E-009  0.9118800E+02  0.7815553E-02  0.1125453E+00
         25   -1    0    0    0    0  0.00000000000E+00  0.00000000000E+00  0.99999998245E-14  0.12509000000E+03  0.12509000000E+03 0.  0.
        -11    1    3    3    0    0 -0.17248255078E+02  0.44065878469E+01  0.50926347398E+01  0.18516350843E+02  0.51100000000E-03 0. -1.
         23    2    1    0    0    0  0.42265502070E+02  0.30386373074E+01 -0.13054000274E+02  0.80750255920E+02  0.67487709445E+02 0.  0.
         11    1    3    3    0    0  0.59513757148E+02 -0.13679505395E+01 -0.18146635014E+02  0.62233905077E+02  0.51100000000E-03 0.  1.
         22    1    1    0    0    0 -0.42265502070E+02 -0.30386373074E+01  0.13054000274E+02  0.44339744080E+02  0.00000000000E+00 0.  1.
</event>
<event>
 5    1  0.1059945E-009  0.9118800E+02  0.7815553E-02  0.1125453E+00
         25   -1    0    0    0    0  0.00000000000E+00  0.00000000000E+00  0.99999998245E-14  0.12509000000E+03  0.12509000000E+03 0.  0.
        -11    1    3    3    0    0  0.91908757200E+01 -0.39742569107E+02 -0.41665408572E+02  0.58309092494E+02  0.51100000000E-03 0. -1.
         23    2    1    0    0    0 -0.91183362681E+01 -0.18113945745E+02 -0.29830798814E+02  0.89018742126E+02  0.81383049863E+02 0.  0.
         11    1    3    3    0    0 -0.18309211988E+02  0.21628623361E+02  0.11834609759E+02  0.30709649632E+02  0.51100000000E-03 0.  1.
         22    1    1    0    0    0  0.91183362681E+01  0.18113945745E+02  0.29830798814E+02  0.36071257874E+02  0.00000000000E+00 0. -1.
</event>
<event>
 5    1  0.1059945E-009  0.9118800E+02  0.7815553E-02  0.1125453E+00
         25   -1    0    0    0    0  0.00000000000E+00  0.00000000000E+00  0.99999998245E-14  0.12509000000E+03  0.12509000000E+03 0.  0.
        -11    1    3    3    0    0  0.39490428358E+02  0.10163810332E+02 -0.37449762022E+01  0.40949014876E+02  0.51100000000E-03 0.  1.
         23    2    1    0    0    0 -0.16295200663E+02  0.21333512457E+02  0.22181946938E+01  0.98153543178E+02  0.94385090625E+02 0.  0.
         11    1    3    3    0    0 -0.55785629021E+02  0.11169702125E+02  0.59631708960E+01  0.57204528302E+02  0.51100000000E-03 0. -1.
         22    1    1    0    0    0  0.16295200663E+02 -0.21333512457E+02 -0.22181946938E+01  0.26936456822E+02  0.00000000000E+00 0. -1.
</event>
<event>
 5    1  0.1059945E-009  0.9118800E+02  0.7815553E-02  0.1125453E+00
         25   -1    0    0    0    0  0.00000000000E+00  0.00000000000E+00  0.99999998245E-14  0.12509000000E+03  0.12509000000E+03 0.  0.
        -11    1    3    3    0    0 -0.53880520425E+02  0.13355639243E+02 -0.23235219480E+02  0.60177728483E+02  0.51100000000E-03 0.  1.
         23    2    1    0    0    0 -0.20562220143E+02  0.17469548073E+02 -0.89363980021E+01  0.96667311592E+02  0.92394371658E+02 0.  0.
         11    1    3    3    0    0  0.33318300282E+02  0.41139088297E+01  0.14298821478E+02  0.36489583109E+02  0.51100000000E-03 0. -1.
         22    1    1    0    0    0  0.20562220143E+02 -0.17469548073E+02  0.89363980021E+01  0.28422688408E+02  0.00000000000E+00 0.  1.
</event>
<event>
 5    1  0.1059945E-009  0.9118800E+02  0.7815553E-02  0.1125453E+00
         25   -1    0    0    0    0  0.00000000000E+00  0.00000000000E+00  0.99999998245E-14  0.12509000000E+03  0.12509000000E+03 0.  0.
        -11    1    3    3    0    0  0.24687199511E+02  0.26352785759E+02 -0.18313398700E+02  0.40488365109E+02  0.51100000000E-03 0.  1.
         23    2    1    0    0    0 -0.26751455997E+02  0.10587465673E+02 -0.53913067642E+01  0.95818836444E+02  0.91238415163E+02 0.  0.
         11    1    3    3    0    0 -0.51438655508E+02 -0.15765320086E+02  0.12922091936E+02  0.55330471335E+02  0.51100000000E-03 0. -1.
         22    1    1    0    0    0  0.26751455997E+02 -0.10587465673E+02  0.53913067642E+01  0.29271163556E+02  0.00000000000E+00 0. -1.
</event>
<event>
 5    1  0.1059945E-009  0.9118800E+02  0.7815553E-02  0.1125453E+00
         25   -1    0    0    0    0  0.00000000000E+00  0.00000000000E+00  0.99999998245E-14  0.12509000000E+03  0.12509000000E+03 0.  0.
        -11    1    3    3    0    0 -0.10503942315E+02  0.41917987455E+02  0.40938716793E+02  0.59526708370E+02  0.51100000000E-03 0. -1.
         23    2    1    0    0    0  0.81871283794E+01  0.23751014917E+02  0.19104146295E+02  0.93528818363E+02  0.88042783225E+02 0.  0.
         11    1    3    3    0    0  0.18691070694E+02 -0.18166972538E+02 -0.21834570498E+02  0.34002109993E+02  0.51100000000E-03 0.  1.
         22    1    1    0    0    0 -0.81871283794E+01 -0.23751014917E+02 -0.19104146295E+02  0.31561181637E+02  0.00000000000E+00 0. -1.
</event>
<event>
 5    1  0.1059945E-009  0.9118800E+02  0.7815553E-02  0.1125453E+00
         25   -1    0    0    0    0  0.00000000000E+00  0.00000000000E+00  0.99999998245E-14  0.12509000000E+03  0.12509000000E+03 0.  0.
        -11    1    3    3    0    0 -0.19635603692E+02  0.20110595052E+01  0.49950622130E+02  0.53709086234E+02  0.51100000000E-03 0.  1.
         23    2    1    0    0    0 -0.23130651316E+02  0.14643684012E+02  0.96903856234E+01  0.96049199644E+02  0.91553703732E+02 0.  0.
         11    1    3    3    0    0 -0.34950476247E+01  0.12632624507E+02 -0.40260236506E+02  0.42340113411E+02  0.51100000000E-03 0. -1.
         22    1    1    0    0    0  0.23130651316E+02 -0.14643684012E+02 -0.96903856234E+01  0.29040800356E+02  0.00000000000E+00 0. -1.
</event>
<event>
 5    1  0.1059945E-009  0.9118800E+02  0.7815553E-02  0.1125453E+00
         25   -1    0    0    0    0  0.00000000000E+00  0.00000000000E+00  0.99999998245E-14  0.12509000000E+03  0.12509000000E+03 0.  0.
        -11    1    3    3    0    0  0.41477864363E+02  0.40447845438E+02  0.88328596737E+01  0.58604273248E+02  0.51100000000E-03 0.  1.
         23    2    1    0    0    0  0.66754224183E+01  0.27434118390E+02  0.78961652120E+01  0.95772061100E+02  0.91174262519E+02 0.  0.
         11    1    3    3    0    0 -0.34802441945E+02 -0.13013727048E+02 -0.93669446170E+00  0.37167787852E+02  0.51100000000E-03 0. -1.
         22    1    1    0    0    0 -0.66754224183E+01 -0.27434118390E+02 -0.78961652120E+01  0.29317938900E+02  0.00000000000E+00 0.  1.
</event>
<event>
 5    1  0.1059945E-009  0.9118800E+02  0.7815553E-02  0.1125453E+00
         25   -1    0    0    0    0  0.00000000000E+00  0.00000000000E+00  0.99999998245E-14  0.12509000000E+03  0.12509000000E+03 0.  0.
        -11    1    3    3    0    0  0.49527541074E+02  0.33437600338E+02 -0.16978705324E+01  0.59782382069E+02  0.51100000000E-03 0.  1.
         23    2    1    0    0    0  0.24614493526E+02  0.10549615725E+02  0.11299240841E+02  0.96023859440E+02  0.91519074814E+02 0.  0.
         11    1    3    3    0    0 -0.24913047549E+02 -0.22887984613E+02  0.12997111373E+02  0.36241477372E+02  0.51100000000E-03 0. -1.
         22    1    1    0    0    0 -0.24614493526E+02 -0.10549615725E+02 -0.11299240841E+02  0.29066140560E+02  0.00000000000E+00 0.  1.
</event>
<event>
 5    1  0.1059945E-009  0.9118800E+02  0.7815553E-02  0.1125453E+00
         25   -1    0    0    0    0  0.00000000000E+00  0.00000000000E+00  0.99999998245E-14  0.12509000000E+03  0.12509000000E+03 0.  0.
        -11    1    3    3    0    0  0.44559848902E+02 -0.12710089502E+02 -0.29136876103E+02  0.54736496587E+02  0.51100000000E-03 0. -1.
         23    2    1    0    0    0  0.93498147430E+01  0.82305162171E+01 -0.26524537577E+02  0.95786219927E+02  0.91193686192E+02 0.  0.
         11    1    3    3    0    0 -0.35210034159E+02  0.20940605719E+02  0.26123385258E+01  0.41049723339E+02  0.51100000000E-03 0.  1.
         22    1    1    0    0    0 -0.93498147430E+01 -0.82305162171E+01  0.26524537577E+02  0.29303780073E+02  0.00000000000E+00 0. -1.
</event>
<event>
 5    1  0.1059945E-009  0.9118800E+02  0.7815553E-02  0.1125453E+00
         25   -1    0    0    0    0  0.00000000000E+00  0.00000000000E+00  0.99999998245E-14  0.12509000000E+03  0.12509000000E+03 0.  0.
        -11    1    3    3    0    0 -0.20101256456E+02  0.15625752662E+01 -0.25293053527E+02  0.32345644367E+02  0.51100000000E-03 0.  1.
         23    2    1    0    0    0  0.72691092107E+01  0.44327721403E+01  0.29890336911E+02  0.94010719793E+02  0.88724820528E+02 0.  0.
         11    1    3    3    0    0  0.27370365666E+02  0.28701968741E+01  0.55183390438E+02  0.61665075426E+02  0.51100000000E-03 0. -1.
         22    1    1    0    0    0 -0.72691092107E+01 -0.44327721403E+01 -0.29890336911E+02  0.31079280207E+02  0.00000000000E+00 0. -1.
</event>
<event>
 5    1  0.1059945E-009  0.9118800E+02  0.7815553E-02  0.1125453E+00
         25   -1    0    0    0    0  0.00000000000E+00  0.00000000000E+00  0.99999998245E-14  0.12509000000E+03  0.12509000000E+03 0.  0.
        -11    1    3    3    0    0  0.62211434548E+02 -0.13785557635E+01  0.51387130358E+01  0.62438524778E+02  0.51100000000E-03 0. -1.
         23    2    1    0    0    0  0.26776506809E+02 -0.15790322848E+01  0.45822645975E+01  0.97878388348E+02  0.94019716533E+02 0.  0.
         11    1    3    3    0    0 -0.35434927740E+02 -0.20047652132E+00 -0.55644843836E+00  0.35439863570E+02  0.51100000000E-03 0.  1.
         22    1    1    0    0    0 -0.26776506809E+02  0.15790322848E+01 -0.45822645975E+01  0.27211611652E+02  0.00000000000E+00 0. -1.
</event>
<event>
 5    1  0.1059945E-009  0.9118800E+02  0.7815553E-02  0.1125453E+00
         25   -1    0    0    0    0  0.00000000000E+00  0.00000000000E+00  0.99999998245E-14  0.12509000000E+03  0.12509000000E+03 0.  0.
        -11    1    3    3    0    0  0.46708282206E+02  0.21730038358E+02 -0.22665793053E+01  0.51565449438E+02  0.51100000000E-03 0. -1.
         23    2    1    0    0    0  0.73757518401E+01  0.17936946387E+02 -0.22023491699E+02  0.95744302742E+02  0.91136170427E+02 0.  0.
         11    1    3    3    0    0 -0.39332530366E+02 -0.37930919703E+01 -0.19756912394E+02  0.44178853305E+02  0.51100000000E-03 0.  1.
         22    1    1    0    0    0 -0.73757518401E+01 -0.17936946387E+02  0.22023491699E+02  0.29345697258E+02  0.00000000000E+00 0. -1.
</event>
<event>
 5    1  0.1059945E-009  0.9118800E+02  0.7815553E-02  0.1125453E+00
         25   -1    0    0    0    0  0.00000000000E+00  0.00000000000E+00  0.99999998245E-14  0.12509000000E+03  0.12509000000E+03 0.  0.
        -11    1    3    3    0    0  0.19477185734E+02 -0.24956699180E+02  0.41480437872E+02  0.52180689191E+02  0.51100000000E-03 0.  1.
         23    2    1    0    0    0  0.29557998742E+02  0.30946261420E+01  0.16340661995E+02  0.91174380663E+02  0.84631545267E+02 0.  0.
         11    1    3    3    0    0  0.10080813008E+02  0.28051325322E+02 -0.25139775877E+02  0.38993691472E+02  0.51100000000E-03 0. -1.
         22    1    1    0    0    0 -0.29557998742E+02 -0.30946261420E+01 -0.16340661995E+02  0.33915619337E+02  0.00000000000E+00 0.  1.
</event>
<event>
 5    1  0.1059945E-009  0.9118800E+02  0.7815553E-02  0.1125453E+00
         25   -1    0    0    0    0  0.00000000000E+00  0.00000000000E+00  0.99999998245E-14  0.12509000000E+03  0.12509000000E+03 0.  0.
        -11    1    3    3    0    0  0.25802884622E+02 -0.23927391657E+02 -0.32267955481E+02  0.47744422475E+02  0.51100000000E-03 0.  1.
         23    2    1    0    0    0  0.27414477227E+02  0.11311435678E+02 -0.17691285942E+00  0.95433071014E+02  0.90707979838E+02 0.  0.
         11    1    3    3    0    0  0.16115926050E+01  0.35238827335E+02  0.32091042622E+02  0.47688648539E+02  0.51100000000E-03 0. -1.
         22    1    1    0    0    0 -0.27414477227E+02 -0.11311435678E+02  0.17691285942E+00  0.29656928986E+02  0.00000000000E+00 0. -1.
</event>
<event>
 5    1  0.1059945E-009  0.9118800E+02  0.7815553E-02  0.1125453E+00
         25   -1    0    0    0    0  0.00000000000E+00  0.00000000000E+00  0.99999998245E-14  0.12509000000E+03  0.12509000000E+03 0.  0.
        -11    1    3    3    0    0 -0.10612016680E+02  0.32596702643E+02 -0.18444559012E+02  0.38927646713E+02  0.51100000000E-03 0.  1.
         23    2    1    0    0    0 -0.24326433862E+02 -0.13787249602E+02  0.10414448206E+02  0.95251696304E+02  0.90457510917E+02 0.  0.
         11    1    3    3    0    0 -0.13714417182E+02 -0.46383952244E+02  0.28859007218E+02  0.56324049591E+02  0.51100000000E-03 0. -1.
         22    1    1    0    0    0  0.24326433862E+02  0.13787249602E+02 -0.10414448206E+02  0.29838303696E+02  0.00000000000E+00 0. -1.
</event>
<event>
 5    1  0.1059945E-009  0.9118800E+02  0.7815553E-02  0.1125453E+00
         25   -1    0    0    0    0  0.00000000000E+00  0.00000000000E+00  0.99999998245E-14  0.12509000000E+03  0.12509000000E+03 0.  0.
        -11    1    3    3    0    0  0.30886649216E+02 -0.12780418089E+02 -0.22422789021E+02  0.40250536072E+02  0.51100000000E-03 0.  1.
         23    2    1    0    0    0  0.83008043395E+01  0.11560796451E+02  0.23916715440E+02  0.97258998496E+02  0.93191996136E+02 0.  0.
         11    1    3    3    0    0 -0.22585844877E+02  0.24341214540E+02  0.46339504461E+02  0.57008462424E+02  0.51100000000E-03 0. -1.
         22    1    1    0    0    0 -0.83008043395E+01 -0.11560796451E+02 -0.23916715440E+02  0.27831001504E+02  0.00000000000E+00 0. -1.
</event>
<event>
 5    1  0.1059945E-009  0.9118800E+02  0.7815553E-02  0.1125453E+00
         25   -1    0    0    0    0  0.00000000000E+00  0.00000000000E+00  0.99999998245E-14  0.12509000000E+03  0.12509000000E+03 0.  0.
        -11    1    3    3    0    0 -0.47149109128E+02  0.30820573250E+02  0.16653139018E+02  0.58739026775E+02  0.51100000000E-03 0. -1.
         23    2    1    0    0    0 -0.20513072596E+02  0.13893183710E+02  0.23399240501E+02  0.91011690815E+02  0.84390738283E+02 0.  0.
         11    1    3    3    0    0  0.26636036532E+02 -0.16927389540E+02  0.67461014828E+01  0.32272664040E+02  0.51100000000E-03 0.  1.
         22    1    1    0    0    0  0.20513072596E+02 -0.13893183710E+02 -0.23399240501E+02  0.34078309185E+02  0.00000000000E+00 0. -1.
</event>
<event>
 5    1  0.1059945E-009  0.9118800E+02  0.7815553E-02  0.1125453E+00
         25   -1    0    0    0    0  0.00000000000E+00  0.00000000000E+00  0.99999998245E-14  0.12509000000E+03  0.12509000000E+03 0.  0.
        -11    1    3    3    0    0  0.23356520993E+02 -0.97756620573E+01 -0.29220353434E+02  0.38664191400E+02  0.51100000000E-03 0.  1.
         23    2    1    0    0    0  0.59455950851E+01  0.28459931519E+02  0.81524292670E+01  0.94894306500E+02  0.89961933617E+02 0.  0.
         11    1    3    3    0    0 -0.17410925907E+02  0.38235593576E+02  0.37372782701E+02  0.56230115100E+02  0.51100000000E-03 0. -1.
         22    1    1    0    0    0 -0.59455950851E+01 -0.28459931519E+02 -0.81524292670E+01  0.30195693500E+02  0.00000000000E+00 0. -1.
</event>
<event>
 5    1  0.1059945E-009  0.9118800E+02  0.7815553E-02  0.1125453E+00
         25   -1    0    0    0    0  0.00000000000E+00  0.00000000000E+00  0.99999998245E-14  0.12509000000E+03  0.12509000000E+03 0.  0.
        -11    1    3    3    0    0  0.13342653135E+02  0.28195215167E+02 -0.16358062976E+02  0.35221907609E+02  0.51100000000E-03 0.  1.
         23    2    1    0    0    0  0.22474664252E+02 -0.20868109939E+02  0.11451098224E+02  0.92352923218E+02  0.86355927594E+02 0.  0.
         11    1    3    3    0    0  0.91320111170E+01 -0.49063325107E+02  0.27809161201E+02  0.57131015609E+02  0.51100000000E-03 0. -1.
         22    1    1    0    0    0 -0.22474664252E+02  0.20868109939E+02 -0.11451098224E+02  0.32737076782E+02  0.00000000000E+00 0. -1.
</event>
<event>
 5    1  0.1059945E-009  0.9118800E+02  0.7815553E-02  0.1125453E+00
         25   -1    0    0    0    0  0.00000000000E+00  0.00000000000E+00  0.99999998245E-14  0.12509000000E+03  0.12509000000E+03 0.  0.
        -11    1    3    3    0    0  0.33993829479E+02  0.19732311192E+02 -0.17159404865E+01  0.39343220504E+02  0.51100000000E-03 0.  1.
         23    2    1    0    0    0 -0.10500804380E+00 -0.25859695046E+02  0.98113174807E+01  0.97431424381E+02  0.93423153723E+02 0.  0.
         11    1    3    3    0    0 -0.34098837522E+02 -0.45592006238E+02  0.11527257967E+02  0.58088203877E+02  0.51100000000E-03 0. -1.
         22    1    1    0    0    0  0.10500804380E+00  0.25859695046E+02 -0.98113174807E+01  0.27658575619E+02  0.00000000000E+00 0. -1.
</event>
<event>
 5    1  0.1059945E-009  0.9118800E+02  0.7815553E-02  0.1125453E+00
         25   -1    0    0    0    0  0.00000000000E+00  0.00000000000E+00  0.99999998245E-14  0.12509000000E+03  0.12509000000E+03 0.  0.
        -11    1    3    3    0    0  0.45921569388E+01  0.30842277138E+02 -0.14063602028E+02  0.34207000258E+02  0.51100000000E-03 0. -1.
         23    2    1    0    0    0 -0.42584008370E+01 -0.28838775624E+02 -0.10998218545E+01  0.95917777505E+02  0.91373964980E+02 0.  0.
         11    1    3    3    0    0 -0.88505577758E+01 -0.59681052762E+02  0.12963780174E+02  0.61710777247E+02  0.51100000000E-03 0.  1.
         22    1    1    0    0    0  0.42584008370E+01  0.28838775624E+02  0.10998218545E+01  0.29172222495E+02  0.00000000000E+00 0.  1.
</event>
<event>
 5    1  0.1059945E-009  0.9118800E+02  0.7815553E-02  0.1125453E+00
         25   -1    0    0    0    0  0.00000000000E+00  0.00000000000E+00  0.99999998245E-14  0.12509000000E+03  0.12509000000E+03 0.  0.
        -11    1    3    3    0    0  0.42484553324E+02  0.32697314098E+02 -0.18828814279E+02  0.56820558496E+02  0.51100000000E-03 0.  1.
         23    2    1    0    0    0  0.10559709357E+02  0.28795210738E+02  0.63336424689E+00  0.94413090550E+02  0.89290306830E+02 0.  0.
         11    1    3    3    0    0 -0.31924843967E+02 -0.39021033599E+01  0.19462178526E+02  0.37592532054E+02  0.51100000000E-03 0. -1.
         22    1    1    0    0    0 -0.10559709357E+02 -0.28795210738E+02 -0.63336424689E+00  0.30676909450E+02  0.00000000000E+00 0.  1.
</event>
<event>
 5    1  0.1059945E-009  0.9118800E+02  0.7815553E-02  0.1125453E+00
         25   -1    0    0    0    0  0.00000000000E+00  0.00000000000E+00  0.99999998245E-14  0.12509000000E+03  0.12509000000E+03 0.  0.
        -11    1    3    3    0    0  0.51946246479E+01 -0.47435040061E+02  0.28355123419E+02  0.55507478552E+02  0.51100000000E-03 0.  1.
         23    2    1    0    0    0 -0.17356718295E+02 -0.14468029877E+02  0.16296811958E+02  0.97230250567E+02  0.93153400297E+02 0.  0.
         11    1    3    3    0    0 -0.22551342943E+02  0.32967010185E+02 -0.12058311462E+02  0.41722772015E+02  0.51100000000E-03 0. -1.
         22    1    1    0    0    0  0.17356718295E+02  0.14468029877E+02 -0.16296811958E+02  0.27859749433E+02  0.00000000000E+00 0. -1.
</event>
<event>
 5    1  0.1059945E-009  0.9118800E+02  0.7815553E-02  0.1125453E+00
         25   -1    0    0    0    0  0.00000000000E+00  0.00000000000E+00  0.99999998245E-14  0.12509000000E+03  0.12509000000E+03 0.  0.
        -11    1    3    3    0    0  0.69105657526E+01 -0.16105448701E+02  0.36515957903E+02  0.40503784746E+02  0.51100000000E-03 0.  1.
         23    2    1    0    0    0  0.18899062332E+02 -0.15145169032E+02 -0.17093964812E+02  0.95446209166E+02  0.90726096075E+02 0.  0.
         11    1    3    3    0    0  0.11988496579E+02  0.96027966877E+00 -0.53609922716E+02  0.54942424420E+02  0.51100000000E-03 0. -1.
         22    1    1    0    0    0 -0.18899062332E+02  0.15145169032E+02  0.17093964812E+02  0.29643790834E+02  0.00000000000E+00 0. -1.
</event>
<event>
 5    1  0.1059945E-009  0.9118800E+02  0.7815553E-02  0.1125453E+00
         25   -1    0    0    0    0  0.00000000000E+00  0.00000000000E+00  0.99999998245E-14  0.12509000000E+03  0.12509000000E+03 0.  0.
        -11    1    3    3    0    0  0.21970265601E+02 -0.20965341435E+02  0.35456069363E+02  0.46683733430E+02  0.51100000000E-03 0. -1.
         23    2    1    0    0    0  0.20260593532E+02  0.19733326489E+02  0.83944336815E+01  0.95588095969E+02  0.90921514229E+02 0.  0.
         11    1    3    3    0    0 -0.17096720683E+01  0.40698667923E+02 -0.27061635682E+02  0.48904362539E+02  0.51100000000E-03 0.  1.
         22    1    1    0    0    0 -0.20260593532E+02 -0.19733326489E+02 -0.83944336815E+01  0.29501904031E+02  0.00000000000E+00 0. -1.
</event>
<event>
 5    1  0.1059945E-009  0.9118800E+02  0.7815553E-02  0.1125453E+00
         25   -1    0    0    0    0  0.00000000000E+00  0.00000000000E+00  0.99999998245E-14  0.12509000000E+03  0.12509000000E+03 0.  0.
        -11    1    3    3    0    0  0.20915587700E+02  0.24869068412E+02 -0.29743107040E+02  0.44052069068E+02  0.51100000000E-03 0. -1.
         23    2    1    0    0    0  0.27697807417E+02 -0.85874559677E+01  0.80647254310E+01  0.94990951311E+02  0.90096215786E+02 0.  0.
         11    1    3    3    0    0  0.67822197163E+01 -0.33456524379E+02  0.37807832471E+02  0.50938882243E+02  0.51100000000E-03 0.  1.
         22    1    1    0    0    0 -0.27697807417E+02  0.85874559677E+01 -0.80647254310E+01  0.30099048689E+02  0.00000000000E+00 0.  1.
</event>
<event>
 5    1  0.1059945E-009  0.9118800E+02  0.7815553E-02  0.1125453E+00
         25   -1    0    0    0    0  0.00000000000E+00  0.00000000000E+00  0.99999998245E-14  0.12509000000E+03  0.12509000000E+03 0.  0.
        -11    1    3    3    0    0  0.32981112254E+02  0.10873102926E+02 -0.51642702029E+01  0.35109084575E+02  0.51100000000E-03 0.  1.
         23    2    1    0    0    0 -0.11562161358E+02 -0.26786164450E+02 -0.11391311813E+02  0.93769971807E+02  0.88384746685E+02 0.  0.
         11    1    3    3    0    0 -0.44543273611E+02 -0.37659267376E+02 -0.62270416096E+01  0.58660887232E+02  0.51100000000E-03 0. -1.
         22    1    1    0    0    0  0.11562161358E+02  0.26786164450E+02  0.11391311813E+02  0.31320028193E+02  0.00000000000E+00 0. -1.
</event>
<event>
 5    1  0.1059945E-009  0.9118800E+02  0.7815553E-02  0.1125453E+00
         25   -1    0    0    0    0  0.00000000000E+00  0.00000000000E+00  0.99999998245E-14  0.12509000000E+03  0.12509000000E+03 0.  0.
        -11    1    3    3    0    0 -0.17016795963E+02  0.26504602501E+02  0.28265551155E+02  0.42320286873E+02  0.51100000000E-03 0.  1.
         23    2    1    0    0    0  0.25054296303E+02  0.10356727739E+02  0.26133717073E+02  0.87434313301E+02  0.78910128638E+02 0.  0.
         11    1    3    3    0    0  0.42071092266E+02 -0.16147874762E+02 -0.21318340819E+01  0.45114026429E+02  0.51100000000E-03 0. -1.
         22    1    1    0    0    0 -0.25054296303E+02 -0.10356727739E+02 -0.26133717073E+02  0.37655686699E+02  0.00000000000E+00 0. -1.
</event>
<event>
 5    1  0.1059945E-009  0.9118800E+02  0.7815553E-02  0.1125453E+00
         25   -1    0    0    0    0  0.00000000000E+00  0.00000000000E+00  0.99999998245E-14  0.12509000000E+03  0.12509000000E+03 0.  0.
        -11    1    3    3    0    0  0.19589885034E+02  0.40947256006E+02  0.38132764729E+02  0.59283632785E+02  0.51100000000E-03 0. -1.
         23    2    1    0    0    0  0.18510620354E+02  0.93836385527E+01  0.22352671152E+02  0.94588563214E+02  0.89535795327E+02 0.  0.
         11    1    3    3    0    0 -0.10792646800E+01 -0.31563617453E+02 -0.15780093577E+02  0.35304930428E+02  0.51100000000E-03 0.  1.
         22    1    1    0    0    0 -0.18510620354E+02 -0.93836385527E+01 -0.22352671152E+02  0.30501436786E+02  0.00000000000E+00 0. -1.
</event>
<event>
 5    1  0.1059945E-009  0.9118800E+02  0.7815553E-02  0.1125453E+00
         25   -1    0    0    0    0  0.00000000000E+00  0.00000000000E+00  0.99999998245E-14  0.12509000000E+03  0.12509000000E+03 0.  0.
        -11    1    3    3    0    0  0.33300328102E+02 -0.28678490275E+02 -0.13502685588E+01  0.43968066612E+02  0.51100000000E-03 0. -1.
         23    2    1    0    0    0 -0.10607690056E+02 -0.16815853468E+02  0.22285103245E+02  0.95224939431E+02  0.90420502359E+02 0.  0.
         11    1    3    3    0    0 -0.43908018158E+02  0.11862636807E+02  0.23635371804E+02  0.51256872819E+02  0.51100000000E-03 0.  1.
         22    1    1    0    0    0  0.10607690056E+02  0.16815853468E+02 -0.22285103245E+02  0.29865060569E+02  0.00000000000E+00 0. -1.
</event>
<event>
 5    1  0.1059945E-009  0.9118800E+02  0.7815553E-02  0.1125453E+00
         25   -1    0    0    0    0  0.00000000000E+00  0.00000000000E+00  0.99999998245E-14  0.12509000000E+03  0.12509000000E+03 0.  0.
        -11    1    3    3    0    0  0.37653857215E+02  0.13732230153E+02 -0.29778140772E+02  0.49931200429E+02  0.51100000000E-03 0.  1.
         23    2    1    0    0    0  0.23009451825E+02 -0.18573157558E+02 -0.11758131798E+01  0.95496426515E+02  0.90795307619E+02 0.  0.
         11    1    3    3    0    0 -0.14644405390E+02 -0.32305387711E+02  0.28602327592E+02  0.45565226087E+02  0.51100000000E-03 0. -1.
         22    1    1    0    0    0 -0.23009451825E+02  0.18573157558E+02  0.11758131798E+01  0.29593573485E+02  0.00000000000E+00 0.  1.
</event>
<event>
 5    1  0.1059945E-009  0.9118800E+02  0.7815553E-02  0.1125453E+00
         25   -1    0    0    0    0  0.00000000000E+00  0.00000000000E+00  0.99999998245E-14  0.12509000000E+03  0.12509000000E+03 0.  0.
        -11    1    3    3    0    0 -0.58748656207E+01  0.37397869378E+01 -0.20127143589E+02  0.21297933273E+02  0.51100000000E-03 0.  1.
         23    2    1    0    0    0 -0.11903438788E+02 -0.43560570650E+02  0.11468333556E+02  0.78498822241E+02  0.63176951876E+02 0.  0.
         11    1    3    3    0    0 -0.60285731677E+01 -0.47300357588E+02  0.31595477146E+02  0.57200888968E+02  0.51100000000E-03 0. -1.
         22    1    1    0    0    0  0.11903438788E+02  0.43560570650E+02 -0.11468333556E+02  0.46591177759E+02  0.00000000000E+00 0. -1.
</event>
<event>
 5    1  0.1059945E-009  0.9118800E+02  0.7815553E-02  0.1125453E+00
         25   -1    0    0    0    0  0.00000000000E+00  0.00000000000E+00  0.99999998245E-14  0.12509000000E+03  0.12509000000E+03 0.  0.
        -11    1    3    3    0    0  0.71581412947E+01 -0.33244275998E+02  0.33017521164E+02  0.47398075673E+02  0.51100000000E-03 0. -1.
         23    2    1    0    0    0 -0.10664496816E+02 -0.20897208391E+02 -0.13000217307E+02  0.98267799104E+02  0.94536394473E+02 0.  0.
         11    1    3    3    0    0 -0.17822638111E+02  0.12347067607E+02 -0.46017738471E+02  0.50869723431E+02  0.51100000000E-03 0.  1.
         22    1    1    0    0    0  0.10664496816E+02  0.20897208391E+02  0.13000217307E+02  0.26822200896E+02  0.00000000000E+00 0.  1.
</event>
<event>
 5    1  0.1059945E-009  0.9118800E+02  0.7815553E-02  0.1125453E+00
         25   -1    0    0    0    0  0.00000000000E+00  0.00000000000E+00  0.99999998245E-14  0.12509000000E+03  0.12509000000E+03 0.  0.
        -11    1    3    3    0    0 -0.28278303449E+02 -0.56245847126E+01 -0.13432951643E+02  0.31807901365E+02  0.51100000000E-03 0. -1.
         23    2    1    0    0    0  0.25924871928E+02  0.14783214735E+02  0.90008233742E+01  0.93918582903E+02  0.88594824740E+02 0.  0.
         11    1    3    3    0    0  0.54203175378E+02  0.20407799448E+02  0.22433775017E+02  0.62110681538E+02  0.51100000000E-03 0.  1.
         22    1    1    0    0    0 -0.25924871928E+02 -0.14783214735E+02 -0.90008233742E+01  0.31171417097E+02  0.00000000000E+00 0.  1.
</event>
<event>
 5    1  0.1059945E-009  0.9118800E+02  0.7815553E-02  0.1125453E+00
         25   -1    0    0    0    0  0.00000000000E+00  0.00000000000E+00  0.99999998245E-14  0.12509000000E+03  0.12509000000E+03 0.  0.
        -11    1    3    3    0    0 -0.27956556132E+02  0.52723053945E+01  0.22640842480E+02  0.36358960153E+02  0.51100000000E-03 0. -1.
         23    2    1    0    0    0  0.18846169558E+02  0.28007321048E+02  0.93085299810E+01  0.90072334890E+02  0.82986677502E+02 0.  0.
         11    1    3    3    0    0  0.46802725691E+02  0.22735015654E+02 -0.13332312499E+02  0.53713374737E+02  0.51100000000E-03 0.  1.
         22    1    1    0    0    0 -0.18846169558E+02 -0.28007321048E+02 -0.93085299810E+01  0.35017665110E+02  0.00000000000E+00 0.  1.
</event>
<event>
 5    1  0.1059945E-009  0.9118800E+02  0.7815553E-02  0.1125453E+00
         25   -1    0    0    0    0  0.00000000000E+00  0.00000000000E+00  0.99999998245E-14  0.12509000000E+03  0.12509000000E+03 0.  0.
        -11    1    3    3    0    0  0.37619523915E+02 -0.17895684509E+02  0.47443237754E+00  0.41661843334E+02  0.51100000000E-03 0.  1.
         23    2    1    0    0    0  0.29401916705E+01  0.19052086545E+02 -0.20898419276E+02  0.96658140107E+02  0.92381953822E+02 0.  0.
         11    1    3    3    0    0 -0.34679332244E+02  0.36947771053E+02 -0.21372851653E+02  0.54996296773E+02  0.51100000000E-03 0. -1.
         22    1    1    0    0    0 -0.29401916705E+01 -0.19052086545E+02  0.20898419276E+02  0.28431859893E+02  0.00000000000E+00 0. -1.
</event>
<event>
 5    1  0.1059945E-009  0.9118800E+02  0.7815553E-02  0.1125453E+00
         25   -1    0    0    0    0  0.00000000000E+00  0.00000000000E+00  0.99999998245E-14  0.12509000000E+03  0.12509000000E+03 0.  0.
        -11    1    3    3    0    0  0.45398819028E+02  0.14539495437E+01 -0.11511670299E+02  0.46858140080E+02  0.51100000000E-03 0.  1.
         23    2    1    0    0    0  0.80884624914E+01  0.23278280736E+02  0.13696318121E+02  0.96896193773E+02  0.92703730551E+02 0.  0.
         11    1    3    3    0    0 -0.37310356537E+02  0.21824331193E+02  0.25207988420E+02  0.50038053693E+02  0.51100000000E-03 0. -1.
         22    1    1    0    0    0 -0.80884624914E+01 -0.23278280736E+02 -0.13696318121E+02  0.28193806227E+02  0.00000000000E+00 0. -1.
</event>
<event>
 5    1  0.1059945E-009  0.9118800E+02  0.7815553E-02  0.1125453E+00
         25   -1    0    0    0    0  0.00000000000E+00  0.00000000000E+00  0.99999998245E-14  0.12509000000E+03  0.12509000000E+03 0.  0.
        -11    1    3    3    0    0 -0.16084290455E+01  0.52718496774E+02  0.25613620195E+02  0.58633475813E+02  0.51100000000E-03 0.  1.
         23    2    1    0    0    0  0.13190037433E+02  0.23622143509E+02  0.19234602206E+02  0.91894327489E+02  0.85689058527E+02 0.  0.
         11    1    3    3    0    0  0.14798466478E+02 -0.29096353266E+02 -0.63790179892E+01  0.33260851676E+02  0.51100000000E-03 0. -1.
         22    1    1    0    0    0 -0.13190037433E+02 -0.23622143509E+02 -0.19234602206E+02  0.33195672511E+02  0.00000000000E+00 0.  1.
</event>
<event>
 5    1  0.1059945E-009  0.9118800E+02  0.7815553E-02  0.1125453E+00
         25   -1    0    0    0    0  0.00000000000E+00  0.00000000000E+00  0.99999998245E-14  0.12509000000E+03  0.12509000000E+03 0.  0.
        -11    1    3    3    0    0  0.20069165299E+02 -0.32861816054E+02  0.30605492123E+02  0.49187056209E+02  0.51100000000E-03 0.  1.
         23    2    1    0    0    0  0.23231176596E+02 -0.12600053821E+02 -0.11690012158E+02  0.96191811361E+02  0.91748347485E+02 0.  0.
         11    1    3    3    0    0  0.31620112972E+01  0.20261762233E+02 -0.42295504281E+02  0.47004755152E+02  0.51100000000E-03 0. -1.
         22    1    1    0    0    0 -0.23231176596E+02  0.12600053821E+02  0.11690012158E+02  0.28898188639E+02  0.00000000000E+00 0. -1.
</event>
<event>
 5    1  0.1059945E-009  0.9118800E+02  0.7815553E-02  0.1125453E+00
         25   -1    0    0    0    0  0.00000000000E+00  0.00000000000E+00  0.99999998245E-14  0.12509000000E+03  0.12509000000E+03 0.  0.
        -11    1    3    3    0    0  0.19634879386E+02  0.36056622598E+02 -0.22958979585E+01  0.41120307262E+02  0.51100000000E-03 0. -1.
         23    2    1    0    0    0  0.17615783446E+02 -0.19191676914E+02 -0.10484580331E+02  0.97008641167E+02  0.92855337742E+02 0.  0.
         11    1    3    3    0    0 -0.20190959408E+01 -0.55248299512E+02 -0.81886823725E+01  0.55888333905E+02  0.51100000000E-03 0.  1.
         22    1    1    0    0    0 -0.17615783446E+02  0.19191676914E+02  0.10484580331E+02  0.28081358833E+02  0.00000000000E+00 0.  1.
</event>
<event>
 5    1  0.1059945E-009  0.9118800E+02  0.7815553E-02  0.1125453E+00
         25   -1    0    0    0    0  0.00000000000E+00  0.00000000000E+00  0.99999998245E-14  0.12509000000E+03  0.12509000000E+03 0.  0.
        -11    1    3    3    0    0 -0.40209387341E+01  0.31952603119E+02  0.52696473841E+02  0.61758037128E+02  0.51100000000E-03 0. -1.
         23    2    1    0    0    0 -0.14944405225E+01  0.22448996341E+02  0.23543437170E+02  0.92524923262E+02  0.86604718126E+02 0.  0.
         11    1    3    3    0    0  0.25264982116E+01 -0.95036067777E+01 -0.29153036671E+02  0.30766886134E+02  0.51100000000E-03 0.  1.
         22    1    1    0    0    0  0.14944405225E+01 -0.22448996341E+02 -0.23543437170E+02  0.32565076738E+02  0.00000000000E+00 0. -1.
</event>
<event>
 5    1  0.1059945E-009  0.9118800E+02  0.7815553E-02  0.1125453E+00
         25   -1    0    0    0    0  0.00000000000E+00  0.00000000000E+00  0.99999998245E-14  0.12509000000E+03  0.12509000000E+03 0.  0.
        -11    1    3    3    0    0  0.20559312718E+02 -0.43043870496E+02 -0.18501585353E+02  0.51164135755E+02  0.51100000000E-03 0. -1.
         23    2    1    0    0    0 -0.10809831724E+02 -0.12826567128E+02 -0.24776164677E+02  0.95169578507E+02  0.90343882200E+02 0.  0.
         11    1    3    3    0    0 -0.31369144442E+02  0.30217303368E+02 -0.62745793243E+01  0.44005442752E+02  0.51100000000E-03 0.  1.
         22    1    1    0    0    0  0.10809831724E+02  0.12826567128E+02  0.24776164677E+02  0.29920421493E+02  0.00000000000E+00 0. -1.
</event>
<event>
 5    1  0.1059945E-009  0.9118800E+02  0.7815553E-02  0.1125453E+00
         25   -1    0    0    0    0  0.00000000000E+00  0.00000000000E+00  0.99999998245E-14  0.12509000000E+03  0.12509000000E+03 0.  0.
        -11    1    3    3    0    0  0.95999283423E+01  0.11624181543E+00  0.48234568011E+02  0.49180745092E+02  0.51100000000E-03 0. -1.
         23    2    1    0    0    0 -0.30186047481E+01 -0.26580415078E+02  0.12427127028E+02  0.95593153956E+02  0.90928472750E+02 0.  0.
         11    1    3    3    0    0 -0.12618533090E+02 -0.26696656894E+02 -0.35807440982E+02  0.46412408865E+02  0.51100000000E-03 0.  1.
         22    1    1    0    0    0  0.30186047481E+01  0.26580415078E+02 -0.12427127028E+02  0.29496846044E+02  0.00000000000E+00 0.  1.
</event>
<event>
 5    1  0.1059945E-009  0.9118800E+02  0.7815553E-02  0.1125453E+00
         25   -1    0    0    0    0  0.00000000000E+00  0.00000000000E+00  0.99999998245E-14  0.12509000000E+03  0.12509000000E+03 0.  0.
        -11    1    3    3    0    0  0.11482403853E+02  0.77310681947E+01  0.40576487679E+02  0.42872676221E+02  0.51100000000E-03 0.  1.
         23    2    1    0    0    0  0.96536296554E+01 -0.26832332983E+02 -0.47739905432E+00  0.96569926916E+02  0.92262431227E+02 0.  0.
         11    1    3    3    0    0 -0.18287741980E+01 -0.34563401178E+02 -0.41053886734E+02  0.53697250695E+02  0.51100000000E-03 0. -1.
         22    1    1    0    0    0 -0.96536296554E+01  0.26832332983E+02  0.47739905432E+00  0.28520073084E+02  0.00000000000E+00 0. -1.
</event>
<event>
 5    1  0.1059945E-009  0.9118800E+02  0.7815553E-02  0.1125453E+00
         25   -1    0    0    0    0  0.00000000000E+00  0.00000000000E+00  0.99999998245E-14  0.12509000000E+03  0.12509000000E+03 0.  0.
        -11    1    3    3    0    0  0.49958872650E+02 -0.13261212125E+02  0.23684303322E+02  0.56856793153E+02  0.51100000000E-03 0.  1.
         23    2    1    0    0    0  0.23973952939E+02  0.12664371546E+02  0.12536776448E+02  0.95218483636E+02  0.90411570809E+02 0.  0.
         11    1    3    3    0    0 -0.25984919712E+02  0.25925583671E+02 -0.11147526873E+02  0.38361690483E+02  0.51100000000E-03 0. -1.
         22    1    1    0    0    0 -0.23973952939E+02 -0.12664371546E+02 -0.12536776448E+02  0.29871516364E+02  0.00000000000E+00 0.  1.
</event>
<event>
 5    1  0.1059945E-009  0.9118800E+02  0.7815553E-02  0.1125453E+00
         25   -1    0    0    0    0  0.00000000000E+00  0.00000000000E+00  0.99999998245E-14  0.12509000000E+03  0.12509000000E+03 0.  0.
        -11    1    3    3    0    0  0.25088704870E+02  0.12471374551E+02  0.26717659160E+02  0.38714488328E+02  0.51100000000E-03 0. -1.
         23    2    1    0    0    0  0.11023211318E+02  0.29275418399E+01 -0.27385220071E+02  0.95424667247E+02  0.90696389961E+02 0.  0.
         11    1    3    3    0    0 -0.14065493552E+02 -0.95438327108E+01 -0.54102879231E+02  0.56710178919E+02  0.51100000000E-03 0.  1.
         22    1    1    0    0    0 -0.11023211318E+02 -0.29275418399E+01  0.27385220071E+02  0.29665332753E+02  0.00000000000E+00 0.  1.
</event>
<event>
 5    1  0.1059945E-009  0.9118800E+02  0.7815553E-02  0.1125453E+00
         25   -1    0    0    0    0  0.00000000000E+00  0.00000000000E+00  0.99999998245E-14  0.12509000000E+03  0.12509000000E+03 0.  0.
        -11    1    3    3    0    0 -0.52985793748E+02  0.22582262489E+02  0.31836427929E+01  0.57685253748E+02  0.51100000000E-03 0. -1.
         23    2    1    0    0    0 -0.24180269965E+02 -0.18068940710E+01  0.14182849053E+02  0.96999013384E+02  0.92842366776E+02 0.  0.
         11    1    3    3    0    0  0.28805523783E+02 -0.24389156560E+02  0.10999206261E+02  0.39313759637E+02  0.51100000000E-03 0.  1.
         22    1    1    0    0    0  0.24180269965E+02  0.18068940710E+01 -0.14182849053E+02  0.28090986616E+02  0.00000000000E+00 0. -1.
</event>
<event>
 5    1  0.1059945E-009  0.9118800E+02  0.7815553E-02  0.1125453E+00
         25   -1    0    0    0    0  0.00000000000E+00  0.00000000000E+00  0.99999998245E-14  0.12509000000E+03  0.12509000000E+03 0.  0.
        -11    1    3    3    0    0 -0.91180750531E+01  0.91121160165E+01 -0.59197866108E+02  0.60585124437E+02  0.51100000000E-03 0. -1.
         23    2    1    0    0    0 -0.14376298217E+02  0.73980109207E+01 -0.24402301092E+02  0.95817473382E+02  0.91236546354E+02 0.  0.
         11    1    3    3    0    0 -0.52582231644E+01 -0.17141050958E+01  0.34795565016E+02  0.35232348945E+02  0.51100000000E-03 0.  1.
         22    1    1    0    0    0  0.14376298217E+02 -0.73980109207E+01  0.24402301092E+02  0.29272526618E+02  0.00000000000E+00 0. -1.
</event>
<event>
 5    1  0.1059945E-009  0.9118800E+02  0.7815553E-02  0.1125453E+00
         25   -1    0    0    0    0  0.00000000000E+00  0.00000000000E+00  0.99999998245E-14  0.12509000000E+03  0.12509000000E+03 0.  0.
        -11    1    3    3    0    0  0.27652223748E+02 -0.77877887478E+01 -0.21144772270E+02  0.35670667591E+02  0.51100000000E-03 0.  1.
         23    2    1    0    0    0 -0.23674519787E+02  0.16762907635E+02 -0.87848995164E+00  0.96068461376E+02  0.91580017291E+02 0.  0.
         11    1    3    3    0    0 -0.51326743535E+02  0.24550696383E+02  0.20266282319E+02  0.60397793785E+02  0.51100000000E-03 0. -1.
         22    1    1    0    0    0  0.23674519787E+02 -0.16762907635E+02  0.87848995164E+00  0.29021538624E+02  0.00000000000E+00 0. -1.
</event>
<event>
 5    1  0.1059945E-009  0.9118800E+02  0.7815553E-02  0.1125453E+00
         25   -1    0    0    0    0  0.00000000000E+00  0.00000000000E+00  0.99999998245E-14  0.12509000000E+03  0.12509000000E+03 0.  0.
        -11    1    3    3    0    0 -0.24779388053E+02 -0.21650657780E+02 -0.49891765156E+02  0.59765853840E+02  0.51100000000E-03 0.  1.
         23    2    1    0    0    0 -0.83892079899E+01  0.17186785319E+01 -0.28204423449E+02  0.95614210466E+02  0.90957435509E+02 0.  0.
         11    1    3    3    0    0  0.16390180064E+02  0.23369336312E+02  0.21687341707E+02  0.35848356625E+02  0.51100000000E-03 0. -1.
         22    1    1    0    0    0  0.83892079899E+01 -0.17186785319E+01  0.28204423449E+02  0.29475789534E+02  0.00000000000E+00 0.  1.
</event>
<event>
 5    1  0.1059945E-009  0.9118800E+02  0.7815553E-02  0.1125453E+00
         25   -1    0    0    0    0  0.00000000000E+00  0.00000000000E+00  0.99999998245E-14  0.12509000000E+03  0.12509000000E+03 0.  0.
        -11    1    3    3    0    0 -0.19103453683E+02 -0.31873172302E+01 -0.24012826244E+02  0.30849906940E+02  0.51100000000E-03 0. -1.
         23    2    1    0    0    0  0.18615375377E+02  0.24279653165E+02  0.14389164566E+02  0.91280507026E+02  0.84788260672E+02 0.  0.
         11    1    3    3    0    0  0.37718829060E+02  0.27466970395E+02  0.38401990810E+02  0.60430600086E+02  0.51100000000E-03 0.  1.
         22    1    1    0    0    0 -0.18615375377E+02 -0.24279653165E+02 -0.14389164566E+02  0.33809492974E+02  0.00000000000E+00 0.  1.
</event>
<event>
 5    1  0.1059945E-009  0.9118800E+02  0.7815553E-02  0.1125453E+00
         25   -1    0    0    0    0  0.00000000000E+00  0.00000000000E+00  0.99999998245E-14  0.12509000000E+03  0.12509000000E+03 0.  0.
        -11    1    3    3    0    0  0.34054733036E+02  0.29255037178E+02 -0.73047931745E+01  0.45485624609E+02  0.51100000000E-03 0.  1.
         23    2    1    0    0    0 -0.82091722498E+00 -0.14483335158E+02 -0.17512049106E+02  0.10234988641E+03  0.99791715493E+02 0.  0.
         11    1    3    3    0    0 -0.34875650261E+02 -0.43738372336E+02 -0.10207255931E+02  0.56864261797E+02  0.51100000000E-03 0. -1.
         22    1    1    0    0    0  0.82091722498E+00  0.14483335158E+02  0.17512049106E+02  0.22740113594E+02  0.00000000000E+00 0. -1.
</event>
<event>
 5    1  0.1059945E-009  0.9118800E+02  0.7815553E-02  0.1125453E+00
         25   -1    0    0    0    0  0.00000000000E+00  0.00000000000E+00  0.99999998245E-14  0.12509000000E+03  0.12509000000E+03 0.  0.
        -11    1    3    3    0    0  0.34168889503E+02  0.21398237328E+02  0.42478731928E+01  0.40539388224E+02  0.51100000000E-03 0. -1.
         23    2    1    0    0    0 -0.20581149799E+02  0.20852784277E+02 -0.23939298873E+01  0.95693516546E+02  0.91066436570E+02 0.  0.
         11    1    3    3    0    0 -0.54750039302E+02 -0.54545305095E+00 -0.66418030801E+01  0.55154128323E+02  0.51100000000E-03 0.  1.
         22    1    1    0    0    0  0.20581149799E+02 -0.20852784277E+02  0.23939298873E+01  0.29396483454E+02  0.00000000000E+00 0.  1.
</event>
<event>
 5    1  0.1059945E-009  0.9118800E+02  0.7815553E-02  0.1125453E+00
         25   -1    0    0    0    0  0.00000000000E+00  0.00000000000E+00  0.99999998245E-14  0.12509000000E+03  0.12509000000E+03 0.  0.
        -11    1    3    3    0    0  0.16724838081E+02  0.65266911749E+01 -0.22180843926E+02  0.28536077938E+02  0.51100000000E-03 0.  1.
         23    2    1    0    0    0 -0.38493761646E+02  0.38560536021E+01 -0.94481769512E+01  0.85266553605E+02  0.75395479181E+02 0.  0.
         11    1    3    3    0    0 -0.55218599728E+02 -0.26706375728E+01  0.12732666975E+02  0.56730475668E+02  0.51100000000E-03 0. -1.
         22    1    1    0    0    0  0.38493761646E+02 -0.38560536021E+01  0.94481769512E+01  0.39823446395E+02  0.00000000000E+00 0. -1.
</event>
<event>
 5    1  0.1059945E-009  0.9118800E+02  0.7815553E-02  0.1125453E+00
         25   -1    0    0    0    0  0.00000000000E+00  0.00000000000E+00  0.99999998245E-14  0.12509000000E+03  0.12509000000E+03 0.  0.
        -11    1    3    3    0    0  0.32375943912E+02  0.19053952403E+02  0.29584440131E+02  0.47817297545E+02  0.51100000000E-03 0. -1.
         23    2    1    0    0    0  0.16662403662E+02  0.17254799883E+02 -0.16125890998E+02  0.96186571565E+02  0.91741203252E+02 0.  0.
         11    1    3    3    0    0 -0.15713540250E+02 -0.17991525205E+01 -0.45710331129E+02  0.48369274020E+02  0.51100000000E-03 0.  1.
         22    1    1    0    0    0 -0.16662403662E+02 -0.17254799883E+02  0.16125890998E+02  0.28903428435E+02  0.00000000000E+00 0. -1.
</event>
<event>
 5    1  0.1059945E-009  0.9118800E+02  0.7815553E-02  0.1125453E+00
         25   -1    0    0    0    0  0.00000000000E+00  0.00000000000E+00  0.99999998245E-14  0.12509000000E+03  0.12509000000E+03 0.  0.
        -11    1    3    3    0    0 -0.52075407570E+02 -0.23948834136E+02  0.24609639609E+02  0.62378113886E+02  0.51100000000E-03 0.  1.
         23    2    1    0    0    0 -0.21980593654E+02 -0.13640505126E+02  0.11222627481E+02  0.96891467325E+02  0.92697352688E+02 0.  0.
         11    1    3    3    0    0  0.30094813916E+02  0.10308329010E+02 -0.13387012128E+02  0.34513353439E+02  0.51100000000E-03 0. -1.
         22    1    1    0    0    0  0.21980593654E+02  0.13640505126E+02 -0.11222627481E+02  0.28198532675E+02  0.00000000000E+00 0.  1.
</event>
<event>
 5    1  0.1059945E-009  0.9118800E+02  0.7815553E-02  0.1125453E+00
         25   -1    0    0    0    0  0.00000000000E+00  0.00000000000E+00  0.99999998245E-14  0.12509000000E+03  0.12509000000E+03 0.  0.
        -11    1    3    3    0    0  0.19210770760E+02 -0.29541685143E+02  0.51123319997E+02  0.62091535027E+02  0.51100000000E-03 0.  1.
         23    2    1    0    0    0  0.69080413526E+01 -0.93184821429E+01  0.26053072563E+02  0.96571273963E+02  0.92264257544E+02 0.  0.
         11    1    3    3    0    0 -0.12302729407E+02  0.20223203000E+02 -0.25070247434E+02  0.34479738936E+02  0.51100000000E-03 0. -1.
         22    1    1    0    0    0 -0.69080413526E+01  0.93184821429E+01 -0.26053072563E+02  0.28518726037E+02  0.00000000000E+00 0.  1.
</event>
<event>
 5    1  0.1059945E-009  0.9118800E+02  0.7815553E-02  0.1125453E+00
         25   -1    0    0    0    0  0.00000000000E+00  0.00000000000E+00  0.99999998245E-14  0.12509000000E+03  0.12509000000E+03 0.  0.
        -11    1    3    3    0    0 -0.45767924652E+02 -0.60404339485E+01  0.37952007828E+02  0.59762401790E+02  0.51100000000E-03 0.  1.
         23    2    1    0    0    0 -0.20422243088E+02  0.10214969507E+02  0.19382147693E+02  0.95138685105E+02  0.90301097111E+02 0.  0.
         11    1    3    3    0    0  0.25345681564E+02  0.16255403455E+02 -0.18569860136E+02  0.35376283315E+02  0.51100000000E-03 0. -1.
         22    1    1    0    0    0  0.20422243088E+02 -0.10214969507E+02 -0.19382147693E+02  0.29951314895E+02  0.00000000000E+00 0.  1.
</event>
<event>
 5    1  0.1059945E-009  0.9118800E+02  0.7815553E-02  0.1125453E+00
         25   -1    0    0    0    0  0.00000000000E+00  0.00000000000E+00  0.99999998245E-14  0.12509000000E+03  0.12509000000E+03 0.  0.
        -11    1    3    3    0    0 -0.46069208424E+02  0.29650706216E+02  0.26169186001E+02  0.60715423413E+02  0.51100000000E-03 0. -1.
         23    2    1    0    0    0 -0.31375332585E+02  0.75599582589E+01  0.14977633704E+02  0.89510596196E+02  0.82135576069E+02 0.  0.
         11    1    3    3    0    0  0.14693875839E+02 -0.22090747957E+02 -0.11191552297E+02  0.28795172783E+02  0.51100000000E-03 0.  1.
         22    1    1    0    0    0  0.31375332585E+02 -0.75599582589E+01 -0.14977633704E+02  0.35579403804E+02  0.00000000000E+00 0. -1.
</event>
<event>
 5    1  0.1059945E-009  0.9118800E+02  0.7815553E-02  0.1125453E+00
         25   -1    0    0    0    0  0.00000000000E+00  0.00000000000E+00  0.99999998245E-14  0.12509000000E+03  0.12509000000E+03 0.  0.
        -11    1    3    3    0    0 -0.65688087913E+01 -0.23593700180E+02 -0.21776753447E+02  0.32772533135E+02  0.51100000000E-03 0.  1.
         23    2    1    0    0    0 -0.29161072901E+02  0.23479098460E+02 -0.10764338746E+02  0.86134804892E+02  0.76822505739E+02 0.  0.
         11    1    3    3    0    0 -0.22592264110E+02  0.47072798640E+02  0.11012414700E+02  0.53362271758E+02  0.51100000000E-03 0. -1.
         22    1    1    0    0    0  0.29161072901E+02 -0.23479098460E+02  0.10764338746E+02  0.38955195108E+02  0.00000000000E+00 0. -1.
</event>
<event>
 5    1  0.1059945E-009  0.9118800E+02  0.7815553E-02  0.1125453E+00
         25   -1    0    0    0    0  0.00000000000E+00  0.00000000000E+00  0.99999998245E-14  0.12509000000E+03  0.12509000000E+03 0.  0.
        -11    1    3    3    0    0  0.48526970520E+02 -0.14920732538E+02  0.28257117828E+02  0.58103010555E+02  0.51100000000E-03 0. -1.
         23    2    1    0    0    0  0.27995572049E+02 -0.76055518996E+01 -0.26902779387E+01  0.95955242932E+02  0.91425240370E+02 0.  0.
         11    1    3    3    0    0 -0.20531398471E+02  0.73151806381E+01 -0.30947395766E+02  0.37852232377E+02  0.51100000000E-03 0.  1.
         22    1    1    0    0    0 -0.27995572049E+02  0.76055518996E+01  0.26902779387E+01  0.29134757068E+02  0.00000000000E+00 0. -1.
</event>
<event>
 5    1  0.1059945E-009  0.9118800E+02  0.7815553E-02  0.1125453E+00
         25   -1    0    0    0    0  0.00000000000E+00  0.00000000000E+00  0.99999998245E-14  0.12509000000E+03  0.12509000000E+03 0.  0.
        -11    1    3    3    0    0 -0.36243436828E+02  0.19555261152E+02 -0.11323091253E+02  0.42710740424E+02  0.51100000000E-03 0.  1.
         23    2    1    0    0    0  0.15244008588E+02  0.74490764627E+01 -0.22638542172E+02  0.96799151132E+02  0.92572693221E+02 0.  0.
         11    1    3    3    0    0  0.51487445415E+02 -0.12106184689E+02 -0.11315450919E+02  0.54088410708E+02  0.51100000000E-03 0. -1.
         22    1    1    0    0    0 -0.15244008588E+02 -0.74490764627E+01  0.22638542172E+02  0.28290848868E+02  0.00000000000E+00 0. -1.
</event>
<event>
 5    1  0.1059945E-009  0.9118800E+02  0.7815553E-02  0.1125453E+00
         25   -1    0    0    0    0  0.00000000000E+00  0.00000000000E+00  0.99999998245E-14  0.12509000000E+03  0.12509000000E+03 0.  0.
        -11    1    3    3    0    0  0.65490745562E+01  0.40513082102E+02 -0.23972753696E+02  0.47527814161E+02  0.51100000000E-03 0. -1.
         23    2    1    0    0    0 -0.21395855954E+02  0.14581047095E+01 -0.20084695052E+02  0.95707969834E+02  0.91086287623E+02 0.  0.
         11    1    3    3    0    0 -0.27944930510E+02 -0.39054977392E+02  0.38880586440E+01  0.48180155672E+02  0.51100000000E-03 0.  1.
         22    1    1    0    0    0  0.21395855954E+02 -0.14581047095E+01  0.20084695052E+02  0.29382030166E+02  0.00000000000E+00 0. -1.
</event>
<event>
 5    1  0.1059945E-009  0.9118800E+02  0.7815553E-02  0.1125453E+00
         25   -1    0    0    0    0  0.00000000000E+00  0.00000000000E+00  0.99999998245E-14  0.12509000000E+03  0.12509000000E+03 0.  0.
        -11    1    3    3    0    0  0.25832413875E+02 -0.79679760494E+01 -0.34726860462E+01  0.27255491145E+02  0.51100000000E-03 0. -1.
         23    2    1    0    0    0 -0.28799836574E+02 -0.68571220488E+01  0.22642571576E+02  0.87818875023E+02  0.79517407234E+02 0.  0.
         11    1    3    3    0    0 -0.54632250449E+02  0.11108540006E+01  0.26115257622E+02  0.60563383878E+02  0.51100000000E-03 0.  1.
         22    1    1    0    0    0  0.28799836574E+02  0.68571220488E+01 -0.22642571576E+02  0.37271124977E+02  0.00000000000E+00 0.  1.
</event>
<event>
 5    1  0.1059945E-009  0.9118800E+02  0.7815553E-02  0.1125453E+00
         25   -1    0    0    0    0  0.00000000000E+00  0.00000000000E+00  0.99999998245E-14  0.12509000000E+03  0.12509000000E+03 0.  0.
        -11    1    3    3    0    0 -0.93687515556E+00  0.50026368543E+02 -0.15414326920E+02  0.52355675521E+02  0.51100000000E-03 0. -1.
         23    2    1    0    0    0 -0.37303744469E+00  0.22681829890E+02  0.18424531121E+02  0.95865559695E+02  0.91302451361E+02 0.  0.
         11    1    3    3    0    0  0.56383771087E+00 -0.27344538653E+02  0.33838858040E+02  0.43509884174E+02  0.51100000000E-03 0.  1.
         22    1    1    0    0    0  0.37303744469E+00 -0.22681829890E+02 -0.18424531121E+02  0.29224440305E+02  0.00000000000E+00 0. -1.
</event>
<event>
 5    1  0.1059945E-009  0.9118800E+02  0.7815553E-02  0.1125453E+00
         25   -1    0    0    0    0  0.00000000000E+00  0.00000000000E+00  0.99999998245E-14  0.12509000000E+03  0.12509000000E+03 0.  0.
        -11    1    3    3    0    0  0.14231516663E+02 -0.37987532672E+02  0.59652596276E+01  0.41002110040E+02  0.51100000000E-03 0. -1.
         23    2    1    0    0    0 -0.25496743101E+02 -0.27295824856E+02  0.17660172280E+02  0.83773808885E+02  0.72876768636E+02 0.  0.
         11    1    3    3    0    0 -0.39728259764E+02  0.10691707816E+02  0.11694912652E+02  0.42771698845E+02  0.51100000000E-03 0.  1.
         22    1    1    0    0    0  0.25496743101E+02  0.27295824856E+02 -0.17660172280E+02  0.41316191115E+02  0.00000000000E+00 0.  1.
</event>
<event>
 5    1  0.1059945E-009  0.9118800E+02  0.7815553E-02  0.1125453E+00
         25   -1    0    0    0    0  0.00000000000E+00  0.00000000000E+00  0.99999998245E-14  0.12509000000E+03  0.12509000000E+03 0.  0.
        -11    1    3    3    0    0  0.33621954611E+02 -0.58535076296E+00  0.15311517854E+02  0.36948897773E+02  0.51100000000E-03 0. -1.
         23    2    1    0    0    0 -0.16933724783E+02  0.24580763117E+02  0.92052188808E+00  0.95226773266E+02  0.90423039296E+02 0.  0.
         11    1    3    3    0    0 -0.50555679394E+02  0.25166113880E+02 -0.14390995966E+02  0.58277875493E+02  0.51100000000E-03 0.  1.
         22    1    1    0    0    0  0.16933724783E+02 -0.24580763117E+02 -0.92052188808E+00  0.29863226734E+02  0.00000000000E+00 0.  1.
</event>
<event>
 5    1  0.1059945E-009  0.9118800E+02  0.7815553E-02  0.1125453E+00
         25   -1    0    0    0    0  0.00000000000E+00  0.00000000000E+00  0.99999998245E-14  0.12509000000E+03  0.12509000000E+03 0.  0.
        -11    1    3    3    0    0  0.28618097672E+02  0.20311102878E+02  0.10739649676E+01  0.35109682646E+02  0.51100000000E-03 0. -1.
         23    2    1    0    0    0 -0.26445056076E+02  0.72998402239E+01  0.15608835058E+02  0.93526343843E+02  0.88039267390E+02 0.  0.
         11    1    3    3    0    0 -0.55063153748E+02 -0.13011262654E+02  0.14534870091E+02  0.58416661196E+02  0.51100000000E-03 0.  1.
         22    1    1    0    0    0  0.26445056076E+02 -0.72998402239E+01 -0.15608835058E+02  0.31563656157E+02  0.00000000000E+00 0.  1.
</event>
<event>
 5    1  0.1059945E-009  0.9118800E+02  0.7815553E-02  0.1125453E+00
         25   -1    0    0    0    0  0.00000000000E+00  0.00000000000E+00  0.99999998245E-14  0.12509000000E+03  0.12509000000E+03 0.  0.
        -11    1    3    3    0    0 -0.42213953390E+02 -0.11499738345E+02 -0.46544819698E+01  0.43999159599E+02  0.51100000000E-03 0.  1.
         23    2    1    0    0    0 -0.21065584736E+01  0.12876963234E+02 -0.26335594681E+02  0.95699230736E+02  0.91074285314E+02 0.  0.
         11    1    3    3    0    0  0.40107394916E+02  0.24376701579E+02 -0.21681112711E+02  0.51700071136E+02  0.51100000000E-03 0. -1.
         22    1    1    0    0    0  0.21065584736E+01 -0.12876963234E+02  0.26335594681E+02  0.29390769264E+02  0.00000000000E+00 0. -1.
</event>
<event>
 5    1  0.1059945E-009  0.9118800E+02  0.7815553E-02  0.1125453E+00
         25   -1    0    0    0    0  0.00000000000E+00  0.00000000000E+00  0.99999998245E-14  0.12509000000E+03  0.12509000000E+03 0.  0.
        -11    1    3    3    0    0 -0.34188538257E+02  0.25967229730E+02 -0.46458837540E+01  0.43182605341E+02  0.51100000000E-03 0. -1.
         23    2    1    0    0    0  0.16132487188E+02  0.19432521366E+02  0.12714783092E+02  0.96813760176E+02  0.92592431768E+02 0.  0.
         11    1    3    3    0    0  0.50321025445E+02 -0.65347083640E+01  0.17360666846E+02  0.53631154834E+02  0.51100000000E-03 0.  1.
         22    1    1    0    0    0 -0.16132487188E+02 -0.19432521366E+02 -0.12714783092E+02  0.28276239824E+02  0.00000000000E+00 0.  1.
</event>
<event>
 5    1  0.1059945E-009  0.9118800E+02  0.7815553E-02  0.1125453E+00
         25   -1    0    0    0    0  0.00000000000E+00  0.00000000000E+00  0.99999998245E-14  0.12509000000E+03  0.12509000000E+03 0.  0.
        -11    1    3    3    0    0 -0.11818551307E+02  0.35851781695E+02  0.24331723126E+02  0.44911704000E+02  0.51100000000E-03 0. -1.
         23    2    1    0    0    0  0.21420417776E+02  0.14086832580E+01  0.24150406815E+02  0.92778069764E+02  0.86969588901E+02 0.  0.
         11    1    3    3    0    0  0.33238969082E+02 -0.34443098437E+02 -0.18131631073E+00  0.47866365764E+02  0.51100000000E-03 0.  1.
         22    1    1    0    0    0 -0.21420417776E+02 -0.14086832580E+01 -0.24150406815E+02  0.32311930236E+02  0.00000000000E+00 0.  1.
</event>
<event>
 5    1  0.1059945E-009  0.9118800E+02  0.7815553E-02  0.1125453E+00
         25   -1    0    0    0    0  0.00000000000E+00  0.00000000000E+00  0.99999998245E-14  0.12509000000E+03  0.12509000000E+03 0.  0.
        -11    1    3    3    0    0  0.25328323393E+02  0.16214683771E+02 -0.18400049947E+02  0.35256230287E+02  0.51100000000E-03 0. -1.
         23    2    1    0    0    0 -0.27913381650E+02  0.12928615478E+02 -0.19603046081E+02  0.88612810018E+02  0.80756700715E+02 0.  0.
         11    1    3    3    0    0 -0.53241705043E+02 -0.32860682928E+01 -0.12029961338E+01  0.53356579732E+02  0.51100000000E-03 0.  1.
         22    1    1    0    0    0  0.27913381650E+02 -0.12928615478E+02  0.19603046081E+02  0.36477189982E+02  0.00000000000E+00 0.  1.
</event>
<event>
 5    1  0.1059945E-009  0.9118800E+02  0.7815553E-02  0.1125453E+00
         25   -1    0    0    0    0  0.00000000000E+00  0.00000000000E+00  0.99999998245E-14  0.12509000000E+03  0.12509000000E+03 0.  0.
        -11    1    3    3    0    0 -0.44316852039E+02  0.33691945434E+01  0.15740938076E+02  0.47149888422E+02  0.51100000000E-03 0.  1.
         23    2    1    0    0    0  0.88117833589E+01  0.79111955414E+01  0.21257138109E+02  0.10075688550E+03  0.97774482937E+02 0.  0.
         11    1    3    3    0    0  0.53128635397E+02  0.45420009980E+01  0.55162000328E+01  0.53606997074E+02  0.51100000000E-03 0. -1.
         22    1    1    0    0    0 -0.88117833589E+01 -0.79111955414E+01 -0.21257138109E+02  0.24333114503E+02  0.00000000000E+00 0. -1.
</event>
<event>
 5    1  0.1059945E-009  0.9118800E+02  0.7815553E-02  0.1125453E+00
         25   -1    0    0    0    0  0.00000000000E+00  0.00000000000E+00  0.99999998245E-14  0.12509000000E+03  0.12509000000E+03 0.  0.
        -11    1    3    3    0    0  0.34465695151E+02 -0.84453256033E+00 -0.18838363261E+02  0.39287164674E+02  0.51100000000E-03 0.  1.
         23    2    1    0    0    0 -0.17639918119E+02  0.19573726001E+02 -0.13441261740E+02  0.95510193071E+02  0.90814272020E+02 0.  0.
         11    1    3    3    0    0 -0.52105613270E+02  0.20418258562E+02  0.53971015219E+01  0.56223028397E+02  0.51100000000E-03 0. -1.
         22    1    1    0    0    0  0.17639918119E+02 -0.19573726001E+02  0.13441261740E+02  0.29579806929E+02  0.00000000000E+00 0. -1.
</event>
<event>
 5    1  0.1059945E-009  0.9118800E+02  0.7815553E-02  0.1125453E+00
         25   -1    0    0    0    0  0.00000000000E+00  0.00000000000E+00  0.99999998245E-14  0.12509000000E+03  0.12509000000E+03 0.  0.
        -11    1    3    3    0    0  0.12498581737E+02 -0.34800081733E+02 -0.67196814970E+01  0.37582101508E+02  0.51100000000E-03 0. -1.
         23    2    1    0    0    0 -0.27611550700E+02  0.68122553238E+01  0.40202081602E+01  0.96367767699E+02  0.91987934117E+02 0.  0.
         11    1    3    3    0    0 -0.40110132437E+02  0.41612337057E+02  0.10739889657E+02  0.58785666191E+02  0.51100000000E-03 0.  1.
         22    1    1    0    0    0  0.27611550700E+02 -0.68122553238E+01 -0.40202081602E+01  0.28722232301E+02  0.00000000000E+00 0.  1.
</event>
<event>
 5    1  0.1059945E-009  0.9118800E+02  0.7815553E-02  0.1125453E+00
         25   -1    0    0    0    0  0.00000000000E+00  0.00000000000E+00  0.99999998245E-14  0.12509000000E+03  0.12509000000E+03 0.  0.
        -11    1    3    3    0    0 -0.49616589903E+02 -0.66087801627E+01  0.21487681824E+02  0.54472033552E+02  0.51100000000E-03 0.  1.
         23    2    1    0    0    0 -0.16207596850E+02 -0.23843246356E+02  0.38249708966E+01  0.96007066950E+02  0.91496119642E+02 0.  0.
         11    1    3    3    0    0  0.33408993053E+02 -0.17234466193E+02 -0.17662710928E+02  0.41535033398E+02  0.51100000000E-03 0. -1.
         22    1    1    0    0    0  0.16207596850E+02  0.23843246356E+02 -0.38249708966E+01  0.29082933050E+02  0.00000000000E+00 0.  1.
</event>
<event>
 5    1  0.1059945E-009  0.9118800E+02  0.7815553E-02  0.1125453E+00
         25   -1    0    0    0    0  0.00000000000E+00  0.00000000000E+00  0.99999998245E-14  0.12509000000E+03  0.12509000000E+03 0.  0.
        -11    1    3    3    0    0  0.32809121298E+02  0.45194148284E+02 -0.13796733468E+02  0.57526509838E+02  0.51100000000E-03 0.  1.
         23    2    1    0    0    0  0.61321014139E+01  0.28097869649E+02  0.70814110143E+01  0.95471773711E+02  0.90761336741E+02 0.  0.
         11    1    3    3    0    0 -0.26677019884E+02 -0.17096278635E+02  0.20878144482E+02  0.37945263873E+02  0.51100000000E-03 0. -1.
         22    1    1    0    0    0 -0.61321014139E+01 -0.28097869649E+02 -0.70814110143E+01  0.29618226289E+02  0.00000000000E+00 0.  1.
</event>
<event>
 5    1  0.1059945E-009  0.9118800E+02  0.7815553E-02  0.1125453E+00
         25   -1    0    0    0    0  0.00000000000E+00  0.00000000000E+00  0.99999998245E-14  0.12509000000E+03  0.12509000000E+03 0.  0.
        -11    1    3    3    0    0 -0.35602481319E+02  0.12976584167E+02  0.42491979893E+02  0.56934144133E+02  0.51100000000E-03 0.  1.
         23    2    1    0    0    0 -0.14507899927E+00  0.75178467768E+01  0.28785748833E+02  0.95338388212E+02  0.90577314284E+02 0.  0.
         11    1    3    3    0    0  0.35457402319E+02 -0.54587373905E+01 -0.13706231060E+02  0.38404244079E+02  0.51100000000E-03 0. -1.
         22    1    1    0    0    0  0.14507899927E+00 -0.75178467768E+01 -0.28785748833E+02  0.29751611788E+02  0.00000000000E+00 0.  1.
</event>
<event>
 5    1  0.1059945E-009  0.9118800E+02  0.7815553E-02  0.1125453E+00
         25   -1    0    0    0    0  0.00000000000E+00  0.00000000000E+00  0.99999998245E-14  0.12509000000E+03  0.12509000000E+03 0.  0.
        -11    1    3    3    0    0 -0.13913665871E+02  0.15092407248E+02  0.54113856000E+02  0.57876422367E+02  0.51100000000E-03 0. -1.
         23    2    1    0    0    0 -0.32120695564E+01 -0.95715047066E+01  0.27871410489E+02  0.95446339365E+02  0.90726275590E+02 0.  0.
         11    1    3    3    0    0  0.10701596314E+02 -0.24663911955E+02 -0.26242445512E+02  0.37569916998E+02  0.51100000000E-03 0.  1.
         22    1    1    0    0    0  0.32120695564E+01  0.95715047066E+01 -0.27871410489E+02  0.29643660635E+02  0.00000000000E+00 0. -1.
</event>
<event>
 5    1  0.1059945E-009  0.9118800E+02  0.7815553E-02  0.1125453E+00
         25   -1    0    0    0    0  0.00000000000E+00  0.00000000000E+00  0.99999998245E-14  0.12509000000E+03  0.12509000000E+03 0.  0.
        -11    1    3    3    0    0 -0.18580863727E+02  0.47197930555E+02  0.23615361952E+02  0.55951572506E+02  0.51100000000E-03 0.  1.
         23    2    1    0    0    0 -0.54604390310E+01  0.28143187227E+02 -0.81844336412E+01  0.95276574572E+02  0.90491907519E+02 0.  0.
         11    1    3    3    0    0  0.13120424696E+02 -0.19054743328E+02 -0.31799795593E+02  0.39325002066E+02  0.51100000000E-03 0. -1.
         22    1    1    0    0    0  0.54604390310E+01 -0.28143187227E+02  0.81844336412E+01  0.29813425428E+02  0.00000000000E+00 0.  1.
</event>
<event>
 5    1  0.1059945E-009  0.9118800E+02  0.7815553E-02  0.1125453E+00
         25   -1    0    0    0    0  0.00000000000E+00  0.00000000000E+00  0.99999998245E-14  0.12509000000E+03  0.12509000000E+03 0.  0.
        -11    1    3    3    0    0 -0.21360683917E+02  0.35529630477E+02 -0.25945345902E+02  0.48905975437E+02  0.51100000000E-03 0. -1.
         23    2    1    0    0    0 -0.13943198991E+02 -0.12062402075E+02 -0.20719656097E+02  0.97355211544E+02  0.93321051881E+02 0.  0.
         11    1    3    3    0    0  0.74174849260E+01 -0.47592032553E+02  0.52256898053E+01  0.48449236107E+02  0.51100000000E-03 0.  1.
         22    1    1    0    0    0  0.13943198991E+02  0.12062402075E+02  0.20719656097E+02  0.27734788456E+02  0.00000000000E+00 0. -1.
</event>
<event>
 5    1  0.1059945E-009  0.9118800E+02  0.7815553E-02  0.1125453E+00
         25   -1    0    0    0    0  0.00000000000E+00  0.00000000000E+00  0.99999998245E-14  0.12509000000E+03  0.12509000000E+03 0.  0.
        -11    1    3    3    0    0  0.17269453701E+02  0.11845410492E+02  0.52171049728E+02  0.56217134495E+02  0.51100000000E-03 0. -1.
         23    2    1    0    0    0  0.15078520695E+02  0.21400840133E+02  0.14457827223E+02  0.95183704463E+02  0.90363438859E+02 0.  0.
         11    1    3    3    0    0 -0.21909330055E+01  0.95554296407E+01 -0.37713222505E+02  0.38966569968E+02  0.51100000000E-03 0.  1.
         22    1    1    0    0    0 -0.15078520695E+02 -0.21400840133E+02 -0.14457827223E+02  0.29906295537E+02  0.00000000000E+00 0. -1.
</event>
<event>
 5    1  0.1059945E-009  0.9118800E+02  0.7815553E-02  0.1125453E+00
         25   -1    0    0    0    0  0.00000000000E+00  0.00000000000E+00  0.99999998245E-14  0.12509000000E+03  0.12509000000E+03 0.  0.
        -11    1    3    3    0    0 -0.40682325279E+02  0.34066062009E+02  0.24973299004E+02  0.58644810805E+02  0.51100000000E-03 0.  1.
         23    2    1    0    0    0 -0.54029287282E+01  0.23016777874E+02  0.15537043877E+02  0.96799304799E+02  0.92572900865E+02 0.  0.
         11    1    3    3    0    0  0.35279396551E+02 -0.11049284135E+02 -0.94362551278E+01  0.38154493994E+02  0.51100000000E-03 0. -1.
         22    1    1    0    0    0  0.54029287282E+01 -0.23016777874E+02 -0.15537043877E+02  0.28290695201E+02  0.00000000000E+00 0.  1.
</event>
<event>
 5    1  0.1059945E-009  0.9118800E+02  0.7815553E-02  0.1125453E+00
         25   -1    0    0    0    0  0.00000000000E+00  0.00000000000E+00  0.99999998245E-14  0.12509000000E+03  0.12509000000E+03 0.  0.
        -11    1    3    3    0    0  0.10559266170E+02  0.52062108986E+02 -0.19777916533E+02  0.56684453572E+02  0.51100000000E-03 0.  1.
         23    2    1    0    0    0  0.33107954730E+01  0.27835931231E+02  0.96119443780E+01  0.95455730836E+02  0.90739223275E+02 0.  0.
         11    1    3    3    0    0 -0.72484706967E+01 -0.24226177755E+02  0.29389860911E+02  0.38771277264E+02  0.51100000000E-03 0. -1.
         22    1    1    0    0    0 -0.33107954730E+01 -0.27835931231E+02 -0.96119443780E+01  0.29634269164E+02  0.00000000000E+00 0.  1.
</event>
<event>
 5    1  0.1059945E-009  0.9118800E+02  0.7815553E-02  0.1125453E+00
         25   -1    0    0    0    0  0.00000000000E+00  0.00000000000E+00  0.99999998245E-14  0.12509000000E+03  0.12509000000E+03 0.  0.
        -11    1    3    3    0    0 -0.13273372118E+02 -0.56868763494E+01 -0.36111245035E+02  0.38891451352E+02  0.51100000000E-03 0. -1.
         23    2    1    0    0    0 -0.10016536232E+02 -0.11180020012E+01  0.23893408267E+02  0.99157859996E+02  0.95706871822E+02 0.  0.
         11    1    3    3    0    0  0.32568358864E+01  0.45688743481E+01  0.60004653302E+02  0.60266408645E+02  0.51100000000E-03 0.  1.
         22    1    1    0    0    0  0.10016536232E+02  0.11180020012E+01 -0.23893408267E+02  0.25932140004E+02  0.00000000000E+00 0.  1.
</event>
<event>
 5    1  0.1059945E-009  0.9118800E+02  0.7815553E-02  0.1125453E+00
         25   -1    0    0    0    0  0.00000000000E+00  0.00000000000E+00  0.99999998245E-14  0.12509000000E+03  0.12509000000E+03 0.  0.
        -11    1    3    3    0    0  0.27229011306E+01 -0.34025653748E+02  0.26309349897E+02  0.43096881509E+02  0.51100000000E-03 0. -1.
         23    2    1    0    0    0  0.13288836719E+02  0.17447205955E+02  0.18851909516E+02  0.96169545831E+02  0.91717985564E+02 0.  0.
         11    1    3    3    0    0  0.10565935588E+02  0.51472859703E+02 -0.74574403809E+01  0.53072664321E+02  0.51100000000E-03 0.  1.
         22    1    1    0    0    0 -0.13288836719E+02 -0.17447205955E+02 -0.18851909516E+02  0.28920454169E+02  0.00000000000E+00 0.  1.
</event>
<event>
 5    1  0.1059945E-009  0.9118800E+02  0.7815553E-02  0.1125453E+00
         25   -1    0    0    0    0  0.00000000000E+00  0.00000000000E+00  0.99999998245E-14  0.12509000000E+03  0.12509000000E+03 0.  0.
        -11    1    3    3    0    0 -0.66629915738E+01 -0.41173536483E+02 -0.18460070901E+01  0.41750009649E+02  0.51100000000E-03 0.  1.
         23    2    1    0    0    0  0.27258092196E+02  0.80596432383E-01 -0.10545338885E+02  0.95863055956E+02  0.91299021019E+02 0.  0.
         11    1    3    3    0    0  0.33921083770E+02  0.41254132915E+02 -0.86993317951E+01  0.54113046307E+02  0.51100000000E-03 0. -1.
         22    1    1    0    0    0 -0.27258092196E+02 -0.80596432383E-01  0.10545338885E+02  0.29226944044E+02  0.00000000000E+00 0. -1.
</event>
<event>
 5    1  0.1059945E-009  0.9118800E+02  0.7815553E-02  0.1125453E+00
         25   -1    0    0    0    0  0.00000000000E+00  0.00000000000E+00  0.99999998245E-14  0.12509000000E+03  0.12509000000E+03 0.  0.
        -11    1    3    3    0    0  0.97519867054E+01 -0.64398806633E+00  0.33153726193E+02  0.34564223209E+02  0.51100000000E-03 0. -1.
         23    2    1    0    0    0 -0.40702809685E+01 -0.97267683073E+01 -0.26553366190E+02  0.96519762604E+02  0.92194393041E+02 0.  0.
         11    1    3    3    0    0 -0.13822267674E+02 -0.90827802409E+01 -0.59707092383E+02  0.61955539394E+02  0.51100000000E-03 0.  1.
         22    1    1    0    0    0  0.40702809685E+01  0.97267683073E+01  0.26553366190E+02  0.28570237396E+02  0.00000000000E+00 0.  1.
</event>
<event>
 5    1  0.1059945E-009  0.9118800E+02  0.7815553E-02  0.1125453E+00
         25   -1    0    0    0    0  0.00000000000E+00  0.00000000000E+00  0.99999998245E-14  0.12509000000E+03  0.12509000000E+03 0.  0.
        -11    1    3    3    0    0  0.17811230444E+02  0.22332656603E+01  0.29012263971E+02  0.34116548279E+02  0.51100000000E-03 0. -1.
         23    2    1    0    0    0 -0.10962541178E+02  0.17780865392E+02 -0.22025602244E+02  0.94734380464E+02  0.89739284622E+02 0.  0.
         11    1    3    3    0    0 -0.28773771622E+02  0.15547599732E+02 -0.51037866216E+02  0.60617832186E+02  0.51100000000E-03 0.  1.
         22    1    1    0    0    0  0.10962541178E+02 -0.17780865392E+02  0.22025602244E+02  0.30355619536E+02  0.00000000000E+00 0.  1.
</event>
<event>
 5    1  0.1059945E-009  0.9118800E+02  0.7815553E-02  0.1125453E+00
         25   -1    0    0    0    0  0.00000000000E+00  0.00000000000E+00  0.99999998245E-14  0.12509000000E+03  0.12509000000E+03 0.  0.
        -11    1    3    3    0    0 -0.50880685929E+02 -0.15368197867E+02 -0.31810541538E+02  0.61943008157E+02  0.51100000000E-03 0. -1.
         23    2    1    0    0    0 -0.28839346612E+02 -0.94881870242E+01 -0.11068620081E+02  0.92775174354E+02  0.86965424278E+02 0.  0.
         11    1    3    3    0    0  0.22041339317E+02  0.58800108425E+01  0.20741921457E+02  0.30832166197E+02  0.51100000000E-03 0.  1.
         22    1    1    0    0    0  0.28839346612E+02  0.94881870242E+01  0.11068620081E+02  0.32314825646E+02  0.00000000000E+00 0. -1.
</event>
<event>
 5    1  0.1059945E-009  0.9118800E+02  0.7815553E-02  0.1125453E+00
         25   -1    0    0    0    0  0.00000000000E+00  0.00000000000E+00  0.99999998245E-14  0.12509000000E+03  0.12509000000E+03 0.  0.
        -11    1    3    3    0    0  0.36974637080E+02  0.21453595732E+02  0.43673703563E+02  0.61112788679E+02  0.51100000000E-03 0.  1.
         23    2    1    0    0    0  0.12476713563E+02  0.18012034818E+02  0.18414544025E+02  0.96468378605E+02  0.92124648490E+02 0.  0.
         11    1    3    3    0    0 -0.24497923517E+02 -0.34415609138E+01 -0.25259159538E+02  0.35355589925E+02  0.51100000000E-03 0. -1.
         22    1    1    0    0    0 -0.12476713563E+02 -0.18012034818E+02 -0.18414544025E+02  0.28621621395E+02  0.00000000000E+00 0.  1.
</event>
<event>
 5    1  0.1059945E-009  0.9118800E+02  0.7815553E-02  0.1125453E+00
         25   -1    0    0    0    0  0.00000000000E+00  0.00000000000E+00  0.99999998245E-14  0.12509000000E+03  0.12509000000E+03 0.  0.
        -11    1    3    3    0    0  0.21852303778E+02  0.34995990675E+02 -0.37378569564E+02  0.55672255268E+02  0.51100000000E-03 0. -1.
         23    2    1    0    0    0  0.26981482843E+02  0.11742015525E+02 -0.60079502231E+01  0.95057171115E+02  0.90188108803E+02 0.  0.
         11    1    3    3    0    0  0.51291790647E+01 -0.23253975150E+02  0.31370619341E+02  0.39384915847E+02  0.51100000000E-03 0.  1.
         22    1    1    0    0    0 -0.26981482843E+02 -0.11742015525E+02  0.60079502231E+01  0.30032828885E+02  0.00000000000E+00 0. -1.
</event>
<event>
 5    1  0.1059945E-009  0.9118800E+02  0.7815553E-02  0.1125453E+00
         25   -1    0    0    0    0  0.00000000000E+00  0.00000000000E+00  0.99999998245E-14  0.12509000000E+03  0.12509000000E+03 0.  0.
        -11    1    3    3    0    0  0.36752770242E+02 -0.21673257517E+02  0.35805085331E+02  0.55700092888E+02  0.51100000000E-03 0.  1.
         23    2    1    0    0    0  0.21410174902E+02  0.10342249093E+02  0.16870506170E+02  0.95935726144E+02  0.91398533176E+02 0.  0.
         11    1    3    3    0    0 -0.15342595340E+02  0.32015506610E+02 -0.18934579162E+02  0.40235633256E+02  0.51100000000E-03 0. -1.
         22    1    1    0    0    0 -0.21410174902E+02 -0.10342249093E+02 -0.16870506170E+02  0.29154273856E+02  0.00000000000E+00 0.  1.
</event>
<event>
 5    1  0.1059945E-009  0.9118800E+02  0.7815553E-02  0.1125453E+00
         25   -1    0    0    0    0  0.00000000000E+00  0.00000000000E+00  0.99999998245E-14  0.12509000000E+03  0.12509000000E+03 0.  0.
        -11    1    3    3    0    0 -0.74452584486E+01 -0.43229759506E+02  0.96043314129E+01  0.44905313299E+02  0.51100000000E-03 0.  1.
         23    2    1    0    0    0  0.22691152674E+02 -0.34226696541E+01  0.18492613110E+02  0.95618321784E+02  0.90963089460E+02 0.  0.
         11    1    3    3    0    0  0.30136411122E+02  0.39807089852E+02  0.88882816966E+01  0.50713008485E+02  0.51100000000E-03 0. -1.
         22    1    1    0    0    0 -0.22691152674E+02  0.34226696541E+01 -0.18492613110E+02  0.29471678216E+02  0.00000000000E+00 0. -1.
</event>
<event>
 5    1  0.1059945E-009  0.9118800E+02  0.7815553E-02  0.1125453E+00
         25   -1    0    0    0    0  0.00000000000E+00  0.00000000000E+00  0.99999998245E-14  0.12509000000E+03  0.12509000000E+03 0.  0.
        -11    1    3    3    0    0 -0.35209477981E+02 -0.17083907095E+02  0.17939607348E+02  0.43051094451E+02  0.51100000000E-03 0.  1.
         23    2    1    0    0    0 -0.15715579632E+02  0.12476941691E+02 -0.21246255214E+02  0.95865748466E+02  0.91302709988E+02 0.  0.
         11    1    3    3    0    0  0.19493898349E+02  0.29560848786E+02 -0.39185862561E+02  0.52814654015E+02  0.51100000000E-03 0. -1.
         22    1    1    0    0    0  0.15715579632E+02 -0.12476941691E+02  0.21246255214E+02  0.29224251534E+02  0.00000000000E+00 0. -1.
</event>
<event>
 5    1  0.1059945E-009  0.9118800E+02  0.7815553E-02  0.1125453E+00
         25   -1    0    0    0    0  0.00000000000E+00  0.00000000000E+00  0.99999998245E-14  0.12509000000E+03  0.12509000000E+03 0.  0.
        -11    1    3    3    0    0 -0.28797152049E+02 -0.13687294739E+02 -0.17228047460E+02  0.36241186832E+02  0.51100000000E-03 0.  1.
         23    2    1    0    0    0  0.28382083086E+02 -0.61752830548E-01 -0.56743194877E+01  0.96146186233E+02  0.91686120933E+02 0.  0.
         11    1    3    3    0    0  0.57179235136E+02  0.13625541908E+02  0.11553727972E+02  0.59904999402E+02  0.51100000000E-03 0. -1.
         22    1    1    0    0    0 -0.28382083086E+02  0.61752830548E-01  0.56743194877E+01  0.28943813767E+02  0.00000000000E+00 0. -1.
</event>
<event>
 5    1  0.1059945E-009  0.9118800E+02  0.7815553E-02  0.1125453E+00
         25   -1    0    0    0    0  0.00000000000E+00  0.00000000000E+00  0.99999998245E-14  0.12509000000E+03  0.12509000000E+03 0.  0.
        -11    1    3    3    0    0  0.33807535461E+02 -0.11163264857E+02 -0.71910866113E+01  0.36321889586E+02  0.51100000000E-03 0. -1.
         23    2    1    0    0    0 -0.24741020171E+02 -0.16221216779E+02 -0.18325604241E+00  0.95504876447E+02  0.90806948464E+02 0.  0.
         11    1    3    3    0    0 -0.58548555632E+02 -0.50579519216E+01  0.70078305689E+01  0.59182986861E+02  0.51100000000E-03 0.  1.
         22    1    1    0    0    0  0.24741020171E+02  0.16221216779E+02  0.18325604241E+00  0.29585123553E+02  0.00000000000E+00 0.  1.
</event>
<event>
 5    1  0.1059945E-009  0.9118800E+02  0.7815553E-02  0.1125453E+00
         25   -1    0    0    0    0  0.00000000000E+00  0.00000000000E+00  0.99999998245E-14  0.12509000000E+03  0.12509000000E+03 0.  0.
        -11    1    3    3    0    0 -0.24731771975E+02 -0.18131749060E+01 -0.28585558608E+02  0.37842863389E+02  0.51100000000E-03 0. -1.
         23    2    1    0    0    0 -0.81097865936E+01  0.43933244374E+01  0.27192987885E+02  0.96375395209E+02  0.91998305818E+02 0.  0.
         11    1    3    3    0    0  0.16621985381E+02  0.62064993434E+01  0.55778546493E+02  0.58532531820E+02  0.51100000000E-03 0.  1.
         22    1    1    0    0    0  0.81097865936E+01 -0.43933244374E+01 -0.27192987885E+02  0.28714604791E+02  0.00000000000E+00 0.  1.
</event>
<event>
 5    1  0.1059945E-009  0.9118800E+02  0.7815553E-02  0.1125453E+00
         25   -1    0    0    0    0  0.00000000000E+00  0.00000000000E+00  0.99999998245E-14  0.12509000000E+03  0.12509000000E+03 0.  0.
        -11    1    3    3    0    0  0.10414229617E+02 -0.41643582739E+02 -0.34727673714E+02  0.55214631066E+02  0.51100000000E-03 0. -1.
         23    2    1    0    0    0  0.41113953528E+00 -0.33068139110E+01 -0.29758685657E+02  0.95145327252E+02  0.90310297707E+02 0.  0.
         11    1    3    3    0    0 -0.10003090082E+02  0.38336768828E+02  0.49689880576E+01  0.39930696187E+02  0.51100000000E-03 0.  1.
         22    1    1    0    0    0 -0.41113953528E+00  0.33068139110E+01  0.29758685657E+02  0.29944672748E+02  0.00000000000E+00 0. -1.
</event>
<event>
 5    1  0.1059945E-009  0.9118800E+02  0.7815553E-02  0.1125453E+00
         25   -1    0    0    0    0  0.00000000000E+00  0.00000000000E+00  0.99999998245E-14  0.12509000000E+03  0.12509000000E+03 0.  0.
        -11    1    3    3    0    0 -0.29217820112E+02 -0.45600850473E+01  0.82633820711E+01  0.30704378698E+02  0.51100000000E-03 0. -1.
         23    2    1    0    0    0  0.25476860080E+02 -0.19748784641E+01 -0.20292894532E+02  0.92459153964E+02  0.86509670204E+02 0.  0.
         11    1    3    3    0    0  0.54694680193E+02  0.25852065832E+01 -0.28556276603E+02  0.61754775266E+02  0.51100000000E-03 0.  1.
         22    1    1    0    0    0 -0.25476860080E+02  0.19748784641E+01  0.20292894532E+02  0.32630846036E+02  0.00000000000E+00 0.  1.
</event>
<event>
 5    1  0.1059945E-009  0.9118800E+02  0.7815553E-02  0.1125453E+00
         25   -1    0    0    0    0  0.00000000000E+00  0.00000000000E+00  0.99999998245E-14  0.12509000000E+03  0.12509000000E+03 0.  0.
        -11    1    3    3    0    0  0.24704369697E+02  0.12602767044E+02  0.23839908270E+02  0.36571530538E+02  0.51100000000E-03 0. -1.
         23    2    1    0    0    0 -0.13662942793E+02 -0.64781850300E+01 -0.21402192413E+02  0.98885101085E+02  0.95349706290E+02 0.  0.
         11    1    3    3    0    0 -0.38367312491E+02 -0.19080952074E+02 -0.45242100683E+02  0.62313570547E+02  0.51100000000E-03 0.  1.
         22    1    1    0    0    0  0.13662942793E+02  0.64781850300E+01  0.21402192413E+02  0.26204898915E+02  0.00000000000E+00 0.  1.
</event>
<event>
 5    1  0.1059945E-009  0.9118800E+02  0.7815553E-02  0.1125453E+00
         25   -1    0    0    0    0  0.00000000000E+00  0.00000000000E+00  0.99999998245E-14  0.12509000000E+03  0.12509000000E+03 0.  0.
        -11    1    3    3    0    0  0.35683713101E+01  0.35977634265E+02 -0.38110957347E+02  0.52531595362E+02  0.51100000000E-03 0.  1.
         23    2    1    0    0    0 -0.55114892404E+01  0.26101239304E+02  0.52333970253E+01  0.97904716274E+02  0.94054738410E+02 0.  0.
         11    1    3    3    0    0 -0.90798605505E+01 -0.98763949609E+01  0.43344354373E+02  0.45373120912E+02  0.51100000000E-03 0. -1.
         22    1    1    0    0    0  0.55114892404E+01 -0.26101239304E+02 -0.52333970253E+01  0.27185283726E+02  0.00000000000E+00 0.  1.
</event>
<event>
 5    1  0.1059945E-009  0.9118800E+02  0.7815553E-02  0.1125453E+00
         25   -1    0    0    0    0  0.00000000000E+00  0.00000000000E+00  0.99999998245E-14  0.12509000000E+03  0.12509000000E+03 0.  0.
        -11    1    3    3    0    0  0.96061764629E+01  0.16270715041E+02  0.36205325363E+02  0.40839201499E+02  0.51100000000E-03 0.  1.
         23    2    1    0    0    0 -0.28427597935E+02 -0.37149174372E+01  0.97063493482E+00  0.96404270654E+02  0.92037559357E+02 0.  0.
         11    1    3    3    0    0 -0.38033774398E+02 -0.19985632478E+02 -0.35234690428E+02  0.55565069156E+02  0.51100000000E-03 0. -1.
         22    1    1    0    0    0  0.28427597935E+02  0.37149174372E+01 -0.97063493482E+00  0.28685729346E+02  0.00000000000E+00 0. -1.
</event>
<event>
 5    1  0.1059945E-009  0.9118800E+02  0.7815553E-02  0.1125453E+00
         25   -1    0    0    0    0  0.00000000000E+00  0.00000000000E+00  0.99999998245E-14  0.12509000000E+03  0.12509000000E+03 0.  0.
        -11    1    3    3    0    0 -0.44704706395E+02 -0.33484952164E+02 -0.20616649515E+02  0.59538214895E+02  0.51100000000E-03 0. -1.
         23    2    1    0    0    0 -0.20678686748E+02 -0.74847191560E+01 -0.20625574433E+02  0.94939652951E+02  0.90024964734E+02 0.  0.
         11    1    3    3    0    0  0.24026019647E+02  0.26000233008E+02 -0.89249172742E-02  0.35401438057E+02  0.51100000000E-03 0.  1.
         22    1    1    0    0    0  0.20678686748E+02  0.74847191560E+01  0.20625574433E+02  0.30150347049E+02  0.00000000000E+00 0. -1.
</event>
<event>
 5    1  0.1059945E-009  0.9118800E+02  0.7815553E-02  0.1125453E+00
         25   -1    0    0    0    0  0.00000000000E+00  0.00000000000E+00  0.99999998245E-14  0.12509000000E+03  0.12509000000E+03 0.  0.
        -11    1    3    3    0    0  0.51485684332E+02 -0.79354535845E+01 -0.25677210670E+02  0.58078104848E+02  0.51100000000E-03 0.  1.
         23    2    1    0    0    0  0.13093149610E+02 -0.46905906501E+01 -0.24845692859E+02  0.96616491945E+02  0.92325542808E+02 0.  0.
         11    1    3    3    0    0 -0.38392534722E+02  0.32448629344E+01  0.83151781157E+00  0.38538387096E+02  0.51100000000E-03 0. -1.
         22    1    1    0    0    0 -0.13093149610E+02  0.46905906501E+01  0.24845692859E+02  0.28473508055E+02  0.00000000000E+00 0.  1.
</event>
<event>
 5    1  0.1059945E-009  0.9118800E+02  0.7815553E-02  0.1125453E+00
         25   -1    0    0    0    0  0.00000000000E+00  0.00000000000E+00  0.99999998245E-14  0.12509000000E+03  0.12509000000E+03 0.  0.
        -11    1    3    3    0    0 -0.27777499956E+02  0.42712644821E+02 -0.32794962386E+02  0.60592648808E+02  0.51100000000E-03 0.  1.
         23    2    1    0    0    0 -0.32147186254E+01  0.20497670917E+02 -0.20508053408E+02  0.95916909944E+02  0.91372777290E+02 0.  0.
         11    1    3    3    0    0  0.24562781330E+02 -0.22214973904E+02  0.12286908978E+02  0.35324261135E+02  0.51100000000E-03 0. -1.
         22    1    1    0    0    0  0.32147186254E+01 -0.20497670917E+02  0.20508053408E+02  0.29173090056E+02  0.00000000000E+00 0.  1.
</event>
<event>
 5    1  0.1059945E-009  0.9118800E+02  0.7815553E-02  0.1125453E+00
         25   -1    0    0    0    0  0.00000000000E+00  0.00000000000E+00  0.99999998245E-14  0.12509000000E+03  0.12509000000E+03 0.  0.
        -11    1    3    3    0    0  0.27943417767E+02 -0.16363887626E+02 -0.65837603851E+01  0.33044777436E+02  0.51100000000E-03 0.  1.
         23    2    1    0    0    0 -0.26008276281E+02  0.52333609609E+01  0.14489446378E+02  0.94861494275E+02  0.89916297398E+02 0.  0.
         11    1    3    3    0    0 -0.53951694048E+02  0.21597248587E+02  0.21073206763E+02  0.61816716839E+02  0.51100000000E-03 0. -1.
         22    1    1    0    0    0  0.26008276281E+02 -0.52333609609E+01 -0.14489446378E+02  0.30228505725E+02  0.00000000000E+00 0. -1.
</event>
<event>
 5    1  0.1059945E-009  0.9118800E+02  0.7815553E-02  0.1125453E+00
         25   -1    0    0    0    0  0.00000000000E+00  0.00000000000E+00  0.99999998245E-14  0.12509000000E+03  0.12509000000E+03 0.  0.
        -11    1    3    3    0    0 -0.32332915781E+02 -0.46048019735E+02  0.19856607618E+02  0.59666761524E+02  0.51100000000E-03 0. -1.
         23    2    1    0    0    0 -0.24640795396E+02 -0.13723921226E+02  0.36028852657E+01  0.96655943065E+02  0.92378978864E+02 0.  0.
         11    1    3    3    0    0  0.76921203856E+01  0.32324098509E+02 -0.16253722352E+02  0.36989181540E+02  0.51100000000E-03 0.  1.
         22    1    1    0    0    0  0.24640795396E+02  0.13723921226E+02 -0.36028852657E+01  0.28434056935E+02  0.00000000000E+00 0. -1.
</event>
<event>
 5    1  0.1059945E-009  0.9118800E+02  0.7815553E-02  0.1125453E+00
         25   -1    0    0    0    0  0.00000000000E+00  0.00000000000E+00  0.99999998245E-14  0.12509000000E+03  0.12509000000E+03 0.  0.
        -11    1    3    3    0    0  0.11494961476E+02 -0.33932473538E+02 -0.29144194908E+01  0.35944968229E+02  0.51100000000E-03 0.  1.
         23    2    1    0    0    0  0.14965414204E+02  0.23465350205E+02 -0.13078246678E+02  0.94338954185E+02  0.89186386058E+02 0.  0.
         11    1    3    3    0    0  0.34704527285E+01  0.57397823743E+02 -0.10163827188E+02  0.58393985956E+02  0.51100000000E-03 0. -1.
         22    1    1    0    0    0 -0.14965414204E+02 -0.23465350205E+02  0.13078246678E+02  0.30751045815E+02  0.00000000000E+00 0. -1.
</event>
<event>
 5    1  0.1059945E-009  0.9118800E+02  0.7815553E-02  0.1125453E+00
         25   -1    0    0    0    0  0.00000000000E+00  0.00000000000E+00  0.99999998245E-14  0.12509000000E+03  0.12509000000E+03 0.  0.
        -11    1    3    3    0    0  0.63596279333E+01  0.33482080460E+02  0.19689675759E+02  0.39359597446E+02  0.51100000000E-03 0.  1.
         23    2    1    0    0    0  0.96799998592E+01  0.73929592237E+01 -0.28409630986E+02  0.94179397028E+02  0.88962314765E+02 0.  0.
         11    1    3    3    0    0  0.33203719259E+01 -0.26089121236E+02 -0.48099306744E+02  0.54819799582E+02  0.51100000000E-03 0. -1.
         22    1    1    0    0    0 -0.96799998592E+01 -0.73929592237E+01  0.28409630986E+02  0.30910602972E+02  0.00000000000E+00 0. -1.
</event>
<event>
 5    1  0.1059945E-009  0.9118800E+02  0.7815553E-02  0.1125453E+00
         25   -1    0    0    0    0  0.00000000000E+00  0.00000000000E+00  0.99999998245E-14  0.12509000000E+03  0.12509000000E+03 0.  0.
        -11    1    3    3    0    0 -0.22985591488E+02 -0.45501324298E+02 -0.32507616307E+02  0.60460342764E+02  0.51100000000E-03 0.  1.
         23    2    1    0    0    0 -0.85371331689E+00 -0.26290899476E+02 -0.12346419274E+02  0.96031880815E+02  0.91530037923E+02 0.  0.
         11    1    3    3    0    0  0.22131878171E+02  0.19210424823E+02  0.20161197033E+02  0.35571538051E+02  0.51100000000E-03 0. -1.
         22    1    1    0    0    0  0.85371331689E+00  0.26290899476E+02  0.12346419274E+02  0.29058119185E+02  0.00000000000E+00 0.  1.
</event>
<event>
 5    1  0.1059945E-009  0.9118800E+02  0.7815553E-02  0.1125453E+00
         25   -1    0    0    0    0  0.00000000000E+00  0.00000000000E+00  0.99999998245E-14  0.12509000000E+03  0.12509000000E+03 0.  0.
        -11    1    3    3    0    0 -0.10998901646E+02  0.35701605019E+02  0.40354071541E+02  0.54991195009E+02  0.51100000000E-03 0.  1.
         23    2    1    0    0    0  0.13589839125E+02  0.61499622443E+01  0.24137925608E+02  0.96714919107E+02  0.92458803595E+02 0.  0.
         11    1    3    3    0    0  0.24588740771E+02 -0.29551642775E+02 -0.16216145933E+02  0.41723724098E+02  0.51100000000E-03 0. -1.
         22    1    1    0    0    0 -0.13589839125E+02 -0.61499622443E+01 -0.24137925608E+02  0.28375080893E+02  0.00000000000E+00 0.  1.
</event>
<event>
 5    1  0.1059945E-009  0.9118800E+02  0.7815553E-02  0.1125453E+00
         25   -1    0    0    0    0  0.00000000000E+00  0.00000000000E+00  0.99999998245E-14  0.12509000000E+03  0.12509000000E+03 0.  0.
        -11    1    3    3    0    0 -0.17030393049E+02  0.54271499223E+02 -0.64666634529E+01  0.57247250168E+02  0.51100000000E-03 0.  1.
         23    2    1    0    0    0  0.95444094960E+01  0.30204148278E+02 -0.34153739694E+01  0.93230133315E+02  0.87617387845E+02 0.  0.
         11    1    3    3    0    0  0.26574802545E+02 -0.24067350945E+02  0.30512894835E+01  0.35982883147E+02  0.51100000000E-03 0. -1.
         22    1    1    0    0    0 -0.95444094960E+01 -0.30204148278E+02  0.34153739694E+01  0.31859866685E+02  0.00000000000E+00 0.  1.
</event>
<event>
 5    1  0.1059945E-009  0.9118800E+02  0.7815553E-02  0.1125453E+00
         25   -1    0    0    0    0  0.00000000000E+00  0.00000000000E+00  0.99999998245E-14  0.12509000000E+03  0.12509000000E+03 0.  0.
        -11    1    3    3    0    0 -0.38544827359E+02 -0.25282391059E+02  0.31021478660E+02  0.55562893664E+02  0.51100000000E-03 0. -1.
         23    2    1    0    0    0 -0.37894025046E+01 -0.10302243844E+02  0.29693445537E+02  0.93432512617E+02  0.87905846827E+02 0.  0.
         11    1    3    3    0    0  0.34755424854E+02  0.14980147215E+02 -0.13280331227E+01  0.37869618953E+02  0.51100000000E-03 0.  1.
         22    1    1    0    0    0  0.37894025046E+01  0.10302243844E+02 -0.29693445537E+02  0.31657487383E+02  0.00000000000E+00 0. -1.
</event>
<event>
 5    1  0.1059945E-009  0.9118800E+02  0.7815553E-02  0.1125453E+00
         25   -1    0    0    0    0  0.00000000000E+00  0.00000000000E+00  0.99999998245E-14  0.12509000000E+03  0.12509000000E+03 0.  0.
        -11    1    3    3    0    0 -0.82622947293E+01 -0.55978214270E+02  0.19138343294E+01  0.56617035856E+02  0.51100000000E-03 0.  1.
         23    2    1    0    0    0 -0.21903737625E+02 -0.19098751090E+02 -0.64720708007E+00  0.96021892182E+02  0.91516385888E+02 0.  0.
         11    1    3    3    0    0 -0.13641442896E+02  0.36879463180E+02 -0.25610414095E+01  0.39404856326E+02  0.51100000000E-03 0. -1.
         22    1    1    0    0    0  0.21903737625E+02  0.19098751090E+02  0.64720708007E+00  0.29068107818E+02  0.00000000000E+00 0.  1.
</event>
<event>
 5    1  0.1059945E-009  0.9118800E+02  0.7815553E-02  0.1125453E+00
         25   -1    0    0    0    0  0.00000000000E+00  0.00000000000E+00  0.99999998245E-14  0.12509000000E+03  0.12509000000E+03 0.  0.
        -11    1    3    3    0    0 -0.11973179748E+02 -0.18115988552E+02  0.28814212843E+02  0.36080534039E+02  0.51100000000E-03 0.  1.
         23    2    1    0    0    0  0.11354327762E+02 -0.30117127924E+01 -0.25457073347E+02  0.97053349767E+02  0.92915547379E+02 0.  0.
         11    1    3    3    0    0  0.23327507510E+02  0.15104275760E+02 -0.54271286190E+02  0.60972815728E+02  0.51100000000E-03 0. -1.
         22    1    1    0    0    0 -0.11354327762E+02  0.30117127924E+01  0.25457073347E+02  0.28036650233E+02  0.00000000000E+00 0. -1.
</event>
<event>
 5    1  0.1059945E-009  0.9118800E+02  0.7815553E-02  0.1125453E+00
         25   -1    0    0    0    0  0.00000000000E+00  0.00000000000E+00  0.99999998245E-14  0.12509000000E+03  0.12509000000E+03 0.  0.
        -11    1    3    3    0    0  0.21580480451E+02  0.33567552636E+02  0.44975189367E+02  0.60127076973E+02  0.51100000000E-03 0.  1.
         23    2    1    0    0    0  0.22986412068E+01  0.77359898142E+01  0.26733054424E+02  0.97165360546E+02  0.93066222666E+02 0.  0.
         11    1    3    3    0    0 -0.19281839244E+02 -0.25831562822E+02 -0.18242134943E+02  0.37038283573E+02  0.51100000000E-03 0. -1.
         22    1    1    0    0    0 -0.22986412068E+01 -0.77359898142E+01 -0.26733054424E+02  0.27924639454E+02  0.00000000000E+00 0.  1.
</event>
<event>
 5    1  0.1059945E-009  0.9118800E+02  0.7815553E-02  0.1125453E+00
         25   -1    0    0    0    0  0.00000000000E+00  0.00000000000E+00  0.99999998245E-14  0.12509000000E+03  0.12509000000E+03 0.  0.
        -11    1    3    3    0    0 -0.22423001205E+02 -0.41691852314E+02  0.31082889318E+02  0.56631683191E+02  0.51100000000E-03 0. -1.
         23    2    1    0    0    0  0.60165563074E+01 -0.27263435518E+02  0.21250511565E+02  0.90003277329E+02  0.82882518193E+02 0.  0.
         11    1    3    3    0    0  0.28439557512E+02  0.14428416796E+02 -0.98323777532E+01  0.33371594137E+02  0.51100000000E-03 0.  1.
         22    1    1    0    0    0 -0.60165563074E+01  0.27263435518E+02 -0.21250511565E+02  0.35086722671E+02  0.00000000000E+00 0. -1.
</event>
<event>
 5    1  0.1059945E-009  0.9118800E+02  0.7815553E-02  0.1125453E+00
         25   -1    0    0    0    0  0.00000000000E+00  0.00000000000E+00  0.99999998245E-14  0.12509000000E+03  0.12509000000E+03 0.  0.
        -11    1    3    3    0    0 -0.33430206448E+02 -0.24734338126E+02  0.39992021392E+02  0.57695129439E+02  0.51100000000E-03 0.  1.
         23    2    1    0    0    0 -0.48043329699E+01 -0.25162585685E+02  0.19032426101E+02  0.93176514184E+02  0.87540803163E+02 0.  0.
         11    1    3    3    0    0  0.28625873478E+02 -0.42824755977E+00 -0.20959595291E+02  0.35481384745E+02  0.51100000000E-03 0. -1.
         22    1    1    0    0    0  0.48043329699E+01  0.25162585685E+02 -0.19032426101E+02  0.31913485816E+02  0.00000000000E+00 0.  1.
</event>
<event>
 5    1  0.1059945E-009  0.9118800E+02  0.7815553E-02  0.1125453E+00
         25   -1    0    0    0    0  0.00000000000E+00  0.00000000000E+00  0.99999998245E-14  0.12509000000E+03  0.12509000000E+03 0.  0.
        -11    1    3    3    0    0 -0.43920207678E+02  0.61891154760E+01  0.65979244394E+01  0.44842194416E+02  0.51100000000E-03 0. -1.
         23    2    1    0    0    0  0.12685853811E+01  0.26614588847E+02 -0.92210382813E+01  0.96894730976E+02  0.92701756702E+02 0.  0.
         11    1    3    3    0    0  0.45188793059E+02  0.20425473370E+02 -0.15818962721E+02  0.52052536560E+02  0.51100000000E-03 0.  1.
         22    1    1    0    0    0 -0.12685853811E+01 -0.26614588847E+02  0.92210382813E+01  0.28195269024E+02  0.00000000000E+00 0. -1.
</event>
<event>
 5    1  0.1059945E-009  0.9118800E+02  0.7815553E-02  0.1125453E+00
         25   -1    0    0    0    0  0.00000000000E+00  0.00000000000E+00  0.99999998245E-14  0.12509000000E+03  0.12509000000E+03 0.  0.
        -11    1    3    3    0    0  0.29085677150E+02 -0.14750728544E+02  0.18563606532E+02  0.37525565893E+02  0.51100000000E-03 0.  1.
         23    2    1    0    0    0 -0.20173266943E+02 -0.20177200513E+02 -0.10157521383E+02  0.94803776063E+02  0.89835964933E+02 0.  0.
         11    1    3    3    0    0 -0.49258944094E+02 -0.54264719692E+01 -0.28721127915E+02  0.57278210170E+02  0.51100000000E-03 0. -1.
         22    1    1    0    0    0  0.20173266943E+02  0.20177200513E+02  0.10157521383E+02  0.30286223937E+02  0.00000000000E+00 0. -1.
</event>
<event>
 5    1  0.1059945E-009  0.9118800E+02  0.7815553E-02  0.1125453E+00
         25   -1    0    0    0    0  0.00000000000E+00  0.00000000000E+00  0.99999998245E-14  0.12509000000E+03  0.12509000000E+03 0.  0.
        -11    1    3    3    0    0 -0.12626635967E+02 -0.37524058423E+02 -0.35697831717E+02  0.53308743053E+02  0.51100000000E-03 0. -1.
         23    2    1    0    0    0 -0.26833172880E+02 -0.81508742495E+01 -0.84995804971E+01  0.95786437308E+02  0.91193984372E+02 0.  0.
         11    1    3    3    0    0 -0.14206536913E+02  0.29373184173E+02  0.27198251220E+02  0.42477694255E+02  0.51100000000E-03 0.  1.
         22    1    1    0    0    0  0.26833172880E+02  0.81508742495E+01  0.84995804971E+01  0.29303562692E+02  0.00000000000E+00 0. -1.
</event>
<event>
 5    1  0.1059945E-009  0.9118800E+02  0.7815553E-02  0.1125453E+00
         25   -1    0    0    0    0  0.00000000000E+00  0.00000000000E+00  0.99999998245E-14  0.12509000000E+03  0.12509000000E+03 0.  0.
        -11    1    3    3    0    0 -0.27115042174E+02  0.38955422274E+02  0.37483687410E+02  0.60479560669E+02  0.51100000000E-03 0. -1.
         23    2    1    0    0    0 -0.15372338531E+02  0.22501569352E+02  0.71763536123E+01  0.96909697191E+02  0.92721949631E+02 0.  0.
         11    1    3    3    0    0  0.11742703643E+02 -0.16453852922E+02 -0.30307333798E+02  0.36430136522E+02  0.51100000000E-03 0.  1.
         22    1    1    0    0    0  0.15372338531E+02 -0.22501569352E+02 -0.71763536123E+01  0.28180302809E+02  0.00000000000E+00 0. -1.
</event>
<event>
 5    1  0.1059945E-009  0.9118800E+02  0.7815553E-02  0.1125453E+00
         25   -1    0    0    0    0  0.00000000000E+00  0.00000000000E+00  0.99999998245E-14  0.12509000000E+03  0.12509000000E+03 0.  0.
        -11    1    3    3    0    0  0.38909030087E+02 -0.24384172941E+02 -0.39023982299E+02  0.60260863810E+02  0.51100000000E-03 0.  1.
         23    2    1    0    0    0  0.19401892167E+02 -0.14534128607E+00 -0.22107490315E+02  0.95675791328E+02  0.91042085732E+02 0.  0.
         11    1    3    3    0    0 -0.19507137920E+02  0.24238831655E+02  0.16916491984E+02  0.35414927518E+02  0.51100000000E-03 0. -1.
         22    1    1    0    0    0 -0.19401892167E+02  0.14534128607E+00  0.22107490315E+02  0.29414208672E+02  0.00000000000E+00 0.  1.
</event>
<event>
 5    1  0.1059945E-009  0.9118800E+02  0.7815553E-02  0.1125453E+00
         25   -1    0    0    0    0  0.00000000000E+00  0.00000000000E+00  0.99999998245E-14  0.12509000000E+03  0.12509000000E+03 0.  0.
        -11    1    3    3    0    0 -0.28102744096E+02 -0.15798246996E+01  0.41529323832E+02  0.50169161942E+02  0.51100000000E-03 0.  1.
         23    2    1    0    0    0  0.93216379247E+01 -0.18001253635E+02  0.20991658430E+02  0.95908022862E+02  0.91360610001E+02 0.  0.
         11    1    3    3    0    0  0.37424382020E+02 -0.16421428935E+02 -0.20537665402E+02  0.45738860920E+02  0.51100000000E-03 0. -1.
         22    1    1    0    0    0 -0.93216379247E+01  0.18001253635E+02 -0.20991658430E+02  0.29181977138E+02  0.00000000000E+00 0. -1.
</event>
<event>
 5    1  0.1059945E-009  0.9118800E+02  0.7815553E-02  0.1125453E+00
         25   -1    0    0    0    0  0.00000000000E+00  0.00000000000E+00  0.99999998245E-14  0.12509000000E+03  0.12509000000E+03 0.  0.
        -11    1    3    3    0    0 -0.32982808567E+02  0.85042358059E+01 -0.88749472196E+01  0.35198755319E+02  0.51100000000E-03 0. -1.
         23    2    1    0    0    0  0.26144807996E+02 -0.91035045806E+01 -0.44425954655E+01  0.97051429507E+02  0.92912962143E+02 0.  0.
         11    1    3    3    0    0  0.59127616563E+02 -0.17607740387E+02  0.44323517541E+01  0.61852674188E+02  0.51100000000E-03 0.  1.
         22    1    1    0    0    0 -0.26144807996E+02  0.91035045806E+01  0.44425954655E+01  0.28038570493E+02  0.00000000000E+00 0.  1.
</event>
<event>
 5    1  0.1059945E-009  0.9118800E+02  0.7815553E-02  0.1125453E+00
         25   -1    0    0    0    0  0.00000000000E+00  0.00000000000E+00  0.99999998245E-14  0.12509000000E+03  0.12509000000E+03 0.  0.
        -11    1    3    3    0    0 -0.40454577926E+02 -0.39302747009E+02 -0.23397013387E+02  0.61063074221E+02  0.51100000000E-03 0. -1.
         23    2    1    0    0    0 -0.22300195191E+02 -0.19736301506E+02 -0.20515915696E+01  0.95239885584E+02  0.90441176880E+02 0.  0.
         11    1    3    3    0    0  0.18154382735E+02  0.19566445504E+02  0.21345421817E+02  0.34176811363E+02  0.51100000000E-03 0.  1.
         22    1    1    0    0    0  0.22300195191E+02  0.19736301506E+02  0.20515915696E+01  0.29850114416E+02  0.00000000000E+00 0. -1.
</event>
<event>
 5    1  0.1059945E-009  0.9118800E+02  0.7815553E-02  0.1125453E+00
         25   -1    0    0    0    0  0.00000000000E+00  0.00000000000E+00  0.99999998245E-14  0.12509000000E+03  0.12509000000E+03 0.  0.
        -11    1    3    3    0    0 -0.71835123355E+01 -0.29357044592E+01 -0.51727377556E+02  0.52306240538E+02  0.51100000000E-03 0. -1.
         23    2    1    0    0    0  0.21716241396E+02  0.11638504302E+01 -0.18454987898E+02  0.96567442847E+02  0.92259063248E+02 0.  0.
         11    1    3    3    0    0  0.28899753732E+02  0.40995548894E+01  0.33272389658E+02  0.44261202309E+02  0.51100000000E-03 0.  1.
         22    1    1    0    0    0 -0.21716241396E+02 -0.11638504302E+01  0.18454987898E+02  0.28522557153E+02  0.00000000000E+00 0. -1.
</event>
<event>
 5    1  0.1059945E-009  0.9118800E+02  0.7815553E-02  0.1125453E+00
         25   -1    0    0    0    0  0.00000000000E+00  0.00000000000E+00  0.99999998245E-14  0.12509000000E+03  0.12509000000E+03 0.  0.
        -11    1    3    3    0    0  0.30752441751E+02 -0.32161607355E+02 -0.42428725964E+02  0.61483969037E+02  0.51100000000E-03 0.  1.
         23    2    1    0    0    0  0.13866510843E+02 -0.20129653555E+02 -0.13229132005E+02  0.97296241549E+02  0.93241973438E+02 0.  0.
         11    1    3    3    0    0 -0.16885930908E+02  0.12031953799E+02  0.29199593959E+02  0.35812272512E+02  0.51100000000E-03 0. -1.
         22    1    1    0    0    0 -0.13866510843E+02  0.20129653555E+02  0.13229132005E+02  0.27793758451E+02  0.00000000000E+00 0.  1.
</event>
<event>
 5    1  0.1059945E-009  0.9118800E+02  0.7815553E-02  0.1125453E+00
         25   -1    0    0    0    0  0.00000000000E+00  0.00000000000E+00  0.99999998245E-14  0.12509000000E+03  0.12509000000E+03 0.  0.
        -11    1    3    3    0    0 -0.23312009819E+02  0.77187829967E+01  0.25092497343E+02  0.35109298425E+02  0.51100000000E-03 0. -1.
         23    2    1    0    0    0  0.76620458287E+01  0.45754183933E+01 -0.27473656060E+02  0.96203269880E+02  0.91763968738E+02 0.  0.
         11    1    3    3    0    0  0.30974055648E+02 -0.31433646034E+01 -0.52566153402E+02  0.61093971455E+02  0.51100000000E-03 0.  1.
         22    1    1    0    0    0 -0.76620458287E+01 -0.45754183933E+01  0.27473656060E+02  0.28886730120E+02  0.00000000000E+00 0.  1.
</event>
<event>
 5    1  0.1059945E-009  0.9118800E+02  0.7815553E-02  0.1125453E+00
         25   -1    0    0    0    0  0.00000000000E+00  0.00000000000E+00  0.99999998245E-14  0.12509000000E+03  0.12509000000E+03 0.  0.
        -11    1    3    3    0    0 -0.31599673907E+02 -0.19681355175E+02  0.76298048440E+01  0.38001434904E+02  0.51100000000E-03 0.  1.
         23    2    1    0    0    0  0.25174835934E+02 -0.15428251328E+02 -0.78342893624E+00  0.95553292935E+02  0.90873619530E+02 0.  0.
         11    1    3    3    0    0  0.56774509840E+02  0.42531038473E+01 -0.84132337803E+01  0.57551858031E+02  0.51100000000E-03 0. -1.
         22    1    1    0    0    0 -0.25174835934E+02  0.15428251328E+02  0.78342893624E+00  0.29536707065E+02  0.00000000000E+00 0. -1.
</event>
<event>
 5    1  0.1059945E-009  0.9118800E+02  0.7815553E-02  0.1125453E+00
         25   -1    0    0    0    0  0.00000000000E+00  0.00000000000E+00  0.99999998245E-14  0.12509000000E+03  0.12509000000E+03 0.  0.
        -11    1    3    3    0    0 -0.20322512761E+02 -0.43690019918E+01 -0.23012023993E+02  0.31010416828E+02  0.51100000000E-03 0. -1.
         23    2    1    0    0    0  0.32467500569E+01 -0.12530759737E+02  0.31541553487E+02  0.90995558783E+02  0.84366822842E+02 0.  0.
         11    1    3    3    0    0  0.23569262818E+02 -0.81617577449E+01  0.54553577480E+02  0.59985141955E+02  0.51100000000E-03 0.  1.
         22    1    1    0    0    0 -0.32467500569E+01  0.12530759737E+02 -0.31541553487E+02  0.34094441217E+02  0.00000000000E+00 0.  1.
</event>
<event>
 5    1  0.1059945E-009  0.9118800E+02  0.7815553E-02  0.1125453E+00
         25   -1    0    0    0    0  0.00000000000E+00  0.00000000000E+00  0.99999998245E-14  0.12509000000E+03  0.12509000000E+03 0.  0.
        -11    1    3    3    0    0  0.29602486589E+02  0.43513203494E+02 -0.31949835923E+02  0.61567021256E+02  0.51100000000E-03 0. -1.
         23    2    1    0    0    0  0.66887361026E+01  0.18031535670E+02 -0.18571431529E+02  0.98354751015E+02  0.94651378801E+02 0.  0.
         11    1    3    3    0    0 -0.22913750486E+02 -0.25481667825E+02  0.13378404394E+02  0.36787729759E+02  0.51100000000E-03 0.  1.
         22    1    1    0    0    0 -0.66887361026E+01 -0.18031535670E+02  0.18571431529E+02  0.26735248985E+02  0.00000000000E+00 0. -1.
</event>
<event>
 5    1  0.1059945E-009  0.9118800E+02  0.7815553E-02  0.1125453E+00
         25   -1    0    0    0    0  0.00000000000E+00  0.00000000000E+00  0.99999998245E-14  0.12509000000E+03  0.12509000000E+03 0.  0.
        -11    1    3    3    0    0 -0.26768871330E+02 -0.66533233593E+01 -0.27744700379E+02  0.39122980247E+02  0.51100000000E-03 0. -1.
         23    2    1    0    0    0 -0.13210041291E+02 -0.34153500156E+01  0.26582554859E+02  0.95210207004E+02  0.90400118852E+02 0.  0.
         11    1    3    3    0    0  0.13558830039E+02  0.32379733438E+01  0.54327255238E+02  0.56087226758E+02  0.51100000000E-03 0.  1.
         22    1    1    0    0    0  0.13210041291E+02  0.34153500156E+01 -0.26582554859E+02  0.29879792996E+02  0.00000000000E+00 0.  1.
</event>
<event>
 5    1  0.1059945E-009  0.9118800E+02  0.7815553E-02  0.1125453E+00
         25   -1    0    0    0    0  0.00000000000E+00  0.00000000000E+00  0.99999998245E-14  0.12509000000E+03  0.12509000000E+03 0.  0.
        -11    1    3    3    0    0 -0.34398130090E+02  0.32238740406E+02 -0.32233928734E+02  0.57110365947E+02  0.51100000000E-03 0.  1.
         23    2    1    0    0    0 -0.21303718245E+00  0.23972525263E+02 -0.18257131665E+02  0.94956128543E+02  0.90047854716E+02 0.  0.
         11    1    3    3    0    0  0.34185092908E+02 -0.82662151435E+01  0.13976797069E+02  0.37845762596E+02  0.51100000000E-03 0. -1.
         22    1    1    0    0    0  0.21303718245E+00 -0.23972525263E+02  0.18257131665E+02  0.30133871457E+02  0.00000000000E+00 0.  1.
</event>
<event>
 5    1  0.1059945E-009  0.9118800E+02  0.7815553E-02  0.1125453E+00
         25   -1    0    0    0    0  0.00000000000E+00  0.00000000000E+00  0.99999998245E-14  0.12509000000E+03  0.12509000000E+03 0.  0.
        -11    1    3    3    0    0  0.73126231267E+01 -0.22305885237E+02 -0.23095278099E+02  0.32930515391E+02  0.51100000000E-03 0. -1.
         23    2    1    0    0    0 -0.12852371987E+02  0.19409129356E+02  0.18623689996E+02  0.95278264104E+02  0.90494242986E+02 0.  0.
         11    1    3    3    0    0 -0.20164995114E+02  0.41715014593E+02  0.41718968095E+02  0.62347748713E+02  0.51100000000E-03 0.  1.
         22    1    1    0    0    0  0.12852371987E+02 -0.19409129356E+02 -0.18623689996E+02  0.29811735896E+02  0.00000000000E+00 0.  1.
</event>
<event>
 5    1  0.1059945E-009  0.9118800E+02  0.7815553E-02  0.1125453E+00
         25   -1    0    0    0    0  0.00000000000E+00  0.00000000000E+00  0.99999998245E-14  0.12509000000E+03  0.12509000000E+03 0.  0.
        -11    1    3    3    0    0 -0.34875723555E+02  0.13781655172E+02 -0.46274304148E+02  0.59561408121E+02  0.51100000000E-03 0.  1.
         23    2    1    0    0    0 -0.25691612384E+02  0.86768318859E+01 -0.11952842994E+02  0.95455276885E+02  0.90738597472E+02 0.  0.
         11    1    3    3    0    0  0.91841111705E+01 -0.51048232863E+01  0.34321461155E+02  0.35893868764E+02  0.51100000000E-03 0. -1.
         22    1    1    0    0    0  0.25691612384E+02 -0.86768318859E+01  0.11952842994E+02  0.29634723115E+02  0.00000000000E+00 0.  1.
</event>
<event>
 5    1  0.1059945E-009  0.9118800E+02  0.7815553E-02  0.1125453E+00
         25   -1    0    0    0    0  0.00000000000E+00  0.00000000000E+00  0.99999998245E-14  0.12509000000E+03  0.12509000000E+03 0.  0.
        -11    1    3    3    0    0  0.13868692717E+02  0.28144192261E+01  0.43545580391E+02  0.45787325376E+02  0.51100000000E-03 0. -1.
         23    2    1    0    0    0  0.30649365657E+02 -0.20804261328E+01 -0.17313640968E+01  0.94321356713E+02  0.89161700984E+02 0.  0.
         11    1    3    3    0    0  0.16780672940E+02 -0.48948453588E+01 -0.45276944488E+02  0.48534031337E+02  0.51100000000E-03 0.  1.
         22    1    1    0    0    0 -0.30649365657E+02  0.20804261328E+01  0.17313640968E+01  0.30768643287E+02  0.00000000000E+00 0. -1.
</event>
<event>
 5    1  0.1059945E-009  0.9118800E+02  0.7815553E-02  0.1125453E+00
         25   -1    0    0    0    0  0.00000000000E+00  0.00000000000E+00  0.99999998245E-14  0.12509000000E+03  0.12509000000E+03 0.  0.
        -11    1    3    3    0    0 -0.39234971651E+02  0.41397589575E+02  0.10503312220E+02  0.57995370427E+02  0.51100000000E-03 0. -1.
         23    2    1    0    0    0 -0.14042200778E+02  0.23006744212E+02 -0.11103014976E+02  0.95939174566E+02  0.91403252639E+02 0.  0.
         11    1    3    3    0    0  0.25192770873E+02 -0.18390845363E+02 -0.21606327196E+02  0.37943804139E+02  0.51100000000E-03 0.  1.
         22    1    1    0    0    0  0.14042200778E+02 -0.23006744212E+02  0.11103014976E+02  0.29150825434E+02  0.00000000000E+00 0. -1.
</event>
<event>
 5    1  0.1059945E-009  0.9118800E+02  0.7815553E-02  0.1125453E+00
         25   -1    0    0    0    0  0.00000000000E+00  0.00000000000E+00  0.99999998245E-14  0.12509000000E+03  0.12509000000E+03 0.  0.
        -11    1    3    3    0    0 -0.23708827622E+01 -0.25020983913E+02 -0.19269282737E+02  0.31669795997E+02  0.51100000000E-03 0. -1.
         23    2    1    0    0    0  0.13110548021E+02 -0.22105911398E-01  0.31852505275E+02  0.90644839957E+02  0.83845202371E+02 0.  0.
         11    1    3    3    0    0  0.15481430783E+02  0.24998878001E+02  0.51121788012E+02  0.58975043961E+02  0.51100000000E-03 0.  1.
         22    1    1    0    0    0 -0.13110548021E+02  0.22105911398E-01 -0.31852505275E+02  0.34445160043E+02  0.00000000000E+00 0.  1.
</event>
<event>
 5    1  0.1059945E-009  0.9118800E+02  0.7815553E-02  0.1125453E+00
         25   -1    0    0    0    0  0.00000000000E+00  0.00000000000E+00  0.99999998245E-14  0.12509000000E+03  0.12509000000E+03 0.  0.
        -11    1    3    3    0    0 -0.21095745018E+02  0.48938140242E+02  0.20918209739E+02  0.57249834298E+02  0.51100000000E-03 0.  1.
         23    2    1    0    0    0 -0.23357232896E+02  0.10512517856E+02  0.12210011403E+02  0.96714698439E+02  0.92458505046E+02 0.  0.
         11    1    3    3    0    0 -0.22614878785E+01 -0.38425622385E+02 -0.87081983362E+01  0.39464864141E+02  0.51100000000E-03 0. -1.
         22    1    1    0    0    0  0.23357232896E+02 -0.10512517856E+02 -0.12210011403E+02  0.28375301561E+02  0.00000000000E+00 0.  1.
</event>
<event>
 5    1  0.1059945E-009  0.9118800E+02  0.7815553E-02  0.1125453E+00
         25   -1    0    0    0    0  0.00000000000E+00  0.00000000000E+00  0.99999998245E-14  0.12509000000E+03  0.12509000000E+03 0.  0.
        -11    1    3    3    0    0  0.40999825181E+02 -0.24982985782E+02  0.73205361901E+01  0.48566711787E+02  0.51100000000E-03 0. -1.
         23    2    1    0    0    0 -0.68641695887E+00 -0.20373660424E+02 -0.18285090935E+02  0.97705665832E+02  0.93789633638E+02 0.  0.
         11    1    3    3    0    0 -0.41686242140E+02  0.46093253580E+01 -0.25605627125E+02  0.49138954045E+02  0.51100000000E-03 0.  1.
         22    1    1    0    0    0  0.68641695887E+00  0.20373660424E+02  0.18285090935E+02  0.27384334168E+02  0.00000000000E+00 0.  1.
</event>
<event>
 5    1  0.1059945E-009  0.9118800E+02  0.7815553E-02  0.1125453E+00
         25   -1    0    0    0    0  0.00000000000E+00  0.00000000000E+00  0.99999998245E-14  0.12509000000E+03  0.12509000000E+03 0.  0.
        -11    1    3    3    0    0 -0.21568749762E+01 -0.63724421006E+00  0.28262269218E+02  0.28351614619E+02  0.51100000000E-03 0. -1.
         23    2    1    0    0    0  0.17799990371E+02  0.75446479344E+01 -0.29392768270E+02  0.89909093300E+02  0.82740249346E+02 0.  0.
         11    1    3    3    0    0  0.19956865347E+02  0.81818921444E+01 -0.57655037488E+02  0.61557478681E+02  0.51100000000E-03 0.  1.
         22    1    1    0    0    0 -0.17799990371E+02 -0.75446479344E+01  0.29392768270E+02  0.35180906700E+02  0.00000000000E+00 0.  1.
</event>
<event>
 5    1  0.1059945E-009  0.9118800E+02  0.7815553E-02  0.1125453E+00
         25   -1    0    0    0    0  0.00000000000E+00  0.00000000000E+00  0.99999998245E-14  0.12509000000E+03  0.12509000000E+03 0.  0.
        -11    1    3    3    0    0 -0.12516996556E+02  0.11101567835E+02  0.30666444621E+02  0.34933520251E+02  0.51100000000E-03 0.  1.
         23    2    1    0    0    0 -0.10710589608E+02 -0.20367619484E+01 -0.27980087867E+02  0.95060840071E+02  0.90193197465E+02 0.  0.
         11    1    3    3    0    0  0.18064069474E+01 -0.13138329783E+02 -0.58646532488E+02  0.60127319820E+02  0.51100000000E-03 0. -1.
         22    1    1    0    0    0  0.10710589608E+02  0.20367619484E+01  0.27980087867E+02  0.30029159929E+02  0.00000000000E+00 0. -1.
</event>
<event>
 5    1  0.1059945E-009  0.9118800E+02  0.7815553E-02  0.1125453E+00
         25   -1    0    0    0    0  0.00000000000E+00  0.00000000000E+00  0.99999998245E-14  0.12509000000E+03  0.12509000000E+03 0.  0.
        -11    1    3    3    0    0  0.21069038017E+02  0.24873636767E+01 -0.30477024362E+02  0.37134086164E+02  0.51100000000E-03 0. -1.
         23    2    1    0    0    0 -0.16265046952E+02 -0.67828957305E+01  0.18584687860E+02  0.99478478185E+02  0.96125010129E+02 0.  0.
         11    1    3    3    0    0 -0.37334084969E+02 -0.92702594072E+01  0.49061712222E+02  0.62344392020E+02  0.51100000000E-03 0.  1.
         22    1    1    0    0    0  0.16265046952E+02  0.67828957305E+01 -0.18584687860E+02  0.25611521815E+02  0.00000000000E+00 0.  1.
</event>
<event>
 5    1  0.1059945E-009  0.9118800E+02  0.7815553E-02  0.1125453E+00
         25   -1    0    0    0    0  0.00000000000E+00  0.00000000000E+00  0.99999998245E-14  0.12509000000E+03  0.12509000000E+03 0.  0.
        -11    1    3    3    0    0  0.17530076666E+02 -0.34058625291E+02  0.73333430853E+01  0.39000916216E+02  0.51100000000E-03 0.  1.
         23    2    1    0    0    0  0.10531135490E+01 -0.20027429492E+01 -0.32379839532E+02  0.92631194791E+02  0.86758078661E+02 0.  0.
         11    1    3    3    0    0 -0.16476963117E+02  0.32055882341E+02 -0.39713182617E+02  0.53630278576E+02  0.51100000000E-03 0. -1.
         22    1    1    0    0    0 -0.10531135490E+01  0.20027429492E+01  0.32379839532E+02  0.32458805209E+02  0.00000000000E+00 0. -1.
</event>
<event>
 5    1  0.1059945E-009  0.9118800E+02  0.7815553E-02  0.1125453E+00
         25   -1    0    0    0    0  0.00000000000E+00  0.00000000000E+00  0.99999998245E-14  0.12509000000E+03  0.12509000000E+03 0.  0.
        -11    1    3    3    0    0  0.11648684076E+02 -0.32676234797E+02  0.99908738052E+01  0.36100494745E+02  0.51100000000E-03 0.  1.
         23    2    1    0    0    0 -0.40846989556E+01  0.10191488676E+02 -0.27689265044E+02  0.95303314960E+02  0.90528864108E+02 0.  0.
         11    1    3    3    0    0 -0.15733383032E+02  0.42867723473E+02 -0.37680138850E+02  0.59202820214E+02  0.51100000000E-03 0. -1.
         22    1    1    0    0    0  0.40846989556E+01 -0.10191488676E+02  0.27689265044E+02  0.29786685040E+02  0.00000000000E+00 0. -1.
</event>
<event>
 5    1  0.1059945E-009  0.9118800E+02  0.7815553E-02  0.1125453E+00
         25   -1    0    0    0    0  0.00000000000E+00  0.00000000000E+00  0.99999998245E-14  0.12509000000E+03  0.12509000000E+03 0.  0.
        -11    1    3    3    0    0 -0.10272930986E+02 -0.42767254133E+02  0.32822587635E+01  0.44106058087E+02  0.51100000000E-03 0.  1.
         23    2    1    0    0    0 -0.98890986308E+01  0.16643047914E+01 -0.25934405524E+02  0.97284288859E+02  0.93225936770E+02 0.  0.
         11    1    3    3    0    0  0.38383235515E+00  0.44431558924E+02 -0.29216664288E+02  0.53178230772E+02  0.51100000000E-03 0. -1.
         22    1    1    0    0    0  0.98890986308E+01 -0.16643047914E+01  0.25934405524E+02  0.27805711141E+02  0.00000000000E+00 0. -1.
</event>
<event>
 5    1  0.1059945E-009  0.9118800E+02  0.7815553E-02  0.1125453E+00
         25   -1    0    0    0    0  0.00000000000E+00  0.00000000000E+00  0.99999998245E-14  0.12509000000E+03  0.12509000000E+03 0.  0.
        -11    1    3    3    0    0  0.33040448700E+02 -0.41407534603E+02  0.25752213875E+02  0.58901881904E+02  0.51100000000E-03 0.  1.
         23    2    1    0    0    0  0.25806809017E+02 -0.20285001152E+02  0.98041052673E+00  0.92250483131E+02  0.86207411339E+02 0.  0.
         11    1    3    3    0    0 -0.72336396828E+01  0.21122533451E+02 -0.24771803348E+02  0.33348601227E+02  0.51100000000E-03 0. -1.
         22    1    1    0    0    0 -0.25806809017E+02  0.20285001152E+02 -0.98041052673E+00  0.32839516869E+02  0.00000000000E+00 0.  1.
</event>
<event>
 5    1  0.1059945E-009  0.9118800E+02  0.7815553E-02  0.1125453E+00
         25   -1    0    0    0    0  0.00000000000E+00  0.00000000000E+00  0.99999998245E-14  0.12509000000E+03  0.12509000000E+03 0.  0.
        -11    1    3    3    0    0 -0.35551220599E+02 -0.43339633963E+02 -0.12234966903E+02  0.57375147699E+02  0.51100000000E-03 0. -1.
         23    2    1    0    0    0 -0.14223420902E+02 -0.13255853272E+02 -0.22204777546E+02  0.95576011892E+02  0.90904887411E+02 0.  0.
         11    1    3    3    0    0  0.21327799697E+02  0.30083780691E+02 -0.99698106436E+01  0.38200864193E+02  0.51100000000E-03 0.  1.
         22    1    1    0    0    0  0.14223420902E+02  0.13255853272E+02  0.22204777546E+02  0.29513988108E+02  0.00000000000E+00 0. -1.
</event>
<event>
 5    1  0.1059945E-009  0.9118800E+02  0.7815553E-02  0.1125453E+00
         25   -1    0    0    0    0  0.00000000000E+00  0.00000000000E+00  0.99999998245E-14  0.12509000000E+03  0.12509000000E+03 0.  0.
        -11    1    3    3    0    0 -0.52285418688E+01 -0.47184436301E+02  0.11093184375E+02  0.48752101688E+02  0.51100000000E-03 0. -1.
         23    2    1    0    0    0 -0.27244099893E+02 -0.53132287149E+01  0.81999958728E+01  0.96146757081E+02  0.91686899754E+02 0.  0.
         11    1    3    3    0    0 -0.22015558025E+02  0.41871207586E+02 -0.28931885019E+01  0.47394655393E+02  0.51100000000E-03 0.  1.
         22    1    1    0    0    0  0.27244099893E+02  0.53132287149E+01 -0.81999958728E+01  0.28943242919E+02  0.00000000000E+00 0.  1.
</event>
<event>
 5    1  0.1059945E-009  0.9118800E+02  0.7815553E-02  0.1125453E+00
         25   -1    0    0    0    0  0.00000000000E+00  0.00000000000E+00  0.99999998245E-14  0.12509000000E+03  0.12509000000E+03 0.  0.
        -11    1    3    3    0    0  0.17793336557E+02 -0.54645982761E+02  0.23636841509E+01  0.57518460174E+02  0.51100000000E-03 0.  1.
         23    2    1    0    0    0  0.20537141202E+02 -0.17294503135E+02 -0.91891318325E+01  0.96711942433E+02  0.92454776285E+02 0.  0.
         11    1    3    3    0    0  0.27438046450E+01  0.37351479626E+02 -0.11552815983E+02  0.39193482259E+02  0.51100000000E-03 0. -1.
         22    1    1    0    0    0 -0.20537141202E+02  0.17294503135E+02  0.91891318325E+01  0.28378057567E+02  0.00000000000E+00 0.  1.
</event>
<event>
 5    1  0.1059945E-009  0.9118800E+02  0.7815553E-02  0.1125453E+00
         25   -1    0    0    0    0  0.00000000000E+00  0.00000000000E+00  0.99999998245E-14  0.12509000000E+03  0.12509000000E+03 0.  0.
        -11    1    3    3    0    0 -0.35958034406E+02 -0.39843130512E+02 -0.18986568179E+02  0.56929298774E+02  0.51100000000E-03 0. -1.
         23    2    1    0    0    0 -0.61072136588E+01 -0.16046664492E+02 -0.24156942615E+02  0.95453006622E+02  0.90735467689E+02 0.  0.
         11    1    3    3    0    0  0.29850820747E+02  0.23796466020E+02 -0.51703744354E+01  0.38523707848E+02  0.51100000000E-03 0.  1.
         22    1    1    0    0    0  0.61072136588E+01  0.16046664492E+02  0.24156942615E+02  0.29636993378E+02  0.00000000000E+00 0. -1.
</event>
<event>
 5    1  0.1059945E-009  0.9118800E+02  0.7815553E-02  0.1125453E+00
         25   -1    0    0    0    0  0.00000000000E+00  0.00000000000E+00  0.99999998245E-14  0.12509000000E+03  0.12509000000E+03 0.  0.
        -11    1    3    3    0    0  0.54279161178E+02  0.10504074382E+02 -0.24546315321E+01  0.55340655336E+02  0.51100000000E-03 0.  1.
         23    2    1    0    0    0  0.18367094098E+02  0.19828429070E+02  0.12458933763E+02  0.95328585794E+02  0.90563775838E+02 0.  0.
         11    1    3    3    0    0 -0.35912067079E+02  0.93243546886E+01  0.14913565295E+02  0.39987930458E+02  0.51100000000E-03 0. -1.
         22    1    1    0    0    0 -0.18367094098E+02 -0.19828429070E+02 -0.12458933763E+02  0.29761414206E+02  0.00000000000E+00 0.  1.
</event>
<event>
 5    1  0.1059945E-009  0.9118800E+02  0.7815553E-02  0.1125453E+00
         25   -1    0    0    0    0  0.00000000000E+00  0.00000000000E+00  0.99999998245E-14  0.12509000000E+03  0.12509000000E+03 0.  0.
        -11    1    3    3    0    0 -0.38389428270E+02  0.27044412842E+02  0.28080988386E+02  0.54714626727E+02  0.51100000000E-03 0.  1.
         23    2    1    0    0    0 -0.26159308871E+02 -0.78612294070E+01  0.90150808081E+01  0.96325785247E+02  0.91930826457E+02 0.  0.
         11    1    3    3    0    0  0.12230119400E+02 -0.34905642249E+02 -0.19065907578E+02  0.41611158520E+02  0.51100000000E-03 0. -1.
         22    1    1    0    0    0  0.26159308871E+02  0.78612294070E+01 -0.90150808081E+01  0.28764214753E+02  0.00000000000E+00 0.  1.
</event>
<event>
 5    1  0.1059945E-009  0.9118800E+02  0.7815553E-02  0.1125453E+00
         25   -1    0    0    0    0  0.00000000000E+00  0.00000000000E+00  0.99999998245E-14  0.12509000000E+03  0.12509000000E+03 0.  0.
        -11    1    3    3    0    0 -0.12949670114E+02  0.34829076556E+02  0.16464403264E+02  0.40642774326E+02  0.51100000000E-03 0. -1.
         23    2    1    0    0    0  0.17613002759E+02  0.92976222878E+01 -0.21584051314E+02  0.95721055220E+02  0.91104256184E+02 0.  0.
         11    1    3    3    0    0  0.30562672872E+02 -0.25531454268E+02 -0.38048454578E+02  0.55078280894E+02  0.51100000000E-03 0.  1.
         22    1    1    0    0    0 -0.17613002759E+02 -0.92976222878E+01  0.21584051314E+02  0.29368944780E+02  0.00000000000E+00 0. -1.
</event>
<event>
 5    1  0.1059945E-009  0.9118800E+02  0.7815553E-02  0.1125453E+00
         25   -1    0    0    0    0  0.00000000000E+00  0.00000000000E+00  0.99999998245E-14  0.12509000000E+03  0.12509000000E+03 0.  0.
        -11    1    3    3    0    0  0.22084358333E+02  0.21751166261E+02 -0.15443305301E+02  0.34631312357E+02  0.51100000000E-03 0.  1.
         23    2    1    0    0    0 -0.10723142558E+02 -0.27258964555E+02  0.73896618979E+00  0.95788412910E+02  0.91196694249E+02 0.  0.
         11    1    3    3    0    0 -0.32807500891E+02 -0.49010130816E+02  0.16182271490E+02  0.61157100554E+02  0.51100000000E-03 0. -1.
         22    1    1    0    0    0  0.10723142558E+02  0.27258964555E+02 -0.73896618979E+00  0.29301587090E+02  0.00000000000E+00 0. -1.
</event>
<event>
 5    1  0.1059945E-009  0.9118800E+02  0.7815553E-02  0.1125453E+00
         25   -1    0    0    0    0  0.00000000000E+00  0.00000000000E+00  0.99999998245E-14  0.12509000000E+03  0.12509000000E+03 0.  0.
        -11    1    3    3    0    0  0.13580778132E+01 -0.34171534296E+02 -0.14745345514E+02  0.37241956797E+02  0.51100000000E-03 0. -1.
         23    2    1    0    0    0 -0.21489731233E+01  0.45466584797E+01  0.28937247989E+02  0.95719019254E+02  0.91101460674E+02 0.  0.
         11    1    3    3    0    0 -0.35070509365E+01  0.38718192776E+02  0.43682593503E+02  0.58477062456E+02  0.51100000000E-03 0.  1.
         22    1    1    0    0    0  0.21489731233E+01 -0.45466584797E+01 -0.28937247989E+02  0.29370980746E+02  0.00000000000E+00 0. -1.
</event>
<event>
 5    1  0.1059945E-009  0.9118800E+02  0.7815553E-02  0.1125453E+00
         25   -1    0    0    0    0  0.00000000000E+00  0.00000000000E+00  0.99999998245E-14  0.12509000000E+03  0.12509000000E+03 0.  0.
        -11    1    3    3    0    0  0.20468614825E+02 -0.16196925782E+02  0.25419664597E+02  0.36434378630E+02  0.51100000000E-03 0.  1.
         23    2    1    0    0    0 -0.27150024568E+01  0.27221060110E+02 -0.87685031148E+01  0.96362939608E+02  0.91981368392E+02 0.  0.
         11    1    3    3    0    0 -0.23183617282E+02  0.43417985893E+02 -0.34188167711E+02  0.59928560979E+02  0.51100000000E-03 0. -1.
         22    1    1    0    0    0  0.27150024568E+01 -0.27221060110E+02  0.87685031148E+01  0.28727060392E+02  0.00000000000E+00 0. -1.
</event>
<event>
 5    1  0.1059945E-009  0.9118800E+02  0.7815553E-02  0.1125453E+00
         25   -1    0    0    0    0  0.00000000000E+00  0.00000000000E+00  0.99999998245E-14  0.12509000000E+03  0.12509000000E+03 0.  0.
        -11    1    3    3    0    0  0.33387222990E+02  0.43441729529E+02  0.19192408060E+02  0.58053760006E+02  0.51100000000E-03 0.  1.
         23    2    1    0    0    0  0.11679259599E+00  0.25500562671E+02  0.13362518432E+02  0.96300258148E+02  0.91896085245E+02 0.  0.
         11    1    3    3    0    0 -0.33270430394E+02 -0.17941166857E+02 -0.58298896278E+01  0.38246498142E+02  0.51100000000E-03 0. -1.
         22    1    1    0    0    0 -0.11679259599E+00 -0.25500562671E+02 -0.13362518432E+02  0.28789741852E+02  0.00000000000E+00 0.  1.
</event>
<event>
 5    1  0.1059945E-009  0.9118800E+02  0.7815553E-02  0.1125453E+00
         25   -1    0    0    0    0  0.00000000000E+00  0.00000000000E+00  0.99999998245E-14  0.12509000000E+03  0.12509000000E+03 0.  0.
        -11    1    3    3    0    0  0.51679108947E+02  0.31892017233E+02  0.64650015713E+01  0.61070674716E+02  0.51100000000E-03 0. -1.
         23    2    1    0    0    0  0.28424429198E+02  0.74289834841E+01 -0.12147709296E+01  0.95685686724E+02  0.91055680793E+02 0.  0.
         11    1    3    3    0    0 -0.23254679749E+02 -0.24463033748E+02 -0.76797725009E+01  0.34615012008E+02  0.51100000000E-03 0.  1.
         22    1    1    0    0    0 -0.28424429198E+02 -0.74289834841E+01  0.12147709296E+01  0.29404313276E+02  0.00000000000E+00 0. -1.
</event>
<event>
 5    1  0.1059945E-009  0.9118800E+02  0.7815553E-02  0.1125453E+00
         25   -1    0    0    0    0  0.00000000000E+00  0.00000000000E+00  0.99999998245E-14  0.12509000000E+03  0.12509000000E+03 0.  0.
        -11    1    3    3    0    0 -0.33452615775E+01 -0.12822777140E+01 -0.21073495660E+02  0.21375856258E+02  0.51100000000E-03 0.  1.
         23    2    1    0    0    0 -0.89675492203E+01 -0.49070140171E+02  0.28765818157E+01  0.75124308588E+02  0.56098943149E+02 0.  0.
         11    1    3    3    0    0 -0.56222876428E+01 -0.47787862457E+02  0.23950077476E+02  0.53748452330E+02  0.51100000000E-03 0. -1.
         22    1    1    0    0    0  0.89675492203E+01  0.49070140171E+02 -0.28765818157E+01  0.49965691412E+02  0.00000000000E+00 0. -1.
</event>
<event>
 5    1  0.1059945E-009  0.9118800E+02  0.7815553E-02  0.1125453E+00
         25   -1    0    0    0    0  0.00000000000E+00  0.00000000000E+00  0.99999998245E-14  0.12509000000E+03  0.12509000000E+03 0.  0.
        -11    1    3    3    0    0  0.34031214197E+01  0.33258192626E+02  0.37306049435E+02  0.50094210612E+02  0.51100000000E-03 0. -1.
         23    2    1    0    0    0 -0.25096978462E+02  0.64267616882E+01  0.15461290738E+02  0.94920261767E+02  0.89998016584E+02 0.  0.
         11    1    3    3    0    0 -0.28500099882E+02 -0.26831430938E+02 -0.21844758696E+02  0.44826051156E+02  0.51100000000E-03 0.  1.
         22    1    1    0    0    0  0.25096978462E+02 -0.64267616882E+01 -0.15461290738E+02  0.30169738233E+02  0.00000000000E+00 0.  1.
</event>
<event>
 5    1  0.1059945E-009  0.9118800E+02  0.7815553E-02  0.1125453E+00
         25   -1    0    0    0    0  0.00000000000E+00  0.00000000000E+00  0.99999998245E-14  0.12509000000E+03  0.12509000000E+03 0.  0.
        -11    1    3    3    0    0 -0.32973042226E+02 -0.10402610341E+02  0.17445713317E+02  0.38727105869E+02  0.51100000000E-03 0.  1.
         23    2    1    0    0    0  0.24698279259E+02 -0.73262899505E+01  0.11795151657E+02  0.96756184065E+02  0.92514615221E+02 0.  0.
         11    1    3    3    0    0  0.57671321485E+02  0.30763203905E+01 -0.56505616599E+01  0.58029078197E+02  0.51100000000E-03 0. -1.
         22    1    1    0    0    0 -0.24698279259E+02  0.73262899505E+01 -0.11795151657E+02  0.28333815935E+02  0.00000000000E+00 0. -1.
</event>
<event>
 5    1  0.1059945E-009  0.9118800E+02  0.7815553E-02  0.1125453E+00
         25   -1    0    0    0    0  0.00000000000E+00  0.00000000000E+00  0.99999998245E-14  0.12509000000E+03  0.12509000000E+03 0.  0.
        -11    1    3    3    0    0  0.23326625057E+02 -0.18834552006E+02  0.23538895409E+02  0.38117599389E+02  0.51100000000E-03 0.  1.
         23    2    1    0    0    0  0.91849340210E+01  0.22525358550E+02 -0.15100452014E+02  0.96458226709E+02  0.92110862866E+02 0.  0.
         11    1    3    3    0    0 -0.14141691036E+02  0.41359910556E+02 -0.38639347423E+02  0.58340627320E+02  0.51100000000E-03 0. -1.
         22    1    1    0    0    0 -0.91849340210E+01 -0.22525358550E+02  0.15100452014E+02  0.28631773291E+02  0.00000000000E+00 0. -1.
</event>
<event>
 5    1  0.1059945E-009  0.9118800E+02  0.7815553E-02  0.1125453E+00
         25   -1    0    0    0    0  0.00000000000E+00  0.00000000000E+00  0.99999998245E-14  0.12509000000E+03  0.12509000000E+03 0.  0.
        -11    1    3    3    0    0 -0.38458761722E+01  0.13040697909E+02  0.31090853338E+02  0.33933637103E+02  0.51100000000E-03 0.  1.
         23    2    1    0    0    0 -0.54062602181E+01  0.21059921933E+01 -0.29246443049E+02  0.95273607131E+02  0.90487805433E+02 0.  0.
         11    1    3    3    0    0 -0.15603840460E+01 -0.10934705716E+02 -0.60337296387E+02  0.61339970028E+02  0.51100000000E-03 0. -1.
         22    1    1    0    0    0  0.54062602181E+01 -0.21059921933E+01  0.29246443049E+02  0.29816392869E+02  0.00000000000E+00 0. -1.
</event>
<event>
 5    1  0.1059945E-009  0.9118800E+02  0.7815553E-02  0.1125453E+00
         25   -1    0    0    0    0  0.00000000000E+00  0.00000000000E+00  0.99999998245E-14  0.12509000000E+03  0.12509000000E+03 0.  0.
        -11    1    3    3    0    0 -0.35605822826E+02 -0.25355197375E+01 -0.22111752758E+02  0.41989678371E+02  0.51100000000E-03 0. -1.
         23    2    1    0    0    0 -0.48423702292E+01 -0.19268486602E+02  0.20094100652E+02  0.96832328363E+02  0.92617513515E+02 0.  0.
         11    1    3    3    0    0  0.30763452597E+02 -0.16732966864E+02  0.42205853410E+02  0.54842649991E+02  0.51100000000E-03 0.  1.
         22    1    1    0    0    0  0.48423702292E+01  0.19268486602E+02 -0.20094100652E+02  0.28257671637E+02  0.00000000000E+00 0.  1.
</event>
<event>
 5    1  0.1059945E-009  0.9118800E+02  0.7815553E-02  0.1125453E+00
         25   -1    0    0    0    0  0.00000000000E+00  0.00000000000E+00  0.99999998245E-14  0.12509000000E+03  0.12509000000E+03 0.  0.
        -11    1    3    3    0    0 -0.12538190578E+02 -0.37908809514E+02 -0.38300175866E+01  0.40111757587E+02  0.51100000000E-03 0.  1.
         23    2    1    0    0    0 -0.64456516892E+01  0.16655166326E+02 -0.20892272497E+02  0.97604948770E+02  0.93655207988E+02 0.  0.
         11    1    3    3    0    0  0.60925388887E+01  0.54563975840E+02 -0.17062254910E+02  0.57493191183E+02  0.51100000000E-03 0. -1.
         22    1    1    0    0    0  0.64456516892E+01 -0.16655166326E+02  0.20892272497E+02  0.27485051230E+02  0.00000000000E+00 0. -1.
</event>
<event>
 5    1  0.1059945E-009  0.9118800E+02  0.7815553E-02  0.1125453E+00
         25   -1    0    0    0    0  0.00000000000E+00  0.00000000000E+00  0.99999998245E-14  0.12509000000E+03  0.12509000000E+03 0.  0.
        -11    1    3    3    0    0 -0.54313632972E+02 -0.26980824854E+01 -0.21763352122E+01  0.54424138128E+02  0.51100000000E-03 0. -1.
         23    2    1    0    0    0 -0.20018056665E+02  0.79256418929E+01  0.19228209348E+02  0.96223714704E+02  0.91791834303E+02 0.  0.
         11    1    3    3    0    0  0.34295576307E+02  0.10623724378E+02  0.21404544560E+02  0.41799576577E+02  0.51100000000E-03 0.  1.
         22    1    1    0    0    0  0.20018056665E+02 -0.79256418929E+01 -0.19228209348E+02  0.28866285296E+02  0.00000000000E+00 0. -1.
</event>
<event>
 5    1  0.1059945E-009  0.9118800E+02  0.7815553E-02  0.1125453E+00
         25   -1    0    0    0    0  0.00000000000E+00  0.00000000000E+00  0.99999998245E-14  0.12509000000E+03  0.12509000000E+03 0.  0.
        -11    1    3    3    0    0  0.75167083330E+01 -0.27570352784E+02  0.22039803378E+02  0.36088477247E+02  0.51100000000E-03 0.  1.
         23    2    1    0    0    0 -0.21762547006E+02  0.60074901138E+01 -0.18176386217E+02  0.96105876664E+02  0.91631108930E+02 0.  0.
         11    1    3    3    0    0 -0.29279255339E+02  0.33577842898E+02 -0.40216189595E+02  0.60017399416E+02  0.51100000000E-03 0. -1.
         22    1    1    0    0    0  0.21762547006E+02 -0.60074901138E+01  0.18176386217E+02  0.28984123336E+02  0.00000000000E+00 0. -1.
</event>
<event>
 5    1  0.1059945E-009  0.9118800E+02  0.7815553E-02  0.1125453E+00
         25   -1    0    0    0    0  0.00000000000E+00  0.00000000000E+00  0.99999998245E-14  0.12509000000E+03  0.12509000000E+03 0.  0.
        -11    1    3    3    0    0 -0.32054541989E+02 -0.23804909702E+02 -0.45301258041E+01  0.40183198331E+02  0.51100000000E-03 0. -1.
         23    2    1    0    0    0  0.78494550216E+01  0.13438442258E+02 -0.22573170377E+02  0.97671872870E+02  0.93744552133E+02 0.  0.
         11    1    3    3    0    0  0.39903997011E+02  0.37243351959E+02 -0.18043044573E+02  0.57488674539E+02  0.51100000000E-03 0.  1.
         22    1    1    0    0    0 -0.78494550216E+01 -0.13438442258E+02  0.22573170377E+02  0.27418127130E+02  0.00000000000E+00 0.  1.
</event>
<event>
 5    1  0.1059945E-009  0.9118800E+02  0.7815553E-02  0.1125453E+00
         25   -1    0    0    0    0  0.00000000000E+00  0.00000000000E+00  0.99999998245E-14  0.12509000000E+03  0.12509000000E+03 0.  0.
        -11    1    3    3    0    0 -0.36362660476E+02 -0.18584851916E+02  0.12269345738E+01  0.40855173067E+02  0.51100000000E-03 0. -1.
         23    2    1    0    0    0 -0.80949585039E+01  0.24036631762E+02  0.17211461911E+02  0.94438369689E+02  0.89325714264E+02 0.  0.
         11    1    3    3    0    0  0.28267701972E+02  0.42621483678E+02  0.15984527337E+02  0.53583196621E+02  0.51100000000E-03 0.  1.
         22    1    1    0    0    0  0.80949585039E+01 -0.24036631762E+02 -0.17211461911E+02  0.30651630311E+02  0.00000000000E+00 0.  1.
</event>
<event>
 5    1  0.1059945E-009  0.9118800E+02  0.7815553E-02  0.1125453E+00
         25   -1    0    0    0    0  0.00000000000E+00  0.00000000000E+00  0.99999998245E-14  0.12509000000E+03  0.12509000000E+03 0.  0.
        -11    1    3    3    0    0  0.23854712680E+02 -0.13858992278E+02  0.41534752168E+02  0.49862356763E+02  0.51100000000E-03 0. -1.
         23    2    1    0    0    0 -0.70139849045E+01 -0.27368763755E+02  0.13121560447E+02  0.93938426006E+02  0.88622837453E+02 0.  0.
         11    1    3    3    0    0 -0.30868697585E+02 -0.13509771477E+02 -0.28413191721E+02  0.44076069244E+02  0.51100000000E-03 0.  1.
         22    1    1    0    0    0  0.70139849045E+01  0.27368763755E+02 -0.13121560447E+02  0.31151573994E+02  0.00000000000E+00 0. -1.
</event>
<event>
 5    1  0.1059945E-009  0.9118800E+02  0.7815553E-02  0.1125453E+00
         25   -1    0    0    0    0  0.00000000000E+00  0.00000000000E+00  0.99999998245E-14  0.12509000000E+03  0.12509000000E+03 0.  0.
        -11    1    3    3    0    0 -0.47172241519E+02  0.34924054740E+02 -0.75414427569E+01  0.59175867788E+02  0.51100000000E-03 0. -1.
         23    2    1    0    0    0 -0.21913508031E+02  0.32334055317E+02  0.11487523104E+01  0.86012991423E+02  0.76623900281E+02 0.  0.
         11    1    3    3    0    0  0.25258733488E+02 -0.25899994232E+01  0.86901950673E+01  0.26837123635E+02  0.51100000000E-03 0.  1.
         22    1    1    0    0    0  0.21913508031E+02 -0.32334055317E+02 -0.11487523104E+01  0.39077008577E+02  0.00000000000E+00 0. -1.
</event>
<event>
 5    1  0.1059945E-009  0.9118800E+02  0.7815553E-02  0.1125453E+00
         25   -1    0    0    0    0  0.00000000000E+00  0.00000000000E+00  0.99999998245E-14  0.12509000000E+03  0.12509000000E+03 0.  0.
        -11    1    3    3    0    0  0.29792404061E+02  0.30640937344E+02  0.87694228452E+01  0.43627481687E+02  0.51100000000E-03 0.  1.
         23    2    1    0    0    0 -0.54208949479E+01 -0.11359897000E+02  0.21756947514E+02  0.99954405179E+02  0.96742363976E+02 0.  0.
         11    1    3    3    0    0 -0.35213299009E+02 -0.42000834344E+02  0.12987524669E+02  0.56326923491E+02  0.51100000000E-03 0. -1.
         22    1    1    0    0    0  0.54208949479E+01  0.11359897000E+02 -0.21756947514E+02  0.25135594821E+02  0.00000000000E+00 0. -1.
</event>
<event>
 5    1  0.1059945E-009  0.9118800E+02  0.7815553E-02  0.1125453E+00
         25   -1    0    0    0    0  0.00000000000E+00  0.00000000000E+00  0.99999998245E-14  0.12509000000E+03  0.12509000000E+03 0.  0.
        -11    1    3    3    0    0  0.60361575235E+01  0.21678096412E+02 -0.52977232313E+02  0.57558337411E+02  0.51100000000E-03 0.  1.
         23    2    1    0    0    0  0.18008279486E+02  0.13075867703E+01 -0.26216262202E+02  0.93257621562E+02  0.87656623608E+02 0.  0.
         11    1    3    3    0    0  0.11972121963E+02 -0.20370509642E+02  0.26760970111E+02  0.35699284151E+02  0.51100000000E-03 0. -1.
         22    1    1    0    0    0 -0.18008279486E+02 -0.13075867703E+01  0.26216262202E+02  0.31832378438E+02  0.00000000000E+00 0.  1.
</event>
<event>
 5    1  0.1059945E-009  0.9118800E+02  0.7815553E-02  0.1125453E+00
         25   -1    0    0    0    0  0.00000000000E+00  0.00000000000E+00  0.99999998245E-14  0.12509000000E+03  0.12509000000E+03 0.  0.
        -11    1    3    3    0    0  0.26225636491E+02 -0.12156463399E+02  0.39261242454E+02  0.48754576923E+02  0.51100000000E-03 0.  1.
         23    2    1    0    0    0  0.28037890158E+02 -0.35543196415E+01 -0.71062080619E+01  0.95948025708E+02  0.91415365074E+02 0.  0.
         11    1    3    3    0    0  0.18122536677E+01  0.86021437576E+01 -0.46367450516E+02  0.47193448784E+02  0.51100000000E-03 0. -1.
         22    1    1    0    0    0 -0.28037890158E+02  0.35543196415E+01  0.71062080619E+01  0.29141974292E+02  0.00000000000E+00 0. -1.
</event>
<event>
 5    1  0.1059945E-009  0.9118800E+02  0.7815553E-02  0.1125453E+00
         25   -1    0    0    0    0  0.00000000000E+00  0.00000000000E+00  0.99999998245E-14  0.12509000000E+03  0.12509000000E+03 0.  0.
        -11    1    3    3    0    0 -0.18667599324E+02  0.11939078520E+02 -0.27879624625E+02  0.35613120193E+02  0.51100000000E-03 0. -1.
         23    2    1    0    0    0 -0.18246445119E+01 -0.18445529961E+02  0.21951944686E+02  0.96359271179E+02  0.91976379378E+02 0.  0.
         11    1    3    3    0    0  0.16842954812E+02 -0.30384608480E+02  0.49831569311E+02  0.60746150985E+02  0.51100000000E-03 0.  1.
         22    1    1    0    0    0  0.18246445119E+01  0.18445529961E+02 -0.21951944686E+02  0.28730728821E+02  0.00000000000E+00 0.  1.
</event>
<event>
 5    1  0.1059945E-009  0.9118800E+02  0.7815553E-02  0.1125453E+00
         25   -1    0    0    0    0  0.00000000000E+00  0.00000000000E+00  0.99999998245E-14  0.12509000000E+03  0.12509000000E+03 0.  0.
        -11    1    3    3    0    0 -0.33797214217E+02 -0.98848485408E+00  0.17222142334E+02  0.37945104796E+02  0.51100000000E-03 0. -1.
         23    2    1    0    0    0  0.16647904793E+02  0.20103812927E+02 -0.74712476889E+01  0.97939759297E+02  0.94101333045E+02 0.  0.
         11    1    3    3    0    0  0.50445119010E+02  0.21092297781E+02 -0.24693390023E+02  0.59994654501E+02  0.51100000000E-03 0.  1.
         22    1    1    0    0    0 -0.16647904793E+02 -0.20103812927E+02  0.74712476889E+01  0.27150240703E+02  0.00000000000E+00 0.  1.
</event>
<event>
 5    1  0.1059945E-009  0.9118800E+02  0.7815553E-02  0.1125453E+00
         25   -1    0    0    0    0  0.00000000000E+00  0.00000000000E+00  0.99999998245E-14  0.12509000000E+03  0.12509000000E+03 0.  0.
        -11    1    3    3    0    0 -0.24954931883E+02  0.37260749736E+02 -0.26602837731E+02  0.52142334737E+02  0.51100000000E-03 0. -1.
         23    2    1    0    0    0  0.12066770013E+02  0.26672603638E+02 -0.91567366476E+01  0.94416223750E+02  0.89294696135E+02 0.  0.
         11    1    3    3    0    0  0.37021701896E+02 -0.10588146098E+02  0.17446101084E+02  0.42273889014E+02  0.51100000000E-03 0.  1.
         22    1    1    0    0    0 -0.12066770013E+02 -0.26672603638E+02  0.91567366476E+01  0.30673776250E+02  0.00000000000E+00 0. -1.
</event>
<event>
 5    1  0.1059945E-009  0.9118800E+02  0.7815553E-02  0.1125453E+00
         25   -1    0    0    0    0  0.00000000000E+00  0.00000000000E+00  0.99999998245E-14  0.12509000000E+03  0.12509000000E+03 0.  0.
        -11    1    3    3    0    0  0.13275602316E+02  0.55150723461E+02  0.15860191800E+02  0.58901524593E+02  0.51100000000E-03 0.  1.
         23    2    1    0    0    0  0.74570386213E+00  0.22058566349E+02  0.20960260156E+02  0.94652047877E+02  0.89624445537E+02 0.  0.
         11    1    3    3    0    0 -0.12529898453E+02 -0.33092157112E+02  0.51000683561E+01  0.35750523284E+02  0.51100000000E-03 0. -1.
         22    1    1    0    0    0 -0.74570386213E+00 -0.22058566349E+02 -0.20960260156E+02  0.30437952123E+02  0.00000000000E+00 0.  1.
</event>
<event>
 5    1  0.1059945E-009  0.9118800E+02  0.7815553E-02  0.1125453E+00
         25   -1    0    0    0    0  0.00000000000E+00  0.00000000000E+00  0.99999998245E-14  0.12509000000E+03  0.12509000000E+03 0.  0.
        -11    1    3    3    0    0 -0.25473651668E+02 -0.50828099908E+02 -0.19159373355E+02  0.59995701989E+02  0.51100000000E-03 0.  1.
         23    2    1    0    0    0  0.11541440163E-01 -0.27187072380E+02 -0.11378716137E+02  0.95617772077E+02  0.90962333514E+02 0.  0.
         11    1    3    3    0    0  0.25485193108E+02  0.23641027528E+02  0.77806572175E+01  0.35622070088E+02  0.51100000000E-03 0. -1.
         22    1    1    0    0    0 -0.11541440163E-01  0.27187072380E+02  0.11378716137E+02  0.29472227923E+02  0.00000000000E+00 0.  1.
</event>
<event>
 5    1  0.1059945E-009  0.9118800E+02  0.7815553E-02  0.1125453E+00
         25   -1    0    0    0    0  0.00000000000E+00  0.00000000000E+00  0.99999998245E-14  0.12509000000E+03  0.12509000000E+03 0.  0.
        -11    1    3    3    0    0 -0.15772166011E+02  0.98182983788E+00 -0.48286794809E+02  0.50806886971E+02  0.51100000000E-03 0. -1.
         23    2    1    0    0    0  0.15118819712E+02  0.16071108788E+02 -0.19290383900E+02  0.95781670840E+02  0.91187446014E+02 0.  0.
         11    1    3    3    0    0  0.30890985723E+02  0.15089278950E+02  0.28996410908E+02  0.44974783869E+02  0.51100000000E-03 0.  1.
         22    1    1    0    0    0 -0.15118819712E+02 -0.16071108788E+02  0.19290383900E+02  0.29308329160E+02  0.00000000000E+00 0.  1.
</event>
<event>
 5    1  0.1059945E-009  0.9118800E+02  0.7815553E-02  0.1125453E+00
         25   -1    0    0    0    0  0.00000000000E+00  0.00000000000E+00  0.99999998245E-14  0.12509000000E+03  0.12509000000E+03 0.  0.
        -11    1    3    3    0    0 -0.21463327946E+02  0.42229593646E+02  0.28050189268E+01  0.47453989901E+02  0.51100000000E-03 0.  1.
         23    2    1    0    0    0 -0.11533691353E+02  0.49034367576E+01 -0.26392942881E+02  0.95872588031E+02  0.91312080108E+02 0.  0.
         11    1    3    3    0    0  0.99296365928E+01 -0.37326156889E+02 -0.29197961807E+02  0.48418598130E+02  0.51100000000E-03 0. -1.
         22    1    1    0    0    0  0.11533691353E+02 -0.49034367576E+01  0.26392942881E+02  0.29217411969E+02  0.00000000000E+00 0.  1.
</event>
<event>
 5    1  0.1059945E-009  0.9118800E+02  0.7815553E-02  0.1125453E+00
         25   -1    0    0    0    0  0.00000000000E+00  0.00000000000E+00  0.99999998245E-14  0.12509000000E+03  0.12509000000E+03 0.  0.
        -11    1    3    3    0    0  0.84977234216E+01 -0.21281855572E+02  0.51082277910E+02  0.55986853784E+02  0.51100000000E-03 0.  1.
         23    2    1    0    0    0 -0.92126708888E+01  0.57109127168E+01  0.26165863904E+02  0.96767919166E+02  0.92530481015E+02 0.  0.
         11    1    3    3    0    0 -0.17710394310E+02  0.26992768288E+02 -0.24916414006E+02  0.40781065382E+02  0.51100000000E-03 0. -1.
         22    1    1    0    0    0  0.92126708888E+01 -0.57109127168E+01 -0.26165863904E+02  0.28322080834E+02  0.00000000000E+00 0.  1.
</event>
<event>
 5    1  0.1059945E-009  0.9118800E+02  0.7815553E-02  0.1125453E+00
         25   -1    0    0    0    0  0.00000000000E+00  0.00000000000E+00  0.99999998245E-14  0.12509000000E+03  0.12509000000E+03 0.  0.
        -11    1    3    3    0    0 -0.20838443657E+01 -0.29650149215E+02 -0.30616448635E+02  0.42671309835E+02  0.51100000000E-03 0. -1.
         23    2    1    0    0    0 -0.26554663399E+02 -0.48147828967E+01  0.10098648880E+02  0.96274813174E+02  0.91861442727E+02 0.  0.
         11    1    3    3    0    0 -0.24470819034E+02  0.24835366318E+02  0.40715097514E+02  0.53603503339E+02  0.51100000000E-03 0.  1.
         22    1    1    0    0    0  0.26554663399E+02  0.48147828967E+01 -0.10098648880E+02  0.28815186826E+02  0.00000000000E+00 0.  1.
</event>
<event>
 5    1  0.1059945E-009  0.9118800E+02  0.7815553E-02  0.1125453E+00
         25   -1    0    0    0    0  0.00000000000E+00  0.00000000000E+00  0.99999998245E-14  0.12509000000E+03  0.12509000000E+03 0.  0.
        -11    1    3    3    0    0 -0.35255322638E+02  0.94458897968E+01 -0.22788452365E+02  0.43028783039E+02  0.51100000000E-03 0. -1.
         23    2    1    0    0    0  0.13138232446E+02 -0.10300909425E+02 -0.24637520275E+02  0.95328795520E+02  0.90564065519E+02 0.  0.
         11    1    3    3    0    0  0.48393555084E+02 -0.19746799222E+02 -0.18490679098E+01  0.52300012481E+02  0.51100000000E-03 0.  1.
         22    1    1    0    0    0 -0.13138232446E+02  0.10300909425E+02  0.24637520275E+02  0.29761204480E+02  0.00000000000E+00 0.  1.
</event>
<event>
 5    1  0.1059945E-009  0.9118800E+02  0.7815553E-02  0.1125453E+00
         25   -1    0    0    0    0  0.00000000000E+00  0.00000000000E+00  0.99999998245E-14  0.12509000000E+03  0.12509000000E+03 0.  0.
        -11    1    3    3    0    0  0.14446582790E+02 -0.37071932438E+01 -0.30747772948E+02  0.34174150722E+02  0.51100000000E-03 0.  1.
         23    2    1    0    0    0 -0.57664998857E+01  0.14153104340E+02  0.24819784491E+02  0.95942365695E+02  0.91407619757E+02 0.  0.
         11    1    3    3    0    0 -0.20213082675E+02  0.17860297584E+02  0.55567557439E+02  0.61768214973E+02  0.51100000000E-03 0. -1.
         22    1    1    0    0    0  0.57664998857E+01 -0.14153104340E+02 -0.24819784491E+02  0.29147634305E+02  0.00000000000E+00 0. -1.
</event>
<event>
 5    1  0.1059945E-009  0.9118800E+02  0.7815553E-02  0.1125453E+00
         25   -1    0    0    0    0  0.00000000000E+00  0.00000000000E+00  0.99999998245E-14  0.12509000000E+03  0.12509000000E+03 0.  0.
        -11    1    3    3    0    0 -0.21089356495E+02 -0.33922669274E+02 -0.44040237635E+02  0.59456294698E+02  0.51100000000E-03 0. -1.
         23    2    1    0    0    0 -0.59584387399E+01 -0.62215989951E+01 -0.29774173989E+02  0.94094633846E+02  0.88843049226E+02 0.  0.
         11    1    3    3    0    0  0.15130917755E+02  0.27701070279E+02  0.14266063646E+02  0.34638339148E+02  0.51100000000E-03 0.  1.
         22    1    1    0    0    0  0.59584387399E+01  0.62215989951E+01  0.29774173989E+02  0.30995366154E+02  0.00000000000E+00 0. -1.
</event>
<event>
 5    1  0.1059945E-009  0.9118800E+02  0.7815553E-02  0.1125453E+00
         25   -1    0    0    0    0  0.00000000000E+00  0.00000000000E+00  0.99999998245E-14  0.12509000000E+03  0.12509000000E+03 0.  0.
        -11    1    3    3    0    0  0.19803102856E+02 -0.19783602397E+02  0.13005678513E+02  0.30865862702E+02  0.51100000000E-03 0. -1.
         23    2    1    0    0    0 -0.24338430062E+00  0.30127254619E+02 -0.14920362417E+02  0.91469650189E+02  0.85066850090E+02 0.  0.
         11    1    3    3    0    0 -0.20046487157E+02  0.49910857016E+02 -0.27926040930E+02  0.60603787486E+02  0.51100000000E-03 0.  1.
         22    1    1    0    0    0  0.24338430062E+00 -0.30127254619E+02  0.14920362417E+02  0.33620349811E+02  0.00000000000E+00 0.  1.
</event>
<event>
 5    1  0.1059945E-009  0.9118800E+02  0.7815553E-02  0.1125453E+00
         25   -1    0    0    0    0  0.00000000000E+00  0.00000000000E+00  0.99999998245E-14  0.12509000000E+03  0.12509000000E+03 0.  0.
        -11    1    3    3    0    0 -0.16471613303E+02  0.29940545126E+02 -0.30356086883E+01  0.34306926526E+02  0.51100000000E-03 0.  1.
         23    2    1    0    0    0  0.72352567409E+01 -0.23525218244E+02  0.15907528239E+02  0.95784125363E+02  0.91190813043E+02 0.  0.
         11    1    3    3    0    0  0.23706870044E+02 -0.53465763370E+02  0.18943136928E+02  0.61477198838E+02  0.51100000000E-03 0. -1.
         22    1    1    0    0    0 -0.72352567409E+01  0.23525218244E+02 -0.15907528239E+02  0.29305874637E+02  0.00000000000E+00 0. -1.
</event>
<event>
 5    1  0.1059945E-009  0.9118800E+02  0.7815553E-02  0.1125453E+00
         25   -1    0    0    0    0  0.00000000000E+00  0.00000000000E+00  0.99999998245E-14  0.12509000000E+03  0.12509000000E+03 0.  0.
        -11    1    3    3    0    0  0.50978674310E+02 -0.19740156751E+01  0.76794833294E+00  0.51022658860E+02  0.51100000000E-03 0.  1.
         23    2    1    0    0    0  0.14610438832E+02  0.24659120414E+02  0.36707584351E+01  0.96193432558E+02  0.91750557804E+02 0.  0.
         11    1    3    3    0    0 -0.36368235477E+02  0.26633136089E+02  0.29028101022E+01  0.45170773698E+02  0.51100000000E-03 0. -1.
         22    1    1    0    0    0 -0.14610438832E+02 -0.24659120414E+02 -0.36707584351E+01  0.28896567442E+02  0.00000000000E+00 0.  1.
</event>
<event>
 5    1  0.1059945E-009  0.9118800E+02  0.7815553E-02  0.1125453E+00
         25   -1    0    0    0    0  0.00000000000E+00  0.00000000000E+00  0.99999998245E-14  0.12509000000E+03  0.12509000000E+03 0.  0.
        -11    1    3    3    0    0 -0.38946460825E+02  0.22969219385E+01 -0.23219090250E+02  0.45400757851E+02  0.51100000000E-03 0.  1.
         23    2    1    0    0    0 -0.12646117262E+02 -0.16340042991E+02  0.17972194864E+02  0.97705313130E+02  0.93789163227E+02 0.  0.
         11    1    3    3    0    0  0.26300343562E+02 -0.18636964929E+02  0.41191285114E+02  0.52304555278E+02  0.51100000000E-03 0. -1.
         22    1    1    0    0    0  0.12646117262E+02  0.16340042991E+02 -0.17972194864E+02  0.27384686870E+02  0.00000000000E+00 0.  1.
</event>
<event>
 5    1  0.1059945E-009  0.9118800E+02  0.7815553E-02  0.1125453E+00
         25   -1    0    0    0    0  0.00000000000E+00  0.00000000000E+00  0.99999998245E-14  0.12509000000E+03  0.12509000000E+03 0.  0.
        -11    1    3    3    0    0  0.45635478968E+02  0.23675239578E+02 -0.25150741970E+02  0.57233501829E+02  0.51100000000E-03 0. -1.
         23    2    1    0    0    0  0.20939068827E+02  0.19475440518E+02  0.45998628205E+01  0.96126296427E+02  0.91658980684E+02 0.  0.
         11    1    3    3    0    0 -0.24696410141E+02 -0.41997990605E+01  0.29750604790E+02  0.38892794598E+02  0.51100000000E-03 0.  1.
         22    1    1    0    0    0 -0.20939068827E+02 -0.19475440518E+02 -0.45998628205E+01  0.28963703573E+02  0.00000000000E+00 0. -1.
</event>
<event>
 5    1  0.1059945E-009  0.9118800E+02  0.7815553E-02  0.1125453E+00
         25   -1    0    0    0    0  0.00000000000E+00  0.00000000000E+00  0.99999998245E-14  0.12509000000E+03  0.12509000000E+03 0.  0.
        -11    1    3    3    0    0 -0.23092672740E+02 -0.55106578777E+02 -0.92109279528E+01  0.60455336843E+02  0.51100000000E-03 0.  1.
         23    2    1    0    0    0 -0.19631806143E+01 -0.28538260600E+02  0.25256928931E+01  0.96373009894E+02  0.91995062450E+02 0.  0.
         11    1    3    3    0    0  0.21129492126E+02  0.26568318177E+02  0.11736620846E+02  0.35917673051E+02  0.51100000000E-03 0. -1.
         22    1    1    0    0    0  0.19631806143E+01  0.28538260600E+02 -0.25256928931E+01  0.28716990106E+02  0.00000000000E+00 0.  1.
</event>
<event>
 5    1  0.1059945E-009  0.9118800E+02  0.7815553E-02  0.1125453E+00
         25   -1    0    0    0    0  0.00000000000E+00  0.00000000000E+00  0.99999998245E-14  0.12509000000E+03  0.12509000000E+03 0.  0.
        -11    1    3    3    0    0  0.33790893108E+02 -0.45752158376E+02  0.23438573348E+00  0.56878285752E+02  0.51100000000E-03 0.  1.
         23    2    1    0    0    0  0.36612947240E+01 -0.16103358479E+02  0.16097714715E+02  0.10202791743E+03  0.99387304435E+02 0.  0.
         11    1    3    3    0    0 -0.30129598384E+02  0.29648799897E+02  0.15863328982E+02  0.45149631679E+02  0.51100000000E-03 0. -1.
         22    1    1    0    0    0 -0.36612947240E+01  0.16103358479E+02 -0.16097714715E+02  0.23062082569E+02  0.00000000000E+00 0.  1.
</event>
<event>
 5    1  0.1059945E-009  0.9118800E+02  0.7815553E-02  0.1125453E+00
         25   -1    0    0    0    0  0.00000000000E+00  0.00000000000E+00  0.99999998245E-14  0.12509000000E+03  0.12509000000E+03 0.  0.
        -11    1    3    3    0    0  0.60440088754E+01 -0.26516062560E+02 -0.29760999496E+02  0.40315613703E+02  0.51100000000E-03 0. -1.
         23    2    1    0    0    0  0.32688300557E+01 -0.18977949185E+02  0.23799564821E+02  0.94475181842E+02  0.89377250423E+02 0.  0.
         11    1    3    3    0    0 -0.27751788197E+01  0.75381133757E+01  0.53560564317E+02  0.54159568139E+02  0.51100000000E-03 0.  1.
         22    1    1    0    0    0 -0.32688300557E+01  0.18977949185E+02 -0.23799564821E+02  0.30614818158E+02  0.00000000000E+00 0. -1.
</event>
<event>
 5    1  0.1059945E-009  0.9118800E+02  0.7815553E-02  0.1125453E+00
         25   -1    0    0    0    0  0.00000000000E+00  0.00000000000E+00  0.99999998245E-14  0.12509000000E+03  0.12509000000E+03 0.  0.
        -11    1    3    3    0    0  0.36749831278E+02 -0.24078025383E+02 -0.22577476718E+02  0.49396800104E+02  0.51100000000E-03 0.  1.
         23    2    1    0    0    0  0.25216224356E+02  0.16451921006E+02 -0.93801681202E+01  0.93554127893E+02  0.88078735324E+02 0.  0.
         11    1    3    3    0    0 -0.11533606922E+02  0.40529946390E+02  0.13197308598E+02  0.44157327789E+02  0.51100000000E-03 0. -1.
         22    1    1    0    0    0 -0.25216224356E+02 -0.16451921006E+02  0.93801681202E+01  0.31535872107E+02  0.00000000000E+00 0.  1.
</event>
<event>
 5    1  0.1059945E-009  0.9118800E+02  0.7815553E-02  0.1125453E+00
         25   -1    0    0    0    0  0.00000000000E+00  0.00000000000E+00  0.99999998245E-14  0.12509000000E+03  0.12509000000E+03 0.  0.
        -11    1    3    3    0    0  0.17642970048E+02 -0.33418964630E+02  0.45383750441E+02  0.59057483805E+02  0.51100000000E-03 0.  1.
         23    2    1    0    0    0  0.96258803481E+01 -0.25394204213E+02  0.10107418464E+02  0.96112714273E+02  0.91640442802E+02 0.  0.
         11    1    3    3    0    0 -0.80170897000E+01  0.80247604170E+01 -0.35276331977E+02  0.37055230468E+02  0.51100000000E-03 0. -1.
         22    1    1    0    0    0 -0.96258803481E+01  0.25394204213E+02 -0.10107418464E+02  0.28977285727E+02  0.00000000000E+00 0.  1.
</event>
<event>
 5    1  0.1059945E-009  0.9118800E+02  0.7815553E-02  0.1125453E+00
         25   -1    0    0    0    0  0.00000000000E+00  0.00000000000E+00  0.99999998245E-14  0.12509000000E+03  0.12509000000E+03 0.  0.
        -11    1    3    3    0    0 -0.29753244924E+02  0.15998412085E+02  0.25891438043E+02  0.42562557923E+02  0.51100000000E-03 0. -1.
         23    2    1    0    0    0 -0.11356441725E+02  0.99034203430E+01 -0.24373892157E+02  0.96434579535E+02  0.92078743520E+02 0.  0.
         11    1    3    3    0    0  0.18396803199E+02 -0.60949917416E+01 -0.50265330200E+02  0.53872021613E+02  0.51100000000E-03 0.  1.
         22    1    1    0    0    0  0.11356441725E+02 -0.99034203430E+01  0.24373892157E+02  0.28655420465E+02  0.00000000000E+00 0. -1.
</event>
<event>
 5    1  0.1059945E-009  0.9118800E+02  0.7815553E-02  0.1125453E+00
         25   -1    0    0    0    0  0.00000000000E+00  0.00000000000E+00  0.99999998245E-14  0.12509000000E+03  0.12509000000E+03 0.  0.
        -11    1    3    3    0    0  0.55321553556E+01 -0.80437314108E+00  0.58706634070E+02  0.58972202292E+02  0.51100000000E-03 0.  1.
         23    2    1    0    0    0 -0.10150849600E+02  0.74033316974E+01  0.27658943250E+02  0.94711286902E+02  0.89707088109E+02 0.  0.
         11    1    3    3    0    0 -0.15683004956E+02  0.82077048384E+01 -0.31047690821E+02  0.35739084610E+02  0.51100000000E-03 0. -1.
         22    1    1    0    0    0  0.10150849600E+02 -0.74033316974E+01 -0.27658943250E+02  0.30378713098E+02  0.00000000000E+00 0.  1.
</event>
<event>
 5    1  0.1059945E-009  0.9118800E+02  0.7815553E-02  0.1125453E+00
         25   -1    0    0    0    0  0.00000000000E+00  0.00000000000E+00  0.99999998245E-14  0.12509000000E+03  0.12509000000E+03 0.  0.
        -11    1    3    3    0    0  0.39000370664E+02  0.56156508815E+01  0.20377426296E+02  0.44359936311E+02  0.51100000000E-03 0.  1.
         23    2    1    0    0    0 -0.11165693199E+02  0.11814376486E+02  0.25162287368E+02  0.95133483147E+02  0.90293890789E+02 0.  0.
         11    1    3    3    0    0 -0.50166063863E+02  0.61987256047E+01  0.47848610718E+01  0.50773546837E+02  0.51100000000E-03 0. -1.
         22    1    1    0    0    0  0.11165693199E+02 -0.11814376486E+02 -0.25162287368E+02  0.29956516853E+02  0.00000000000E+00 0. -1.
</event>
<event>
 5    1  0.1059945E-009  0.9118800E+02  0.7815553E-02  0.1125453E+00
         25   -1    0    0    0    0  0.00000000000E+00  0.00000000000E+00  0.99999998245E-14  0.12509000000E+03  0.12509000000E+03 0.  0.
        -11    1    3    3    0    0 -0.32488577394E+02 -0.66446479029E+01 -0.23054864234E+01  0.33241153331E+02  0.51100000000E-03 0. -1.
         23    2    1    0    0    0  0.23505982422E+02  0.38562553911E+01  0.19564267102E+02  0.94265294608E+02  0.89083013560E+02 0.  0.
         11    1    3    3    0    0  0.55994559817E+02  0.10500903294E+02  0.21869753525E+02  0.61024141277E+02  0.51100000000E-03 0.  1.
         22    1    1    0    0    0 -0.23505982422E+02 -0.38562553911E+01 -0.19564267102E+02  0.30824705392E+02  0.00000000000E+00 0.  1.
</event>
<event>
 5    1  0.1059945E-009  0.9118800E+02  0.7815553E-02  0.1125453E+00
         25   -1    0    0    0    0  0.00000000000E+00  0.00000000000E+00  0.99999998245E-14  0.12509000000E+03  0.12509000000E+03 0.  0.
        -11    1    3    3    0    0  0.70741783251E+01  0.10558331389E+02 -0.61203724044E+02  0.62509344884E+02  0.51100000000E-03 0. -1.
         23    2    1    0    0    0  0.24203177887E+01  0.40968273377E+01 -0.30099693895E+02  0.94616511440E+02  0.89574833140E+02 0.  0.
         11    1    3    3    0    0 -0.46538605363E+01 -0.64615040508E+01  0.31104030149E+02  0.32107166556E+02  0.51100000000E-03 0.  1.
         22    1    1    0    0    0 -0.24203177887E+01 -0.40968273377E+01  0.30099693895E+02  0.30473488560E+02  0.00000000000E+00 0. -1.
</event>
<event>
 5    1  0.1059945E-009  0.9118800E+02  0.7815553E-02  0.1125453E+00
         25   -1    0    0    0    0  0.00000000000E+00  0.00000000000E+00  0.99999998245E-14  0.12509000000E+03  0.12509000000E+03 0.  0.
        -11    1    3    3    0    0  0.80257419647E+01  0.44143181932E+02 -0.79389564805E+01  0.45563802249E+02  0.51100000000E-03 0. -1.
         23    2    1    0    0    0  0.27907856759E+02  0.60347951740E+01  0.13396307150E+02  0.93550686962E+02  0.88073848356E+02 0.  0.
         11    1    3    3    0    0  0.19882114794E+02 -0.38108386758E+02  0.21335263630E+02  0.47986884713E+02  0.51100000000E-03 0.  1.
         22    1    1    0    0    0 -0.27907856759E+02 -0.60347951740E+01 -0.13396307150E+02  0.31539313038E+02  0.00000000000E+00 0. -1.
</event>
<event>
 5    1  0.1059945E-009  0.9118800E+02  0.7815553E-02  0.1125453E+00
         25   -1    0    0    0    0  0.00000000000E+00  0.00000000000E+00  0.99999998245E-14  0.12509000000E+03  0.12509000000E+03 0.  0.
        -11    1    3    3    0    0 -0.35360383028E+02  0.27661638170E+02 -0.26191782421E+02  0.51976267477E+02  0.51100000000E-03 0. -1.
         23    2    1    0    0    0  0.32653791864E+01  0.29358983845E+02 -0.98505260299E+01  0.93950868722E+02  0.88640398448E+02 0.  0.
         11    1    3    3    0    0  0.38625762215E+02  0.16973456749E+01  0.16341256391E+02  0.41974601245E+02  0.51100000000E-03 0.  1.
         22    1    1    0    0    0 -0.32653791864E+01 -0.29358983845E+02  0.98505260299E+01  0.31139131278E+02  0.00000000000E+00 0. -1.
</event>
<event>
 5    1  0.1059945E-009  0.9118800E+02  0.7815553E-02  0.1125453E+00
         25   -1    0    0    0    0  0.00000000000E+00  0.00000000000E+00  0.99999998245E-14  0.12509000000E+03  0.12509000000E+03 0.  0.
        -11    1    3    3    0    0  0.21889666310E+02  0.53530980420E+02  0.74323927486E+01  0.58309208690E+02  0.51100000000E-03 0.  1.
         23    2    1    0    0    0  0.17989939244E+02  0.17130729201E+02  0.15517840444E+02  0.95800015892E+02  0.91212608097E+02 0.  0.
         11    1    3    3    0    0 -0.38997270654E+01 -0.36400251219E+02  0.80854476956E+01  0.37490807202E+02  0.51100000000E-03 0. -1.
         22    1    1    0    0    0 -0.17989939244E+02 -0.17130729201E+02 -0.15517840444E+02  0.29289984108E+02  0.00000000000E+00 0.  1.
</event>
<event>
 5    1  0.1059945E-009  0.9118800E+02  0.7815553E-02  0.1125453E+00
         25   -1    0    0    0    0  0.00000000000E+00  0.00000000000E+00  0.99999998245E-14  0.12509000000E+03  0.12509000000E+03 0.  0.
        -11    1    3    3    0    0  0.28982850273E+02  0.32930584519E+02 -0.43113078838E+01  0.44079659511E+02  0.51100000000E-03 0. -1.
         23    2    1    0    0    0  0.74875689202E+01 -0.16691860780E+02 -0.17533001159E+02  0.99750543923E+02  0.96478406800E+02 0.  0.
         11    1    3    3    0    0 -0.21495281353E+02 -0.49622445299E+02 -0.13221693275E+02  0.55670884412E+02  0.51100000000E-03 0.  1.
         22    1    1    0    0    0 -0.74875689202E+01  0.16691860780E+02  0.17533001159E+02  0.25339456077E+02  0.00000000000E+00 0.  1.
</event>
<event>
 5    1  0.1059945E-009  0.9118800E+02  0.7815553E-02  0.1125453E+00
         25   -1    0    0    0    0  0.00000000000E+00  0.00000000000E+00  0.99999998245E-14  0.12509000000E+03  0.12509000000E+03 0.  0.
        -11    1    3    3    0    0 -0.41715193973E+02  0.12335074074E+00  0.40487427889E+02  0.58132645226E+02  0.51100000000E-03 0.  1.
         23    2    1    0    0    0 -0.19447620254E+02  0.16450021168E+02  0.16224578816E+02  0.94889832985E+02  0.89955713083E+02 0.  0.
         11    1    3    3    0    0  0.22267573719E+02  0.16326670428E+02 -0.24262849073E+02  0.36757187760E+02  0.51100000000E-03 0. -1.
         22    1    1    0    0    0  0.19447620254E+02 -0.16450021168E+02 -0.16224578816E+02  0.30200167015E+02  0.00000000000E+00 0.  1.
</event>
<event>
 5    1  0.1059945E-009  0.9118800E+02  0.7815553E-02  0.1125453E+00
         25   -1    0    0    0    0  0.00000000000E+00  0.00000000000E+00  0.99999998245E-14  0.12509000000E+03  0.12509000000E+03 0.  0.
        -11    1    3    3    0    0 -0.22066065179E+02  0.41078945184E+02  0.22732934301E+02  0.51876558021E+02  0.51100000000E-03 0. -1.
         23    2    1    0    0    0  0.95462777506E+01  0.10021564206E+02  0.25283775575E+02  0.96265835219E+02  0.91849216409E+02 0.  0.
         11    1    3    3    0    0  0.31612342929E+02 -0.31057380978E+02  0.25508412738E+01  0.44389277198E+02  0.51100000000E-03 0.  1.
         22    1    1    0    0    0 -0.95462777506E+01 -0.10021564206E+02 -0.25283775575E+02  0.28824164781E+02  0.00000000000E+00 0. -1.
</event>
<event>
 5    1  0.1059945E-009  0.9118800E+02  0.7815553E-02  0.1125453E+00
         25   -1    0    0    0    0  0.00000000000E+00  0.00000000000E+00  0.99999998245E-14  0.12509000000E+03  0.12509000000E+03 0.  0.
        -11    1    3    3    0    0  0.46110515709E+02 -0.55906451574E+01  0.21800100822E+02  0.51309642060E+02  0.51100000000E-03 0.  1.
         23    2    1    0    0    0  0.22344355732E+02 -0.66892833329E-01 -0.16910218749E+02  0.97068040649E+02  0.92935323260E+02 0.  0.
         11    1    3    3    0    0 -0.23766159977E+02  0.55237523241E+01 -0.38710319572E+02  0.45758398588E+02  0.51100000000E-03 0. -1.
         22    1    1    0    0    0 -0.22344355732E+02  0.66892833329E-01  0.16910218749E+02  0.28021959351E+02  0.00000000000E+00 0.  1.
</event>
<event>
 5    1  0.1059945E-009  0.9118800E+02  0.7815553E-02  0.1125453E+00
         25   -1    0    0    0    0  0.00000000000E+00  0.00000000000E+00  0.99999998245E-14  0.12509000000E+03  0.12509000000E+03 0.  0.
        -11    1    3    3    0    0 -0.32628534688E+02 -0.20535894388E+02  0.68984819796E+01  0.39165460397E+02  0.51100000000E-03 0.  1.
         23    2    1    0    0    0  0.12467413813E+02 -0.88975635689E+00  0.29314629897E+02  0.93221903107E+02  0.87605636915E+02 0.  0.
         11    1    3    3    0    0  0.45095948502E+02  0.19646138031E+02  0.22416147917E+02  0.54056442710E+02  0.51100000000E-03 0. -1.
         22    1    1    0    0    0 -0.12467413813E+02  0.88975635689E+00 -0.29314629897E+02  0.31868096893E+02  0.00000000000E+00 0. -1.
</event>
<event>
 5    1  0.1059945E-009  0.9118800E+02  0.7815553E-02  0.1125453E+00
         25   -1    0    0    0    0  0.00000000000E+00  0.00000000000E+00  0.99999998245E-14  0.12509000000E+03  0.12509000000E+03 0.  0.
        -11    1    3    3    0    0 -0.57230749664E+02 -0.98983935261E+01  0.22863125875E+02  0.62418422173E+02  0.51100000000E-03 0. -1.
         23    2    1    0    0    0 -0.28609307083E+02 -0.70138100278E+01  0.13652557314E+02  0.92623427897E+02  0.86746879433E+02 0.  0.
         11    1    3    3    0    0  0.28621442580E+02  0.28845834982E+01 -0.92105685608E+01  0.30205005725E+02  0.51100000000E-03 0.  1.
         22    1    1    0    0    0  0.28609307083E+02  0.70138100278E+01 -0.13652557314E+02  0.32466572103E+02  0.00000000000E+00 0. -1.
</event>
<event>
 5    1  0.1059945E-009  0.9118800E+02  0.7815553E-02  0.1125453E+00
         25   -1    0    0    0    0  0.00000000000E+00  0.00000000000E+00  0.99999998245E-14  0.12509000000E+03  0.12509000000E+03 0.  0.
        -11    1    3    3    0    0 -0.18698895185E+02 -0.44306211547E+02 -0.10668505185E+01  0.48102258087E+02  0.51100000000E-03 0.  1.
         23    2    1    0    0    0 -0.17662110409E+02 -0.26995210147E+01  0.22833958921E+02  0.96096427647E+02  0.91618208718E+02 0.  0.
         11    1    3    3    0    0  0.10367847762E+01  0.41606690532E+02  0.23900809439E+02  0.47994169560E+02  0.51100000000E-03 0. -1.
         22    1    1    0    0    0  0.17662110409E+02  0.26995210147E+01 -0.22833958921E+02  0.28993572353E+02  0.00000000000E+00 0.  1.
</event>
<event>
 5    1  0.1059945E-009  0.9118800E+02  0.7815553E-02  0.1125453E+00
         25   -1    0    0    0    0  0.00000000000E+00  0.00000000000E+00  0.99999998245E-14  0.12509000000E+03  0.12509000000E+03 0.  0.
        -11    1    3    3    0    0  0.49245025001E+02 -0.87463644313E+01  0.23409797216E+02  0.55223092851E+02  0.51100000000E-03 0.  1.
         23    2    1    0    0    0  0.15173566360E+02 -0.23942476865E+02  0.75871630385E+01  0.95746442658E+02  0.91139107546E+02 0.  0.
         11    1    3    3    0    0 -0.34071458641E+02 -0.15196112434E+02 -0.15822634177E+02  0.40523349807E+02  0.51100000000E-03 0. -1.
         22    1    1    0    0    0 -0.15173566360E+02  0.23942476865E+02 -0.75871630385E+01  0.29343557342E+02  0.00000000000E+00 0.  1.
</event>
<event>
 5    1  0.1059945E-009  0.9118800E+02  0.7815553E-02  0.1125453E+00
         25   -1    0    0    0    0  0.00000000000E+00  0.00000000000E+00  0.99999998245E-14  0.12509000000E+03  0.12509000000E+03 0.  0.
        -11    1    3    3    0    0  0.40438103231E+02 -0.16124917933E+02  0.37117117358E+02  0.57209558402E+02  0.51100000000E-03 0. -1.
         23    2    1    0    0    0  0.24058070880E+02 -0.17328320068E+02  0.27325311122E+01  0.95315376961E+02  0.90545529476E+02 0.  0.
         11    1    3    3    0    0 -0.16380032352E+02 -0.12034021353E+01 -0.34384586246E+02  0.38105818559E+02  0.51100000000E-03 0.  1.
         22    1    1    0    0    0 -0.24058070880E+02  0.17328320068E+02 -0.27325311122E+01  0.29774623039E+02  0.00000000000E+00 0. -1.
</event>
<event>
 5    1  0.1059945E-009  0.9118800E+02  0.7815553E-02  0.1125453E+00
         25   -1    0    0    0    0  0.00000000000E+00  0.00000000000E+00  0.99999998245E-14  0.12509000000E+03  0.12509000000E+03 0.  0.
        -11    1    3    3    0    0 -0.74067071034E+01 -0.52316618802E+02  0.19548751610E+02  0.56338633306E+02  0.51100000000E-03 0. -1.
         23    2    1    0    0    0  0.14858695065E+02 -0.27702884835E+02  0.27611087633E+01  0.93532839658E+02  0.88048496442E+02 0.  0.
         11    1    3    3    0    0  0.22265402169E+02  0.24613733968E+02 -0.16787642847E+02  0.37194206352E+02  0.51100000000E-03 0.  1.
         22    1    1    0    0    0 -0.14858695065E+02  0.27702884835E+02 -0.27611087633E+01  0.31557160342E+02  0.00000000000E+00 0. -1.
</event>
<event>
 5    1  0.1059945E-009  0.9118800E+02  0.7815553E-02  0.1125453E+00
         25   -1    0    0    0    0  0.00000000000E+00  0.00000000000E+00  0.99999998245E-14  0.12509000000E+03  0.12509000000E+03 0.  0.
        -11    1    3    3    0    0 -0.31565116928E+02  0.28487345812E+02  0.11142285361E+01  0.42533833398E+02  0.51100000000E-03 0.  1.
         23    2    1    0    0    0  0.74769366891E+00  0.33173868086E+01 -0.30578760758E+02  0.94322733131E+02  0.89163632019E+02 0.  0.
         11    1    3    3    0    0  0.32312810597E+02 -0.25169959004E+02 -0.31692989294E+02  0.51788899733E+02  0.51100000000E-03 0. -1.
         22    1    1    0    0    0 -0.74769366891E+00 -0.33173868086E+01  0.30578760758E+02  0.30767266869E+02  0.00000000000E+00 0. -1.
</event>
<event>
 5    1  0.1059945E-009  0.9118800E+02  0.7815553E-02  0.1125453E+00
         25   -1    0    0    0    0  0.00000000000E+00  0.00000000000E+00  0.99999998245E-14  0.12509000000E+03  0.12509000000E+03 0.  0.
        -11    1    3    3    0    0  0.14496618441E+02  0.47508591403E+02  0.22113184482E+02  0.54371050491E+02  0.51100000000E-03 0.  1.
         23    2    1    0    0    0  0.25662885526E+02  0.92066521723E+01  0.96327131238E+01  0.96173995783E+02  0.91724054451E+02 0.  0.
         11    1    3    3    0    0  0.11166267085E+02 -0.38301939231E+02 -0.12480471358E+02  0.41802945291E+02  0.51100000000E-03 0. -1.
         22    1    1    0    0    0 -0.25662885526E+02 -0.92066521723E+01 -0.96327131238E+01  0.28916004217E+02  0.00000000000E+00 0.  1.
</event>
<event>
 5    1  0.1059945E-009  0.9118800E+02  0.7815553E-02  0.1125453E+00
         25   -1    0    0    0    0  0.00000000000E+00  0.00000000000E+00  0.99999998245E-14  0.12509000000E+03  0.12509000000E+03 0.  0.
        -11    1    3    3    0    0  0.22219284630E+02 -0.23683360453E+02  0.48486001769E+02  0.58356580946E+02  0.51100000000E-03 0.  1.
         23    2    1    0    0    0  0.21811340735E+02 -0.19959139654E+02  0.15211999249E+02  0.91840838183E+02  0.85610938534E+02 0.  0.
         11    1    3    3    0    0 -0.40794389529E+00  0.37242207995E+01 -0.33274002520E+02  0.33484257238E+02  0.51100000000E-03 0. -1.
         22    1    1    0    0    0 -0.21811340735E+02  0.19959139654E+02 -0.15211999249E+02  0.33249161817E+02  0.00000000000E+00 0.  1.
</event>
<event>
 5    1  0.1059945E-009  0.9118800E+02  0.7815553E-02  0.1125453E+00
         25   -1    0    0    0    0  0.00000000000E+00  0.00000000000E+00  0.99999998245E-14  0.12509000000E+03  0.12509000000E+03 0.  0.
        -11    1    3    3    0    0 -0.21223521958E+02 -0.32355046365E+02  0.43335299344E+02  0.58096773396E+02  0.51100000000E-03 0. -1.
         23    2    1    0    0    0 -0.13770302864E+02 -0.33332818790E+00  0.26933611231E+02  0.94838524622E+02  0.89884336733E+02 0.  0.
         11    1    3    3    0    0  0.74532190940E+01  0.32021718177E+02 -0.16401688114E+02  0.36741751225E+02  0.51100000000E-03 0.  1.
         22    1    1    0    0    0  0.13770302864E+02  0.33332818790E+00 -0.26933611231E+02  0.30251475378E+02  0.00000000000E+00 0. -1.
</event>
<event>
 5    1  0.1059945E-009  0.9118800E+02  0.7815553E-02  0.1125453E+00
         25   -1    0    0    0    0  0.00000000000E+00  0.00000000000E+00  0.99999998245E-14  0.12509000000E+03  0.12509000000E+03 0.  0.
        -11    1    3    3    0    0  0.15226213297E+02 -0.33581036064E+02  0.51577148155E+01  0.37230707446E+02  0.51100000000E-03 0.  1.
         23    2    1    0    0    0  0.42561609775E+01  0.16866671387E+02 -0.23168640803E+02  0.96117850846E+02  0.91647454000E+02 0.  0.
         11    1    3    3    0    0 -0.10970052320E+02  0.50447707451E+02 -0.28326355618E+02  0.58887143400E+02  0.51100000000E-03 0. -1.
         22    1    1    0    0    0 -0.42561609775E+01 -0.16866671387E+02  0.23168640803E+02  0.28972149154E+02  0.00000000000E+00 0. -1.
</event>
<event>
 5    1  0.1059945E-009  0.9118800E+02  0.7815553E-02  0.1125453E+00
         25   -1    0    0    0    0  0.00000000000E+00  0.00000000000E+00  0.99999998245E-14  0.12509000000E+03  0.12509000000E+03 0.  0.
        -11    1    3    3    0    0 -0.35682349605E+02  0.76684031833E+01 -0.19968130328E+02  0.41602412308E+02  0.51100000000E-03 0. -1.
         23    2    1    0    0    0  0.91777822216E+01 -0.21074009219E+02  0.66524894808E+01  0.10116091378E+03  0.98290026499E+02 0.  0.
         11    1    3    3    0    0  0.44860131827E+02 -0.28742412402E+02  0.26620619809E+02  0.59558501471E+02  0.51100000000E-03 0.  1.
         22    1    1    0    0    0 -0.91777822216E+01  0.21074009219E+02 -0.66524894808E+01  0.23929086221E+02  0.00000000000E+00 0.  1.
</event>
<event>
 5    1  0.1059945E-009  0.9118800E+02  0.7815553E-02  0.1125453E+00
         25   -1    0    0    0    0  0.00000000000E+00  0.00000000000E+00  0.99999998245E-14  0.12509000000E+03  0.12509000000E+03 0.  0.
        -11    1    3    3    0    0  0.19052747384E+02  0.40683327010E+02  0.20074830229E+02  0.49205071776E+02  0.51100000000E-03 0. -1.
         23    2    1    0    0    0  0.24408770059E+02  0.77422896362E+01 -0.13155373604E+02  0.96301200802E+02  0.91897368388E+02 0.  0.
         11    1    3    3    0    0  0.53560226742E+01 -0.32941037374E+02 -0.33230203833E+02  0.47096129026E+02  0.51100000000E-03 0.  1.
         22    1    1    0    0    0 -0.24408770059E+02 -0.77422896362E+01  0.13155373604E+02  0.28788799198E+02  0.00000000000E+00 0. -1.
</event>
<event>
 5    1  0.1059945E-009  0.9118800E+02  0.7815553E-02  0.1125453E+00
         25   -1    0    0    0    0  0.00000000000E+00  0.00000000000E+00  0.99999998245E-14  0.12509000000E+03  0.12509000000E+03 0.  0.
        -11    1    3    3    0    0 -0.12195942006E+02 -0.50437093974E+02  0.28266433283E+02  0.59090038930E+02  0.51100000000E-03 0.  1.
         23    2    1    0    0    0 -0.54282221836E+01 -0.20186776893E+02  0.28073384790E+02  0.90088764436E+02  0.83011438891E+02 0.  0.
         11    1    3    3    0    0  0.67677198224E+01  0.30250317080E+02 -0.19304849251E+00  0.30998725507E+02  0.51100000000E-03 0. -1.
         22    1    1    0    0    0  0.54282221836E+01  0.20186776893E+02 -0.28073384790E+02  0.35001235564E+02  0.00000000000E+00 0.  1.
</event>
<event>
 5    1  0.1059945E-009  0.9118800E+02  0.7815553E-02  0.1125453E+00
         25   -1    0    0    0    0  0.00000000000E+00  0.00000000000E+00  0.99999998245E-14  0.12509000000E+03  0.12509000000E+03 0.  0.
        -11    1    3    3    0    0  0.36814616677E+02  0.20278142608E+01 -0.27563126530E+02  0.46034269584E+02  0.51100000000E-03 0. -1.
         23    2    1    0    0    0  0.48273885913E+02 -0.61221254166E+00  0.87126372787E+00  0.76804371022E+02  0.59727794555E+02 0.  0.
         11    1    3    3    0    0  0.11459269236E+02 -0.26400268025E+01  0.28434390258E+02  0.30770101438E+02  0.51100000000E-03 0.  1.
         22    1    1    0    0    0 -0.48273885913E+02  0.61221254166E+00 -0.87126372787E+00  0.48285628978E+02  0.00000000000E+00 0. -1.
</event>
<event>
 5    1  0.1059945E-009  0.9118800E+02  0.7815553E-02  0.1125453E+00
         25   -1    0    0    0    0  0.00000000000E+00  0.00000000000E+00  0.99999998245E-14  0.12509000000E+03  0.12509000000E+03 0.  0.
        -11    1    3    3    0    0  0.98895557753E+01 -0.45009073463E+02 -0.74373560091E+01  0.46679056032E+02  0.51100000000E-03 0.  1.
         23    2    1    0    0    0  0.13807218729E+02 -0.31234219030E+00  0.21113443861E+02  0.99860763817E+02  0.96621207775E+02 0.  0.
         11    1    3    3    0    0  0.39176629537E+01  0.44696731272E+02  0.28550799870E+02  0.53181707785E+02  0.51100000000E-03 0. -1.
         22    1    1    0    0    0 -0.13807218729E+02  0.31234219030E+00 -0.21113443861E+02  0.25229236183E+02  0.00000000000E+00 0.  1.
</event>
<event>
 5    1  0.1059945E-009  0.9118800E+02  0.7815553E-02  0.1125453E+00
         25   -1    0    0    0    0  0.00000000000E+00  0.00000000000E+00  0.99999998245E-14  0.12509000000E+03  0.12509000000E+03 0.  0.
        -11    1    3    3    0    0 -0.11550206704E+02 -0.77850541387E+01  0.33729893812E+02  0.36492740096E+02  0.51100000000E-03 0. -1.
         23    2    1    0    0    0 -0.18759840232E+02 -0.16807172299E+02 -0.20918819923E+02  0.92348441192E+02  0.86349434956E+02 0.  0.
         11    1    3    3    0    0 -0.72096335286E+01 -0.90221181607E+01 -0.54648713735E+02  0.55855701096E+02  0.51100000000E-03 0.  1.
         22    1    1    0    0    0  0.18759840232E+02  0.16807172299E+02  0.20918819923E+02  0.32741558808E+02  0.00000000000E+00 0.  1.
</event>
<event>
 5    1  0.1059945E-009  0.9118800E+02  0.7815553E-02  0.1125453E+00
         25   -1    0    0    0    0  0.00000000000E+00  0.00000000000E+00  0.99999998245E-14  0.12509000000E+03  0.12509000000E+03 0.  0.
        -11    1    3    3    0    0  0.10519933489E+02  0.32016980062E+02 -0.18641417178E+02  0.38513094495E+02  0.51100000000E-03 0. -1.
         23    2    1    0    0    0  0.21905867390E+01 -0.25415946202E+02 -0.11911902102E+02  0.96935739162E+02  0.92757075868E+02 0.  0.
         11    1    3    3    0    0 -0.83293467495E+01 -0.57432926264E+02  0.67295150756E+01  0.58422644668E+02  0.51100000000E-03 0.  1.
         22    1    1    0    0    0 -0.21905867390E+01  0.25415946202E+02  0.11911902102E+02  0.28154260838E+02  0.00000000000E+00 0.  1.
</event>
<event>
 5    1  0.1059945E-009  0.9118800E+02  0.7815553E-02  0.1125453E+00
         25   -1    0    0    0    0  0.00000000000E+00  0.00000000000E+00  0.99999998245E-14  0.12509000000E+03  0.12509000000E+03 0.  0.
        -11    1    3    3    0    0 -0.47205094447E+02 -0.37394071092E+02  0.99575452617E+01  0.61039251326E+02  0.51100000000E-03 0.  1.
         23    2    1    0    0    0 -0.22260884167E+02 -0.16289626485E+02 -0.51364209165E+01  0.97031459148E+02  0.92886071882E+02 0.  0.
         11    1    3    3    0    0  0.24944210280E+02  0.21104444607E+02 -0.15093966178E+02  0.35992207822E+02  0.51100000000E-03 0. -1.
         22    1    1    0    0    0  0.22260884167E+02  0.16289626485E+02  0.51364209165E+01  0.28058540852E+02  0.00000000000E+00 0.  1.
</event>
<event>
 5    1  0.1059945E-009  0.9118800E+02  0.7815553E-02  0.1125453E+00
         25   -1    0    0    0    0  0.00000000000E+00  0.00000000000E+00  0.99999998245E-14  0.12509000000E+03  0.12509000000E+03 0.  0.
        -11    1    3    3    0    0  0.43683918123E+02  0.14244285909E+02  0.38822660043E+02  0.60152999232E+02  0.51100000000E-03 0. -1.
         23    2    1    0    0    0  0.10938312760E+02  0.11488829352E+02  0.24277288129E+02  0.96089541301E+02  0.91608806032E+02 0.  0.
         11    1    3    3    0    0 -0.32745605363E+02 -0.27554565571E+01 -0.14545371914E+02  0.35936542068E+02  0.51100000000E-03 0.  1.
         22    1    1    0    0    0 -0.10938312760E+02 -0.11488829352E+02 -0.24277288129E+02  0.29000458699E+02  0.00000000000E+00 0. -1.
</event>
<event>
 5    1  0.1059945E-009  0.9118800E+02  0.7815553E-02  0.1125453E+00
         25   -1    0    0    0    0  0.00000000000E+00  0.00000000000E+00  0.99999998245E-14  0.12509000000E+03  0.12509000000E+03 0.  0.
        -11    1    3    3    0    0  0.55449122489E+02 -0.23011522192E+02 -0.14858336078E+02  0.61845820309E+02  0.51100000000E-03 0. -1.
         23    2    1    0    0    0  0.27305874200E+02 -0.76234913698E+01 -0.11819108052E+01  0.96715270051E+02  0.92459278395E+02 0.  0.
         11    1    3    3    0    0 -0.28143248289E+02  0.15388030822E+02  0.13676425273E+02  0.34869449742E+02  0.51100000000E-03 0.  1.
         22    1    1    0    0    0 -0.27305874200E+02  0.76234913698E+01  0.11819108052E+01  0.28374729949E+02  0.00000000000E+00 0. -1.
</event>
<event>
 5    1  0.1059945E-009  0.9118800E+02  0.7815553E-02  0.1125453E+00
         25   -1    0    0    0    0  0.00000000000E+00  0.00000000000E+00  0.99999998245E-14  0.12509000000E+03  0.12509000000E+03 0.  0.
        -11    1    3    3    0    0  0.31974391773E+02  0.24503758076E+02  0.21362456192E+02  0.45597701959E+02  0.51100000000E-03 0.  1.
         23    2    1    0    0    0  0.14262701001E+02 -0.22215185742E+02  0.10167299850E+02  0.96800194351E+02  0.92574102874E+02 0.  0.
         11    1    3    3    0    0 -0.17711690772E+02 -0.46718943818E+02 -0.11195156342E+02  0.51202492393E+02  0.51100000000E-03 0. -1.
         22    1    1    0    0    0 -0.14262701001E+02  0.22215185742E+02 -0.10167299850E+02  0.28289805649E+02  0.00000000000E+00 0.  1.
</event>
<event>
 5    1  0.1059945E-009  0.9118800E+02  0.7815553E-02  0.1125453E+00
         25   -1    0    0    0    0  0.00000000000E+00  0.00000000000E+00  0.99999998245E-14  0.12509000000E+03  0.12509000000E+03 0.  0.
        -11    1    3    3    0    0  0.24469441285E+02 -0.88129532035E+01 -0.45727652919E+02  0.52606462937E+02  0.51100000000E-03 0. -1.
         23    2    1    0    0    0 -0.12163178483E+02 -0.13480080859E+02 -0.22273918694E+02  0.96353560681E+02  0.91968612641E+02 0.  0.
         11    1    3    3    0    0 -0.36632619768E+02 -0.46671276559E+01  0.23453734225E+02  0.43747097744E+02  0.51100000000E-03 0.  1.
         22    1    1    0    0    0  0.12163178483E+02  0.13480080859E+02  0.22273918694E+02  0.28736439319E+02  0.00000000000E+00 0. -1.
</event>
<event>
 5    1  0.1059945E-009  0.9118800E+02  0.7815553E-02  0.1125453E+00
         25   -1    0    0    0    0  0.00000000000E+00  0.00000000000E+00  0.99999998245E-14  0.12509000000E+03  0.12509000000E+03 0.  0.
        -11    1    3    3    0    0 -0.12430982042E+02 -0.27567769908E+02  0.13806178843E+02  0.33243372674E+02  0.51100000000E-03 0. -1.
         23    2    1    0    0    0  0.11214679453E+02  0.16932980651E+02 -0.22065929813E+02  0.95099999542E+02  0.90247491851E+02 0.  0.
         11    1    3    3    0    0  0.23645661495E+02  0.44500750559E+02 -0.35872108656E+02  0.61856626868E+02  0.51100000000E-03 0.  1.
         22    1    1    0    0    0 -0.11214679453E+02 -0.16932980651E+02  0.22065929813E+02  0.29990000458E+02  0.00000000000E+00 0.  1.
</event>
<event>
 5    1  0.1059945E-009  0.9118800E+02  0.7815553E-02  0.1125453E+00
         25   -1    0    0    0    0  0.00000000000E+00  0.00000000000E+00  0.99999998245E-14  0.12509000000E+03  0.12509000000E+03 0.  0.
        -11    1    3    3    0    0  0.33976912849E+02  0.47359050154E+01 -0.27533570022E+02  0.43988144783E+02  0.51100000000E-03 0. -1.
         23    2    1    0    0    0 -0.35529366134E+01  0.30088657808E+02 -0.57247219982E+01  0.94256201511E+02  0.89070244157E+02 0.  0.
         11    1    3    3    0    0 -0.37529849463E+02  0.25352752793E+02  0.21808848023E+02  0.50268056728E+02  0.51100000000E-03 0.  1.
         22    1    1    0    0    0  0.35529366134E+01 -0.30088657808E+02  0.57247219982E+01  0.30833798489E+02  0.00000000000E+00 0.  1.
</event>
<event>
 5    1  0.1059945E-009  0.9118800E+02  0.7815553E-02  0.1125453E+00
         25   -1    0    0    0    0  0.00000000000E+00  0.00000000000E+00  0.99999998245E-14  0.12509000000E+03  0.12509000000E+03 0.  0.
        -11    1    3    3    0    0  0.69632682589E+01 -0.55759980394E+02 -0.18613797309E+02  0.59195742828E+02  0.51100000000E-03 0. -1.
         23    2    1    0    0    0 -0.31104071780E+01 -0.29629387675E+02  0.37874498022E+01  0.95058016669E+02  0.90189281571E+02 0.  0.
         11    1    3    3    0    0 -0.10073675437E+02  0.26130592720E+02  0.22401247111E+02  0.35862273841E+02  0.51100000000E-03 0.  1.
         22    1    1    0    0    0  0.31104071780E+01  0.29629387675E+02 -0.37874498022E+01  0.30031983331E+02  0.00000000000E+00 0. -1.
</event>
<event>
 5    1  0.1059945E-009  0.9118800E+02  0.7815553E-02  0.1125453E+00
         25   -1    0    0    0    0  0.00000000000E+00  0.00000000000E+00  0.99999998245E-14  0.12509000000E+03  0.12509000000E+03 0.  0.
        -11    1    3    3    0    0 -0.27015494106E+02 -0.13447914778E+02 -0.64557317672E+01  0.30860327389E+02  0.51100000000E-03 0. -1.
         23    2    1    0    0    0  0.11236726734E+02  0.16367982537E+02  0.28294796603E+02  0.90524549115E+02  0.83665546061E+02 0.  0.
         11    1    3    3    0    0  0.38252220840E+02  0.29815897315E+02  0.34750528370E+02  0.59664221726E+02  0.51100000000E-03 0.  1.
         22    1    1    0    0    0 -0.11236726734E+02 -0.16367982537E+02 -0.28294796603E+02  0.34565450885E+02  0.00000000000E+00 0.  1.
</event>
<event>
 5    1  0.1059945E-009  0.9118800E+02  0.7815553E-02  0.1125453E+00
         25   -1    0    0    0    0  0.00000000000E+00  0.00000000000E+00  0.99999998245E-14  0.12509000000E+03  0.12509000000E+03 0.  0.
        -11    1    3    3    0    0 -0.42954147071E+02  0.38991464285E+02 -0.13256049758E+02  0.59507275969E+02  0.51100000000E-03 0.  1.
         23    2    1    0    0    0 -0.93341654672E+01  0.23011771169E+02  0.29038039232E+01  0.10008799339E+03  0.96914942533E+02 0.  0.
         11    1    3    3    0    0  0.33619981604E+02 -0.15979693116E+02  0.16159853682E+02  0.40580717421E+02  0.51100000000E-03 0. -1.
         22    1    1    0    0    0  0.93341654672E+01 -0.23011771169E+02 -0.29038039232E+01  0.25002006610E+02  0.00000000000E+00 0.  1.
</event>
<event>
 5    1  0.1059945E-009  0.9118800E+02  0.7815553E-02  0.1125453E+00
         25   -1    0    0    0    0  0.00000000000E+00  0.00000000000E+00  0.99999998245E-14  0.12509000000E+03  0.12509000000E+03 0.  0.
        -11    1    3    3    0    0 -0.23864246132E+01 -0.30579788379E+02  0.18258987796E+02  0.35696065824E+02  0.51100000000E-03 0.  1.
         23    2    1    0    0    0 -0.19637412285E+02  0.13537076256E+02 -0.17883109193E+02  0.95279163225E+02  0.90495485831E+02 0.  0.
         11    1    3    3    0    0 -0.17250987671E+02  0.44116864635E+02 -0.36142096989E+02  0.59583097401E+02  0.51100000000E-03 0. -1.
         22    1    1    0    0    0  0.19637412285E+02 -0.13537076256E+02  0.17883109193E+02  0.29810836775E+02  0.00000000000E+00 0. -1.
</event>
<event>
 5    1  0.1059945E-009  0.9118800E+02  0.7815553E-02  0.1125453E+00
         25   -1    0    0    0    0  0.00000000000E+00  0.00000000000E+00  0.99999998245E-14  0.12509000000E+03  0.12509000000E+03 0.  0.
        -11    1    3    3    0    0 -0.23935175236E+02 -0.98584393257E+01 -0.32525843724E+02  0.41569363114E+02  0.51100000000E-03 0. -1.
         23    2    1    0    0    0 -0.37064847805E+00 -0.30537233588E+02  0.86752650971E+01  0.93342240394E+02  0.87777295480E+02 0.  0.
         11    1    3    3    0    0  0.23564526758E+02 -0.20678794262E+02  0.41201108821E+02  0.51772877280E+02  0.51100000000E-03 0.  1.
         22    1    1    0    0    0  0.37064847805E+00  0.30537233588E+02 -0.86752650971E+01  0.31747759606E+02  0.00000000000E+00 0.  1.
</event>
<event>
 5    1  0.1059945E-009  0.9118800E+02  0.7815553E-02  0.1125453E+00
         25   -1    0    0    0    0  0.00000000000E+00  0.00000000000E+00  0.99999998245E-14  0.12509000000E+03  0.12509000000E+03 0.  0.
        -11    1    3    3    0    0  0.37539630022E+02  0.29570984437E+02  0.14661106119E+01  0.47810212543E+02  0.51100000000E-03 0. -1.
         23    2    1    0    0    0  0.27419577093E+02 -0.13901765279E+02  0.89565864587E+01  0.93069495213E+02  0.87387746351E+02 0.  0.
         11    1    3    3    0    0 -0.10120052929E+02 -0.43472749716E+02  0.74904758468E+01  0.45259282670E+02  0.51100000000E-03 0.  1.
         22    1    1    0    0    0 -0.27419577093E+02  0.13901765279E+02 -0.89565864587E+01  0.32020504787E+02  0.00000000000E+00 0.  1.
</event>
<event>
 5    1  0.1059945E-009  0.9118800E+02  0.7815553E-02  0.1125453E+00
         25   -1    0    0    0    0  0.00000000000E+00  0.00000000000E+00  0.99999998245E-14  0.12509000000E+03  0.12509000000E+03 0.  0.
        -11    1    3    3    0    0  0.15853838551E+02  0.80912825420E+01  0.58676971029E+02  0.61317207857E+02  0.51100000000E-03 0.  1.
         23    2    1    0    0    0  0.99495729784E+01  0.12088577801E+02  0.26193674100E+02  0.94573835782E+02  0.89515217343E+02 0.  0.
         11    1    3    3    0    0 -0.59042655726E+01  0.39972952590E+01 -0.32483296929E+02  0.33256627925E+02  0.51100000000E-03 0. -1.
         22    1    1    0    0    0 -0.99495729784E+01 -0.12088577801E+02 -0.26193674100E+02  0.30516164218E+02  0.00000000000E+00 0.  1.
</event>
<event>
 5    1  0.1059945E-009  0.9118800E+02  0.7815553E-02  0.1125453E+00
         25   -1    0    0    0    0  0.00000000000E+00  0.00000000000E+00  0.99999998245E-14  0.12509000000E+03  0.12509000000E+03 0.  0.
        -11    1    3    3    0    0 -0.18626088993E+01  0.34815025355E+02  0.16254603164E+02  0.38467745277E+02  0.51100000000E-03 0. -1.
         23    2    1    0    0    0 -0.19874807558E+02 -0.19185827713E+02  0.98923180086E+01  0.95747847453E+02  0.91141035630E+02 0.  0.
         11    1    3    3    0    0 -0.18012198659E+02 -0.54000853069E+02 -0.63622851555E+01  0.57280102176E+02  0.51100000000E-03 0.  1.
         22    1    1    0    0    0  0.19874807558E+02  0.19185827713E+02 -0.98923180086E+01  0.29342152547E+02  0.00000000000E+00 0.  1.
</event>
<event>
 5    1  0.1059945E-009  0.9118800E+02  0.7815553E-02  0.1125453E+00
         25   -1    0    0    0    0  0.00000000000E+00  0.00000000000E+00  0.99999998245E-14  0.12509000000E+03  0.12509000000E+03 0.  0.
        -11    1    3    3    0    0  0.25865596361E+02 -0.97828453641E+01 -0.23122726615E+02  0.36047102864E+02  0.51100000000E-03 0.  1.
         23    2    1    0    0    0 -0.22103699186E+02 -0.31717495421E+00  0.15277881016E+02  0.98218309208E+02  0.94470887038E+02 0.  0.
         11    1    3    3    0    0 -0.47969295547E+02  0.94656704099E+01  0.38400607631E+02  0.62171206344E+02  0.51100000000E-03 0. -1.
         22    1    1    0    0    0  0.22103699186E+02  0.31717495421E+00 -0.15277881016E+02  0.26871690792E+02  0.00000000000E+00 0. -1.
</event>
<event>
 5    1  0.1059945E-009  0.9118800E+02  0.7815553E-02  0.1125453E+00
         25   -1    0    0    0    0  0.00000000000E+00  0.00000000000E+00  0.99999998245E-14  0.12509000000E+03  0.12509000000E+03 0.  0.
        -11    1    3    3    0    0 -0.18568119373E+02 -0.76440067744E+01 -0.55914220690E+02  0.59410487056E+02  0.51100000000E-03 0. -1.
         23    2    1    0    0    0 -0.98834857303E+00  0.81192691454E+01 -0.27732539532E+02  0.96176454503E+02  0.91727407504E+02 0.  0.
         11    1    3    3    0    0  0.17579770800E+02  0.15763275920E+02  0.28181681158E+02  0.36765967446E+02  0.51100000000E-03 0.  1.
         22    1    1    0    0    0  0.98834857303E+00 -0.81192691454E+01  0.27732539532E+02  0.28913545497E+02  0.00000000000E+00 0. -1.
</event>
<event>
 5    1  0.1059945E-009  0.9118800E+02  0.7815553E-02  0.1125453E+00
         25   -1    0    0    0    0  0.00000000000E+00  0.00000000000E+00  0.99999998245E-14  0.12509000000E+03  0.12509000000E+03 0.  0.
        -11    1    3    3    0    0 -0.23088392981E+01 -0.25565390885E+02 -0.26235115112E+02  0.36704239745E+02  0.51100000000E-03 0. -1.
         23    2    1    0    0    0  0.24683827838E+02  0.19743984698E+02 -0.83160528686E+01  0.92405553794E+02  0.86432131456E+02 0.  0.
         11    1    3    3    0    0  0.26992667136E+02  0.45309375583E+02  0.17919062244E+02  0.55701314049E+02  0.51100000000E-03 0.  1.
         22    1    1    0    0    0 -0.24683827838E+02 -0.19743984698E+02  0.83160528686E+01  0.32684446206E+02  0.00000000000E+00 0.  1.
</event>
<event>
 5    1  0.1059945E-009  0.9118800E+02  0.7815553E-02  0.1125453E+00
         25   -1    0    0    0    0  0.00000000000E+00  0.00000000000E+00  0.99999998245E-14  0.12509000000E+03  0.12509000000E+03 0.  0.
        -11    1    3    3    0    0  0.47763160600E+01 -0.32376086498E+02  0.16059027634E+02  0.36454307576E+02  0.51100000000E-03 0. -1.
         23    2    1    0    0    0  0.10253704260E+02  0.88457719941E+01 -0.26109312676E+02  0.95677717844E+02  0.91044732688E+02 0.  0.
         11    1    3    3    0    0  0.54773881997E+01  0.41221858492E+02 -0.42168340310E+02  0.59223410268E+02  0.51100000000E-03 0.  1.
         22    1    1    0    0    0 -0.10253704260E+02 -0.88457719941E+01  0.26109312676E+02  0.29412282156E+02  0.00000000000E+00 0.  1.
</event>
<event>
 5    1  0.1059945E-009  0.9118800E+02  0.7815553E-02  0.1125453E+00
         25   -1    0    0    0    0  0.00000000000E+00  0.00000000000E+00  0.99999998245E-14  0.12509000000E+03  0.12509000000E+03 0.  0.
        -11    1    3    3    0    0  0.26090441826E+02 -0.28039911447E+02 -0.16512392971E+02  0.41708595163E+02  0.51100000000E-03 0. -1.
         23    2    1    0    0    0 -0.93771901730E+01 -0.17477152094E+02  0.22238513151E+02  0.95291778442E+02  0.90512921899E+02 0.  0.
         11    1    3    3    0    0 -0.35467631999E+02  0.10562759353E+02  0.38750906122E+02  0.53583183279E+02  0.51100000000E-03 0.  1.
         22    1    1    0    0    0  0.93771901730E+01  0.17477152094E+02 -0.22238513151E+02  0.29798221558E+02  0.00000000000E+00 0.  1.
</event>
<event>
 5    1  0.1059945E-009  0.9118800E+02  0.7815553E-02  0.1125453E+00
         25   -1    0    0    0    0  0.00000000000E+00  0.00000000000E+00  0.99999998245E-14  0.12509000000E+03  0.12509000000E+03 0.  0.
        -11    1    3    3    0    0  0.12767900468E+01 -0.18023232456E+01  0.48317872193E+02  0.48368329881E+02  0.51100000000E-03 0.  1.
         23    2    1    0    0    0  0.22857409833E+02  0.15403826041E+02  0.96289143380E+01  0.95893167427E+02  0.91340267828E+02 0.  0.
         11    1    3    3    0    0  0.21580619786E+02  0.17206149287E+02 -0.38688957855E+02  0.47524837546E+02  0.51100000000E-03 0. -1.
         22    1    1    0    0    0 -0.22857409833E+02 -0.15403826041E+02 -0.96289143380E+01  0.29196832573E+02  0.00000000000E+00 0. -1.
</event>
<event>
 5    1  0.1059945E-009  0.9118800E+02  0.7815553E-02  0.1125453E+00
         25   -1    0    0    0    0  0.00000000000E+00  0.00000000000E+00  0.99999998245E-14  0.12509000000E+03  0.12509000000E+03 0.  0.
        -11    1    3    3    0    0 -0.50153370955E+02 -0.97077360673E+01 -0.14512048561E+02  0.53105558197E+02  0.51100000000E-03 0. -1.
         23    2    1    0    0    0 -0.21633135427E+02  0.17517571546E+02  0.45231153504E+01  0.96888644824E+02  0.92693543800E+02 0.  0.
         11    1    3    3    0    0  0.28520235528E+02  0.27225307613E+02  0.19035163911E+02  0.43783086627E+02  0.51100000000E-03 0.  1.
         22    1    1    0    0    0  0.21633135427E+02 -0.17517571546E+02 -0.45231153504E+01  0.28201355176E+02  0.00000000000E+00 0. -1.
</event>
<event>
 5    1  0.1059945E-009  0.9118800E+02  0.7815553E-02  0.1125453E+00
         25   -1    0    0    0    0  0.00000000000E+00  0.00000000000E+00  0.99999998245E-14  0.12509000000E+03  0.12509000000E+03 0.  0.
        -11    1    3    3    0    0 -0.18471336825E+02 -0.11571446453E+02  0.30620630103E+02  0.37586056527E+02  0.51100000000E-03 0.  1.
         23    2    1    0    0    0 -0.15386819579E+02  0.17965161784E+02 -0.18550768190E+02  0.95029523372E+02  0.90149753506E+02 0.  0.
         11    1    3    3    0    0  0.30845172460E+01  0.29536608237E+02 -0.49171398293E+02  0.57443466845E+02  0.51100000000E-03 0. -1.
         22    1    1    0    0    0  0.15386819579E+02 -0.17965161784E+02  0.18550768190E+02  0.30060476628E+02  0.00000000000E+00 0. -1.
</event>
<event>
 5    1  0.1059945E-009  0.9118800E+02  0.7815553E-02  0.1125453E+00
         25   -1    0    0    0    0  0.00000000000E+00  0.00000000000E+00  0.99999998245E-14  0.12509000000E+03  0.12509000000E+03 0.  0.
        -11    1    3    3    0    0 -0.81708756982E+01  0.38813561540E+02  0.83404418331E+01  0.40531700425E+02  0.51100000000E-03 0.  1.
         23    2    1    0    0    0  0.28778231312E+01 -0.11924589244E+02  0.26778765847E+02  0.95635289088E+02  0.90986419448E+02 0.  0.
         11    1    3    3    0    0  0.11048698829E+02 -0.50738150784E+02  0.18438324014E+02  0.55103588663E+02  0.51100000000E-03 0. -1.
         22    1    1    0    0    0 -0.28778231312E+01  0.11924589244E+02 -0.26778765847E+02  0.29454710912E+02  0.00000000000E+00 0. -1.
</event>
<event>
 5    1  0.1059945E-009  0.9118800E+02  0.7815553E-02  0.1125453E+00
         25   -1    0    0    0    0  0.00000000000E+00  0.00000000000E+00  0.99999998245E-14  0.12509000000E+03  0.12509000000E+03 0.  0.
        -11    1    3    3    0    0  0.28214056504E+02  0.44221773188E+02  0.26457144399E+02  0.58750137857E+02  0.51100000000E-03 0. -1.
         23    2    1    0    0    0 -0.11101135853E+01  0.26421361658E+02  0.13282378307E+02  0.95497056964E+02  0.90796176193E+02 0.  0.
         11    1    3    3    0    0 -0.29324170089E+02 -0.17800411530E+02 -0.13174766092E+02  0.36746919107E+02  0.51100000000E-03 0.  1.
         22    1    1    0    0    0  0.11101135853E+01 -0.26421361658E+02 -0.13282378307E+02  0.29592943036E+02  0.00000000000E+00 0. -1.
</event>
<event>
 5    1  0.1059945E-009  0.9118800E+02  0.7815553E-02  0.1125453E+00
         25   -1    0    0    0    0  0.00000000000E+00  0.00000000000E+00  0.99999998245E-14  0.12509000000E+03  0.12509000000E+03 0.  0.
        -11    1    3    3    0    0 -0.30445789911E+02 -0.30011153925E+02  0.40456499089E+02  0.58858676522E+02  0.51100000000E-03 0.  1.
         23    2    1    0    0    0 -0.25048499060E+02 -0.13135761213E+02  0.82322320997E+01  0.95632485286E+02  0.90982564642E+02 0.  0.
         11    1    3    3    0    0  0.53972908508E+01  0.16875392711E+02 -0.32224266989E+02  0.36773808763E+02  0.51100000000E-03 0. -1.
         22    1    1    0    0    0  0.25048499060E+02  0.13135761213E+02 -0.82322320997E+01  0.29457514714E+02  0.00000000000E+00 0.  1.
</event>
<event>
 5    1  0.1059945E-009  0.9118800E+02  0.7815553E-02  0.1125453E+00
         25   -1    0    0    0    0  0.00000000000E+00  0.00000000000E+00  0.99999998245E-14  0.12509000000E+03  0.12509000000E+03 0.  0.
        -11    1    3    3    0    0 -0.32705453182E+01  0.58586025865E+02 -0.47778097668E+01  0.58871439253E+02  0.51100000000E-03 0.  1.
         23    2    1    0    0    0  0.51239442147E+01  0.26769553046E+02  0.11409500633E+02  0.95542741594E+02  0.90859094163E+02 0.  0.
         11    1    3    3    0    0  0.83944895329E+01 -0.31816472819E+02  0.16187310400E+02  0.36671302341E+02  0.51100000000E-03 0. -1.
         22    1    1    0    0    0 -0.51239442147E+01 -0.26769553046E+02 -0.11409500633E+02  0.29547258406E+02  0.00000000000E+00 0.  1.
</event>
<event>
 5    1  0.1059945E-009  0.9118800E+02  0.7815553E-02  0.1125453E+00
         25   -1    0    0    0    0  0.00000000000E+00  0.00000000000E+00  0.99999998245E-14  0.12509000000E+03  0.12509000000E+03 0.  0.
        -11    1    3    3    0    0 -0.47497162418E+02 -0.11444129842E+02  0.23773483877E+02  0.54333480300E+02  0.51100000000E-03 0.  1.
         23    2    1    0    0    0 -0.24897939324E+02  0.17120026306E+02  0.10385145759E+02  0.93139195069E+02  0.87487460372E+02 0.  0.
         11    1    3    3    0    0  0.22599223094E+02  0.28564156148E+02 -0.13388338118E+02  0.38805714769E+02  0.51100000000E-03 0. -1.
         22    1    1    0    0    0  0.24897939324E+02 -0.17120026306E+02 -0.10385145759E+02  0.31950804931E+02  0.00000000000E+00 0. -1.
</event>
<event>
 5    1  0.1059945E-009  0.9118800E+02  0.7815553E-02  0.1125453E+00
         25   -1    0    0    0    0  0.00000000000E+00  0.00000000000E+00  0.99999998245E-14  0.12509000000E+03  0.12509000000E+03 0.  0.
        -11    1    3    3    0    0 -0.86059416115E+00  0.14214898686E+02  0.30354260591E+02  0.33528869698E+02  0.51100000000E-03 0.  1.
         23    2    1    0    0    0  0.21928211480E+02 -0.17240340870E+02  0.42524177277E+02  0.74233520913E+02  0.54076188493E+02 0.  0.
         11    1    3    3    0    0  0.22788805641E+02 -0.31455239556E+02  0.12169916686E+02  0.40704651214E+02  0.51100000000E-03 0. -1.
         22    1    1    0    0    0 -0.21928211480E+02  0.17240340870E+02 -0.42524177277E+02  0.50856479087E+02  0.00000000000E+00 0. -1.
</event>
<event>
 5    1  0.1059945E-009  0.9118800E+02  0.7815553E-02  0.1125453E+00
         25   -1    0    0    0    0  0.00000000000E+00  0.00000000000E+00  0.99999998245E-14  0.12509000000E+03  0.12509000000E+03 0.  0.
        -11    1    3    3    0    0  0.52173979451E+02  0.18471565223E+02 -0.90198279593E+01  0.56077447786E+02  0.51100000000E-03 0. -1.
         23    2    1    0    0    0  0.13633770093E+02  0.20113405495E+02 -0.16955378700E+02  0.95460392605E+02  0.90745649603E+02 0.  0.
         11    1    3    3    0    0 -0.38540209358E+02  0.16418402718E+01 -0.79355507404E+01  0.39382944819E+02  0.51100000000E-03 0.  1.
         22    1    1    0    0    0 -0.13633770093E+02 -0.20113405495E+02  0.16955378700E+02  0.29629607395E+02  0.00000000000E+00 0. -1.
</event>
<event>
 5    1  0.1059945E-009  0.9118800E+02  0.7815553E-02  0.1125453E+00
         25   -1    0    0    0    0  0.00000000000E+00  0.00000000000E+00  0.99999998245E-14  0.12509000000E+03  0.12509000000E+03 0.  0.
        -11    1    3    3    0    0  0.41082549299E+02 -0.32410309683E+02  0.28023540655E+02  0.59359269383E+02  0.51100000000E-03 0. -1.
         23    2    1    0    0    0  0.86858759907E+01 -0.23243212609E+02  0.17822862360E+02  0.94539291386E+02  0.89466931427E+02 0.  0.
         11    1    3    3    0    0 -0.32396673308E+02  0.91670970740E+01 -0.10200678295E+02  0.35180022003E+02  0.51100000000E-03 0.  1.
         22    1    1    0    0    0 -0.86858759907E+01  0.23243212609E+02 -0.17822862360E+02  0.30550708614E+02  0.00000000000E+00 0. -1.
</event>
<event>
 5    1  0.1059945E-009  0.9118800E+02  0.7815553E-02  0.1125453E+00
         25   -1    0    0    0    0  0.00000000000E+00  0.00000000000E+00  0.99999998245E-14  0.12509000000E+03  0.12509000000E+03 0.  0.
        -11    1    3    3    0    0  0.19784013205E+02  0.11092980730E+02 -0.35063757368E+02  0.41760369742E+02  0.51100000000E-03 0.  1.
         23    2    1    0    0    0  0.26329474798E+02  0.83135570327E+01  0.15907027371E+02  0.93224815340E+02  0.87609795124E+02 0.  0.
         11    1    3    3    0    0  0.65454615925E+01 -0.27794236974E+01  0.50970784739E+02  0.51464445598E+02  0.51100000000E-03 0. -1.
         22    1    1    0    0    0 -0.26329474798E+02 -0.83135570327E+01 -0.15907027371E+02  0.31865184660E+02  0.00000000000E+00 0. -1.
</event>
<event>
 5    1  0.1059945E-009  0.9118800E+02  0.7815553E-02  0.1125453E+00
         25   -1    0    0    0    0  0.00000000000E+00  0.00000000000E+00  0.99999998245E-14  0.12509000000E+03  0.12509000000E+03 0.  0.
        -11    1    3    3    0    0  0.10979247892E+02  0.38085135656E+02 -0.17697172434E+02  0.43407503437E+02  0.51100000000E-03 0.  1.
         23    2    1    0    0    0  0.11366296629E+02  0.10165172816E+02  0.25814591968E+02  0.95108062172E+02  0.90258666588E+02 0.  0.
         11    1    3    3    0    0  0.38704873713E+00 -0.27919962841E+02  0.43511764403E+02  0.51700558734E+02  0.51100000000E-03 0. -1.
         22    1    1    0    0    0 -0.11366296629E+02 -0.10165172816E+02 -0.25814591968E+02  0.29981937828E+02  0.00000000000E+00 0. -1.
</event>
<event>
 5    1  0.1059945E-009  0.9118800E+02  0.7815553E-02  0.1125453E+00
         25   -1    0    0    0    0  0.00000000000E+00  0.00000000000E+00  0.99999998245E-14  0.12509000000E+03  0.12509000000E+03 0.  0.
        -11    1    3    3    0    0 -0.15403991146E+02 -0.59531877163E+02  0.96778375133E+01  0.62249400648E+02  0.51100000000E-03 0.  1.
         23    2    1    0    0    0 -0.29630151459E+01 -0.28309139138E+02  0.37042855012E+01  0.96386192787E+02  0.92012986102E+02 0.  0.
         11    1    3    3    0    0  0.12440976000E+02  0.31222738026E+02 -0.59735520121E+01  0.34136792139E+02  0.51100000000E-03 0. -1.
         22    1    1    0    0    0  0.29630151459E+01  0.28309139138E+02 -0.37042855012E+01  0.28703807213E+02  0.00000000000E+00 0.  1.
</event>
<event>
 5    1  0.1059945E-009  0.9118800E+02  0.7815553E-02  0.1125453E+00
         25   -1    0    0    0    0  0.00000000000E+00  0.00000000000E+00  0.99999998245E-14  0.12509000000E+03  0.12509000000E+03 0.  0.
        -11    1    3    3    0    0  0.39422472143E+02 -0.32897765155E+02 -0.15595348815E+02  0.53661989965E+02  0.51100000000E-03 0. -1.
         23    2    1    0    0    0  0.87431063306E+01 -0.27550619059E+02  0.10546192248E+02  0.94321498415E+02  0.89161899786E+02 0.  0.
         11    1    3    3    0    0 -0.30679365812E+02  0.53471460964E+01  0.26141541062E+02  0.40659508450E+02  0.51100000000E-03 0.  1.
         22    1    1    0    0    0 -0.87431063306E+01  0.27550619059E+02 -0.10546192248E+02  0.30768501585E+02  0.00000000000E+00 0.  1.
</event>
<event>
 5    1  0.1059945E-009  0.9118800E+02  0.7815553E-02  0.1125453E+00
         25   -1    0    0    0    0  0.00000000000E+00  0.00000000000E+00  0.99999998245E-14  0.12509000000E+03  0.12509000000E+03 0.  0.
        -11    1    3    3    0    0 -0.34140746547E+02  0.27688867430E+02 -0.31593717779E+02  0.54133418123E+02  0.51100000000E-03 0. -1.
         23    2    1    0    0    0  0.42278269481E+01  0.14156859804E+02 -0.25978474180E+02  0.95204011294E+02  0.90391545210E+02 0.  0.
         11    1    3    3    0    0  0.38368573495E+02 -0.13532007626E+02  0.56152435982E+01  0.41070593171E+02  0.51100000000E-03 0.  1.
         22    1    1    0    0    0 -0.42278269481E+01 -0.14156859804E+02  0.25978474180E+02  0.29885988706E+02  0.00000000000E+00 0. -1.
</event>
<event>
 5    1  0.1059945E-009  0.9118800E+02  0.7815553E-02  0.1125453E+00
         25   -1    0    0    0    0  0.00000000000E+00  0.00000000000E+00  0.99999998245E-14  0.12509000000E+03  0.12509000000E+03 0.  0.
        -11    1    3    3    0    0  0.38308065936E+02  0.17900240995E+02 -0.45149742454E+02  0.61858110118E+02  0.51100000000E-03 0. -1.
         23    2    1    0    0    0  0.20254484681E+02  0.11601460437E+02 -0.15740187453E+02  0.96936997762E+02  0.92758773170E+02 0.  0.
         11    1    3    3    0    0 -0.18053581256E+02 -0.62987805574E+01  0.29409555001E+02  0.35078887643E+02  0.51100000000E-03 0.  1.
         22    1    1    0    0    0 -0.20254484681E+02 -0.11601460437E+02  0.15740187453E+02  0.28153002238E+02  0.00000000000E+00 0. -1.
</event>
<event>
 5    1  0.1059945E-009  0.9118800E+02  0.7815553E-02  0.1125453E+00
         25   -1    0    0    0    0  0.00000000000E+00  0.00000000000E+00  0.99999998245E-14  0.12509000000E+03  0.12509000000E+03 0.  0.
        -11    1    3    3    0    0 -0.36410759889E+02  0.18314792380E+02  0.37628525892E+02  0.55471443254E+02  0.51100000000E-03 0. -1.
         23    2    1    0    0    0 -0.89094401345E+01  0.20057963123E+02 -0.12286192479E+01  0.10310797295E+03  0.10073750330E+03 0.  0.
         11    1    3    3    0    0  0.27501319754E+02  0.17431707428E+01 -0.38857145140E+02  0.47636529693E+02  0.51100000000E-03 0.  1.
         22    1    1    0    0    0  0.89094401345E+01 -0.20057963123E+02  0.12286192479E+01  0.21982027054E+02  0.00000000000E+00 0. -1.
</event>
<event>
 5    1  0.1059945E-009  0.9118800E+02  0.7815553E-02  0.1125453E+00
         25   -1    0    0    0    0  0.00000000000E+00  0.00000000000E+00  0.99999998245E-14  0.12509000000E+03  0.12509000000E+03 0.  0.
        -11    1    3    3    0    0  0.25130774313E+02  0.39736575842E+02  0.33213679448E+02  0.57564744244E+02  0.51100000000E-03 0. -1.
         23    2    1    0    0    0  0.27356689267E+02  0.12113588813E+02  0.10546127737E+02  0.93367006891E+02  0.87812582720E+02 0.  0.
         11    1    3    3    0    0  0.22259149539E+01 -0.27622987029E+02 -0.22667551711E+02  0.35802262646E+02  0.51100000000E-03 0.  1.
         22    1    1    0    0    0 -0.27356689267E+02 -0.12113588813E+02 -0.10546127737E+02  0.31722993109E+02  0.00000000000E+00 0. -1.
</event>
<event>
 5    1  0.1059945E-009  0.9118800E+02  0.7815553E-02  0.1125453E+00
         25   -1    0    0    0    0  0.00000000000E+00  0.00000000000E+00  0.99999998245E-14  0.12509000000E+03  0.12509000000E+03 0.  0.
        -11    1    3    3    0    0 -0.37719737345E+02  0.22101891459E+01  0.11223312522E+02  0.39416066086E+02  0.51100000000E-03 0. -1.
         23    2    1    0    0    0  0.11490020345E+02 -0.25842503344E+02  0.43516148603E+01  0.96475456521E+02  0.92134258625E+02 0.  0.
         11    1    3    3    0    0  0.49209757690E+02 -0.28052692490E+02 -0.68716976616E+01  0.57059390435E+02  0.51100000000E-03 0.  1.
         22    1    1    0    0    0 -0.11490020345E+02  0.25842503344E+02 -0.43516148603E+01  0.28614543479E+02  0.00000000000E+00 0.  1.
</event>
<event>
 5    1  0.1059945E-009  0.9118800E+02  0.7815553E-02  0.1125453E+00
         25   -1    0    0    0    0  0.00000000000E+00  0.00000000000E+00  0.99999998245E-14  0.12509000000E+03  0.12509000000E+03 0.  0.
        -11    1    3    3    0    0  0.31539831036E+02 -0.14109476828E+02 -0.37368564734E+02  0.50894478174E+02  0.51100000000E-03 0.  1.
         23    2    1    0    0    0  0.11949674877E+01 -0.27957843018E+02 -0.64562366871E+01  0.96371505511E+02  0.91993016848E+02 0.  0.
         11    1    3    3    0    0 -0.30344863548E+02 -0.13848366190E+02  0.30912328047E+02  0.45477027337E+02  0.51100000000E-03 0. -1.
         22    1    1    0    0    0 -0.11949674877E+01  0.27957843018E+02  0.64562366871E+01  0.28718494489E+02  0.00000000000E+00 0.  1.
</event>
<event>
 5    1  0.1059945E-009  0.9118800E+02  0.7815553E-02  0.1125453E+00
         25   -1    0    0    0    0  0.00000000000E+00  0.00000000000E+00  0.99999998245E-14  0.12509000000E+03  0.12509000000E+03 0.  0.
        -11    1    3    3    0    0 -0.26983618925E+02 -0.18684513962E+02  0.29402555377E+02  0.44065145129E+02  0.51100000000E-03 0. -1.
         23    2    1    0    0    0  0.17327079507E+02 -0.22144749241E+02  0.71875533170E+00  0.96962891858E+02  0.92793686127E+02 0.  0.
         11    1    3    3    0    0  0.44310698432E+02 -0.34602352793E+01 -0.28683800045E+02  0.52897746729E+02  0.51100000000E-03 0.  1.
         22    1    1    0    0    0 -0.17327079507E+02  0.22144749241E+02 -0.71875533170E+00  0.28127108142E+02  0.00000000000E+00 0. -1.
</event>
<event>
 5    1  0.1059945E-009  0.9118800E+02  0.7815553E-02  0.1125453E+00
         25   -1    0    0    0    0  0.00000000000E+00  0.00000000000E+00  0.99999998245E-14  0.12509000000E+03  0.12509000000E+03 0.  0.
        -11    1    3    3    0    0 -0.36201570847E+01  0.35805731647E+02  0.17089868396E+02  0.39839924174E+02  0.51100000000E-03 0. -1.
         23    2    1    0    0    0  0.26830837575E+02 -0.91593143475E+01  0.10908242224E+00  0.96738654648E+02  0.92490910472E+02 0.  0.
         11    1    3    3    0    0  0.30450994659E+02 -0.44965045995E+02 -0.16980785974E+02  0.56898730475E+02  0.51100000000E-03 0.  1.
         22    1    1    0    0    0 -0.26830837575E+02  0.91593143475E+01 -0.10908242224E+00  0.28351345352E+02  0.00000000000E+00 0.  1.
</event>
<event>
 5    1  0.1059945E-009  0.9118800E+02  0.7815553E-02  0.1125453E+00
         25   -1    0    0    0    0  0.00000000000E+00  0.00000000000E+00  0.99999998245E-14  0.12509000000E+03  0.12509000000E+03 0.  0.
        -11    1    3    3    0    0  0.41065891107E+02  0.19434098588E+02 -0.15890308825E+02  0.48131003679E+02  0.51100000000E-03 0. -1.
         23    2    1    0    0    0  0.22660898267E+02 -0.20250292744E+02  0.78666133640E-01  0.94699263667E+02  0.89690321018E+02 0.  0.
         11    1    3    3    0    0 -0.18404992840E+02 -0.39684391331E+02  0.15968974959E+02  0.46568259988E+02  0.51100000000E-03 0.  1.
         22    1    1    0    0    0 -0.22660898267E+02  0.20250292744E+02 -0.78666133640E-01  0.30390736333E+02  0.00000000000E+00 0. -1.
</event>
<event>
 5    1  0.1059945E-009  0.9118800E+02  0.7815553E-02  0.1125453E+00
         25   -1    0    0    0    0  0.00000000000E+00  0.00000000000E+00  0.99999998245E-14  0.12509000000E+03  0.12509000000E+03 0.  0.
        -11    1    3    3    0    0 -0.94493950053E+01 -0.27993959713E+02 -0.21132369312E+02  0.36325333851E+02  0.51100000000E-03 0.  1.
         23    2    1    0    0    0 -0.18104699417E+02  0.24637650345E+02  0.19702291715E+01  0.94452184176E+02  0.89345057709E+02 0.  0.
         11    1    3    3    0    0 -0.86553044113E+01  0.52631610058E+02  0.23102598484E+02  0.58126850325E+02  0.51100000000E-03 0. -1.
         22    1    1    0    0    0  0.18104699417E+02 -0.24637650345E+02 -0.19702291715E+01  0.30637815824E+02  0.00000000000E+00 0. -1.
</event>
<event>
 5    1  0.1059945E-009  0.9118800E+02  0.7815553E-02  0.1125453E+00
         25   -1    0    0    0    0  0.00000000000E+00  0.00000000000E+00  0.99999998245E-14  0.12509000000E+03  0.12509000000E+03 0.  0.
        -11    1    3    3    0    0 -0.43413121951E+02 -0.36893729756E+02 -0.20055753421E+02  0.60399335248E+02  0.51100000000E-03 0.  1.
         23    2    1    0    0    0 -0.16823315072E+02 -0.14405139689E+02 -0.20036167698E+02  0.95223965856E+02  0.90419155481E+02 0.  0.
         11    1    3    3    0    0  0.26589806880E+02  0.22488590068E+02  0.19585722976E-01  0.34824630608E+02  0.51100000000E-03 0. -1.
         22    1    1    0    0    0  0.16823315072E+02  0.14405139689E+02  0.20036167698E+02  0.29866034144E+02  0.00000000000E+00 0.  1.
</event>
<event>
 5    1  0.1059945E-009  0.9118800E+02  0.7815553E-02  0.1125453E+00
         25   -1    0    0    0    0  0.00000000000E+00  0.00000000000E+00  0.99999998245E-14  0.12509000000E+03  0.12509000000E+03 0.  0.
        -11    1    3    3    0    0  0.15541383855E+02 -0.34045586373E+02 -0.46243192645E+02  0.59490078416E+02  0.51100000000E-03 0.  1.
         23    2    1    0    0    0  0.12980223099E+02 -0.35215469975E+01 -0.24789302576E+02  0.96887216322E+02  0.92691616015E+02 0.  0.
         11    1    3    3    0    0 -0.25611607559E+01  0.30524039376E+02  0.21453890069E+02  0.37397137906E+02  0.51100000000E-03 0. -1.
         22    1    1    0    0    0 -0.12980223099E+02  0.35215469975E+01  0.24789302576E+02  0.28202783678E+02  0.00000000000E+00 0.  1.
</event>
<event>
 5    1  0.1059945E-009  0.9118800E+02  0.7815553E-02  0.1125453E+00
         25   -1    0    0    0    0  0.00000000000E+00  0.00000000000E+00  0.99999998245E-14  0.12509000000E+03  0.12509000000E+03 0.  0.
        -11    1    3    3    0    0 -0.53650284998E+02 -0.48119661484E+01  0.57308507757E+01  0.54169647862E+02  0.51100000000E-03 0. -1.
         23    2    1    0    0    0 -0.19762679133E+02  0.89310404628E+01  0.22003674239E+02  0.94195200272E+02  0.88984532948E+02 0.  0.
         11    1    3    3    0    0  0.33887605865E+02  0.13743006611E+02  0.16272823463E+02  0.40025552410E+02  0.51100000000E-03 0.  1.
         22    1    1    0    0    0  0.19762679133E+02 -0.89310404628E+01 -0.22003674239E+02  0.30894799728E+02  0.00000000000E+00 0.  1.
</event>
<event>
 5    1  0.1059945E-009  0.9118800E+02  0.7815553E-02  0.1125453E+00
         25   -1    0    0    0    0  0.00000000000E+00  0.00000000000E+00  0.99999998245E-14  0.12509000000E+03  0.12509000000E+03 0.  0.
        -11    1    3    3    0    0 -0.58345610080E+02 -0.18773022308E+02 -0.59919006930E+01  0.61583597299E+02  0.51100000000E-03 0.  1.
         23    2    1    0    0    0 -0.47404278982E+02 -0.11280551762E+02  0.52486624032E+00  0.76359188408E+02  0.58788040075E+02 0.  0.
         11    1    3    3    0    0  0.10941331097E+02  0.74924705466E+01  0.65167669333E+01  0.14775591108E+02  0.51100000000E-03 0. -1.
         22    1    1    0    0    0  0.47404278982E+02  0.11280551762E+02 -0.52486624032E+00  0.48730811592E+02  0.00000000000E+00 0.  1.
</event>
<event>
 5    1  0.1059945E-009  0.9118800E+02  0.7815553E-02  0.1125453E+00
         25   -1    0    0    0    0  0.00000000000E+00  0.00000000000E+00  0.99999998245E-14  0.12509000000E+03  0.12509000000E+03 0.  0.
        -11    1    3    3    0    0  0.17238979285E+01 -0.29112296581E+02  0.15309817881E+02  0.32937640476E+02  0.51100000000E-03 0.  1.
         23    2    1    0    0    0  0.62079501132E+01  0.20388058727E+02 -0.21522817590E+02  0.94800674152E+02  0.89831645646E+02 0.  0.
         11    1    3    3    0    0  0.44840521847E+01  0.49500355308E+02 -0.36832635472E+02  0.61863033677E+02  0.51100000000E-03 0. -1.
         22    1    1    0    0    0 -0.62079501132E+01 -0.20388058727E+02  0.21522817590E+02  0.30289325848E+02  0.00000000000E+00 0. -1.
</event>
<event>
 5    1  0.1059945E-009  0.9118800E+02  0.7815553E-02  0.1125453E+00
         25   -1    0    0    0    0  0.00000000000E+00  0.00000000000E+00  0.99999998245E-14  0.12509000000E+03  0.12509000000E+03 0.  0.
        -11    1    3    3    0    0 -0.38904710766E+02 -0.21052714162E+02  0.41821976674E+02  0.60875865715E+02  0.51100000000E-03 0.  1.
         23    2    1    0    0    0 -0.13286158782E+02 -0.35488171970E+01  0.25936264960E+02  0.95733468209E+02  0.91121298151E+02 0.  0.
         11    1    3    3    0    0  0.25618551984E+02  0.17503896965E+02 -0.15885711714E+02  0.34857602494E+02  0.51100000000E-03 0. -1.
         22    1    1    0    0    0  0.13286158782E+02  0.35488171970E+01 -0.25936264960E+02  0.29356531791E+02  0.00000000000E+00 0.  1.
</event>
<event>
 5    1  0.1059945E-009  0.9118800E+02  0.7815553E-02  0.1125453E+00
         25   -1    0    0    0    0  0.00000000000E+00  0.00000000000E+00  0.99999998245E-14  0.12509000000E+03  0.12509000000E+03 0.  0.
        -11    1    3    3    0    0  0.21000471283E+01 -0.35498612145E+02 -0.95817668219E+01  0.36828954884E+02  0.51100000000E-03 0.  1.
         23    2    1    0    0    0  0.32066733517E+01  0.22599522759E+02 -0.18615527848E+02  0.95635644465E+02  0.90986908027E+02 0.  0.
         11    1    3    3    0    0  0.11066262235E+01  0.58098134904E+02 -0.90337610257E+01  0.58806689581E+02  0.51100000000E-03 0. -1.
         22    1    1    0    0    0 -0.32066733517E+01 -0.22599522759E+02  0.18615527848E+02  0.29454355535E+02  0.00000000000E+00 0. -1.
</event>
<event>
 5    1  0.1059945E-009  0.9118800E+02  0.7815553E-02  0.1125453E+00
         25   -1    0    0    0    0  0.00000000000E+00  0.00000000000E+00  0.99999998245E-14  0.12509000000E+03  0.12509000000E+03 0.  0.
        -11    1    3    3    0    0 -0.53969726899E+02  0.24592699289E+01 -0.29087265909E+02  0.61358361032E+02  0.51100000000E-03 0.  1.
         23    2    1    0    0    0 -0.29088034131E+02  0.15751795219E+01 -0.59268990575E+01  0.95362520246E+02  0.90610635220E+02 0.  0.
         11    1    3    3    0    0  0.24881692769E+02 -0.88409040709E+00  0.23160366852E+02  0.34004159214E+02  0.51100000000E-03 0. -1.
         22    1    1    0    0    0  0.29088034131E+02 -0.15751795219E+01  0.59268990575E+01  0.29727479754E+02  0.00000000000E+00 0.  1.
</event>
<event>
 5    1  0.1059945E-009  0.9118800E+02  0.7815553E-02  0.1125453E+00
         25   -1    0    0    0    0  0.00000000000E+00  0.00000000000E+00  0.99999998245E-14  0.12509000000E+03  0.12509000000E+03 0.  0.
        -11    1    3    3    0    0  0.62419793799E+01 -0.40302767117E+02  0.17407549117E+01  0.40820406315E+02  0.51100000000E-03 0.  1.
         23    2    1    0    0    0 -0.14979723205E+02  0.58352536358E+01 -0.22774949182E+02  0.97212758341E+02  0.93129908095E+02 0.  0.
         11    1    3    3    0    0 -0.21221702585E+02  0.46138020752E+02 -0.24515704093E+02  0.56392352026E+02  0.51100000000E-03 0. -1.
         22    1    1    0    0    0  0.14979723205E+02 -0.58352536358E+01  0.22774949182E+02  0.27877241659E+02  0.00000000000E+00 0. -1.
</event>
<event>
 5    1  0.1059945E-009  0.9118800E+02  0.7815553E-02  0.1125453E+00
         25   -1    0    0    0    0  0.00000000000E+00  0.00000000000E+00  0.99999998245E-14  0.12509000000E+03  0.12509000000E+03 0.  0.
        -11    1    3    3    0    0 -0.20237884975E+02 -0.26714039300E+02  0.14082571790E+02  0.36352863882E+02  0.51100000000E-03 0. -1.
         23    2    1    0    0    0  0.19691727180E+02 -0.11415533418E+02 -0.22837788725E+02  0.92846502727E+02  0.87067961687E+02 0.  0.
         11    1    3    3    0    0  0.39929612156E+02  0.15298505882E+02 -0.36920360515E+02  0.56493638845E+02  0.51100000000E-03 0.  1.
         22    1    1    0    0    0 -0.19691727180E+02  0.11415533418E+02  0.22837788725E+02  0.32243497273E+02  0.00000000000E+00 0.  1.
</event>
<event>
 5    1  0.1059945E-009  0.9118800E+02  0.7815553E-02  0.1125453E+00
         25   -1    0    0    0    0  0.00000000000E+00  0.00000000000E+00  0.99999998245E-14  0.12509000000E+03  0.12509000000E+03 0.  0.
        -11    1    3    3    0    0 -0.36636673290E+02  0.40515358131E+01 -0.14558160230E+02  0.39630806221E+02  0.51100000000E-03 0. -1.
         23    2    1    0    0    0  0.98649667383E+01 -0.26626970683E+02 -0.29062498101E+01  0.96546008961E+02  0.92229997407E+02 0.  0.
         11    1    3    3    0    0  0.46501640028E+02 -0.30678506496E+02  0.11651910420E+02  0.56915202739E+02  0.51100000000E-03 0.  1.
         22    1    1    0    0    0 -0.98649667383E+01  0.26626970683E+02  0.29062498101E+01  0.28543991039E+02  0.00000000000E+00 0.  1.
</event>
<event>
 5    1  0.1059945E-009  0.9118800E+02  0.7815553E-02  0.1125453E+00
         25   -1    0    0    0    0  0.00000000000E+00  0.00000000000E+00  0.99999998245E-14  0.12509000000E+03  0.12509000000E+03 0.  0.
        -11    1    3    3    0    0  0.18452103214E+02 -0.28341498615E+02  0.13307093757E+02  0.36342803982E+02  0.51100000000E-03 0.  1.
         23    2    1    0    0    0 -0.29903275252E+02 -0.11477482215E+02 -0.84178787544E+01  0.91972041858E+02  0.85802431970E+02 0.  0.
         11    1    3    3    0    0 -0.48355378466E+02  0.16864016400E+02 -0.21724972511E+02  0.55629237876E+02  0.51100000000E-03 0. -1.
         22    1    1    0    0    0  0.29903275252E+02  0.11477482215E+02  0.84178787544E+01  0.33117958142E+02  0.00000000000E+00 0. -1.
</event>
<event>
 5    1  0.1059945E-009  0.9118800E+02  0.7815553E-02  0.1125453E+00
         25   -1    0    0    0    0  0.00000000000E+00  0.00000000000E+00  0.99999998245E-14  0.12509000000E+03  0.12509000000E+03 0.  0.
        -11    1    3    3    0    0 -0.64950433509E+01 -0.49625994047E+02 -0.30659680794E+02  0.58693618903E+02  0.51100000000E-03 0.  1.
         23    2    1    0    0    0  0.54866297029E+01 -0.14954981686E+02 -0.24465040198E+02  0.95895946245E+02  0.91344073325E+02 0.  0.
         11    1    3    3    0    0  0.11981673054E+02  0.34671012361E+02  0.61946405958E+01  0.37202327342E+02  0.51100000000E-03 0. -1.
         22    1    1    0    0    0 -0.54866297029E+01  0.14954981686E+02  0.24465040198E+02  0.29194053755E+02  0.00000000000E+00 0.  1.
</event>
<event>
 5    1  0.1059945E-009  0.9118800E+02  0.7815553E-02  0.1125453E+00
         25   -1    0    0    0    0  0.00000000000E+00  0.00000000000E+00  0.99999998245E-14  0.12509000000E+03  0.12509000000E+03 0.  0.
        -11    1    3    3    0    0  0.47588941208E+01 -0.37215177788E+02  0.11592785458E+02  0.39268425051E+02  0.51100000000E-03 0.  1.
         23    2    1    0    0    0  0.25943507261E+02  0.14091573975E+02  0.36716707372E+01  0.95339047207E+02  0.90578224371E+02 0.  0.
         11    1    3    3    0    0  0.21184613140E+02  0.51306751762E+02 -0.79211147207E+01  0.56070622156E+02  0.51100000000E-03 0. -1.
         22    1    1    0    0    0 -0.25943507261E+02 -0.14091573975E+02 -0.36716707372E+01  0.29750952793E+02  0.00000000000E+00 0. -1.
</event>
<event>
 5    1  0.1059945E-009  0.9118800E+02  0.7815553E-02  0.1125453E+00
         25   -1    0    0    0    0  0.00000000000E+00  0.00000000000E+00  0.99999998245E-14  0.12509000000E+03  0.12509000000E+03 0.  0.
        -11    1    3    3    0    0  0.18036832752E+02  0.49697763726E+02 -0.25342405672E+01  0.52930307298E+02  0.51100000000E-03 0.  1.
         23    2    1    0    0    0 -0.97697067083E+01  0.20821743555E+02  0.15976764934E+02  0.97085550504E+02  0.92958888359E+02 0.  0.
         11    1    3    3    0    0 -0.27806539460E+02 -0.28876020171E+02  0.18511005501E+02  0.44155243206E+02  0.51100000000E-03 0. -1.
         22    1    1    0    0    0  0.97697067083E+01 -0.20821743555E+02 -0.15976764934E+02  0.28004449496E+02  0.00000000000E+00 0.  1.
</event>
<event>
 5    1  0.1059945E-009  0.9118800E+02  0.7815553E-02  0.1125453E+00
         25   -1    0    0    0    0  0.00000000000E+00  0.00000000000E+00  0.99999998245E-14  0.12509000000E+03  0.12509000000E+03 0.  0.
        -11    1    3    3    0    0 -0.48759469281E+02  0.21551752835E+02  0.11278842086E+02  0.54490147493E+02  0.51100000000E-03 0.  1.
         23    2    1    0    0    0 -0.12388757708E+02  0.18372695368E+02 -0.13983461788E+02  0.98887434167E+02  0.95352767028E+02 0.  0.
         11    1    3    3    0    0  0.36370711573E+02 -0.31790574665E+01 -0.25262303875E+02  0.44397286674E+02  0.51100000000E-03 0. -1.
         22    1    1    0    0    0  0.12388757708E+02 -0.18372695368E+02  0.13983461788E+02  0.26202565833E+02  0.00000000000E+00 0.  1.
</event>
<event>
 5    1  0.1059945E-009  0.9118800E+02  0.7815553E-02  0.1125453E+00
         25   -1    0    0    0    0  0.00000000000E+00  0.00000000000E+00  0.99999998245E-14  0.12509000000E+03  0.12509000000E+03 0.  0.
        -11    1    3    3    0    0 -0.28934923683E+01 -0.17254503381E+02  0.28301736884E+02  0.33272789121E+02  0.51100000000E-03 0. -1.
         23    2    1    0    0    0  0.61021356018E+01  0.15163764688E+02 -0.24354311987E+02  0.95758986878E+02  0.91156323078E+02 0.  0.
         11    1    3    3    0    0  0.89956279701E+01  0.32418268069E+02 -0.52656048871E+02  0.62486197757E+02  0.51100000000E-03 0.  1.
         22    1    1    0    0    0 -0.61021356018E+01 -0.15163764688E+02  0.24354311987E+02  0.29331013122E+02  0.00000000000E+00 0.  1.
</event>
<event>
 5    1  0.1059945E-009  0.9118800E+02  0.7815553E-02  0.1125453E+00
         25   -1    0    0    0    0  0.00000000000E+00  0.00000000000E+00  0.99999998245E-14  0.12509000000E+03  0.12509000000E+03 0.  0.
        -11    1    3    3    0    0  0.15429683267E+01  0.15859380347E+02 -0.36465775015E+02  0.39795143472E+02  0.51100000000E-03 0.  1.
         23    2    1    0    0    0  0.14907173595E+02  0.17741067235E+02  0.17898687709E+02  0.95809762417E+02  0.91225973612E+02 0.  0.
         11    1    3    3    0    0  0.13364205268E+02  0.18816868875E+01  0.54364462724E+02  0.56014618945E+02  0.51100000000E-03 0. -1.
         22    1    1    0    0    0 -0.14907173595E+02 -0.17741067235E+02 -0.17898687709E+02  0.29280237583E+02  0.00000000000E+00 0. -1.
</event>
<event>
 5    1  0.1059945E-009  0.9118800E+02  0.7815553E-02  0.1125453E+00
         25   -1    0    0    0    0  0.00000000000E+00  0.00000000000E+00  0.99999998245E-14  0.12509000000E+03  0.12509000000E+03 0.  0.
        -11    1    3    3    0    0 -0.30393461687E+02  0.18125140884E+02 -0.31682391394E+02  0.47497970168E+02  0.51100000000E-03 0.  1.
         23    2    1    0    0    0  0.41522505358E+01 -0.14269197948E+02 -0.25928695987E+02  0.95204410325E+02  0.90392097416E+02 0.  0.
         11    1    3    3    0    0  0.34545712223E+02 -0.32394338833E+02  0.57536954063E+01  0.47706440157E+02  0.51100000000E-03 0. -1.
         22    1    1    0    0    0 -0.41522505358E+01  0.14269197948E+02  0.25928695987E+02  0.29885589675E+02  0.00000000000E+00 0. -1.
</event>
<event>
 5    1  0.1059945E-009  0.9118800E+02  0.7815553E-02  0.1125453E+00
         25   -1    0    0    0    0  0.00000000000E+00  0.00000000000E+00  0.99999998245E-14  0.12509000000E+03  0.12509000000E+03 0.  0.
        -11    1    3    3    0    0 -0.60224903673E+00 -0.34290574717E+02 -0.16474491722E+01  0.34335408944E+02  0.51100000000E-03 0.  1.
         23    2    1    0    0    0 -0.15412158621E+02  0.22696894131E+02 -0.13681072705E+02  0.94432939036E+02  0.89318108959E+02 0.  0.
         11    1    3    3    0    0 -0.14809909584E+02  0.56987468848E+02 -0.12033623533E+02  0.60097530092E+02  0.51100000000E-03 0. -1.
         22    1    1    0    0    0  0.15412158621E+02 -0.22696894131E+02  0.13681072705E+02  0.30657060964E+02  0.00000000000E+00 0. -1.
</event>
<event>
 5    1  0.1059945E-009  0.9118800E+02  0.7815553E-02  0.1125453E+00
         25   -1    0    0    0    0  0.00000000000E+00  0.00000000000E+00  0.99999998245E-14  0.12509000000E+03  0.12509000000E+03 0.  0.
        -11    1    3    3    0    0 -0.55531979442E+02 -0.13979338598E+02 -0.62234060544E+01  0.57601679069E+02  0.51100000000E-03 0.  1.
         23    2    1    0    0    0 -0.24823372511E+02  0.81825665754E+01 -0.12714452995E+02  0.96024358194E+02  0.91519756518E+02 0.  0.
         11    1    3    3    0    0  0.30708606930E+02  0.22161905174E+02 -0.64910469410E+01  0.38422679126E+02  0.51100000000E-03 0. -1.
         22    1    1    0    0    0  0.24823372511E+02 -0.81825665754E+01  0.12714452995E+02  0.29065641806E+02  0.00000000000E+00 0.  1.
</event>
<event>
 5    1  0.1059945E-009  0.9118800E+02  0.7815553E-02  0.1125453E+00
         25   -1    0    0    0    0  0.00000000000E+00  0.00000000000E+00  0.99999998245E-14  0.12509000000E+03  0.12509000000E+03 0.  0.
        -11    1    3    3    0    0 -0.47935112775E+02 -0.20888198247E+02  0.32268108658E+02  0.61443654671E+02  0.51100000000E-03 0. -1.
         23    2    1    0    0    0 -0.27126116040E+02 -0.27761979522E+01  0.15612338148E+02  0.93669011013E+02  0.88241742249E+02 0.  0.
         11    1    3    3    0    0  0.20808996735E+02  0.18112000295E+02 -0.16655770510E+02  0.32225356341E+02  0.51100000000E-03 0.  1.
         22    1    1    0    0    0  0.27126116040E+02  0.27761979522E+01 -0.15612338148E+02  0.31420988987E+02  0.00000000000E+00 0. -1.
</event>
<event>
 5    1  0.1059945E-009  0.9118800E+02  0.7815553E-02  0.1125453E+00
         25   -1    0    0    0    0  0.00000000000E+00  0.00000000000E+00  0.99999998245E-14  0.12509000000E+03  0.12509000000E+03 0.  0.
        -11    1    3    3    0    0 -0.34550995244E+02 -0.85497858097E+01 -0.12163136918E+02  0.37613986890E+02  0.51100000000E-03 0.  1.
         23    2    1    0    0    0  0.17061307962E+02 -0.98129816812E+01  0.18847363398E+02  0.97839202839E+02  0.93967567098E+02 0.  0.
         11    1    3    3    0    0  0.51612303206E+02 -0.12631958715E+01  0.31010500316E+02  0.60225215950E+02  0.51100000000E-03 0. -1.
         22    1    1    0    0    0 -0.17061307962E+02  0.98129816812E+01 -0.18847363398E+02  0.27250797161E+02  0.00000000000E+00 0. -1.
</event>
<event>
 5    1  0.1059945E-009  0.9118800E+02  0.7815553E-02  0.1125453E+00
         25   -1    0    0    0    0  0.00000000000E+00  0.00000000000E+00  0.99999998245E-14  0.12509000000E+03  0.12509000000E+03 0.  0.
        -11    1    3    3    0    0  0.23126869833E+02 -0.86192198479E+01  0.33789793553E+02  0.41843675838E+02  0.51100000000E-03 0.  1.
         23    2    1    0    0    0  0.10357797551E+02  0.27496201468E+02 -0.37397949332E+01  0.95470561595E+02  0.90759666151E+02 0.  0.
         11    1    3    3    0    0 -0.12769072282E+02  0.36115421316E+02 -0.37529588486E+02  0.53626885757E+02  0.51100000000E-03 0. -1.
         22    1    1    0    0    0 -0.10357797551E+02 -0.27496201468E+02  0.37397949332E+01  0.29619438405E+02  0.00000000000E+00 0. -1.
</event>
<event>
 5    1  0.1059945E-009  0.9118800E+02  0.7815553E-02  0.1125453E+00
         25   -1    0    0    0    0  0.00000000000E+00  0.00000000000E+00  0.99999998245E-14  0.12509000000E+03  0.12509000000E+03 0.  0.
        -11    1    3    3    0    0  0.17936470874E+01  0.55385115282E+02  0.23650502779E+02  0.60250099143E+02  0.51100000000E-03 0.  1.
         23    2    1    0    0    0  0.54740457760E+01  0.18895268387E+02  0.19885878580E+02  0.97117790372E+02  0.93002261776E+02 0.  0.
         11    1    3    3    0    0  0.36803986887E+01 -0.36489846896E+02 -0.37646241996E+01  0.36867691230E+02  0.51100000000E-03 0. -1.
         22    1    1    0    0    0 -0.54740457760E+01 -0.18895268387E+02 -0.19885878580E+02  0.27972209628E+02  0.00000000000E+00 0.  1.
</event>
<event>
 5    1  0.1059945E-009  0.9118800E+02  0.7815553E-02  0.1125453E+00
         25   -1    0    0    0    0  0.00000000000E+00  0.00000000000E+00  0.99999998245E-14  0.12509000000E+03  0.12509000000E+03 0.  0.
        -11    1    3    3    0    0 -0.69386130389E+01 -0.36013707558E+02 -0.12983208839E+01  0.36699007075E+02  0.51100000000E-03 0.  1.
         23    2    1    0    0    0 -0.14890251949E+02  0.23781361985E+02 -0.16363990963E+00  0.97031141168E+02  0.92885643656E+02 0.  0.
         11    1    3    3    0    0 -0.79516389097E+01  0.59795069543E+02  0.11346809743E+01  0.60332134092E+02  0.51100000000E-03 0. -1.
         22    1    1    0    0    0  0.14890251949E+02 -0.23781361985E+02  0.16363990963E+00  0.28058858832E+02  0.00000000000E+00 0. -1.
</event>
<event>
 5    1  0.1059945E-009  0.9118800E+02  0.7815553E-02  0.1125453E+00
         25   -1    0    0    0    0  0.00000000000E+00  0.00000000000E+00  0.99999998245E-14  0.12509000000E+03  0.12509000000E+03 0.  0.
        -11    1    3    3    0    0 -0.12406585463E+02 -0.34554113898E+02 -0.23170206585E+01  0.36786937018E+02  0.51100000000E-03 0.  1.
         23    2    1    0    0    0  0.11358975370E+02  0.42784578997E+01  0.30072374251E+02  0.92660395985E+02  0.86800171472E+02 0.  0.
         11    1    3    3    0    0  0.23765560833E+02  0.38832571798E+02  0.32389394909E+02  0.55873458968E+02  0.51100000000E-03 0. -1.
         22    1    1    0    0    0 -0.11358975370E+02 -0.42784578997E+01 -0.30072374251E+02  0.32429604015E+02  0.00000000000E+00 0. -1.
</event>
<event>
 5    1  0.1059945E-009  0.9118800E+02  0.7815553E-02  0.1125453E+00
         25   -1    0    0    0    0  0.00000000000E+00  0.00000000000E+00  0.99999998245E-14  0.12509000000E+03  0.12509000000E+03 0.  0.
        -11    1    3    3    0    0  0.36118900375E+02  0.29000402628E+02  0.41189420217E+02  0.61985213196E+02  0.51100000000E-03 0. -1.
         23    2    1    0    0    0  0.21971411117E+02  0.11545808151E+02  0.16961465809E+02  0.95027732708E+02  0.90147268783E+02 0.  0.
         11    1    3    3    0    0 -0.14147489259E+02 -0.17454594477E+02 -0.24227954408E+02  0.33042519512E+02  0.51100000000E-03 0.  1.
         22    1    1    0    0    0 -0.21971411117E+02 -0.11545808151E+02 -0.16961465809E+02  0.30062267292E+02  0.00000000000E+00 0. -1.
</event>
<event>
 5    1  0.1059945E-009  0.9118800E+02  0.7815553E-02  0.1125453E+00
         25   -1    0    0    0    0  0.00000000000E+00  0.00000000000E+00  0.99999998245E-14  0.12509000000E+03  0.12509000000E+03 0.  0.
        -11    1    3    3    0    0 -0.98430771628E+01  0.81195345780E+01 -0.37880967304E+02  0.39972249048E+02  0.51100000000E-03 0.  1.
         23    2    1    0    0    0  0.24359724017E+02 -0.11357215453E+02  0.45308384740E+01  0.97833606360E+02  0.93960116747E+02 0.  0.
         11    1    3    3    0    0  0.34202801179E+02 -0.19476750031E+02  0.42411805778E+02  0.57861357311E+02  0.51100000000E-03 0. -1.
         22    1    1    0    0    0 -0.24359724017E+02  0.11357215453E+02 -0.45308384740E+01  0.27256393640E+02  0.00000000000E+00 0. -1.
</event>
<event>
 5    1  0.1059945E-009  0.9118800E+02  0.7815553E-02  0.1125453E+00
         25   -1    0    0    0    0  0.00000000000E+00  0.00000000000E+00  0.99999998245E-14  0.12509000000E+03  0.12509000000E+03 0.  0.
        -11    1    3    3    0    0 -0.22178219236E+02  0.24993536524E+02 -0.11232114062E+02  0.35252101540E+02  0.51100000000E-03 0. -1.
         23    2    1    0    0    0  0.17417141559E+02 -0.20923976542E+02  0.34821807624E+01  0.97643776266E+02  0.93707053343E+02 0.  0.
         11    1    3    3    0    0  0.39595360795E+02 -0.45917513066E+02  0.14714294824E+02  0.62391674725E+02  0.51100000000E-03 0.  1.
         22    1    1    0    0    0 -0.17417141559E+02  0.20923976542E+02 -0.34821807624E+01  0.27446223734E+02  0.00000000000E+00 0.  1.
</event>
<event>
 5    1  0.1059945E-009  0.9118800E+02  0.7815553E-02  0.1125453E+00
         25   -1    0    0    0    0  0.00000000000E+00  0.00000000000E+00  0.99999998245E-14  0.12509000000E+03  0.12509000000E+03 0.  0.
        -11    1    3    3    0    0  0.18308642031E+02 -0.31693261365E+02  0.17525013668E+02  0.40580725638E+02  0.51100000000E-03 0. -1.
         23    2    1    0    0    0  0.13826064326E+02 -0.36817872944E+01 -0.27669184653E+02  0.93940370920E+02  0.88625582632E+02 0.  0.
         11    1    3    3    0    0 -0.44825777048E+01  0.28011474071E+02 -0.45194198321E+02  0.53359645282E+02  0.51100000000E-03 0.  1.
         22    1    1    0    0    0 -0.13826064326E+02  0.36817872944E+01  0.27669184653E+02  0.31149629080E+02  0.00000000000E+00 0.  1.
</event>
<event>
 5    1  0.1059945E-009  0.9118800E+02  0.7815553E-02  0.1125453E+00
         25   -1    0    0    0    0  0.00000000000E+00  0.00000000000E+00  0.99999998245E-14  0.12509000000E+03  0.12509000000E+03 0.  0.
        -11    1    3    3    0    0  0.25626179406E+02 -0.38883394654E+02  0.24929379767E+02  0.52821334957E+02  0.51100000000E-03 0. -1.
         23    2    1    0    0    0 -0.67444890949E+01 -0.28462948047E+02 -0.13637980460E+01  0.95807112681E+02  0.91222340194E+02 0.  0.
         11    1    3    3    0    0 -0.32370668501E+02  0.10420446608E+02 -0.26293177813E+02  0.42985777724E+02  0.51100000000E-03 0.  1.
         22    1    1    0    0    0  0.67444890949E+01  0.28462948047E+02  0.13637980460E+01  0.29282887319E+02  0.00000000000E+00 0. -1.
</event>
<event>
 5    1  0.1059945E-009  0.9118800E+02  0.7815553E-02  0.1125453E+00
         25   -1    0    0    0    0  0.00000000000E+00  0.00000000000E+00  0.99999998245E-14  0.12509000000E+03  0.12509000000E+03 0.  0.
        -11    1    3    3    0    0 -0.14021706915E+02 -0.32075904894E+02 -0.20505766023E+02  0.40570412618E+02  0.51100000000E-03 0.  1.
         23    2    1    0    0    0  0.16212339836E+02  0.14458576693E+02 -0.19229066428E+02  0.96078840102E+02  0.91594192592E+02 0.  0.
         11    1    3    3    0    0  0.30234046752E+02  0.46534481587E+02  0.12766995949E+01  0.55508427483E+02  0.51100000000E-03 0. -1.
         22    1    1    0    0    0 -0.16212339836E+02 -0.14458576693E+02  0.19229066428E+02  0.29011159898E+02  0.00000000000E+00 0.  1.
</event>
<event>
 5    1  0.1059945E-009  0.9118800E+02  0.7815553E-02  0.1125453E+00
         25   -1    0    0    0    0  0.00000000000E+00  0.00000000000E+00  0.99999998245E-14  0.12509000000E+03  0.12509000000E+03 0.  0.
        -11    1    3    3    0    0 -0.81774766092E+01  0.34172073945E+02 -0.14403409278E+01  0.35166409308E+02  0.51100000000E-03 0.  1.
         23    2    1    0    0    0 -0.16360228750E+02 -0.24455761160E+02 -0.76526943693E+01  0.94687614078E+02  0.89674072005E+02 0.  0.
         11    1    3    3    0    0 -0.81827521410E+01 -0.58627835105E+02 -0.62123534415E+01  0.59521204769E+02  0.51100000000E-03 0. -1.
         22    1    1    0    0    0  0.16360228750E+02  0.24455761160E+02  0.76526943693E+01  0.30402385922E+02  0.00000000000E+00 0. -1.
</event>
<event>
 5    1  0.1059945E-009  0.9118800E+02  0.7815553E-02  0.1125453E+00
         25   -1    0    0    0    0  0.00000000000E+00  0.00000000000E+00  0.99999998245E-14  0.12509000000E+03  0.12509000000E+03 0.  0.
        -11    1    3    3    0    0 -0.18214259588E+02  0.58000264897E+02 -0.53172316804E+01  0.61025100848E+02  0.51100000000E-03 0.  1.
         23    2    1    0    0    0 -0.27152737125E-01  0.26349233856E+02 -0.77910073494E+01  0.97613052251E+02  0.93666030727E+02 0.  0.
         11    1    3    3    0    0  0.18187106851E+02 -0.31651031041E+02 -0.24737756690E+01  0.36587951403E+02  0.51100000000E-03 0. -1.
         22    1    1    0    0    0  0.27152737125E-01 -0.26349233856E+02  0.77910073494E+01  0.27476947749E+02  0.00000000000E+00 0.  1.
</event>
<event>
 5    1  0.1059945E-009  0.9118800E+02  0.7815553E-02  0.1125453E+00
         25   -1    0    0    0    0  0.00000000000E+00  0.00000000000E+00  0.99999998245E-14  0.12509000000E+03  0.12509000000E+03 0.  0.
        -11    1    3    3    0    0 -0.18489263986E+02  0.41786850072E+02  0.42330082728E+02  0.62288278397E+02  0.51100000000E-03 0.  1.
         23    2    1    0    0    0 -0.76792336877E+01  0.21263287868E+02  0.15915966607E+02  0.97441925311E+02  0.93437213006E+02 0.  0.
         11    1    3    3    0    0  0.10810030299E+02 -0.20523562205E+02 -0.26414116121E+02  0.35153646914E+02  0.51100000000E-03 0. -1.
         22    1    1    0    0    0  0.76792336877E+01 -0.21263287868E+02 -0.15915966607E+02  0.27648074689E+02  0.00000000000E+00 0.  1.
</event>
<event>
 5    1  0.1059945E-009  0.9118800E+02  0.7815553E-02  0.1125453E+00
         25   -1    0    0    0    0  0.00000000000E+00  0.00000000000E+00  0.99999998245E-14  0.12509000000E+03  0.12509000000E+03 0.  0.
        -11    1    3    3    0    0 -0.37432036406E+02 -0.25741814540E+02  0.22549584869E+02  0.50717670917E+02  0.51100000000E-03 0.  1.
         23    2    1    0    0    0 -0.11768133074E+02 -0.34764821789E+02 -0.32935513802E+01  0.88239908130E+02  0.80177004908E+02 0.  0.
         11    1    3    3    0    0  0.25663903331E+02 -0.90230072499E+01 -0.25843136249E+02  0.37522237213E+02  0.51100000000E-03 0. -1.
         22    1    1    0    0    0  0.11768133074E+02  0.34764821789E+02  0.32935513802E+01  0.36850091870E+02  0.00000000000E+00 0.  1.
</event>
<event>
 5    1  0.1059945E-009  0.9118800E+02  0.7815553E-02  0.1125453E+00
         25   -1    0    0    0    0  0.00000000000E+00  0.00000000000E+00  0.99999998245E-14  0.12509000000E+03  0.12509000000E+03 0.  0.
        -11    1    3    3    0    0 -0.34642902088E+01  0.57470622805E+02 -0.24383561730E+02  0.62525449820E+02  0.51100000000E-03 0.  1.
         23    2    1    0    0    0 -0.66864556961E+00  0.27788730385E+02 -0.12265131565E+02  0.94707536709E+02  0.89701858587E+02 0.  0.
         11    1    3    3    0    0  0.27956446392E+01 -0.29681892420E+02  0.12118430165E+02  0.32182086889E+02  0.51100000000E-03 0. -1.
         22    1    1    0    0    0  0.66864556961E+00 -0.27788730385E+02  0.12265131565E+02  0.30382463291E+02  0.00000000000E+00 0.  1.
</event>
<event>
 5    1  0.1059945E-009  0.9118800E+02  0.7815553E-02  0.1125453E+00
         25   -1    0    0    0    0  0.00000000000E+00  0.00000000000E+00  0.99999998245E-14  0.12509000000E+03  0.12509000000E+03 0.  0.
        -11    1    3    3    0    0 -0.30450884335E+02 -0.23852042476E+02 -0.78328160881E+01  0.39465545672E+02  0.51100000000E-03 0. -1.
         23    2    1    0    0    0  0.23994403458E+02  0.28970889886E+01 -0.61538905675E+01  0.10015017460E+03  0.96995167824E+02 0.  0.
         11    1    3    3    0    0  0.54445287792E+02  0.26749131464E+02  0.16789255206E+01  0.60684628928E+02  0.51100000000E-03 0.  1.
         22    1    1    0    0    0 -0.23994403458E+02 -0.28970889886E+01  0.61538905675E+01  0.24939825401E+02  0.00000000000E+00 0.  1.
</event>
<event>
 5    1  0.1059945E-009  0.9118800E+02  0.7815553E-02  0.1125453E+00
         25   -1    0    0    0    0  0.00000000000E+00  0.00000000000E+00  0.99999998245E-14  0.12509000000E+03  0.12509000000E+03 0.  0.
        -11    1    3    3    0    0 -0.47038352913E+02 -0.12137652489E+01  0.58501326225E+01  0.47416283309E+02  0.51100000000E-03 0.  1.
         23    2    1    0    0    0 -0.28892910208E+02 -0.27620316152E+02 -0.11021927155E+02  0.83627185300E+02  0.72624659161E+02 0.  0.
         11    1    3    3    0    0  0.18145442705E+02 -0.26406550904E+02 -0.16872059778E+02  0.36210901991E+02  0.51100000000E-03 0. -1.
         22    1    1    0    0    0  0.28892910208E+02  0.27620316152E+02  0.11021927155E+02  0.41462814700E+02  0.00000000000E+00 0.  1.
</event>
<event>
 5    1  0.1059945E-009  0.9118800E+02  0.7815553E-02  0.1125453E+00
         25   -1    0    0    0    0  0.00000000000E+00  0.00000000000E+00  0.99999998245E-14  0.12509000000E+03  0.12509000000E+03 0.  0.
        -11    1    3    3    0    0  0.16058929390E+02 -0.14964793055E+02  0.56922658469E+02  0.61008387061E+02  0.51100000000E-03 0. -1.
         23    2    1    0    0    0  0.63691631201E+01  0.30266567530E+01  0.26578921164E+02  0.97591528403E+02  0.93637281442E+02 0.  0.
         11    1    3    3    0    0 -0.96897662697E+01  0.17991449808E+02 -0.30343737305E+02  0.36583141342E+02  0.51100000000E-03 0.  1.
         22    1    1    0    0    0 -0.63691631201E+01 -0.30266567530E+01 -0.26578921164E+02  0.27498471597E+02  0.00000000000E+00 0. -1.
</event>
<event>
 5    1  0.1059945E-009  0.9118800E+02  0.7815553E-02  0.1125453E+00
         25   -1    0    0    0    0  0.00000000000E+00  0.00000000000E+00  0.99999998245E-14  0.12509000000E+03  0.12509000000E+03 0.  0.
        -11    1    3    3    0    0 -0.83111442394E+01  0.29475144834E+02  0.16770242614E+02  0.34915617124E+02  0.51100000000E-03 0.  1.
         23    2    1    0    0    0 -0.13679505883E+02 -0.25394237408E+02 -0.77029623165E+01  0.95234819492E+02  0.90434169651E+02 0.  0.
         11    1    3    3    0    0 -0.53683616437E+01 -0.54869382242E+02 -0.24473204931E+02  0.60319202367E+02  0.51100000000E-03 0. -1.
         22    1    1    0    0    0  0.13679505883E+02  0.25394237408E+02  0.77029623165E+01  0.29855180508E+02  0.00000000000E+00 0. -1.
</event>
<event>
 5    1  0.1059945E-009  0.9118800E+02  0.7815553E-02  0.1125453E+00
         25   -1    0    0    0    0  0.00000000000E+00  0.00000000000E+00  0.99999998245E-14  0.12509000000E+03  0.12509000000E+03 0.  0.
        -11    1    3    3    0    0  0.20918980373E+02 -0.26771974484E+02  0.11956015990E+02  0.36017893834E+02  0.51100000000E-03 0. -1.
         23    2    1    0    0    0 -0.17933158290E+02  0.18656932923E+02  0.13677708494E+02  0.95819553779E+02  0.91239398641E+02 0.  0.
         11    1    3    3    0    0 -0.38852138663E+02  0.45428907407E+02  0.17216925038E+01  0.59801659945E+02  0.51100000000E-03 0.  1.
         22    1    1    0    0    0  0.17933158290E+02 -0.18656932923E+02 -0.13677708494E+02  0.29270446221E+02  0.00000000000E+00 0.  1.
</event>
<event>
 5    1  0.1059945E-009  0.9118800E+02  0.7815553E-02  0.1125453E+00
         25   -1    0    0    0    0  0.00000000000E+00  0.00000000000E+00  0.99999998245E-14  0.12509000000E+03  0.12509000000E+03 0.  0.
        -11    1    3    3    0    0 -0.26384464129E+02  0.10775503717E+02 -0.41629276896E+02  0.50450452157E+02  0.51100000000E-03 0. -1.
         23    2    1    0    0    0  0.22983741319E+01  0.27070948799E+02 -0.10036341418E+02  0.96127145487E+02  0.91660139416E+02 0.  0.
         11    1    3    3    0    0  0.28682838261E+02  0.16295445082E+02  0.31592935478E+02  0.45676693329E+02  0.51100000000E-03 0.  1.
         22    1    1    0    0    0 -0.22983741319E+01 -0.27070948799E+02  0.10036341418E+02  0.28962854513E+02  0.00000000000E+00 0. -1.
</event>
<event>
 5    1  0.1059945E-009  0.9118800E+02  0.7815553E-02  0.1125453E+00
         25   -1    0    0    0    0  0.00000000000E+00  0.00000000000E+00  0.99999998245E-14  0.12509000000E+03  0.12509000000E+03 0.  0.
        -11    1    3    3    0    0 -0.40586772434E+02 -0.54116940504E+01 -0.42260964648E+02  0.58843535434E+02  0.51100000000E-03 0. -1.
         23    2    1    0    0    0 -0.12711179165E+02  0.10246675830E+02 -0.25145740617E+02  0.95108727304E+02  0.90259588393E+02 0.  0.
         11    1    3    3    0    0  0.27875593269E+02  0.15658369881E+02  0.17115224032E+02  0.36265191870E+02  0.51100000000E-03 0.  1.
         22    1    1    0    0    0  0.12711179165E+02 -0.10246675830E+02  0.25145740617E+02  0.29981272696E+02  0.00000000000E+00 0. -1.
</event>
<event>
 5    1  0.1059945E-009  0.9118800E+02  0.7815553E-02  0.1125453E+00
         25   -1    0    0    0    0  0.00000000000E+00  0.00000000000E+00  0.99999998245E-14  0.12509000000E+03  0.12509000000E+03 0.  0.
        -11    1    3    3    0    0 -0.21757441229E+02  0.18349785177E+02  0.22791501753E+02  0.36463041800E+02  0.51100000000E-03 0. -1.
         23    2    1    0    0    0  0.22563667396E+02 -0.17555411758E+02  0.84624069161E+01  0.95275173166E+02  0.90489970287E+02 0.  0.
         11    1    3    3    0    0  0.44321108625E+02 -0.35905196934E+02 -0.14329094837E+02  0.58812131366E+02  0.51100000000E-03 0.  1.
         22    1    1    0    0    0 -0.22563667396E+02  0.17555411758E+02 -0.84624069161E+01  0.29814826834E+02  0.00000000000E+00 0.  1.
</event>
<event>
 5    1  0.1059945E-009  0.9118800E+02  0.7815553E-02  0.1125453E+00
         25   -1    0    0    0    0  0.00000000000E+00  0.00000000000E+00  0.99999998245E-14  0.12509000000E+03  0.12509000000E+03 0.  0.
        -11    1    3    3    0    0  0.29037781598E+02 -0.12050954795E+02  0.43501596805E+02  0.53673151542E+02  0.51100000000E-03 0. -1.
         23    2    1    0    0    0 -0.91742013835E+01 -0.69768822996E+01  0.27243244114E+02  0.95508972170E+02  0.90812590302E+02 0.  0.
         11    1    3    3    0    0 -0.38211982981E+02  0.50740724957E+01 -0.16258352691E+02  0.41835820627E+02  0.51100000000E-03 0.  1.
         22    1    1    0    0    0  0.91742013835E+01  0.69768822996E+01 -0.27243244114E+02  0.29581027830E+02  0.00000000000E+00 0. -1.
</event>
<event>
 5    1  0.1059945E-009  0.9118800E+02  0.7815553E-02  0.1125453E+00
         25   -1    0    0    0    0  0.00000000000E+00  0.00000000000E+00  0.99999998245E-14  0.12509000000E+03  0.12509000000E+03 0.  0.
        -11    1    3    3    0    0  0.15816392406E+02  0.83403052473E+01 -0.30934621854E+02  0.35730516227E+02  0.51100000000E-03 0.  1.
         23    2    1    0    0    0  0.13016646470E+01  0.21449672958E+02  0.23305609859E+02  0.93389302030E+02  0.87844336653E+02 0.  0.
         11    1    3    3    0    0 -0.14514727759E+02  0.13109367711E+02  0.54240231713E+02  0.57658785803E+02  0.51100000000E-03 0. -1.
         22    1    1    0    0    0 -0.13016646470E+01 -0.21449672958E+02 -0.23305609859E+02  0.31700697970E+02  0.00000000000E+00 0.  1.
</event>
<event>
 5    1  0.1059945E-009  0.9118800E+02  0.7815553E-02  0.1125453E+00
         25   -1    0    0    0    0  0.00000000000E+00  0.00000000000E+00  0.99999998245E-14  0.12509000000E+03  0.12509000000E+03 0.  0.
        -11    1    3    3    0    0  0.41417758160E+02 -0.60839265958E+01 -0.99201568459E+01  0.43021556991E+02  0.51100000000E-03 0. -1.
         23    2    1    0    0    0  0.17340812390E+01 -0.10245956623E+02 -0.33939971001E+02  0.89594813053E+02  0.82263735811E+02 0.  0.
         11    1    3    3    0    0 -0.39683676921E+02 -0.41620300275E+01 -0.24019814155E+02  0.46573256062E+02  0.51100000000E-03 0.  1.
         22    1    1    0    0    0 -0.17340812390E+01  0.10245956623E+02  0.33939971001E+02  0.35495186947E+02  0.00000000000E+00 0.  1.
</event>
<event>
 5    1  0.1059945E-009  0.9118800E+02  0.7815553E-02  0.1125453E+00
         25   -1    0    0    0    0  0.00000000000E+00  0.00000000000E+00  0.99999998245E-14  0.12509000000E+03  0.12509000000E+03 0.  0.
        -11    1    3    3    0    0 -0.20400663038E+02 -0.26822006162E+01  0.14513383381E+02  0.25179744835E+02  0.51100000000E-03 0.  1.
         23    2    1    0    0    0  0.19086350475E+02  0.21566424091E+02  0.38223471304E+02  0.77231529683E+02  0.60615806488E+02 0.  0.
         11    1    3    3    0    0  0.39487013512E+02  0.24248624707E+02  0.23710087923E+02  0.52051784848E+02  0.51100000000E-03 0. -1.
         22    1    1    0    0    0 -0.19086350475E+02 -0.21566424091E+02 -0.38223471304E+02  0.47858470317E+02  0.00000000000E+00 0.  1.
</event>
<event>
 5    1  0.1059945E-009  0.9118800E+02  0.7815553E-02  0.1125453E+00
         25   -1    0    0    0    0  0.00000000000E+00  0.00000000000E+00  0.99999998245E-14  0.12509000000E+03  0.12509000000E+03 0.  0.
        -11    1    3    3    0    0 -0.30140665791E+02  0.14227031778E+02 -0.34042554448E+01  0.33503091245E+02  0.51100000000E-03 0. -1.
         23    2    1    0    0    0  0.11939666371E+02 -0.26494994753E+02  0.11350029460E+02  0.93891225204E+02  0.88556189064E+02 0.  0.
         11    1    3    3    0    0  0.42080332163E+02 -0.40722026532E+02  0.14754284904E+02  0.60388133959E+02  0.51100000000E-03 0.  1.
         22    1    1    0    0    0 -0.11939666371E+02  0.26494994753E+02 -0.11350029460E+02  0.31198774796E+02  0.00000000000E+00 0.  1.
</event>
<event>
 5    1  0.1059945E-009  0.9118800E+02  0.7815553E-02  0.1125453E+00
         25   -1    0    0    0    0  0.00000000000E+00  0.00000000000E+00  0.99999998245E-14  0.12509000000E+03  0.12509000000E+03 0.  0.
        -11    1    3    3    0    0 -0.53111572701E+01 -0.35066829766E+02  0.27966495986E+02  0.45166534508E+02  0.51100000000E-03 0. -1.
         23    2    1    0    0    0  0.15967479826E+02 -0.18136744265E+02 -0.15459725944E+02  0.96403678682E+02  0.92036754792E+02 0.  0.
         11    1    3    3    0    0  0.21278637096E+02  0.16930085502E+02 -0.43426221930E+02  0.51237144174E+02  0.51100000000E-03 0.  1.
         22    1    1    0    0    0 -0.15967479826E+02  0.18136744265E+02  0.15459725944E+02  0.28686321318E+02  0.00000000000E+00 0. -1.
</event>
<event>
 5    1  0.1059945E-009  0.9118800E+02  0.7815553E-02  0.1125453E+00
         25   -1    0    0    0    0  0.00000000000E+00  0.00000000000E+00  0.99999998245E-14  0.12509000000E+03  0.12509000000E+03 0.  0.
        -11    1    3    3    0    0 -0.35198277936E+02  0.32333458975E+02  0.16373513644E+02  0.50521908992E+02  0.51100000000E-03 0.  1.
         23    2    1    0    0    0 -0.12459741730E+02 -0.62717503438E+01  0.25293282310E+02  0.96205226392E+02  0.91766635760E+02 0.  0.
         11    1    3    3    0    0  0.22738536206E+02 -0.38605209319E+02  0.89197686661E+01  0.45683317400E+02  0.51100000000E-03 0. -1.
         22    1    1    0    0    0  0.12459741730E+02  0.62717503438E+01 -0.25293282310E+02  0.28884773608E+02  0.00000000000E+00 0.  1.
</event>
<event>
 5    1  0.1059945E-009  0.9118800E+02  0.7815553E-02  0.1125453E+00
         25   -1    0    0    0    0  0.00000000000E+00  0.00000000000E+00  0.99999998245E-14  0.12509000000E+03  0.12509000000E+03 0.  0.
        -11    1    3    3    0    0  0.37559742875E+02  0.22821753951E+02  0.21923239321E+02  0.49114103482E+02  0.51100000000E-03 0.  1.
         23    2    1    0    0    0 -0.25824768930E+01 -0.11267540231E+01  0.28617396831E+02  0.96334232528E+02  0.91942319928E+02 0.  0.
         11    1    3    3    0    0 -0.40142219768E+02 -0.23948507974E+02  0.66941575094E+01  0.47220129046E+02  0.51100000000E-03 0. -1.
         22    1    1    0    0    0  0.25824768930E+01  0.11267540231E+01 -0.28617396831E+02  0.28755767472E+02  0.00000000000E+00 0.  1.
</event>
<event>
 5    1  0.1059945E-009  0.9118800E+02  0.7815553E-02  0.1125453E+00
         25   -1    0    0    0    0  0.00000000000E+00  0.00000000000E+00  0.99999998245E-14  0.12509000000E+03  0.12509000000E+03 0.  0.
        -11    1    3    3    0    0  0.28291502760E+02 -0.46090273714E+02  0.81886321614E+01  0.54697131153E+02  0.51100000000E-03 0. -1.
         23    2    1    0    0    0 -0.80927477173E+01 -0.26988778226E+02  0.80340302552E+01  0.95790983670E+02  0.91200220365E+02 0.  0.
         11    1    3    3    0    0 -0.36384250478E+02  0.19101495487E+02 -0.15460190619E+00  0.41093852517E+02  0.51100000000E-03 0.  1.
         22    1    1    0    0    0  0.80927477173E+01  0.26988778226E+02 -0.80340302552E+01  0.29299016330E+02  0.00000000000E+00 0. -1.
</event>
<event>
 5    1  0.1059945E-009  0.9118800E+02  0.7815553E-02  0.1125453E+00
         25   -1    0    0    0    0  0.00000000000E+00  0.00000000000E+00  0.99999998245E-14  0.12509000000E+03  0.12509000000E+03 0.  0.
        -11    1    3    3    0    0 -0.39627612209E+01  0.66304298843E+00 -0.34483536185E+02  0.34716816826E+02  0.51100000000E-03 0.  1.
         23    2    1    0    0    0 -0.12343505469E+02 -0.90958735760E+01  0.25102280981E+02  0.95675351374E+02  0.91041481242E+02 0.  0.
         11    1    3    3    0    0 -0.83807442476E+01 -0.97589165644E+01  0.59585817165E+02  0.60958534548E+02  0.51100000000E-03 0. -1.
         22    1    1    0    0    0  0.12343505469E+02  0.90958735760E+01 -0.25102280981E+02  0.29414648626E+02  0.00000000000E+00 0. -1.
</event>
<event>
 5    1  0.1059945E-009  0.9118800E+02  0.7815553E-02  0.1125453E+00
         25   -1    0    0    0    0  0.00000000000E+00  0.00000000000E+00  0.99999998245E-14  0.12509000000E+03  0.12509000000E+03 0.  0.
        -11    1    3    3    0    0 -0.26041400878E+01  0.13273349679E+02 -0.52276414369E+02  0.53998026416E+02  0.51100000000E-03 0.  1.
         23    2    1    0    0    0 -0.11848884639E+02  0.23346696226E+02 -0.12463171723E+02  0.96093535711E+02  0.91614260158E+02 0.  0.
         11    1    3    3    0    0 -0.92447445510E+01  0.10073346548E+02  0.39813242647E+02  0.42095509295E+02  0.51100000000E-03 0. -1.
         22    1    1    0    0    0  0.11848884639E+02 -0.23346696226E+02  0.12463171723E+02  0.28996464289E+02  0.00000000000E+00 0.  1.
</event>
<event>
 5    1  0.1059945E-009  0.9118800E+02  0.7815553E-02  0.1125453E+00
         25   -1    0    0    0    0  0.00000000000E+00  0.00000000000E+00  0.99999998245E-14  0.12509000000E+03  0.12509000000E+03 0.  0.
        -11    1    3    3    0    0  0.28167221178E+02 -0.52429943486E+01 -0.19767908328E+02  0.34808785365E+02  0.51100000000E-03 0. -1.
         23    2    1    0    0    0 -0.25451192983E+02 -0.46075627169E+01  0.11392350976E+02  0.96827329935E+02  0.92610762351E+02 0.  0.
         11    1    3    3    0    0 -0.53618414161E+02  0.63543163166E+00  0.31160259303E+02  0.62018544570E+02  0.51100000000E-03 0.  1.
         22    1    1    0    0    0  0.25451192983E+02  0.46075627169E+01 -0.11392350976E+02  0.28262670065E+02  0.00000000000E+00 0.  1.
</event>
<event>
 5    1  0.1059945E-009  0.9118800E+02  0.7815553E-02  0.1125453E+00
         25   -1    0    0    0    0  0.00000000000E+00  0.00000000000E+00  0.99999998245E-14  0.12509000000E+03  0.12509000000E+03 0.  0.
        -11    1    3    3    0    0 -0.18626750684E+02 -0.14286352173E+01 -0.27456528278E+02  0.33209302687E+02  0.51100000000E-03 0.  1.
         23    2    1    0    0    0  0.84872778812E+01  0.49412845921E+01  0.28081901029E+02  0.95340321941E+02  0.90579984782E+02 0.  0.
         11    1    3    3    0    0  0.27114028565E+02  0.63699198095E+01  0.55538429307E+02  0.62131019254E+02  0.51100000000E-03 0. -1.
         22    1    1    0    0    0 -0.84872778812E+01 -0.49412845921E+01 -0.28081901029E+02  0.29749678059E+02  0.00000000000E+00 0. -1.
</event>
<event>
 5    1  0.1059945E-009  0.9118800E+02  0.7815553E-02  0.1125453E+00
         25   -1    0    0    0    0  0.00000000000E+00  0.00000000000E+00  0.99999998245E-14  0.12509000000E+03  0.12509000000E+03 0.  0.
        -11    1    3    3    0    0 -0.34336389065E+02  0.13164795361E+02  0.79998674693E+01  0.37633725974E+02  0.51100000000E-03 0.  1.
         23    2    1    0    0    0  0.29251417553E+01 -0.21370000068E+02 -0.20027714145E+02  0.95656300078E+02  0.91015301206E+02 0.  0.
         11    1    3    3    0    0  0.37261530820E+02 -0.34534795428E+02 -0.28027581614E+02  0.58022574105E+02  0.51100000000E-03 0. -1.
         22    1    1    0    0    0 -0.29251417553E+01  0.21370000068E+02  0.20027714145E+02  0.29433699922E+02  0.00000000000E+00 0. -1.
</event>
<event>
 5    1  0.1059945E-009  0.9118800E+02  0.7815553E-02  0.1125453E+00
         25   -1    0    0    0    0  0.00000000000E+00  0.00000000000E+00  0.99999998245E-14  0.12509000000E+03  0.12509000000E+03 0.  0.
        -11    1    3    3    0    0 -0.55756605970E+02 -0.24739003359E+02  0.96661828942E+01  0.61759634783E+02  0.51100000000E-03 0.  1.
         23    2    1    0    0    0 -0.25134153665E+02 -0.13355903600E+02 -0.22598391304E+01  0.96538069867E+02  0.92219229119E+02 0.  0.
         11    1    3    3    0    0  0.30622452306E+02  0.11383099759E+02 -0.11926022025E+02  0.34778435084E+02  0.51100000000E-03 0. -1.
         22    1    1    0    0    0  0.25134153665E+02  0.13355903600E+02  0.22598391304E+01  0.28551930133E+02  0.00000000000E+00 0.  1.
</event>
<event>
 5    1  0.1059945E-009  0.9118800E+02  0.7815553E-02  0.1125453E+00
         25   -1    0    0    0    0  0.00000000000E+00  0.00000000000E+00  0.99999998245E-14  0.12509000000E+03  0.12509000000E+03 0.  0.
        -11    1    3    3    0    0 -0.88593950651E+01  0.62208856885E+01  0.34403827275E+02  0.36066766296E+02  0.51100000000E-03 0. -1.
         23    2    1    0    0    0  0.31483485339E+02  0.17225892121E+02  0.16852606722E+01  0.89162554892E+02  0.81603798214E+02 0.  0.
         11    1    3    3    0    0  0.40342880404E+02  0.11005006432E+02 -0.32718566602E+02  0.53095788596E+02  0.51100000000E-03 0.  1.
         22    1    1    0    0    0 -0.31483485339E+02 -0.17225892121E+02 -0.16852606722E+01  0.35927445108E+02  0.00000000000E+00 0.  1.
</event>
<event>
 5    1  0.1059945E-009  0.9118800E+02  0.7815553E-02  0.1125453E+00
         25   -1    0    0    0    0  0.00000000000E+00  0.00000000000E+00  0.99999998245E-14  0.12509000000E+03  0.12509000000E+03 0.  0.
        -11    1    3    3    0    0  0.18617454733E+02  0.16730744883E+02  0.47529846120E+02  0.53717908723E+02  0.51100000000E-03 0. -1.
         23    2    1    0    0    0  0.23201223689E+02  0.16371659375E+02  0.52921155928E+01  0.96205151050E+02  0.91766533060E+02 0.  0.
         11    1    3    3    0    0  0.45837689566E+01 -0.35908550774E+00 -0.42237730527E+02  0.42487242328E+02  0.51100000000E-03 0.  1.
         22    1    1    0    0    0 -0.23201223689E+02 -0.16371659375E+02 -0.52921155928E+01  0.28884848950E+02  0.00000000000E+00 0. -1.
</event>
<event>
 5    1  0.1059945E-009  0.9118800E+02  0.7815553E-02  0.1125453E+00
         25   -1    0    0    0    0  0.00000000000E+00  0.00000000000E+00  0.99999998245E-14  0.12509000000E+03  0.12509000000E+03 0.  0.
        -11    1    3    3    0    0  0.10470990276E+02  0.32968881412E+02  0.47050536723E+02  0.58398131692E+02  0.51100000000E-03 0.  1.
         23    2    1    0    0    0 -0.10312231742E+02  0.20011175690E+02  0.19041882326E+02  0.95604706064E+02  0.90944363558E+02 0.  0.
         11    1    3    3    0    0 -0.20783222019E+02 -0.12957705721E+02 -0.28008654398E+02  0.37206574372E+02  0.51100000000E-03 0. -1.
         22    1    1    0    0    0  0.10312231742E+02 -0.20011175690E+02 -0.19041882326E+02  0.29485293936E+02  0.00000000000E+00 0.  1.
</event>
<event>
 5    1  0.1059945E-009  0.9118800E+02  0.7815553E-02  0.1125453E+00
         25   -1    0    0    0    0  0.00000000000E+00  0.00000000000E+00  0.99999998245E-14  0.12509000000E+03  0.12509000000E+03 0.  0.
        -11    1    3    3    0    0  0.15828190614E+02  0.42913205111E+02  0.22185726731E+02  0.50835826558E+02  0.51100000000E-03 0. -1.
         23    2    1    0    0    0 -0.13635711747E+02  0.11070006744E+02  0.25255633201E+02  0.94327609122E+02  0.89170472412E+02 0.  0.
         11    1    3    3    0    0 -0.29463902361E+02 -0.31843198367E+02  0.30699064700E+01  0.43491782564E+02  0.51100000000E-03 0.  1.
         22    1    1    0    0    0  0.13635711747E+02 -0.11070006744E+02 -0.25255633201E+02  0.30762390878E+02  0.00000000000E+00 0. -1.
</event>
<event>
 5    1  0.1059945E-009  0.9118800E+02  0.7815553E-02  0.1125453E+00
         25   -1    0    0    0    0  0.00000000000E+00  0.00000000000E+00  0.99999998245E-14  0.12509000000E+03  0.12509000000E+03 0.  0.
        -11    1    3    3    0    0 -0.19438822067E+02  0.33828513616E+02  0.86638141918E+01  0.39966208394E+02  0.51100000000E-03 0.  1.
         23    2    1    0    0    0  0.19640870807E+01 -0.79926406788E+00 -0.29349842913E+02  0.95663655679E+02  0.91025410066E+02 0.  0.
         11    1    3    3    0    0  0.21402909147E+02 -0.34627777684E+02 -0.38013657105E+02  0.55697447285E+02  0.51100000000E-03 0. -1.
         22    1    1    0    0    0 -0.19640870807E+01  0.79926406788E+00  0.29349842913E+02  0.29426344321E+02  0.00000000000E+00 0. -1.
</event>
<event>
 5    1  0.1059945E-009  0.9118800E+02  0.7815553E-02  0.1125453E+00
         25   -1    0    0    0    0  0.00000000000E+00  0.00000000000E+00  0.99999998245E-14  0.12509000000E+03  0.12509000000E+03 0.  0.
        -11    1    3    3    0    0  0.10988245886E+02 -0.23101155982E+02  0.55416702654E+02  0.61036185077E+02  0.51100000000E-03 0. -1.
         23    2    1    0    0    0  0.46808258287E+01 -0.16521481150E+01  0.29109672178E+02  0.95560138196E+02  0.90883041729E+02 0.  0.
         11    1    3    3    0    0 -0.63074200578E+01  0.21449007867E+02 -0.26307030476E+02  0.34523953119E+02  0.51100000000E-03 0.  1.
         22    1    1    0    0    0 -0.46808258287E+01  0.16521481150E+01 -0.29109672178E+02  0.29529861804E+02  0.00000000000E+00 0. -1.
</event>
<event>
 5    1  0.1059945E-009  0.9118800E+02  0.7815553E-02  0.1125453E+00
         25   -1    0    0    0    0  0.00000000000E+00  0.00000000000E+00  0.99999998245E-14  0.12509000000E+03  0.12509000000E+03 0.  0.
        -11    1    3    3    0    0 -0.27345313317E+02 -0.32423862881E+02 -0.94913490485E+01  0.43464453886E+02  0.51100000000E-03 0. -1.
         23    2    1    0    0    0  0.22974979015E+02 -0.14570526867E+02 -0.73860356286E+01  0.96899515148E+02  0.92708212148E+02 0.  0.
         11    1    3    3    0    0  0.50320292332E+02  0.17853336014E+02  0.21053134198E+01  0.53435061262E+02  0.51100000000E-03 0.  1.
         22    1    1    0    0    0 -0.22974979015E+02  0.14570526867E+02  0.73860356286E+01  0.28190484852E+02  0.00000000000E+00 0.  1.
</event>
<event>
 5    1  0.1059945E-009  0.9118800E+02  0.7815553E-02  0.1125453E+00
         25   -1    0    0    0    0  0.00000000000E+00  0.00000000000E+00  0.99999998245E-14  0.12509000000E+03  0.12509000000E+03 0.  0.
        -11    1    3    3    0    0 -0.22358611791E+01  0.34363323946E+02  0.48950250526E+02  0.59849512401E+02  0.51100000000E-03 0.  1.
         23    2    1    0    0    0 -0.11306839650E+02  0.21986429211E+02  0.17637439274E+02  0.94720163707E+02  0.89719465314E+02 0.  0.
         11    1    3    3    0    0 -0.90709784709E+01 -0.12376894735E+02 -0.31312811252E+02  0.34870651306E+02  0.51100000000E-03 0. -1.
         22    1    1    0    0    0  0.11306839650E+02 -0.21986429211E+02 -0.17637439274E+02  0.30369836293E+02  0.00000000000E+00 0.  1.
</event>
<event>
 5    1  0.1059945E-009  0.9118800E+02  0.7815553E-02  0.1125453E+00
         25   -1    0    0    0    0  0.00000000000E+00  0.00000000000E+00  0.99999998245E-14  0.12509000000E+03  0.12509000000E+03 0.  0.
        -11    1    3    3    0    0  0.17287073614E+01 -0.28300862184E+02  0.49163062572E+02  0.56753272604E+02  0.51100000000E-03 0.  1.
         23    2    1    0    0    0 -0.17656414250E+02 -0.16199481077E+02  0.19512049561E+02  0.94188669456E+02  0.88975351781E+02 0.  0.
         11    1    3    3    0    0 -0.19385121612E+02  0.12101381108E+02 -0.29651013012E+02  0.37435396852E+02  0.51100000000E-03 0. -1.
         22    1    1    0    0    0  0.17656414250E+02  0.16199481077E+02 -0.19512049561E+02  0.30901330544E+02  0.00000000000E+00 0.  1.
</event>
<event>
 5    1  0.1059945E-009  0.9118800E+02  0.7815553E-02  0.1125453E+00
         25   -1    0    0    0    0  0.00000000000E+00  0.00000000000E+00  0.99999998245E-14  0.12509000000E+03  0.12509000000E+03 0.  0.
        -11    1    3    3    0    0  0.51525782199E+02 -0.22867709483E+02  0.11598419622E+02  0.57553120734E+02  0.51100000000E-03 0.  1.
         23    2    1    0    0    0  0.14656021776E+02 -0.25140805766E+02  0.10468278790E+01  0.95970334180E+02  0.91445886212E+02 0.  0.
         11    1    3    3    0    0 -0.36869760423E+02 -0.22730962829E+01 -0.10551591743E+02  0.38417213446E+02  0.51100000000E-03 0. -1.
         22    1    1    0    0    0 -0.14656021776E+02  0.25140805766E+02 -0.10468278790E+01  0.29119665820E+02  0.00000000000E+00 0.  1.
</event>
<event>
 5    1  0.1059945E-009  0.9118800E+02  0.7815553E-02  0.1125453E+00
         25   -1    0    0    0    0  0.00000000000E+00  0.00000000000E+00  0.99999998245E-14  0.12509000000E+03  0.12509000000E+03 0.  0.
        -11    1    3    3    0    0 -0.61309814787E+01  0.33548329177E+02 -0.70024298882E+01  0.34815418267E+02  0.51100000000E-03 0.  1.
         23    2    1    0    0    0  0.12972424875E+02 -0.14651904452E+02  0.23136873661E+02  0.94786913787E+02  0.89812482380E+02 0.  0.
         11    1    3    3    0    0  0.19103406354E+02 -0.48200233629E+02  0.30139303549E+02  0.59971495520E+02  0.51100000000E-03 0. -1.
         22    1    1    0    0    0 -0.12972424875E+02  0.14651904452E+02 -0.23136873661E+02  0.30303086213E+02  0.00000000000E+00 0. -1.
</event>
<event>
 5    1  0.1059945E-009  0.9118800E+02  0.7815553E-02  0.1125453E+00
         25   -1    0    0    0    0  0.00000000000E+00  0.00000000000E+00  0.99999998245E-14  0.12509000000E+03  0.12509000000E+03 0.  0.
        -11    1    3    3    0    0  0.41540837880E+01  0.54958471542E+02  0.15050035199E+02  0.57133121446E+02  0.51100000000E-03 0.  1.
         23    2    1    0    0    0  0.12089251517E+02  0.13336621361E+02  0.18034284682E+02  0.99609597814E+02  0.96295488373E+02 0.  0.
         11    1    3    3    0    0  0.79351677292E+01 -0.41621850181E+02  0.29842494831E+01  0.42476476368E+02  0.51100000000E-03 0. -1.
         22    1    1    0    0    0 -0.12089251517E+02 -0.13336621361E+02 -0.18034284682E+02  0.25480402186E+02  0.00000000000E+00 0.  1.
</event>
<event>
 5    1  0.1059945E-009  0.9118800E+02  0.7815553E-02  0.1125453E+00
         25   -1    0    0    0    0  0.00000000000E+00  0.00000000000E+00  0.99999998245E-14  0.12509000000E+03  0.12509000000E+03 0.  0.
        -11    1    3    3    0    0 -0.49301258685E+02  0.12722191776E+02 -0.33291277531E+02  0.60834015414E+02  0.51100000000E-03 0.  1.
         23    2    1    0    0    0 -0.26081428982E+02 -0.38213829216E+01 -0.17820122619E+02  0.93271755622E+02  0.87676791236E+02 0.  0.
         11    1    3    3    0    0  0.23219829703E+02 -0.16543574697E+02  0.15471154912E+02  0.32437740207E+02  0.51100000000E-03 0. -1.
         22    1    1    0    0    0  0.26081428982E+02  0.38213829216E+01  0.17820122619E+02  0.31818244378E+02  0.00000000000E+00 0.  1.
</event>
<event>
 5    1  0.1059945E-009  0.9118800E+02  0.7815553E-02  0.1125453E+00
         25   -1    0    0    0    0  0.00000000000E+00  0.00000000000E+00  0.99999998245E-14  0.12509000000E+03  0.12509000000E+03 0.  0.
        -11    1    3    3    0    0  0.38311755094E+02 -0.55260690202E+01 -0.73551032986E+01  0.39400831996E+02  0.51100000000E-03 0. -1.
         23    2    1    0    0    0 -0.34991954028E+01  0.17239281620E+02  0.23204079194E+02  0.95971852900E+02  0.91447963666E+02 0.  0.
         11    1    3    3    0    0 -0.41810950497E+02  0.22765350641E+02  0.30559182493E+02  0.56571020904E+02  0.51100000000E-03 0.  1.
         22    1    1    0    0    0  0.34991954028E+01 -0.17239281620E+02 -0.23204079194E+02  0.29118147100E+02  0.00000000000E+00 0.  1.
</event>
<event>
 5    1  0.1059945E-009  0.9118800E+02  0.7815553E-02  0.1125453E+00
         25   -1    0    0    0    0  0.00000000000E+00  0.00000000000E+00  0.99999998245E-14  0.12509000000E+03  0.12509000000E+03 0.  0.
        -11    1    3    3    0    0  0.24533722308E+02  0.16811855620E+01 -0.51455794624E+02  0.57030068524E+02  0.51100000000E-03 0.  1.
         23    2    1    0    0    0  0.26258176373E+02  0.98301493137E+00 -0.12567763598E+02  0.95962576038E+02  0.91435273135E+02 0.  0.
         11    1    3    3    0    0  0.17244540643E+01 -0.69817063066E+00  0.38888031026E+02  0.38932507515E+02  0.51100000000E-03 0. -1.
         22    1    1    0    0    0 -0.26258176373E+02 -0.98301493137E+00  0.12567763598E+02  0.29127423962E+02  0.00000000000E+00 0.  1.
</event>
<event>
 5    1  0.1059945E-009  0.9118800E+02  0.7815553E-02  0.1125453E+00
         25   -1    0    0    0    0  0.00000000000E+00  0.00000000000E+00  0.99999998245E-14  0.12509000000E+03  0.12509000000E+03 0.  0.
        -11    1    3    3    0    0 -0.62080775253E+01 -0.13756676256E+02 -0.34484007532E+02  0.37642172412E+02  0.51100000000E-03 0. -1.
         23    2    1    0    0    0  0.26563399971E+02 -0.13777408509E+02  0.10570038162E+02  0.93354264464E+02  0.87794429115E+02 0.  0.
         11    1    3    3    0    0  0.32771477496E+02 -0.20732253226E-01  0.45054045694E+02  0.55712092052E+02  0.51100000000E-03 0.  1.
         22    1    1    0    0    0 -0.26563399971E+02  0.13777408509E+02 -0.10570038162E+02  0.31735735536E+02  0.00000000000E+00 0.  1.
</event>
<event>
 5    1  0.1059945E-009  0.9118800E+02  0.7815553E-02  0.1125453E+00
         25   -1    0    0    0    0  0.00000000000E+00  0.00000000000E+00  0.99999998245E-14  0.12509000000E+03  0.12509000000E+03 0.  0.
        -11    1    3    3    0    0  0.89236326659E+01 -0.30522241823E+02 -0.16712274488E+02  0.35924066928E+02  0.51100000000E-03 0.  1.
         23    2    1    0    0    0 -0.19116072480E+02  0.71366936436E+01  0.20749057067E+02  0.95988797406E+02  0.91471138809E+02 0.  0.
         11    1    3    3    0    0 -0.28039705146E+02  0.37658935466E+02  0.37461331556E+02  0.60064730477E+02  0.51100000000E-03 0. -1.
         22    1    1    0    0    0  0.19116072480E+02 -0.71366936436E+01 -0.20749057067E+02  0.29101202594E+02  0.00000000000E+00 0. -1.
</event>
<event>
 5    1  0.1059945E-009  0.9118800E+02  0.7815553E-02  0.1125453E+00
         25   -1    0    0    0    0  0.00000000000E+00  0.00000000000E+00  0.99999998245E-14  0.12509000000E+03  0.12509000000E+03 0.  0.
        -11    1    3    3    0    0 -0.58178465558E+02  0.22720015933E+02  0.18649205530E+01  0.62485285528E+02  0.51100000000E-03 0.  1.
         23    2    1    0    0    0 -0.27434733209E+02  0.11603347830E+02 -0.85518017074E+00  0.95290107379E+02  0.90510612439E+02 0.  0.
         11    1    3    3    0    0  0.30743732349E+02 -0.11116668103E+02 -0.27201007237E+01  0.32804821850E+02  0.51100000000E-03 0. -1.
         22    1    1    0    0    0  0.27434733209E+02 -0.11603347830E+02  0.85518017074E+00  0.29799892621E+02  0.00000000000E+00 0.  1.
</event>
<event>
 5    1  0.1059945E-009  0.9118800E+02  0.7815553E-02  0.1125453E+00
         25   -1    0    0    0    0  0.00000000000E+00  0.00000000000E+00  0.99999998245E-14  0.12509000000E+03  0.12509000000E+03 0.  0.
        -11    1    3    3    0    0 -0.47486270992E+02  0.52138304711E+01  0.16277434100E+02  0.50468651875E+02  0.51100000000E-03 0. -1.
         23    2    1    0    0    0 -0.18029464741E+02 -0.22261996889E+02 -0.49766552546E+01  0.96013803518E+02  0.91505329157E+02 0.  0.
         11    1    3    3    0    0  0.29456806251E+02 -0.27475827360E+02 -0.21254089354E+02  0.45545151643E+02  0.51100000000E-03 0.  1.
         22    1    1    0    0    0  0.18029464741E+02  0.22261996889E+02  0.49766552546E+01  0.29076196482E+02  0.00000000000E+00 0. -1.
</event>
<event>
 5    1  0.1059945E-009  0.9118800E+02  0.7815553E-02  0.1125453E+00
         25   -1    0    0    0    0  0.00000000000E+00  0.00000000000E+00  0.99999998245E-14  0.12509000000E+03  0.12509000000E+03 0.  0.
        -11    1    3    3    0    0  0.25127031512E+01  0.25194045098E+01 -0.32875182107E+02  0.33067184263E+02  0.51100000000E-03 0.  1.
         23    2    1    0    0    0  0.11789838675E+02 -0.85088990391E+01  0.26876758051E+02  0.94532484031E+02  0.89457413080E+02 0.  0.
         11    1    3    3    0    0  0.92771355242E+01 -0.11028303549E+02  0.59751940158E+02  0.61465299769E+02  0.51100000000E-03 0. -1.
         22    1    1    0    0    0 -0.11789838675E+02  0.85088990391E+01 -0.26876758051E+02  0.30557515969E+02  0.00000000000E+00 0. -1.
</event>
<event>
 5    1  0.1059945E-009  0.9118800E+02  0.7815553E-02  0.1125453E+00
         25   -1    0    0    0    0  0.00000000000E+00  0.00000000000E+00  0.99999998245E-14  0.12509000000E+03  0.12509000000E+03 0.  0.
        -11    1    3    3    0    0  0.37405516329E+02 -0.33609352526E+02 -0.18579816724E+02  0.53609428451E+02  0.51100000000E-03 0. -1.
         23    2    1    0    0    0  0.11473305477E+02 -0.18692954247E+02 -0.31916459574E+02  0.86363734123E+02  0.77194370927E+02 0.  0.
         11    1    3    3    0    0 -0.25932210852E+02  0.14916398279E+02 -0.13336642850E+02  0.32754305672E+02  0.51100000000E-03 0.  1.
         22    1    1    0    0    0 -0.11473305477E+02  0.18692954247E+02  0.31916459574E+02  0.38726265877E+02  0.00000000000E+00 0. -1.
</event>
<event>
 5    1  0.1059945E-009  0.9118800E+02  0.7815553E-02  0.1125453E+00
         25   -1    0    0    0    0  0.00000000000E+00  0.00000000000E+00  0.99999998245E-14  0.12509000000E+03  0.12509000000E+03 0.  0.
        -11    1    3    3    0    0 -0.28461223660E+02  0.11093276721E+02  0.11954192288E+02  0.32802511400E+02  0.51100000000E-03 0.  1.
         23    2    1    0    0    0  0.28747215287E+02 -0.77270998097E+01 -0.38712052003E+01  0.95071727433E+02  0.90208296011E+02 0.  0.
         11    1    3    3    0    0  0.57208438946E+02 -0.18820376531E+02 -0.15825397488E+02  0.62269216033E+02  0.51100000000E-03 0. -1.
         22    1    1    0    0    0 -0.28747215287E+02  0.77270998097E+01  0.38712052003E+01  0.30018272567E+02  0.00000000000E+00 0. -1.
</event>
<event>
 5    1  0.1059945E-009  0.9118800E+02  0.7815553E-02  0.1125453E+00
         25   -1    0    0    0    0  0.00000000000E+00  0.00000000000E+00  0.99999998245E-14  0.12509000000E+03  0.12509000000E+03 0.  0.
        -11    1    3    3    0    0  0.32051551624E+02 -0.37920898230E+02 -0.22915851775E+02  0.54684849336E+02  0.51100000000E-03 0. -1.
         23    2    1    0    0    0  0.10128666826E+02 -0.25694395307E+02  0.96783361721E+01  0.95824627408E+02  0.91246354365E+02 0.  0.
         11    1    3    3    0    0 -0.21922884798E+02  0.12226502922E+02  0.32594187948E+02  0.41139778072E+02  0.51100000000E-03 0.  1.
         22    1    1    0    0    0 -0.10128666826E+02  0.25694395307E+02 -0.96783361721E+01  0.29265372592E+02  0.00000000000E+00 0.  1.
</event>
<event>
 5    1  0.1059945E-009  0.9118800E+02  0.7815553E-02  0.1125453E+00
         25   -1    0    0    0    0  0.00000000000E+00  0.00000000000E+00  0.99999998245E-14  0.12509000000E+03  0.12509000000E+03 0.  0.
        -11    1    3    3    0    0 -0.71624434414E+01  0.54457651202E+02  0.10865641109E+02  0.55991057567E+02  0.51100000000E-03 0.  1.
         23    2    1    0    0    0 -0.16268638512E+02  0.26308542397E+02 -0.10433120708E+02  0.92445582257E+02  0.86490043756E+02 0.  0.
         11    1    3    3    0    0 -0.91061950707E+01 -0.28149108804E+02 -0.21298761817E+02  0.36454524690E+02  0.51100000000E-03 0. -1.
         22    1    1    0    0    0  0.16268638512E+02 -0.26308542397E+02  0.10433120708E+02  0.32644417743E+02  0.00000000000E+00 0.  1.
</event>
<event>
 5    1  0.1059945E-009  0.9118800E+02  0.7815553E-02  0.1125453E+00
         25   -1    0    0    0    0  0.00000000000E+00  0.00000000000E+00  0.99999998245E-14  0.12509000000E+03  0.12509000000E+03 0.  0.
        -11    1    3    3    0    0  0.25949452802E+02 -0.23048500414E+02 -0.12561825035E+02  0.36910796802E+02  0.51100000000E-03 0. -1.
         23    2    1    0    0    0 -0.28720013102E+02 -0.95283540780E+01  0.91292856060E+00  0.94816874582E+02  0.89854201810E+02 0.  0.
         11    1    3    3    0    0 -0.54669465904E+02  0.13520146336E+02  0.13474753595E+02  0.57906077780E+02  0.51100000000E-03 0.  1.
         22    1    1    0    0    0  0.28720013102E+02  0.95283540780E+01 -0.91292856060E+00  0.30273125418E+02  0.00000000000E+00 0.  1.
</event>
<event>
 5    1  0.1059945E-009  0.9118800E+02  0.7815553E-02  0.1125453E+00
         25   -1    0    0    0    0  0.00000000000E+00  0.00000000000E+00  0.99999998245E-14  0.12509000000E+03  0.12509000000E+03 0.  0.
        -11    1    3    3    0    0 -0.35425443435E+01  0.14278834746E+02 -0.54470781714E+02  0.56422520353E+02  0.51100000000E-03 0. -1.
         23    2    1    0    0    0  0.10350821761E+02 -0.87078801476E+01 -0.27270734907E+02  0.94648914767E+02  0.89620072508E+02 0.  0.
         11    1    3    3    0    0  0.13893366105E+02 -0.22986714894E+02  0.27200046807E+02  0.38226394414E+02  0.51100000000E-03 0.  1.
         22    1    1    0    0    0 -0.10350821761E+02  0.87078801476E+01  0.27270734907E+02  0.30441085233E+02  0.00000000000E+00 0. -1.
</event>
<event>
 5    1  0.1059945E-009  0.9118800E+02  0.7815553E-02  0.1125453E+00
         25   -1    0    0    0    0  0.00000000000E+00  0.00000000000E+00  0.99999998245E-14  0.12509000000E+03  0.12509000000E+03 0.  0.
        -11    1    3    3    0    0 -0.20751691437E+02  0.38481923567E+02  0.23070394561E+02  0.49434140473E+02  0.51100000000E-03 0.  1.
         23    2    1    0    0    0  0.94386576824E+01  0.27971931118E+02 -0.85062845550E+01  0.94367466474E+02  0.89226367529E+02 0.  0.
         11    1    3    3    0    0  0.30190349119E+02 -0.10509992448E+02 -0.31576679116E+02  0.44933326000E+02  0.51100000000E-03 0. -1.
         22    1    1    0    0    0 -0.94386576824E+01 -0.27971931118E+02  0.85062845550E+01  0.30722533526E+02  0.00000000000E+00 0. -1.
</event>
<event>
 5    1  0.1059945E-009  0.9118800E+02  0.7815553E-02  0.1125453E+00
         25   -1    0    0    0    0  0.00000000000E+00  0.00000000000E+00  0.99999998245E-14  0.12509000000E+03  0.12509000000E+03 0.  0.
        -11    1    3    3    0    0 -0.17561841012E+02 -0.17472805307E+02  0.42411832601E+02  0.49117010596E+02  0.51100000000E-03 0.  1.
         23    2    1    0    0    0 -0.24437599871E+02  0.15651664829E+02  0.16715734149E+02  0.91599901948E+02  0.85258168930E+02 0.  0.
         11    1    3    3    0    0 -0.68757588595E+01  0.33124470136E+02 -0.25696098452E+02  0.42482891352E+02  0.51100000000E-03 0. -1.
         22    1    1    0    0    0  0.24437599871E+02 -0.15651664829E+02 -0.16715734149E+02  0.33490098052E+02  0.00000000000E+00 0.  1.
</event>
<event>
 5    1  0.1059945E-009  0.9118800E+02  0.7815553E-02  0.1125453E+00
         25   -1    0    0    0    0  0.00000000000E+00  0.00000000000E+00  0.99999998245E-14  0.12509000000E+03  0.12509000000E+03 0.  0.
        -11    1    3    3    0    0 -0.74941636971E+01  0.44967985211E+02 -0.34358503234E+02  0.57085803211E+02  0.51100000000E-03 0. -1.
         23    2    1    0    0    0  0.10658589549E+02  0.29719684091E+01 -0.14216832136E+02  0.10707454987E+03  0.10554810650E+03 0.  0.
         11    1    3    3    0    0  0.18152753246E+02 -0.41996016802E+02  0.20141671098E+02  0.49988746659E+02  0.51100000000E-03 0.  1.
         22    1    1    0    0    0 -0.10658589549E+02 -0.29719684091E+01  0.14216832136E+02  0.18015450130E+02  0.00000000000E+00 0. -1.
</event>
<event>
 5    1  0.1059945E-009  0.9118800E+02  0.7815553E-02  0.1125453E+00
         25   -1    0    0    0    0  0.00000000000E+00  0.00000000000E+00  0.99999998245E-14  0.12509000000E+03  0.12509000000E+03 0.  0.
        -11    1    3    3    0    0 -0.47059503383E+02  0.24199651156E+02  0.84914643535E+00  0.52923917322E+02  0.51100000000E-03 0. -1.
         23    2    1    0    0    0 -0.11325029579E+02  0.14652780233E+02  0.22630013375E+02  0.95848287176E+02  0.91278783876E+02 0.  0.
         11    1    3    3    0    0  0.35734473805E+02 -0.95468709234E+01  0.21780866939E+02  0.42924369855E+02  0.51100000000E-03 0.  1.
         22    1    1    0    0    0  0.11325029579E+02 -0.14652780233E+02 -0.22630013375E+02  0.29241712824E+02  0.00000000000E+00 0. -1.
</event>
<event>
 5    1  0.1059945E-009  0.9118800E+02  0.7815553E-02  0.1125453E+00
         25   -1    0    0    0    0  0.00000000000E+00  0.00000000000E+00  0.99999998245E-14  0.12509000000E+03  0.12509000000E+03 0.  0.
        -11    1    3    3    0    0 -0.10631205489E+02  0.35861156339E+02 -0.56128629888E+01  0.37822602968E+02  0.51100000000E-03 0. -1.
         23    2    1    0    0    0  0.22358524640E+02 -0.13123229478E+02  0.70515943408E+01  0.98222775381E+02  0.94476800564E+02 0.  0.
         11    1    3    3    0    0  0.32989730128E+02 -0.48984385816E+02  0.12664457330E+02  0.60400172413E+02  0.51100000000E-03 0.  1.
         22    1    1    0    0    0 -0.22358524640E+02  0.13123229478E+02 -0.70515943408E+01  0.26867224619E+02  0.00000000000E+00 0.  1.
</event>
<event>
 5    1  0.1059945E-009  0.9118800E+02  0.7815553E-02  0.1125453E+00
         25   -1    0    0    0    0  0.00000000000E+00  0.00000000000E+00  0.99999998245E-14  0.12509000000E+03  0.12509000000E+03 0.  0.
        -11    1    3    3    0    0  0.32924905687E+02  0.17831217794E+02  0.11683920944E+02  0.39223918104E+02  0.51100000000E-03 0.  1.
         23    2    1    0    0    0 -0.91468783763E+01  0.26287048960E+02 -0.18482622463E+02  0.91679198451E+02  0.85374432757E+02 0.  0.
         11    1    3    3    0    0 -0.42071784063E+02  0.84558311653E+01 -0.30166543407E+02  0.52455280347E+02  0.51100000000E-03 0. -1.
         22    1    1    0    0    0  0.91468783763E+01 -0.26287048960E+02  0.18482622463E+02  0.33410801549E+02  0.00000000000E+00 0. -1.
</event>
<event>
 5    1  0.1059945E-009  0.9118800E+02  0.7815553E-02  0.1125453E+00
         25   -1    0    0    0    0  0.00000000000E+00  0.00000000000E+00  0.99999998245E-14  0.12509000000E+03  0.12509000000E+03 0.  0.
        -11    1    3    3    0    0 -0.36563088679E+02 -0.43395544855E+02  0.20480195184E+02  0.60328029655E+02  0.51100000000E-03 0.  1.
         23    2    1    0    0    0 -0.14880592076E+02 -0.30581027834E+02  0.30773571178E+01  0.90941772949E+02  0.84287037297E+02 0.  0.
         11    1    3    3    0    0  0.21682496603E+02  0.12814517021E+02 -0.17402838066E+02  0.30613743294E+02  0.51100000000E-03 0. -1.
         22    1    1    0    0    0  0.14880592076E+02  0.30581027834E+02 -0.30773571178E+01  0.34148227051E+02  0.00000000000E+00 0.  1.
</event>
<event>
 5    1  0.1059945E-009  0.9118800E+02  0.7815553E-02  0.1125453E+00
         25   -1    0    0    0    0  0.00000000000E+00  0.00000000000E+00  0.99999998245E-14  0.12509000000E+03  0.12509000000E+03 0.  0.
        -11    1    3    3    0    0 -0.37226962964E+02  0.47599511037E+02  0.58525113321E+00  0.60430975018E+02  0.51100000000E-03 0.  1.
         23    2    1    0    0    0 -0.23319945466E+02  0.15684162083E+02  0.76706051113E+01  0.95958385223E+02  0.91429539619E+02 0.  0.
         11    1    3    3    0    0  0.13907017499E+02 -0.31915348954E+02  0.70853539781E+01  0.35527410205E+02  0.51100000000E-03 0. -1.
         22    1    1    0    0    0  0.23319945466E+02 -0.15684162083E+02 -0.76706051113E+01  0.29131614777E+02  0.00000000000E+00 0.  1.
</event>
<event>
 5    1  0.1059945E-009  0.9118800E+02  0.7815553E-02  0.1125453E+00
         25   -1    0    0    0    0  0.00000000000E+00  0.00000000000E+00  0.99999998245E-14  0.12509000000E+03  0.12509000000E+03 0.  0.
        -11    1    3    3    0    0 -0.39122390133E+02  0.13315385940E+02  0.23721253411E+02  0.47650380650E+02  0.51100000000E-03 0. -1.
         23    2    1    0    0    0  0.28659654156E+01  0.28030285135E+02  0.15618587487E+02  0.92874306346E+02  0.87107897815E+02 0.  0.
         11    1    3    3    0    0  0.41988355549E+02  0.14714899195E+02 -0.81026659234E+01  0.45223925696E+02  0.51100000000E-03 0.  1.
         22    1    1    0    0    0 -0.28659654156E+01 -0.28030285135E+02 -0.15618587487E+02  0.32215693654E+02  0.00000000000E+00 0. -1.
</event>
<event>
 5    1  0.1059945E-009  0.9118800E+02  0.7815553E-02  0.1125453E+00
         25   -1    0    0    0    0  0.00000000000E+00  0.00000000000E+00  0.99999998245E-14  0.12509000000E+03  0.12509000000E+03 0.  0.
        -11    1    3    3    0    0  0.27018068862E+02 -0.22615602497E+01  0.39536800241E+02  0.47940059172E+02  0.51100000000E-03 0.  1.
         23    2    1    0    0    0  0.99897277663E+01 -0.28281365632E+02  0.45431767929E+01  0.94754035235E+02  0.89766677755E+02 0.  0.
         11    1    3    3    0    0 -0.17028341096E+02 -0.26019805382E+02 -0.34993623448E+02  0.46813976064E+02  0.51100000000E-03 0. -1.
         22    1    1    0    0    0 -0.99897277663E+01  0.28281365632E+02 -0.45431767929E+01  0.30335964765E+02  0.00000000000E+00 0.  1.
</event>
<event>
 5    1  0.1059945E-009  0.9118800E+02  0.7815553E-02  0.1125453E+00
         25   -1    0    0    0    0  0.00000000000E+00  0.00000000000E+00  0.99999998245E-14  0.12509000000E+03  0.12509000000E+03 0.  0.
        -11    1    3    3    0    0 -0.44985785343E+02 -0.87130685484E+01 -0.12448718580E+02  0.47482723606E+02  0.51100000000E-03 0. -1.
         23    2    1    0    0    0 -0.12791142956E+02  0.15979701275E+01  0.24403143012E+02  0.97491445047E+02  0.93503484543E+02 0.  0.
         11    1    3    3    0    0  0.32194642388E+02  0.10311038676E+02  0.36851861592E+02  0.50008721441E+02  0.51100000000E-03 0.  1.
         22    1    1    0    0    0  0.12791142956E+02 -0.15979701275E+01 -0.24403143012E+02  0.27598554953E+02  0.00000000000E+00 0.  1.
</event>
<event>
 5    1  0.1059945E-009  0.9118800E+02  0.7815553E-02  0.1125453E+00
         25   -1    0    0    0    0  0.00000000000E+00  0.00000000000E+00  0.99999998245E-14  0.12509000000E+03  0.12509000000E+03 0.  0.
        -11    1    3    3    0    0 -0.20186981554E+02  0.54258087379E+01 -0.36933296002E+02  0.42438449295E+02  0.51100000000E-03 0.  1.
         23    2    1    0    0    0  0.89005262720E+01  0.27010689046E+02  0.31660139419E+01  0.96474963133E+02  0.92133588753E+02 0.  0.
         11    1    3    3    0    0  0.29087507826E+02  0.21584880308E+02  0.40099309944E+02  0.54036513837E+02  0.51100000000E-03 0. -1.
         22    1    1    0    0    0 -0.89005262720E+01 -0.27010689046E+02 -0.31660139419E+01  0.28615036867E+02  0.00000000000E+00 0. -1.
</event>
<event>
 5    1  0.1059945E-009  0.9118800E+02  0.7815553E-02  0.1125453E+00
         25   -1    0    0    0    0  0.00000000000E+00  0.00000000000E+00  0.99999998245E-14  0.12509000000E+03  0.12509000000E+03 0.  0.
        -11    1    3    3    0    0 -0.87487915816E+01  0.40577774089E+02 -0.90806948284E+01  0.42491835957E+02  0.51100000000E-03 0.  1.
         23    2    1    0    0    0  0.15274312153E+02  0.49789449929E+01  0.23657380599E+02  0.96493388981E+02  0.92158602177E+02 0.  0.
         11    1    3    3    0    0  0.24023103735E+02 -0.35598829096E+02  0.32738075428E+02  0.54001553024E+02  0.51100000000E-03 0. -1.
         22    1    1    0    0    0 -0.15274312153E+02 -0.49789449929E+01 -0.23657380599E+02  0.28596611019E+02  0.00000000000E+00 0. -1.
</event>
<event>
 5    1  0.1059945E-009  0.9118800E+02  0.7815553E-02  0.1125453E+00
         25   -1    0    0    0    0  0.00000000000E+00  0.00000000000E+00  0.99999998245E-14  0.12509000000E+03  0.12509000000E+03 0.  0.
        -11    1    3    3    0    0  0.47282431157E+01  0.16568520522E+02  0.46466185200E+02  0.49557830083E+02  0.51100000000E-03 0. -1.
         23    2    1    0    0    0 -0.20268250011E+02  0.21306339941E+02  0.99850092280E+01  0.94034203609E+02  0.88757923358E+02 0.  0.
         11    1    3    3    0    0 -0.24996493127E+02  0.47378194188E+01 -0.36481175972E+02  0.44476373526E+02  0.51100000000E-03 0.  1.
         22    1    1    0    0    0  0.20268250011E+02 -0.21306339941E+02 -0.99850092280E+01  0.31055796391E+02  0.00000000000E+00 0. -1.
</event>
<event>
 5    1  0.1059945E-009  0.9118800E+02  0.7815553E-02  0.1125453E+00
         25   -1    0    0    0    0  0.00000000000E+00  0.00000000000E+00  0.99999998245E-14  0.12509000000E+03  0.12509000000E+03 0.  0.
        -11    1    3    3    0    0 -0.12396277903E+02 -0.18710021030E+01  0.38725485080E+02  0.40704195725E+02  0.51100000000E-03 0.  1.
         23    2    1    0    0    0  0.29005914880E+02  0.68852339069E+01  0.49033139078E+01  0.94877551717E+02  0.89938633459E+02 0.  0.
         11    1    3    3    0    0  0.41402192783E+02  0.87562360099E+01 -0.33822171172E+02  0.54173355992E+02  0.51100000000E-03 0. -1.
         22    1    1    0    0    0 -0.29005914880E+02 -0.68852339069E+01 -0.49033139078E+01  0.30212448283E+02  0.00000000000E+00 0. -1.
</event>
<event>
 5    1  0.1059945E-009  0.9118800E+02  0.7815553E-02  0.1125453E+00
         25   -1    0    0    0    0  0.00000000000E+00  0.00000000000E+00  0.99999998245E-14  0.12509000000E+03  0.12509000000E+03 0.  0.
        -11    1    3    3    0    0  0.62454339335E+01  0.15829318034E+02 -0.37215851337E+02  0.40921783263E+02  0.51100000000E-03 0.  1.
         23    2    1    0    0    0  0.27152079077E+02 -0.32585202460E+01  0.99982229680E+01  0.95972688742E+02  0.91449106991E+02 0.  0.
         11    1    3    3    0    0  0.20906645143E+02 -0.19087838280E+02  0.47214074305E+02  0.55050905479E+02  0.51100000000E-03 0. -1.
         22    1    1    0    0    0 -0.27152079077E+02  0.32585202460E+01 -0.99982229680E+01  0.29117311258E+02  0.00000000000E+00 0. -1.
</event>
<event>
 5    1  0.1059945E-009  0.9118800E+02  0.7815553E-02  0.1125453E+00
         25   -1    0    0    0    0  0.00000000000E+00  0.00000000000E+00  0.99999998245E-14  0.12509000000E+03  0.12509000000E+03 0.  0.
        -11    1    3    3    0    0  0.84323463393E+01 -0.15891850072E+02  0.30834237377E+02  0.35698817324E+02  0.51100000000E-03 0.  1.
         23    2    1    0    0    0  0.13459295930E+02  0.28750539995E+02 -0.47273942640E+01  0.92994915431E+02  0.87280924850E+02 0.  0.
         11    1    3    3    0    0  0.50269495907E+01  0.44642390067E+02 -0.35561631641E+02  0.57296098107E+02  0.51100000000E-03 0. -1.
         22    1    1    0    0    0 -0.13459295930E+02 -0.28750539995E+02  0.47273942640E+01  0.32095084569E+02  0.00000000000E+00 0.  1.
</event>
<event>
 5    1  0.1059945E-009  0.9118800E+02  0.7815553E-02  0.1125453E+00
         25   -1    0    0    0    0  0.00000000000E+00  0.00000000000E+00  0.99999998245E-14  0.12509000000E+03  0.12509000000E+03 0.  0.
        -11    1    3    3    0    0  0.23374848571E+02  0.40043914975E+02 -0.41607311004E+02  0.62298210259E+02  0.51100000000E-03 0. -1.
         23    2    1    0    0    0  0.77651545796E+01  0.18920938764E+02 -0.21825632860E+02  0.95179169201E+02  0.90357160483E+02 0.  0.
         11    1    3    3    0    0 -0.15609693991E+02 -0.21122976211E+02  0.19781678143E+02  0.32880958942E+02  0.51100000000E-03 0.  1.
         22    1    1    0    0    0 -0.77651545796E+01 -0.18920938764E+02  0.21825632860E+02  0.29910830799E+02  0.00000000000E+00 0. -1.
</event>
<event>
 5    1  0.1059945E-009  0.9118800E+02  0.7815553E-02  0.1125453E+00
         25   -1    0    0    0    0  0.00000000000E+00  0.00000000000E+00  0.99999998245E-14  0.12509000000E+03  0.12509000000E+03 0.  0.
        -11    1    3    3    0    0 -0.37625241344E+02  0.18458836959E+02 -0.34670939405E+02  0.54391740987E+02  0.51100000000E-03 0.  1.
         23    2    1    0    0    0 -0.21405015618E+02 -0.13769515308E+02 -0.16141628282E+02  0.94951546008E+02  0.90041488661E+02 0.  0.
         11    1    3    3    0    0  0.16220225726E+02 -0.32228352266E+02  0.18529311123E+02  0.40559805021E+02  0.51100000000E-03 0. -1.
         22    1    1    0    0    0  0.21405015618E+02  0.13769515308E+02  0.16141628282E+02  0.30138453992E+02  0.00000000000E+00 0.  1.
</event>
<event>
 5    1  0.1059945E-009  0.9118800E+02  0.7815553E-02  0.1125453E+00
         25   -1    0    0    0    0  0.00000000000E+00  0.00000000000E+00  0.99999998245E-14  0.12509000000E+03  0.12509000000E+03 0.  0.
        -11    1    3    3    0    0 -0.53331977211E+02 -0.10092880549E+02 -0.11297963518E+00  0.54278714020E+02  0.51100000000E-03 0. -1.
         23    2    1    0    0    0 -0.15097500615E+02 -0.25331694833E+02  0.23159116888E+01  0.95509723887E+02  0.90813625751E+02 0.  0.
         11    1    3    3    0    0  0.38234476596E+02 -0.15238814285E+02  0.24288913240E+01  0.41231009867E+02  0.51100000000E-03 0.  1.
         22    1    1    0    0    0  0.15097500615E+02  0.25331694833E+02 -0.23159116888E+01  0.29580276113E+02  0.00000000000E+00 0.  1.
</event>
<event>
 5    1  0.1059945E-009  0.9118800E+02  0.7815553E-02  0.1125453E+00
         25   -1    0    0    0    0  0.00000000000E+00  0.00000000000E+00  0.99999998245E-14  0.12509000000E+03  0.12509000000E+03 0.  0.
        -11    1    3    3    0    0  0.11345850784E+02 -0.12305059721E+02 -0.36602134120E+02  0.40247472557E+02  0.51100000000E-03 0.  1.
         23    2    1    0    0    0 -0.25574814384E+02  0.12308837471E+02 -0.17822954652E+01  0.96651378589E+02  0.92372797918E+02 0.  0.
         11    1    3    3    0    0 -0.36920665168E+02  0.24613897192E+02  0.34819838655E+02  0.56403906032E+02  0.51100000000E-03 0. -1.
         22    1    1    0    0    0  0.25574814384E+02 -0.12308837471E+02  0.17822954652E+01  0.28438621411E+02  0.00000000000E+00 0. -1.
</event>
<event>
 5    1  0.1059945E-009  0.9118800E+02  0.7815553E-02  0.1125453E+00
         25   -1    0    0    0    0  0.00000000000E+00  0.00000000000E+00  0.99999998245E-14  0.12509000000E+03  0.12509000000E+03 0.  0.
        -11    1    3    3    0    0  0.82937361207E+00  0.39405487024E+02 -0.41087483311E+02  0.56935591270E+02  0.51100000000E-03 0.  1.
         23    2    1    0    0    0 -0.18053289701E+02  0.16423002359E+02 -0.15443275480E+02  0.96208673281E+02  0.91771334203E+02 0.  0.
         11    1    3    3    0    0 -0.18882663313E+02 -0.22982484664E+02  0.25644207831E+02  0.39273082011E+02  0.51100000000E-03 0. -1.
         22    1    1    0    0    0  0.18053289701E+02 -0.16423002359E+02  0.15443275480E+02  0.28881326719E+02  0.00000000000E+00 0.  1.
</event>
<event>
 5    1  0.1059945E-009  0.9118800E+02  0.7815553E-02  0.1125453E+00
         25   -1    0    0    0    0  0.00000000000E+00  0.00000000000E+00  0.99999998245E-14  0.12509000000E+03  0.12509000000E+03 0.  0.
        -11    1    3    3    0    0 -0.60897019623E+00 -0.22214343428E+02 -0.56793233984E+02  0.60986222422E+02  0.51100000000E-03 0. -1.
         23    2    1    0    0    0  0.62299639572E+01 -0.17147277363E+02 -0.23560095005E+02  0.95292019389E+02  0.90513254889E+02 0.  0.
         11    1    3    3    0    0  0.68389341534E+01  0.50670660646E+01  0.33233138979E+02  0.34305796967E+02  0.51100000000E-03 0.  1.
         22    1    1    0    0    0 -0.62299639572E+01  0.17147277363E+02  0.23560095005E+02  0.29797980611E+02  0.00000000000E+00 0. -1.
</event>
<event>
 5    1  0.1059945E-009  0.9118800E+02  0.7815553E-02  0.1125453E+00
         25   -1    0    0    0    0  0.00000000000E+00  0.00000000000E+00  0.99999998245E-14  0.12509000000E+03  0.12509000000E+03 0.  0.
        -11    1    3    3    0    0  0.26972536725E+02  0.41719056583E+02 -0.35341415734E+02  0.60967311618E+02  0.51100000000E-03 0. -1.
         23    2    1    0    0    0  0.17856200542E+02  0.10901473621E+02 -0.18034520295E+02  0.97468813437E+02  0.93473202821E+02 0.  0.
         11    1    3    3    0    0 -0.91163361829E+01 -0.30817582963E+02  0.17306895438E+02  0.36501501819E+02  0.51100000000E-03 0.  1.
         22    1    1    0    0    0 -0.17856200542E+02 -0.10901473621E+02  0.18034520295E+02  0.27621186563E+02  0.00000000000E+00 0. -1.
</event>
<event>
 5    1  0.1059945E-009  0.9118800E+02  0.7815553E-02  0.1125453E+00
         25   -1    0    0    0    0  0.00000000000E+00  0.00000000000E+00  0.99999998245E-14  0.12509000000E+03  0.12509000000E+03 0.  0.
        -11    1    3    3    0    0  0.56929080954E+02  0.24940778159E+02  0.32761634235E+01  0.62239022490E+02  0.51100000000E-03 0. -1.
         23    2    1    0    0    0  0.26658538723E+02  0.11744369945E+02  0.59092689403E+01  0.95365811674E+02  0.90615178996E+02 0.  0.
         11    1    3    3    0    0 -0.30270542231E+02 -0.13196408214E+02  0.26331055167E+01  0.33126789184E+02  0.51100000000E-03 0.  1.
         22    1    1    0    0    0 -0.26658538723E+02 -0.11744369945E+02 -0.59092689403E+01  0.29724188326E+02  0.00000000000E+00 0. -1.
</event>
<event>
 5    1  0.1059945E-009  0.9118800E+02  0.7815553E-02  0.1125453E+00
         25   -1    0    0    0    0  0.00000000000E+00  0.00000000000E+00  0.99999998245E-14  0.12509000000E+03  0.12509000000E+03 0.  0.
        -11    1    3    3    0    0 -0.38077268089E+01  0.28531857073E+02 -0.43361722640E+01  0.29109586765E+02  0.51100000000E-03 0.  1.
         23    2    1    0    0    0  0.87847619247E+01 -0.22659493867E+02 -0.28951217190E+02  0.87290559777E+02  0.78681917522E+02 0.  0.
         11    1    3    3    0    0  0.12592488734E+02 -0.51191350940E+02 -0.24615044926E+02  0.58180973012E+02  0.51100000000E-03 0. -1.
         22    1    1    0    0    0 -0.87847619247E+01  0.22659493867E+02  0.28951217190E+02  0.37799440223E+02  0.00000000000E+00 0. -1.
</event>
<event>
 5    1  0.1059945E-009  0.9118800E+02  0.7815553E-02  0.1125453E+00
         25   -1    0    0    0    0  0.00000000000E+00  0.00000000000E+00  0.99999998245E-14  0.12509000000E+03  0.12509000000E+03 0.  0.
        -11    1    3    3    0    0  0.11227683126E+02 -0.24806677552E+02 -0.21966911896E+02  0.34985387493E+02  0.51100000000E-03 0.  1.
         23    2    1    0    0    0 -0.42348008514E+01  0.29139926333E+02  0.10119924366E+01  0.95626582451E+02  0.90974448598E+02 0.  0.
         11    1    3    3    0    0 -0.15462483977E+02  0.53946603885E+02  0.22978904333E+02  0.60641194959E+02  0.51100000000E-03 0. -1.
         22    1    1    0    0    0  0.42348008514E+01 -0.29139926333E+02 -0.10119924366E+01  0.29463417549E+02  0.00000000000E+00 0. -1.
</event>
<event>
 5    1  0.1059945E-009  0.9118800E+02  0.7815553E-02  0.1125453E+00
         25   -1    0    0    0    0  0.00000000000E+00  0.00000000000E+00  0.99999998245E-14  0.12509000000E+03  0.12509000000E+03 0.  0.
        -11    1    3    3    0    0  0.57387564965E+02  0.69069966705E+01 -0.19451793924E+02  0.60986978141E+02  0.51100000000E-03 0.  1.
         23    2    1    0    0    0  0.28604666004E+02  0.22254246622E+01  0.62672373432E+00  0.96392052081E+02  0.92020951363E+02 0.  0.
         11    1    3    3    0    0 -0.28782898961E+02 -0.46815720083E+01  0.20078517659E+02  0.35405073940E+02  0.51100000000E-03 0. -1.
         22    1    1    0    0    0 -0.28604666004E+02 -0.22254246622E+01 -0.62672373432E+00  0.28697947919E+02  0.00000000000E+00 0.  1.
</event>
<event>
 5    1  0.1059945E-009  0.9118800E+02  0.7815553E-02  0.1125453E+00
         25   -1    0    0    0    0  0.00000000000E+00  0.00000000000E+00  0.99999998245E-14  0.12509000000E+03  0.12509000000E+03 0.  0.
        -11    1    3    3    0    0 -0.36878905301E+02 -0.22617773420E+02  0.18893023825E+01  0.43303427052E+02  0.51100000000E-03 0. -1.
         23    2    1    0    0    0  0.55235556896E+00  0.24717600338E+00  0.29794071121E+02  0.95289784118E+02  0.90510165676E+02 0.  0.
         11    1    3    3    0    0  0.37431260870E+02  0.22864949423E+02  0.27904768738E+02  0.51986357066E+02  0.51100000000E-03 0.  1.
         22    1    1    0    0    0 -0.55235556896E+00 -0.24717600338E+00 -0.29794071121E+02  0.29800215882E+02  0.00000000000E+00 0.  1.
</event>
<event>
 5    1  0.1059945E-009  0.9118800E+02  0.7815553E-02  0.1125453E+00
         25   -1    0    0    0    0  0.00000000000E+00  0.00000000000E+00  0.99999998245E-14  0.12509000000E+03  0.12509000000E+03 0.  0.
        -11    1    3    3    0    0 -0.10557253471E+02 -0.22455211415E+02  0.22132783337E+02  0.33249845399E+02  0.51100000000E-03 0.  1.
         23    2    1    0    0    0  0.38257618614E+01  0.30752898674E+02 -0.32473633235E+01  0.93930369078E+02  0.88611464472E+02 0.  0.
         11    1    3    3    0    0  0.14383015332E+02  0.53208110088E+02 -0.25380146661E+02  0.60680523679E+02  0.51100000000E-03 0. -1.
         22    1    1    0    0    0 -0.38257618614E+01 -0.30752898674E+02  0.32473633235E+01  0.31159630922E+02  0.00000000000E+00 0. -1.
</event>
<event>
 5    1  0.1059945E-009  0.9118800E+02  0.7815553E-02  0.1125453E+00
         25   -1    0    0    0    0  0.00000000000E+00  0.00000000000E+00  0.99999998245E-14  0.12509000000E+03  0.12509000000E+03 0.  0.
        -11    1    3    3    0    0 -0.32869023903E+01  0.43562833519E+02  0.21685456559E+02  0.48772771276E+02  0.51100000000E-03 0.  1.
         23    2    1    0    0    0 -0.65250933573E+01  0.20322868165E+02 -0.19503601524E+02  0.96176572562E+02  0.91727568504E+02 0.  0.
         11    1    3    3    0    0 -0.32381909670E+01 -0.23239965354E+02 -0.41189058083E+02  0.47403801286E+02  0.51100000000E-03 0. -1.
         22    1    1    0    0    0  0.65250933573E+01 -0.20322868165E+02  0.19503601524E+02  0.28913427438E+02  0.00000000000E+00 0.  1.
</event>
<event>
 5    1  0.1059945E-009  0.9118800E+02  0.7815553E-02  0.1125453E+00
         25   -1    0    0    0    0  0.00000000000E+00  0.00000000000E+00  0.99999998245E-14  0.12509000000E+03  0.12509000000E+03 0.  0.
        -11    1    3    3    0    0 -0.30645472792E+02 -0.14267734456E+02 -0.13184057406E+02  0.36284054612E+02  0.51100000000E-03 0.  1.
         23    2    1    0    0    0  0.19478571932E+02  0.22519533968E+01  0.18741896700E+02  0.97965384786E+02  0.94135391144E+02 0.  0.
         11    1    3    3    0    0  0.50124044724E+02  0.16519687853E+02  0.31925954105E+02  0.61681330174E+02  0.51100000000E-03 0. -1.
         22    1    1    0    0    0 -0.19478571932E+02 -0.22519533968E+01 -0.18741896700E+02  0.27124615214E+02  0.00000000000E+00 0. -1.
</event>
<event>
 5    1  0.1059945E-009  0.9118800E+02  0.7815553E-02  0.1125453E+00
         25   -1    0    0    0    0  0.00000000000E+00  0.00000000000E+00  0.99999998245E-14  0.12509000000E+03  0.12509000000E+03 0.  0.
        -11    1    3    3    0    0  0.24534271343E+02 -0.25541001811E+02 -0.36577378094E+02  0.50913434694E+02  0.51100000000E-03 0.  1.
         23    2    1    0    0    0 -0.13333546636E+02 -0.27811780714E+01 -0.25054405235E+02  0.96572608130E+02  0.92266066362E+02 0.  0.
         11    1    3    3    0    0 -0.37867817979E+02  0.22759823739E+02  0.11522972859E+02  0.45659173437E+02  0.51100000000E-03 0. -1.
         22    1    1    0    0    0  0.13333546636E+02  0.27811780714E+01  0.25054405235E+02  0.28517391870E+02  0.00000000000E+00 0. -1.
</event>
<event>
 5    1  0.1059945E-009  0.9118800E+02  0.7815553E-02  0.1125453E+00
         25   -1    0    0    0    0  0.00000000000E+00  0.00000000000E+00  0.99999998245E-14  0.12509000000E+03  0.12509000000E+03 0.  0.
        -11    1    3    3    0    0 -0.86561902048E+01 -0.16157512907E+01 -0.47582886483E+02  0.48390819041E+02  0.51100000000E-03 0.  1.
         23    2    1    0    0    0 -0.29676230986E+02 -0.30993068033E+01 -0.65150291221E+01  0.94549371443E+02  0.89481023953E+02 0.  0.
         11    1    3    3    0    0 -0.21020040781E+02 -0.14835555125E+01  0.41067857361E+02  0.46158552402E+02  0.51100000000E-03 0. -1.
         22    1    1    0    0    0  0.29676230986E+02  0.30993068033E+01  0.65150291221E+01  0.30540628557E+02  0.00000000000E+00 0.  1.
</event>
<event>
 5    1  0.1059945E-009  0.9118800E+02  0.7815553E-02  0.1125453E+00
         25   -1    0    0    0    0  0.00000000000E+00  0.00000000000E+00  0.99999998245E-14  0.12509000000E+03  0.12509000000E+03 0.  0.
        -11    1    3    3    0    0  0.17133371620E+02  0.35139186347E+01 -0.30260431191E+02  0.34951305317E+02  0.51100000000E-03 0.  1.
         23    2    1    0    0    0 -0.18275511513E+02  0.24863049919E+02  0.99913599464E+01  0.92655560804E+02  0.86793203086E+02 0.  0.
         11    1    3    3    0    0 -0.35408883133E+02  0.21349131285E+02  0.40251791137E+02  0.57704255487E+02  0.51100000000E-03 0. -1.
         22    1    1    0    0    0  0.18275511513E+02 -0.24863049919E+02 -0.99913599464E+01  0.32434439196E+02  0.00000000000E+00 0. -1.
</event>
<event>
 5    1  0.1059945E-009  0.9118800E+02  0.7815553E-02  0.1125453E+00
         25   -1    0    0    0    0  0.00000000000E+00  0.00000000000E+00  0.99999998245E-14  0.12509000000E+03  0.12509000000E+03 0.  0.
        -11    1    3    3    0    0  0.19931969554E+02  0.41975473234E+02  0.28961449777E+02  0.54753897916E+02  0.51100000000E-03 0.  1.
         23    2    1    0    0    0  0.25844310816E+02  0.57338923924E+01  0.18006147757E+02  0.93073952765E+02  0.87394126821E+02 0.  0.
         11    1    3    3    0    0  0.59123412611E+01 -0.36241580841E+02 -0.10955302020E+02  0.38320054850E+02  0.51100000000E-03 0. -1.
         22    1    1    0    0    0 -0.25844310816E+02 -0.57338923924E+01 -0.18006147757E+02  0.32016047235E+02  0.00000000000E+00 0.  1.
</event>
<event>
 5    1  0.1059945E-009  0.9118800E+02  0.7815553E-02  0.1125453E+00
         25   -1    0    0    0    0  0.00000000000E+00  0.00000000000E+00  0.99999998245E-14  0.12509000000E+03  0.12509000000E+03 0.  0.
        -11    1    3    3    0    0 -0.17958209337E+02  0.30965579909E+02 -0.89874649075E+01  0.36907166613E+02  0.51100000000E-03 0.  1.
         23    2    1    0    0    0  0.46574646363E+01 -0.16621197749E+02  0.21295400630E+02  0.97677406554E+02  0.93751935829E+02 0.  0.
         11    1    3    3    0    0  0.22615673974E+02 -0.47586777657E+02  0.30282865537E+02  0.60770239941E+02  0.51100000000E-03 0. -1.
         22    1    1    0    0    0 -0.46574646363E+01  0.16621197749E+02 -0.21295400630E+02  0.27412593446E+02  0.00000000000E+00 0. -1.
</event>
<event>
 5    1  0.1059945E-009  0.9118800E+02  0.7815553E-02  0.1125453E+00
         25   -1    0    0    0    0  0.00000000000E+00  0.00000000000E+00  0.99999998245E-14  0.12509000000E+03  0.12509000000E+03 0.  0.
        -11    1    3    3    0    0  0.83046858174E+01  0.16406466620E+02 -0.36376160700E+02  0.40759845694E+02  0.51100000000E-03 0.  1.
         23    2    1    0    0    0  0.15326009772E+02 -0.23204090719E+02  0.30845144330E+01  0.97110889383E+02  0.92992979337E+02 0.  0.
         11    1    3    3    0    0  0.70213239546E+01 -0.39610557338E+02  0.39460675133E+02  0.56351043690E+02  0.51100000000E-03 0. -1.
         22    1    1    0    0    0 -0.15326009772E+02  0.23204090719E+02 -0.30845144330E+01  0.27979110617E+02  0.00000000000E+00 0. -1.
</event>
<event>
 5    1  0.1059945E-009  0.9118800E+02  0.7815553E-02  0.1125453E+00
         25   -1    0    0    0    0  0.00000000000E+00  0.00000000000E+00  0.99999998245E-14  0.12509000000E+03  0.12509000000E+03 0.  0.
        -11    1    3    3    0    0  0.45367035667E+02 -0.23821648011E+02  0.11760434582E+02  0.52573250432E+02  0.51100000000E-03 0.  1.
         23    2    1    0    0    0  0.13778656187E+02 -0.37597539529E+01  0.28225994608E+02  0.93456253973E+02  0.87939624283E+02 0.  0.
         11    1    3    3    0    0 -0.31588379480E+02  0.20061894058E+02  0.16465560026E+02  0.40883003541E+02  0.51100000000E-03 0. -1.
         22    1    1    0    0    0 -0.13778656187E+02  0.37597539529E+01 -0.28225994608E+02  0.31633746027E+02  0.00000000000E+00 0.  1.
</event>
<event>
 5    1  0.1059945E-009  0.9118800E+02  0.7815553E-02  0.1125453E+00
         25   -1    0    0    0    0  0.00000000000E+00  0.00000000000E+00  0.99999998245E-14  0.12509000000E+03  0.12509000000E+03 0.  0.
        -11    1    3    3    0    0 -0.42048593459E+02 -0.15531097584E+02 -0.17385289358E+02  0.48078555411E+02  0.51100000000E-03 0.  1.
         23    2    1    0    0    0 -0.70354314641E+01  0.17180236314E+02 -0.22101197682E+02  0.96226168746E+02  0.91795178506E+02 0.  0.
         11    1    3    3    0    0  0.35013161995E+02  0.32711333898E+02 -0.47159083243E+01  0.48147613335E+02  0.51100000000E-03 0. -1.
         22    1    1    0    0    0  0.70354314641E+01 -0.17180236314E+02  0.22101197682E+02  0.28863831254E+02  0.00000000000E+00 0.  1.
</event>
<event>
 5    1  0.1059945E-009  0.9118800E+02  0.7815553E-02  0.1125453E+00
         25   -1    0    0    0    0  0.00000000000E+00  0.00000000000E+00  0.99999998245E-14  0.12509000000E+03  0.12509000000E+03 0.  0.
        -11    1    3    3    0    0  0.30302152624E+02 -0.43108929297E+02 -0.31491317852E+02  0.61386507794E+02  0.51100000000E-03 0.  1.
         23    2    1    0    0    0  0.21123715894E+02 -0.16920626902E+02 -0.11034263811E+02  0.95862034526E+02  0.91297621533E+02 0.  0.
         11    1    3    3    0    0 -0.91784367300E+01  0.26188302395E+02  0.20457054041E+02  0.34475526732E+02  0.51100000000E-03 0. -1.
         22    1    1    0    0    0 -0.21123715894E+02  0.16920626902E+02  0.11034263811E+02  0.29227965474E+02  0.00000000000E+00 0.  1.
</event>
<event>
 5    1  0.1059945E-009  0.9118800E+02  0.7815553E-02  0.1125453E+00
         25   -1    0    0    0    0  0.00000000000E+00  0.00000000000E+00  0.99999998245E-14  0.12509000000E+03  0.12509000000E+03 0.  0.
        -11    1    3    3    0    0  0.29660030649E+02  0.13356656894E+02  0.96478653960E+01  0.33929323725E+02  0.51100000000E-03 0.  1.
         23    2    1    0    0    0 -0.19961837605E+02 -0.28607598414E+01 -0.22213153382E+02  0.95088615189E+02  0.90231710878E+02 0.  0.
         11    1    3    3    0    0 -0.49621868254E+02 -0.16217416735E+02 -0.31861018778E+02  0.61159291464E+02  0.51100000000E-03 0. -1.
         22    1    1    0    0    0  0.19961837605E+02  0.28607598414E+01  0.22213153382E+02  0.30001384811E+02  0.00000000000E+00 0. -1.
</event>
<event>
 5    1  0.1059945E-009  0.9118800E+02  0.7815553E-02  0.1125453E+00
         25   -1    0    0    0    0  0.00000000000E+00  0.00000000000E+00  0.99999998245E-14  0.12509000000E+03  0.12509000000E+03 0.  0.
        -11    1    3    3    0    0 -0.22945776442E+02  0.31208093907E+02 -0.17459364898E+01  0.38775018715E+02  0.51100000000E-03 0. -1.
         23    2    1    0    0    0 -0.15978241411E+02 -0.22323300230E+02 -0.14209597749E+02  0.94178083205E+02  0.88960467379E+02 0.  0.
         11    1    3    3    0    0  0.69675350310E+01 -0.53531394137E+02 -0.12463661259E+02  0.55403064490E+02  0.51100000000E-03 0.  1.
         22    1    1    0    0    0  0.15978241411E+02  0.22323300230E+02  0.14209597749E+02  0.30911916795E+02  0.00000000000E+00 0. -1.
</event>
<event>
 5    1  0.1059945E-009  0.9118800E+02  0.7815553E-02  0.1125453E+00
         25   -1    0    0    0    0  0.00000000000E+00  0.00000000000E+00  0.99999998245E-14  0.12509000000E+03  0.12509000000E+03 0.  0.
        -11    1    3    3    0    0  0.36104515485E+02  0.17296120465E+02 -0.20659389009E+02  0.45049996405E+02  0.51100000000E-03 0. -1.
         23    2    1    0    0    0  0.20099261556E+02 -0.12985957072E+02  0.16833551538E+02  0.95832798262E+02  0.91257555134E+02 0.  0.
         11    1    3    3    0    0 -0.16005253930E+02 -0.30282077538E+02  0.37492940547E+02  0.50782801857E+02  0.51100000000E-03 0.  1.
         22    1    1    0    0    0 -0.20099261556E+02  0.12985957072E+02 -0.16833551538E+02  0.29257201738E+02  0.00000000000E+00 0.  1.
</event>
<event>
 5    1  0.1059945E-009  0.9118800E+02  0.7815553E-02  0.1125453E+00
         25   -1    0    0    0    0  0.00000000000E+00  0.00000000000E+00  0.99999998245E-14  0.12509000000E+03  0.12509000000E+03 0.  0.
        -11    1    3    3    0    0  0.47645931225E+02 -0.27979647030E+02  0.33227645992E+01  0.55353736776E+02  0.51100000000E-03 0.  1.
         23    2    1    0    0    0  0.93148854209E+01 -0.16062435471E+02  0.19070604998E+02  0.98473146342E+02  0.94807719368E+02 0.  0.
         11    1    3    3    0    0 -0.38331045804E+02  0.11917211559E+02  0.15747840399E+02  0.43119409566E+02  0.51100000000E-03 0. -1.
         22    1    1    0    0    0 -0.93148854209E+01  0.16062435471E+02 -0.19070604998E+02  0.26616853658E+02  0.00000000000E+00 0.  1.
</event>
<event>
 5    1  0.1059945E-009  0.9118800E+02  0.7815553E-02  0.1125453E+00
         25   -1    0    0    0    0  0.00000000000E+00  0.00000000000E+00  0.99999998245E-14  0.12509000000E+03  0.12509000000E+03 0.  0.
        -11    1    3    3    0    0 -0.30696692956E+00 -0.37625420518E+02  0.24613224870E+02  0.44961954324E+02  0.51100000000E-03 0. -1.
         23    2    1    0    0    0 -0.16195098836E+02  0.10587403634E+02  0.21999335988E+02  0.95792472358E+02  0.91202262223E+02 0.  0.
         11    1    3    3    0    0 -0.15888131906E+02  0.48212824153E+02 -0.26138888828E+01  0.50830518034E+02  0.51100000000E-03 0.  1.
         22    1    1    0    0    0  0.16195098836E+02 -0.10587403634E+02 -0.21999335988E+02  0.29297527642E+02  0.00000000000E+00 0.  1.
</event>
<event>
 5    1  0.1059945E-009  0.9118800E+02  0.7815553E-02  0.1125453E+00
         25   -1    0    0    0    0  0.00000000000E+00  0.00000000000E+00  0.99999998245E-14  0.12509000000E+03  0.12509000000E+03 0.  0.
        -11    1    3    3    0    0 -0.15260456887E+02 -0.36821502199E+02  0.25363337821E+02  0.47244084014E+02  0.51100000000E-03 0. -1.
         23    2    1    0    0    0  0.50989908642E+01  0.85876405523E+01  0.26237232455E+02  0.97016175092E+02  0.92865486508E+02 0.  0.
         11    1    3    3    0    0  0.20359447752E+02  0.45409142751E+02  0.87389463394E+00  0.49772091078E+02  0.51100000000E-03 0.  1.
         22    1    1    0    0    0 -0.50989908642E+01 -0.85876405523E+01 -0.26237232455E+02  0.28073824908E+02  0.00000000000E+00 0.  1.
</event>
<event>
 5    1  0.1059945E-009  0.9118800E+02  0.7815553E-02  0.1125453E+00
         25   -1    0    0    0    0  0.00000000000E+00  0.00000000000E+00  0.99999998245E-14  0.12509000000E+03  0.12509000000E+03 0.  0.
        -11    1    3    3    0    0  0.35084446082E+02 -0.17447564372E+01 -0.13824412973E+02  0.37750191075E+02  0.51100000000E-03 0. -1.
         23    2    1    0    0    0 -0.45435911081E+01  0.20729690495E+02  0.21107504462E+02  0.95158561131E+02  0.90328626269E+02 0.  0.
         11    1    3    3    0    0 -0.39628037190E+02  0.22474446932E+02  0.34931917435E+02  0.57408370055E+02  0.51100000000E-03 0.  1.
         22    1    1    0    0    0  0.45435911081E+01 -0.20729690495E+02 -0.21107504462E+02  0.29931438869E+02  0.00000000000E+00 0.  1.
</event>
<event>
 5    1  0.1059945E-009  0.9118800E+02  0.7815553E-02  0.1125453E+00
         25   -1    0    0    0    0  0.00000000000E+00  0.00000000000E+00  0.99999998245E-14  0.12509000000E+03  0.12509000000E+03 0.  0.
        -11    1    3    3    0    0  0.13842947814E+02  0.35682706513E+02 -0.85397526383E+01  0.39214922207E+02  0.51100000000E-03 0. -1.
         23    2    1    0    0    0 -0.29145454150E+02  0.79655176079E+00 -0.89884569576E+01  0.94579602579E+02  0.89523275594E+02 0.  0.
         11    1    3    3    0    0 -0.42988401965E+02 -0.34886154752E+02 -0.44870431923E+00  0.55364680372E+02  0.51100000000E-03 0.  1.
         22    1    1    0    0    0  0.29145454150E+02 -0.79655176079E+00  0.89884569576E+01  0.30510397421E+02  0.00000000000E+00 0. -1.
</event>
<event>
 5    1  0.1059945E-009  0.9118800E+02  0.7815553E-02  0.1125453E+00
         25   -1    0    0    0    0  0.00000000000E+00  0.00000000000E+00  0.99999998245E-14  0.12509000000E+03  0.12509000000E+03 0.  0.
        -11    1    3    3    0    0 -0.49455412256E+01  0.41857483213E+02  0.14354786989E+02  0.44526028216E+02  0.51100000000E-03 0.  1.
         23    2    1    0    0    0  0.30844467059E+01 -0.15089017561E+01  0.32640018506E+02  0.92269862827E+02  0.86235527377E+02 0.  0.
         11    1    3    3    0    0  0.80299879315E+01 -0.43366384969E+02  0.18285231517E+02  0.47743834611E+02  0.51100000000E-03 0. -1.
         22    1    1    0    0    0 -0.30844467059E+01  0.15089017561E+01 -0.32640018506E+02  0.32820137173E+02  0.00000000000E+00 0.  1.
</event>
<event>
 5    1  0.1059945E-009  0.9118800E+02  0.7815553E-02  0.1125453E+00
         25   -1    0    0    0    0  0.00000000000E+00  0.00000000000E+00  0.99999998245E-14  0.12509000000E+03  0.12509000000E+03 0.  0.
        -11    1    3    3    0    0  0.63090879948E+01  0.25331946584E+02  0.50747472525E+02  0.57068538416E+02  0.51100000000E-03 0. -1.
         23    2    1    0    0    0  0.12568267542E+01 -0.65338478434E+01  0.27399531164E+02  0.96894165394E+02  0.92700993512E+02 0.  0.
         11    1    3    3    0    0 -0.50522612406E+01 -0.31865794427E+02 -0.23347941360E+02  0.39825626978E+02  0.51100000000E-03 0.  1.
         22    1    1    0    0    0 -0.12568267542E+01  0.65338478434E+01 -0.27399531164E+02  0.28195834606E+02  0.00000000000E+00 0. -1.
</event>
<event>
 5    1  0.1059945E-009  0.9118800E+02  0.7815553E-02  0.1125453E+00
         25   -1    0    0    0    0  0.00000000000E+00  0.00000000000E+00  0.99999998245E-14  0.12509000000E+03  0.12509000000E+03 0.  0.
        -11    1    3    3    0    0  0.44622763920E+02 -0.33013004691E+02 -0.10292244662E+02  0.56453342142E+02  0.51100000000E-03 0. -1.
         23    2    1    0    0    0  0.68192550618E+01 -0.18713202468E+02 -0.18738073416E+02  0.97744039027E+02  0.93840799143E+02 0.  0.
         11    1    3    3    0    0 -0.37803508858E+02  0.14299802223E+02 -0.84458287541E+01  0.41290696885E+02  0.51100000000E-03 0.  1.
         22    1    1    0    0    0 -0.68192550618E+01  0.18713202468E+02  0.18738073416E+02  0.27345960973E+02  0.00000000000E+00 0. -1.
</event>
<event>
 5    1  0.1059945E-009  0.9118800E+02  0.7815553E-02  0.1125453E+00
         25   -1    0    0    0    0  0.00000000000E+00  0.00000000000E+00  0.99999998245E-14  0.12509000000E+03  0.12509000000E+03 0.  0.
        -11    1    3    3    0    0 -0.38589738574E+02  0.27744858377E+02 -0.37427350634E+02  0.60495881392E+02  0.51100000000E-03 0. -1.
         23    2    1    0    0    0 -0.21018604929E+02  0.28465845142E+01 -0.21529059297E+02  0.94867736836E+02  0.89924981521E+02 0.  0.
         11    1    3    3    0    0  0.17571133646E+02 -0.24898273863E+02  0.15898291337E+02  0.34371855444E+02  0.51100000000E-03 0.  1.
         22    1    1    0    0    0  0.21018604929E+02 -0.28465845142E+01  0.21529059297E+02  0.30222263164E+02  0.00000000000E+00 0. -1.
</event>
<event>
 5    1  0.1059945E-009  0.9118800E+02  0.7815553E-02  0.1125453E+00
         25   -1    0    0    0    0  0.00000000000E+00  0.00000000000E+00  0.99999998245E-14  0.12509000000E+03  0.12509000000E+03 0.  0.
        -11    1    3    3    0    0 -0.31725772178E+02 -0.10654947581E+02 -0.43470848931E+02  0.54861345547E+02  0.51100000000E-03 0. -1.
         23    2    1    0    0    0 -0.52164852918E+00 -0.21673699564E+02 -0.21321947357E+02  0.94681994326E+02  0.89666232442E+02 0.  0.
         11    1    3    3    0    0  0.31204123648E+02 -0.11018751984E+02  0.22148901574E+02  0.39820648778E+02  0.51100000000E-03 0.  1.
         22    1    1    0    0    0  0.52164852918E+00  0.21673699564E+02  0.21321947357E+02  0.30408005674E+02  0.00000000000E+00 0. -1.
</event>
<event>
 5    1  0.1059945E-009  0.9118800E+02  0.7815553E-02  0.1125453E+00
         25   -1    0    0    0    0  0.00000000000E+00  0.00000000000E+00  0.99999998245E-14  0.12509000000E+03  0.12509000000E+03 0.  0.
        -11    1    3    3    0    0 -0.34179201521E+02 -0.32727518352E+01  0.45526296345E+02  0.57022560275E+02  0.51100000000E-03 0.  1.
         23    2    1    0    0    0  0.11969570962E+01  0.10300403129E+00  0.28740576489E+02  0.96324325090E+02  0.91928839605E+02 0.  0.
         11    1    3    3    0    0  0.35376158617E+02  0.33757558665E+01 -0.16785719857E+02  0.39301764815E+02  0.51100000000E-03 0. -1.
         22    1    1    0    0    0 -0.11969570962E+01 -0.10300403129E+00 -0.28740576489E+02  0.28765674910E+02  0.00000000000E+00 0.  1.
</event>
<event>
 5    1  0.1059945E-009  0.9118800E+02  0.7815553E-02  0.1125453E+00
         25   -1    0    0    0    0  0.00000000000E+00  0.00000000000E+00  0.99999998245E-14  0.12509000000E+03  0.12509000000E+03 0.  0.
        -11    1    3    3    0    0  0.15041025732E+01  0.26958039825E+02  0.50469894171E+02  0.57238173046E+02  0.51100000000E-03 0. -1.
         23    2    1    0    0    0 -0.96258906335E+01 -0.16416279382E+01  0.28452980346E+02  0.95008031924E+02  0.90119927467E+02 0.  0.
         11    1    3    3    0    0 -0.11129993207E+02 -0.28599667763E+02 -0.22016913825E+02  0.37769858877E+02  0.51100000000E-03 0.  1.
         22    1    1    0    0    0  0.96258906335E+01  0.16416279382E+01 -0.28452980346E+02  0.30081968076E+02  0.00000000000E+00 0. -1.
</event>
<event>
 5    1  0.1059945E-009  0.9118800E+02  0.7815553E-02  0.1125453E+00
         25   -1    0    0    0    0  0.00000000000E+00  0.00000000000E+00  0.99999998245E-14  0.12509000000E+03  0.12509000000E+03 0.  0.
        -11    1    3    3    0    0  0.28981836016E+02 -0.24614544931E+02  0.12233575235E+02  0.39943497648E+02  0.51100000000E-03 0.  1.
         23    2    1    0    0    0 -0.97125608307E+01 -0.11737260536E+02 -0.25423394429E+02  0.95451408484E+02  0.90733264432E+02 0.  0.
         11    1    3    3    0    0 -0.38694396847E+02  0.12877284395E+02 -0.37656969664E+02  0.55507910835E+02  0.51100000000E-03 0. -1.
         22    1    1    0    0    0  0.97125608307E+01  0.11737260536E+02  0.25423394429E+02  0.29638591516E+02  0.00000000000E+00 0. -1.
</event>
<event>
 5    1  0.1059945E-009  0.9118800E+02  0.7815553E-02  0.1125453E+00
         25   -1    0    0    0    0  0.00000000000E+00  0.00000000000E+00  0.99999998245E-14  0.12509000000E+03  0.12509000000E+03 0.  0.
        -11    1    3    3    0    0 -0.29435781433E+02  0.37380059931E+02 -0.30067512440E+02  0.56283118371E+02  0.51100000000E-03 0.  1.
         23    2    1    0    0    0 -0.84249488214E+00  0.11563867079E+02 -0.27910686971E+02  0.94866842212E+02  0.89923737048E+02 0.  0.
         11    1    3    3    0    0  0.28593286551E+02 -0.25816192851E+02  0.21568254683E+01  0.38583723841E+02  0.51100000000E-03 0. -1.
         22    1    1    0    0    0  0.84249488214E+00 -0.11563867079E+02  0.27910686971E+02  0.30223157788E+02  0.00000000000E+00 0.  1.
</event>
<event>
 5    1  0.1059945E-009  0.9118800E+02  0.7815553E-02  0.1125453E+00
         25   -1    0    0    0    0  0.00000000000E+00  0.00000000000E+00  0.99999998245E-14  0.12509000000E+03  0.12509000000E+03 0.  0.
        -11    1    3    3    0    0  0.41072973322E+02  0.42348351159E+02 -0.63696883209E+01  0.59337550615E+02  0.51100000000E-03 0. -1.
         23    2    1    0    0    0  0.16365059012E+02  0.16166974007E+02 -0.16553049992E+02  0.96749398930E+02  0.92505440512E+02 0.  0.
         11    1    3    3    0    0 -0.24707914310E+02 -0.26181377153E+02 -0.10183361671E+02  0.37411848315E+02  0.51100000000E-03 0.  1.
         22    1    1    0    0    0 -0.16365059012E+02 -0.16166974007E+02  0.16553049992E+02  0.28340601070E+02  0.00000000000E+00 0. -1.
</event>
<event>
 5    1  0.1059945E-009  0.9118800E+02  0.7815553E-02  0.1125453E+00
         25   -1    0    0    0    0  0.00000000000E+00  0.00000000000E+00  0.99999998245E-14  0.12509000000E+03  0.12509000000E+03 0.  0.
        -11    1    3    3    0    0 -0.34407369884E+02  0.22839271695E+02  0.22227647248E+02  0.46899549426E+02  0.51100000000E-03 0.  1.
         23    2    1    0    0    0 -0.20911859146E+02 -0.20351458509E+02  0.41977801489E+01  0.95609344062E+02  0.90950742698E+02 0.  0.
         11    1    3    3    0    0  0.13495510738E+02 -0.43190730203E+02 -0.18029867099E+02  0.48709794636E+02  0.51100000000E-03 0. -1.
         22    1    1    0    0    0  0.20911859146E+02  0.20351458509E+02 -0.41977801489E+01  0.29480655938E+02  0.00000000000E+00 0.  1.
</event>
<event>
 5    1  0.1059945E-009  0.9118800E+02  0.7815553E-02  0.1125453E+00
         25   -1    0    0    0    0  0.00000000000E+00  0.00000000000E+00  0.99999998245E-14  0.12509000000E+03  0.12509000000E+03 0.  0.
        -11    1    3    3    0    0  0.84489055574E+01  0.45221175186E+02  0.22400395814E+02  0.51167532901E+02  0.51100000000E-03 0. -1.
         23    2    1    0    0    0  0.26002045905E+02  0.11834926794E+02 -0.25740674971E+01  0.96405549388E+02  0.92039297291E+02 0.  0.
         11    1    3    3    0    0  0.17553140347E+02 -0.33386248392E+02 -0.24974463311E+02  0.45238016487E+02  0.51100000000E-03 0.  1.
         22    1    1    0    0    0 -0.26002045905E+02 -0.11834926794E+02  0.25740674971E+01  0.28684450612E+02  0.00000000000E+00 0. -1.
</event>
<event>
 5    1  0.1059945E-009  0.9118800E+02  0.7815553E-02  0.1125453E+00
         25   -1    0    0    0    0  0.00000000000E+00  0.00000000000E+00  0.99999998245E-14  0.12509000000E+03  0.12509000000E+03 0.  0.
        -11    1    3    3    0    0 -0.19951594211E+02  0.28008082472E+02 -0.44263944992E+02  0.56051901144E+02  0.51100000000E-03 0.  1.
         23    2    1    0    0    0 -0.68380671598E+01 -0.51253300937E+01 -0.29069835970E+02  0.94790106694E+02  0.89816929321E+02 0.  0.
         11    1    3    3    0    0  0.13113527051E+02 -0.33133412566E+02  0.15194109022E+02  0.38738205550E+02  0.51100000000E-03 0. -1.
         22    1    1    0    0    0  0.68380671598E+01  0.51253300937E+01  0.29069835970E+02  0.30299893306E+02  0.00000000000E+00 0.  1.
</event>
<event>
 5    1  0.1059945E-009  0.9118800E+02  0.7815553E-02  0.1125453E+00
         25   -1    0    0    0    0  0.00000000000E+00  0.00000000000E+00  0.99999998245E-14  0.12509000000E+03  0.12509000000E+03 0.  0.
        -11    1    3    3    0    0 -0.35011775070E+02 -0.46162285684E+01  0.28856679469E+02  0.45605283795E+02  0.51100000000E-03 0. -1.
         23    2    1    0    0    0 -0.18849834296E+02  0.20174586725E+02 -0.11103542001E+02  0.95330651091E+02  0.90566628457E+02 0.  0.
         11    1    3    3    0    0  0.16161940775E+02  0.24790815294E+02 -0.39960221470E+02  0.49725367296E+02  0.51100000000E-03 0.  1.
         22    1    1    0    0    0  0.18849834296E+02 -0.20174586725E+02  0.11103542001E+02  0.29759348909E+02  0.00000000000E+00 0. -1.
</event>
<event>
 5    1  0.1059945E-009  0.9118800E+02  0.7815553E-02  0.1125453E+00
         25   -1    0    0    0    0  0.00000000000E+00  0.00000000000E+00  0.99999998245E-14  0.12509000000E+03  0.12509000000E+03 0.  0.
        -11    1    3    3    0    0  0.26441816452E+01  0.27381742714E+02  0.23127485185E+02  0.35939283547E+02  0.51100000000E-03 0.  1.
         23    2    1    0    0    0 -0.11737918311E+02 -0.65345817362E+01 -0.25096101051E+02  0.96624340466E+02  0.92336175997E+02 0.  0.
         11    1    3    3    0    0 -0.14382099956E+02 -0.33916324451E+02 -0.48223586237E+02  0.60685056918E+02  0.51100000000E-03 0. -1.
         22    1    1    0    0    0  0.11737918311E+02  0.65345817362E+01  0.25096101051E+02  0.28465659534E+02  0.00000000000E+00 0. -1.
</event>
<event>
 5    1  0.1059945E-009  0.9118800E+02  0.7815553E-02  0.1125453E+00
         25   -1    0    0    0    0  0.00000000000E+00  0.00000000000E+00  0.99999998245E-14  0.12509000000E+03  0.12509000000E+03 0.  0.
        -11    1    3    3    0    0 -0.31360549456E+02  0.36035235963E+02 -0.41340295650E-02  0.47770517168E+02  0.51100000000E-03 0.  1.
         23    2    1    0    0    0 -0.32192606301E+02 -0.80338069744E+01 -0.15426199384E+01  0.91874256274E+02  0.85659753296E+02 0.  0.
         11    1    3    3    0    0 -0.83205684557E+00 -0.44069042938E+02 -0.15384859089E+01  0.44103739107E+02  0.51100000000E-03 0. -1.
         22    1    1    0    0    0  0.32192606301E+02  0.80338069744E+01  0.15426199384E+01  0.33215743726E+02  0.00000000000E+00 0.  1.
</event>
<event>
 5    1  0.1059945E-009  0.9118800E+02  0.7815553E-02  0.1125453E+00
         25   -1    0    0    0    0  0.00000000000E+00  0.00000000000E+00  0.99999998245E-14  0.12509000000E+03  0.12509000000E+03 0.  0.
        -11    1    3    3    0    0 -0.36702644911E+02  0.72609293718E+01  0.15644241180E+02  0.40553021110E+02  0.51100000000E-03 0. -1.
         23    2    1    0    0    0  0.13453325140E+02  0.25685304591E+02  0.50093676982E+00  0.96090383332E+02  0.91609955802E+02 0.  0.
         11    1    3    3    0    0  0.50155970050E+02  0.18424375219E+02 -0.15143304410E+02  0.55537362222E+02  0.51100000000E-03 0.  1.
         22    1    1    0    0    0 -0.13453325140E+02 -0.25685304591E+02 -0.50093676982E+00  0.28999616668E+02  0.00000000000E+00 0.  1.
</event>
<event>
 5    1  0.1059945E-009  0.9118800E+02  0.7815553E-02  0.1125453E+00
         25   -1    0    0    0    0  0.00000000000E+00  0.00000000000E+00  0.99999998245E-14  0.12509000000E+03  0.12509000000E+03 0.  0.
        -11    1    3    3    0    0  0.38017066772E+02 -0.37502470608E+02  0.13644823556E+02  0.55117273860E+02  0.51100000000E-03 0.  1.
         23    2    1    0    0    0  0.11524456878E+01 -0.28893570830E+02 -0.20557811785E+01  0.96100470811E+02  0.91623728845E+02 0.  0.
         11    1    3    3    0    0 -0.36864621084E+02  0.86088997781E+01 -0.15700604734E+02  0.40983196951E+02  0.51100000000E-03 0. -1.
         22    1    1    0    0    0 -0.11524456878E+01  0.28893570830E+02  0.20557811785E+01  0.28989529189E+02  0.00000000000E+00 0.  1.
</event>
<event>
 5    1  0.1059945E-009  0.9118800E+02  0.7815553E-02  0.1125453E+00
         25   -1    0    0    0    0  0.00000000000E+00  0.00000000000E+00  0.99999998245E-14  0.12509000000E+03  0.12509000000E+03 0.  0.
        -11    1    3    3    0    0  0.12414144981E+02 -0.52297806627E+01  0.57241939397E+02  0.58805622414E+02  0.51100000000E-03 0. -1.
         23    2    1    0    0    0  0.15464708685E+02 -0.13481858529E+02  0.22515841997E+02  0.94628863039E+02  0.89592080315E+02 0.  0.
         11    1    3    3    0    0  0.30505637047E+01 -0.82520778660E+01 -0.34726097400E+02  0.35823240625E+02  0.51100000000E-03 0.  1.
         22    1    1    0    0    0 -0.15464708685E+02  0.13481858529E+02 -0.22515841997E+02  0.30461136961E+02  0.00000000000E+00 0. -1.
</event>
<event>
 5    1  0.1059945E-009  0.9118800E+02  0.7815553E-02  0.1125453E+00
         25   -1    0    0    0    0  0.00000000000E+00  0.00000000000E+00  0.99999998245E-14  0.12509000000E+03  0.12509000000E+03 0.  0.
        -11    1    3    3    0    0 -0.11032831718E+02  0.48531109038E+02  0.82874230270E+01  0.50454665798E+02  0.51100000000E-03 0. -1.
         23    2    1    0    0    0  0.16516913607E+02  0.21863946614E+02 -0.13487938694E+02  0.94548796899E+02  0.89480220765E+02 0.  0.
         11    1    3    3    0    0  0.27549745325E+02 -0.26667162423E+02 -0.21775361721E+02  0.44094131101E+02  0.51100000000E-03 0.  1.
         22    1    1    0    0    0 -0.16516913607E+02 -0.21863946614E+02  0.13487938694E+02  0.30541203101E+02  0.00000000000E+00 0.  1.
</event>
<event>
 5    1  0.1059945E-009  0.9118800E+02  0.7815553E-02  0.1125453E+00
         25   -1    0    0    0    0  0.00000000000E+00  0.00000000000E+00  0.99999998245E-14  0.12509000000E+03  0.12509000000E+03 0.  0.
        -11    1    3    3    0    0  0.36458596996E+02  0.11928344092E+02  0.32756107929E+02  0.50442812120E+02  0.51100000000E-03 0.  1.
         23    2    1    0    0    0 -0.11608173540E+02  0.10109361987E+02  0.19324374022E+02  0.10038412369E+03  0.97296412913E+02 0.  0.
         11    1    3    3    0    0 -0.48066770536E+02 -0.18189821048E+01 -0.13431733907E+02  0.49941311573E+02  0.51100000000E-03 0. -1.
         22    1    1    0    0    0  0.11608173540E+02 -0.10109361987E+02 -0.19324374022E+02  0.24705876306E+02  0.00000000000E+00 0. -1.
</event>
<event>
 5    1  0.1059945E-009  0.9118800E+02  0.7815553E-02  0.1125453E+00
         25   -1    0    0    0    0  0.00000000000E+00  0.00000000000E+00  0.99999998245E-14  0.12509000000E+03  0.12509000000E+03 0.  0.
        -11    1    3    3    0    0  0.31355215432E+02 -0.80709490042E+01 -0.90831057258E+01  0.33627259218E+02  0.51100000000E-03 0.  1.
         23    2    1    0    0    0 -0.24884529458E+02 -0.21757120063E+02 -0.50875347684E+01  0.91646090394E+02  0.85325909281E+02 0.  0.
         11    1    3    3    0    0 -0.56239744889E+02 -0.13686171058E+02  0.39955709574E+01  0.58018831176E+02  0.51100000000E-03 0. -1.
         22    1    1    0    0    0  0.24884529458E+02  0.21757120063E+02  0.50875347684E+01  0.33443909606E+02  0.00000000000E+00 0. -1.
</event>
<event>
 5    1  0.1059945E-009  0.9118800E+02  0.7815553E-02  0.1125453E+00
         25   -1    0    0    0    0  0.00000000000E+00  0.00000000000E+00  0.99999998245E-14  0.12509000000E+03  0.12509000000E+03 0.  0.
        -11    1    3    3    0    0  0.94337598294E-01 -0.47134741238E+02 -0.43643043178E+01  0.47336454067E+02  0.51100000000E-03 0. -1.
         23    2    1    0    0    0 -0.17536964582E+02 -0.91506444393E+01  0.20955915785E+02  0.96272820631E+02  0.91858729392E+02 0.  0.
         11    1    3    3    0    0 -0.17631302180E+02  0.37984096799E+02  0.25320220103E+02  0.48936366564E+02  0.51100000000E-03 0.  1.
         22    1    1    0    0    0  0.17536964582E+02  0.91506444393E+01 -0.20955915785E+02  0.28817179369E+02  0.00000000000E+00 0. -1.
</event>
<event>
 5    1  0.1059945E-009  0.9118800E+02  0.7815553E-02  0.1125453E+00
         25   -1    0    0    0    0  0.00000000000E+00  0.00000000000E+00  0.99999998245E-14  0.12509000000E+03  0.12509000000E+03 0.  0.
        -11    1    3    3    0    0 -0.32255867850E+02  0.48829179045E+01 -0.43148495966E+01  0.32907473700E+02  0.51100000000E-03 0.  1.
         23    2    1    0    0    0  0.29736698611E+02 -0.36311532016E+00  0.87953118911E+00  0.95338081202E+02  0.90576890293E+02 0.  0.
         11    1    3    3    0    0  0.61992566461E+02 -0.52460332247E+01  0.51943807857E+01  0.62430607502E+02  0.51100000000E-03 0. -1.
         22    1    1    0    0    0 -0.29736698611E+02  0.36311532016E+00 -0.87953118911E+00  0.29751918798E+02  0.00000000000E+00 0. -1.
</event>
<event>
 5    1  0.1059945E-009  0.9118800E+02  0.7815553E-02  0.1125453E+00
         25   -1    0    0    0    0  0.00000000000E+00  0.00000000000E+00  0.99999998245E-14  0.12509000000E+03  0.12509000000E+03 0.  0.
        -11    1    3    3    0    0 -0.40775066767E+02  0.79614751912E+01  0.36041015812E+02  0.54999508889E+02  0.51100000000E-03 0. -1.
         23    2    1    0    0    0 -0.22084026653E+02 -0.15492545852E+02  0.59876683451E+01  0.97457132208E+02  0.93457569173E+02 0.  0.
         11    1    3    3    0    0  0.18691040113E+02 -0.23454021043E+02 -0.30053347467E+02  0.42457623318E+02  0.51100000000E-03 0.  1.
         22    1    1    0    0    0  0.22084026653E+02  0.15492545852E+02 -0.59876683451E+01  0.27632867792E+02  0.00000000000E+00 0. -1.
</event>
<event>
 5    1  0.1059945E-009  0.9118800E+02  0.7815553E-02  0.1125453E+00
         25   -1    0    0    0    0  0.00000000000E+00  0.00000000000E+00  0.99999998245E-14  0.12509000000E+03  0.12509000000E+03 0.  0.
        -11    1    3    3    0    0  0.28719934787E+02 -0.21498135097E+02 -0.19272667187E+02  0.40723950785E+02  0.51100000000E-03 0.  1.
         23    2    1    0    0    0 -0.23916344792E+02 -0.12653105242E+02 -0.14709410255E+02  0.94292932436E+02  0.89121814035E+02 0.  0.
         11    1    3    3    0    0 -0.52636279579E+02  0.88450298545E+01  0.45632569322E+01  0.53568981651E+02  0.51100000000E-03 0. -1.
         22    1    1    0    0    0  0.23916344792E+02  0.12653105242E+02  0.14709410255E+02  0.30797067564E+02  0.00000000000E+00 0. -1.
</event>
<event>
 5    1  0.1059945E-009  0.9118800E+02  0.7815553E-02  0.1125453E+00
         25   -1    0    0    0    0  0.00000000000E+00  0.00000000000E+00  0.99999998245E-14  0.12509000000E+03  0.12509000000E+03 0.  0.
        -11    1    3    3    0    0  0.14273453299E+02 -0.42198064057E+02  0.37644076035E+02  0.58322247385E+02  0.51100000000E-03 0. -1.
         23    2    1    0    0    0 -0.30119792710E+01 -0.27065776419E+02  0.63792299963E+01  0.97119965183E+02  0.93005186896E+02 0.  0.
         11    1    3    3    0    0 -0.17285432570E+02  0.15132287638E+02 -0.31264846038E+02  0.38797717798E+02  0.51100000000E-03 0.  1.
         22    1    1    0    0    0  0.30119792710E+01  0.27065776419E+02 -0.63792299963E+01  0.27970034817E+02  0.00000000000E+00 0. -1.
</event>
<event>
 5    1  0.1059945E-009  0.9118800E+02  0.7815553E-02  0.1125453E+00
         25   -1    0    0    0    0  0.00000000000E+00  0.00000000000E+00  0.99999998245E-14  0.12509000000E+03  0.12509000000E+03 0.  0.
        -11    1    3    3    0    0  0.16612508761E+02  0.41992779153E+02 -0.32431413871E+01  0.45275676855E+02  0.51100000000E-03 0.  1.
         23    2    1    0    0    0  0.21866247341E+02 -0.44316754919E+01 -0.20214634589E+02  0.94983456326E+02  0.90085809113E+02 0.  0.
         11    1    3    3    0    0  0.52537385803E+01 -0.46424454645E+02 -0.16971493202E+02  0.49707779471E+02  0.51100000000E-03 0. -1.
         22    1    1    0    0    0 -0.21866247341E+02  0.44316754919E+01  0.20214634589E+02  0.30106543674E+02  0.00000000000E+00 0. -1.
</event>
<event>
 5    1  0.1059945E-009  0.9118800E+02  0.7815553E-02  0.1125453E+00
         25   -1    0    0    0    0  0.00000000000E+00  0.00000000000E+00  0.99999998245E-14  0.12509000000E+03  0.12509000000E+03 0.  0.
        -11    1    3    3    0    0  0.17931852765E+01 -0.22026007725E+02 -0.48976009502E+02  0.53730903926E+02  0.51100000000E-03 0. -1.
         23    2    1    0    0    0 -0.11244499440E+02  0.10261483254E+02 -0.24326343453E+02  0.96393174530E+02  0.92022477167E+02 0.  0.
         11    1    3    3    0    0 -0.13037684717E+02  0.32287490979E+02  0.24649666049E+02  0.42662270604E+02  0.51100000000E-03 0.  1.
         22    1    1    0    0    0  0.11244499440E+02 -0.10261483254E+02  0.24326343453E+02  0.28696825470E+02  0.00000000000E+00 0. -1.
</event>
<event>
 5    1  0.1059945E-009  0.9118800E+02  0.7815553E-02  0.1125453E+00
         25   -1    0    0    0    0  0.00000000000E+00  0.00000000000E+00  0.99999998245E-14  0.12509000000E+03  0.12509000000E+03 0.  0.
        -11    1    3    3    0    0 -0.47440049722E+02 -0.43100090588E+01 -0.36275762151E+02  0.59875415787E+02  0.51100000000E-03 0.  1.
         23    2    1    0    0    0 -0.21578772588E+02  0.10809768114E+02 -0.14200948666E+02  0.97087117004E+02  0.92960996295E+02 0.  0.
         11    1    3    3    0    0  0.25861277135E+02  0.15119777173E+02  0.22074813486E+02  0.37211701217E+02  0.51100000000E-03 0. -1.
         22    1    1    0    0    0  0.21578772588E+02 -0.10809768114E+02  0.14200948666E+02  0.28002882996E+02  0.00000000000E+00 0.  1.
</event>
<event>
 5    1  0.1059945E-009  0.9118800E+02  0.7815553E-02  0.1125453E+00
         25   -1    0    0    0    0  0.00000000000E+00  0.00000000000E+00  0.99999998245E-14  0.12509000000E+03  0.12509000000E+03 0.  0.
        -11    1    3    3    0    0 -0.23079800106E+02 -0.16086646063E+02  0.18242000458E+02  0.33529508428E+02  0.51100000000E-03 0. -1.
         23    2    1    0    0    0  0.19912188801E+02  0.13369759296E+02 -0.16334504803E+02  0.96071699333E+02  0.91584439939E+02 0.  0.
         11    1    3    3    0    0  0.42991988907E+02  0.29456405359E+02 -0.34576505261E+02  0.62542190904E+02  0.51100000000E-03 0.  1.
         22    1    1    0    0    0 -0.19912188801E+02 -0.13369759296E+02  0.16334504803E+02  0.29018300667E+02  0.00000000000E+00 0.  1.
</event>
<event>
 5    1  0.1059945E-009  0.9118800E+02  0.7815553E-02  0.1125453E+00
         25   -1    0    0    0    0  0.00000000000E+00  0.00000000000E+00  0.99999998245E-14  0.12509000000E+03  0.12509000000E+03 0.  0.
        -11    1    3    3    0    0  0.53296322772E+00 -0.36571678735E+02 -0.47249467693E+02  0.59751852966E+02  0.51100000000E-03 0. -1.
         23    2    1    0    0    0  0.80589771497E+01 -0.70314647119E+01 -0.26183363276E+02  0.96806486761E+02  0.92582605050E+02 0.  0.
         11    1    3    3    0    0  0.75260139220E+01  0.29540214023E+02  0.21066104417E+02  0.37054633795E+02  0.51100000000E-03 0.  1.
         22    1    1    0    0    0 -0.80589771497E+01  0.70314647119E+01  0.26183363276E+02  0.28283513239E+02  0.00000000000E+00 0. -1.
</event>
<event>
 5    1  0.1059945E-009  0.9118800E+02  0.7815553E-02  0.1125453E+00
         25   -1    0    0    0    0  0.00000000000E+00  0.00000000000E+00  0.99999998245E-14  0.12509000000E+03  0.12509000000E+03 0.  0.
        -11    1    3    3    0    0 -0.35250666530E+02 -0.74179724652E+01  0.76672991711E+01  0.36829652227E+02  0.51100000000E-03 0. -1.
         23    2    1    0    0    0  0.73716706953E+01  0.27904926042E+02  0.14817766255E+02  0.92646316130E+02  0.86779878252E+02 0.  0.
         11    1    3    3    0    0  0.42622337225E+02  0.35322898508E+02  0.71504670835E+01  0.55816663903E+02  0.51100000000E-03 0.  1.
         22    1    1    0    0    0 -0.73716706953E+01 -0.27904926042E+02 -0.14817766255E+02  0.32443683870E+02  0.00000000000E+00 0.  1.
</event>
<event>
 5    1  0.1059945E-009  0.9118800E+02  0.7815553E-02  0.1125453E+00
         25   -1    0    0    0    0  0.00000000000E+00  0.00000000000E+00  0.99999998245E-14  0.12509000000E+03  0.12509000000E+03 0.  0.
        -11    1    3    3    0    0  0.94140611444E-01 -0.10585626427E+02  0.32729976758E+02  0.34399356508E+02  0.51100000000E-03 0. -1.
         23    2    1    0    0    0  0.52742370478E+01 -0.13882571594E+02 -0.26909773249E+02  0.94354364870E+02  0.89207997978E+02 0.  0.
         11    1    3    3    0    0  0.51800964363E+01 -0.32969451666E+01 -0.59639750007E+02  0.59955008362E+02  0.51100000000E-03 0.  1.
         22    1    1    0    0    0 -0.52742370478E+01  0.13882571594E+02  0.26909773249E+02  0.30735635130E+02  0.00000000000E+00 0.  1.
</event>
<event>
 5    1  0.1059945E-009  0.9118800E+02  0.7815553E-02  0.1125453E+00
         25   -1    0    0    0    0  0.00000000000E+00  0.00000000000E+00  0.99999998245E-14  0.12509000000E+03  0.12509000000E+03 0.  0.
        -11    1    3    3    0    0 -0.40459212324E+02 -0.16731367827E+02  0.33548164904E+02  0.55157645888E+02  0.51100000000E-03 0.  1.
         23    2    1    0    0    0 -0.41373275173E+01 -0.23762341876E+02  0.16314355046E+02  0.95970855937E+02  0.91446599927E+02 0.  0.
         11    1    3    3    0    0  0.36321884807E+02 -0.70309740488E+01 -0.17233809858E+02  0.40813210048E+02  0.51100000000E-03 0. -1.
         22    1    1    0    0    0  0.41373275173E+01  0.23762341876E+02 -0.16314355046E+02  0.29119144063E+02  0.00000000000E+00 0. -1.
</event>
<event>
 5    1  0.1059945E-009  0.9118800E+02  0.7815553E-02  0.1125453E+00
         25   -1    0    0    0    0  0.00000000000E+00  0.00000000000E+00  0.99999998245E-14  0.12509000000E+03  0.12509000000E+03 0.  0.
        -11    1    3    3    0    0  0.38194453652E+02  0.43227020996E+01 -0.97480591594E+00  0.38450647459E+02  0.51100000000E-03 0. -1.
         23    2    1    0    0    0 -0.11076995550E+02 -0.13852461804E+02  0.22887432034E+02  0.96134429318E+02  0.91670079234E+02 0.  0.
         11    1    3    3    0    0 -0.49271449201E+02 -0.18175163903E+02  0.23862237950E+02  0.57683781859E+02  0.51100000000E-03 0.  1.
         22    1    1    0    0    0  0.11076995550E+02  0.13852461804E+02 -0.22887432034E+02  0.28955570682E+02  0.00000000000E+00 0.  1.
</event>
<event>
 5    1  0.1059945E-009  0.9118800E+02  0.7815553E-02  0.1125453E+00
         25   -1    0    0    0    0  0.00000000000E+00  0.00000000000E+00  0.99999998245E-14  0.12509000000E+03  0.12509000000E+03 0.  0.
        -11    1    3    3    0    0 -0.52164947285E+01 -0.14385676376E+02 -0.46536119441E+02  0.48987446503E+02  0.51100000000E-03 0.  1.
         23    2    1    0    0    0  0.24014716546E+02 -0.15255503684E+02 -0.12079493688E+02  0.94181244425E+02  0.88964912354E+02 0.  0.
         11    1    3    3    0    0  0.29231211274E+02 -0.86982730873E+00  0.34456625752E+02  0.45193797922E+02  0.51100000000E-03 0. -1.
         22    1    1    0    0    0 -0.24014716546E+02  0.15255503684E+02  0.12079493688E+02  0.30908755575E+02  0.00000000000E+00 0. -1.
</event>
<event>
 5    1  0.1059945E-009  0.9118800E+02  0.7815553E-02  0.1125453E+00
         25   -1    0    0    0    0  0.00000000000E+00  0.00000000000E+00  0.99999998245E-14  0.12509000000E+03  0.12509000000E+03 0.  0.
        -11    1    3    3    0    0  0.26650734252E+01 -0.44143265569E+02  0.32030651963E+02  0.54604882354E+02  0.51100000000E-03 0. -1.
         23    2    1    0    0    0  0.10596803388E+02 -0.36150493162E+01  0.26564758584E+02  0.96262110340E+02  0.91844143335E+02 0.  0.
         11    1    3    3    0    0  0.79317299623E+01  0.40528216253E+02 -0.54658933788E+01  0.41657227987E+02  0.51100000000E-03 0.  1.
         22    1    1    0    0    0 -0.10596803388E+02  0.36150493162E+01 -0.26564758584E+02  0.28827889660E+02  0.00000000000E+00 0.  1.
</event>
<event>
 5    1  0.1059945E-009  0.9118800E+02  0.7815553E-02  0.1125453E+00
         25   -1    0    0    0    0  0.00000000000E+00  0.00000000000E+00  0.99999998245E-14  0.12509000000E+03  0.12509000000E+03 0.  0.
        -11    1    3    3    0    0  0.58279916943E+02 -0.21590587449E+02  0.19172681207E+01  0.62180206679E+02  0.51100000000E-03 0. -1.
         23    2    1    0    0    0  0.25776044223E+02 -0.14273106174E+02  0.26630011728E+01  0.95505923356E+02  0.90808390610E+02 0.  0.
         11    1    3    3    0    0 -0.32503872720E+02  0.73174812753E+01  0.74573305203E+00  0.33325716677E+02  0.51100000000E-03 0.  1.
         22    1    1    0    0    0 -0.25776044223E+02  0.14273106174E+02 -0.26630011728E+01  0.29584076644E+02  0.00000000000E+00 0. -1.
</event>
<event>
 5    1  0.1059945E-009  0.9118800E+02  0.7815553E-02  0.1125453E+00
         25   -1    0    0    0    0  0.00000000000E+00  0.00000000000E+00  0.99999998245E-14  0.12509000000E+03  0.12509000000E+03 0.  0.
        -11    1    3    3    0    0 -0.41926891628E+01  0.24438322396E+02 -0.47421331891E+02  0.53512549580E+02  0.51100000000E-03 0.  1.
         23    2    1    0    0    0  0.15023453759E+02 -0.57771456176E+01 -0.23611069862E+02  0.96514447610E+02  0.92187181339E+02 0.  0.
         11    1    3    3    0    0  0.19216142921E+02 -0.30215468014E+02  0.23810262029E+02  0.43001898030E+02  0.51100000000E-03 0. -1.
         22    1    1    0    0    0 -0.15023453759E+02  0.57771456176E+01  0.23611069862E+02  0.28575552390E+02  0.00000000000E+00 0.  1.
</event>
<event>
 5    1  0.1059945E-009  0.9118800E+02  0.7815553E-02  0.1125453E+00
         25   -1    0    0    0    0  0.00000000000E+00  0.00000000000E+00  0.99999998245E-14  0.12509000000E+03  0.12509000000E+03 0.  0.
        -11    1    3    3    0    0  0.59161574329E+02 -0.54421024195E+01  0.17461579232E+02  0.61924269114E+02  0.51100000000E-03 0.  1.
         23    2    1    0    0    0  0.25784842713E+02 -0.67848613892E+01  0.12309843022E+02  0.95722931828E+02  0.91106832810E+02 0.  0.
         11    1    3    3    0    0 -0.33376731616E+02 -0.13427589697E+01 -0.51517362103E+01  0.33798662714E+02  0.51100000000E-03 0. -1.
         22    1    1    0    0    0 -0.25784842713E+02  0.67848613892E+01 -0.12309843022E+02  0.29367068172E+02  0.00000000000E+00 0.  1.
</event>
<event>
 5    1  0.1059945E-009  0.9118800E+02  0.7815553E-02  0.1125453E+00
         25   -1    0    0    0    0  0.00000000000E+00  0.00000000000E+00  0.99999998245E-14  0.12509000000E+03  0.12509000000E+03 0.  0.
        -11    1    3    3    0    0  0.45072517058E+02 -0.23300118329E+02  0.26050426259E+00  0.50739483352E+02  0.51100000000E-03 0.  1.
         23    2    1    0    0    0  0.10960049634E+02 -0.81925243716E+01  0.25754382134E+02  0.95926180931E+02  0.91385468458E+02 0.  0.
         11    1    3    3    0    0 -0.34112467424E+02  0.15107593957E+02  0.25493877872E+02  0.45186697579E+02  0.51100000000E-03 0. -1.
         22    1    1    0    0    0 -0.10960049634E+02  0.81925243716E+01 -0.25754382134E+02  0.29163819069E+02  0.00000000000E+00 0.  1.
</event>
<event>
 5    1  0.1059945E-009  0.9118800E+02  0.7815553E-02  0.1125453E+00
         25   -1    0    0    0    0  0.00000000000E+00  0.00000000000E+00  0.99999998245E-14  0.12509000000E+03  0.12509000000E+03 0.  0.
        -11    1    3    3    0    0  0.55311968866E+02  0.77078102276E+01  0.12813034668E+02  0.57297452788E+02  0.51100000000E-03 0. -1.
         23    2    1    0    0    0  0.21054966031E+02 -0.10427812633E+02  0.16715802914E+02  0.96254796897E+02  0.91834182023E+02 0.  0.
         11    1    3    3    0    0 -0.34257002835E+02 -0.18135622861E+02  0.39027682464E+01  0.38957344109E+02  0.51100000000E-03 0.  1.
         22    1    1    0    0    0 -0.21054966031E+02  0.10427812633E+02 -0.16715802914E+02  0.28835203103E+02  0.00000000000E+00 0. -1.
</event>
<event>
 5    1  0.1059945E-009  0.9118800E+02  0.7815553E-02  0.1125453E+00
         25   -1    0    0    0    0  0.00000000000E+00  0.00000000000E+00  0.99999998245E-14  0.12509000000E+03  0.12509000000E+03 0.  0.
        -11    1    3    3    0    0  0.39196122353E+02  0.27498168201E+02 -0.31961003378E+02  0.57567273681E+02  0.51100000000E-03 0. -1.
         23    2    1    0    0    0  0.38512000785E+01  0.17431249404E+02 -0.24014456858E+02  0.95167193714E+02  0.90340580159E+02 0.  0.
         11    1    3    3    0    0 -0.35344922274E+02 -0.10066918796E+02  0.79465465198E+01  0.37599920033E+02  0.51100000000E-03 0.  1.
         22    1    1    0    0    0 -0.38512000785E+01 -0.17431249404E+02  0.24014456858E+02  0.29922806286E+02  0.00000000000E+00 0. -1.
</event>
<event>
 5    1  0.1059945E-009  0.9118800E+02  0.7815553E-02  0.1125453E+00
         25   -1    0    0    0    0  0.00000000000E+00  0.00000000000E+00  0.99999998245E-14  0.12509000000E+03  0.12509000000E+03 0.  0.
        -11    1    3    3    0    0 -0.14983667493E+01 -0.28367640427E+02 -0.66050483790E+01  0.29164958266E+02  0.51100000000E-03 0.  1.
         23    2    1    0    0    0 -0.13635972692E+02  0.30800472043E+02  0.60246906715E+01  0.90871500222E+02  0.84182681269E+02 0.  0.
         11    1    3    3    0    0 -0.12137605943E+02  0.59168112471E+02  0.12629739050E+02  0.61706541956E+02  0.51100000000E-03 0. -1.
         22    1    1    0    0    0  0.13635972692E+02 -0.30800472043E+02 -0.60246906715E+01  0.34218499778E+02  0.00000000000E+00 0. -1.
</event>
<event>
 5    1  0.1059945E-009  0.9118800E+02  0.7815553E-02  0.1125453E+00
         25   -1    0    0    0    0  0.00000000000E+00  0.00000000000E+00  0.99999998245E-14  0.12509000000E+03  0.12509000000E+03 0.  0.
        -11    1    3    3    0    0  0.35147320843E+02 -0.16453762659E+02  0.41179444002E+02  0.56584512693E+02  0.51100000000E-03 0. -1.
         23    2    1    0    0    0  0.10342134500E+02  0.46394570171E+01  0.33057387822E+02  0.90143251982E+02  0.83093505648E+02 0.  0.
         11    1    3    3    0    0 -0.24805186343E+02  0.21093219676E+02 -0.81220561806E+01  0.33558739289E+02  0.51100000000E-03 0.  1.
         22    1    1    0    0    0 -0.10342134500E+02 -0.46394570171E+01 -0.33057387822E+02  0.34946748018E+02  0.00000000000E+00 0. -1.
</event>
<event>
 5    1  0.1059945E-009  0.9118800E+02  0.7815553E-02  0.1125453E+00
         25   -1    0    0    0    0  0.00000000000E+00  0.00000000000E+00  0.99999998245E-14  0.12509000000E+03  0.12509000000E+03 0.  0.
        -11    1    3    3    0    0 -0.41874556299E+01 -0.31786419739E+02  0.81638733769E+01  0.33084136581E+02  0.51100000000E-03 0.  1.
         23    2    1    0    0    0  0.11957029648E+02  0.17841394404E+02 -0.22800616707E+02  0.93766621598E+02  0.88380005043E+02 0.  0.
         11    1    3    3    0    0  0.16144485278E+02  0.49627814143E+02 -0.30964490084E+02  0.60682485018E+02  0.51100000000E-03 0. -1.
         22    1    1    0    0    0 -0.11957029648E+02 -0.17841394404E+02  0.22800616707E+02  0.31323378402E+02  0.00000000000E+00 0. -1.
</event>
<event>
 5    1  0.1059945E-009  0.9118800E+02  0.7815553E-02  0.1125453E+00
         25   -1    0    0    0    0  0.00000000000E+00  0.00000000000E+00  0.99999998245E-14  0.12509000000E+03  0.12509000000E+03 0.  0.
        -11    1    3    3    0    0 -0.36876429022E+02 -0.14093227778E+02  0.12756870802E+01  0.39498322299E+02  0.51100000000E-03 0. -1.
         23    2    1    0    0    0 -0.23455226449E+01  0.24743252105E+02 -0.17433312542E+02  0.94731304583E+02  0.89734996967E+02 0.  0.
         11    1    3    3    0    0  0.34530906377E+02  0.38836479883E+02 -0.18708999622E+02  0.55232982285E+02  0.51100000000E-03 0.  1.
         22    1    1    0    0    0  0.23455226449E+01 -0.24743252105E+02  0.17433312542E+02  0.30358695417E+02  0.00000000000E+00 0.  1.
</event>
<event>
 5    1  0.1059945E-009  0.9118800E+02  0.7815553E-02  0.1125453E+00
         25   -1    0    0    0    0  0.00000000000E+00  0.00000000000E+00  0.99999998245E-14  0.12509000000E+03  0.12509000000E+03 0.  0.
        -11    1    3    3    0    0  0.65676018459E+01  0.22195148696E+02 -0.57111979503E+02  0.61624152917E+02  0.51100000000E-03 0. -1.
         23    2    1    0    0    0 -0.38755940302E+01  0.79130510399E+01 -0.28446138774E+02  0.95310486623E+02  0.90538773149E+02 0.  0.
         11    1    3    3    0    0 -0.10443195876E+02 -0.14282097656E+02  0.28665840730E+02  0.33686333706E+02  0.51100000000E-03 0.  1.
         22    1    1    0    0    0  0.38755940302E+01 -0.79130510399E+01  0.28446138774E+02  0.29779513377E+02  0.00000000000E+00 0. -1.
</event>
<event>
 5    1  0.1059945E-009  0.9118800E+02  0.7815553E-02  0.1125453E+00
         25   -1    0    0    0    0  0.00000000000E+00  0.00000000000E+00  0.99999998245E-14  0.12509000000E+03  0.12509000000E+03 0.  0.
        -11    1    3    3    0    0 -0.88359887414E+01 -0.47248927761E+01  0.33963872392E+02  0.35411070824E+02  0.51100000000E-03 0. -1.
         23    2    1    0    0    0 -0.92619168527E+01  0.20317580111E+02 -0.20133006284E+02  0.95024652714E+02  0.90142994825E+02 0.  0.
         11    1    3    3    0    0 -0.42592811130E+00  0.25042472887E+02 -0.54096878676E+02  0.59613581891E+02  0.51100000000E-03 0.  1.
         22    1    1    0    0    0  0.92619168527E+01 -0.20317580111E+02  0.20133006284E+02  0.30065347286E+02  0.00000000000E+00 0.  1.
</event>
<event>
 5    1  0.1059945E-009  0.9118800E+02  0.7815553E-02  0.1125453E+00
         25   -1    0    0    0    0  0.00000000000E+00  0.00000000000E+00  0.99999998245E-14  0.12509000000E+03  0.12509000000E+03 0.  0.
        -11    1    3    3    0    0  0.33143997313E+02  0.10915864493E+02 -0.23414413568E+02  0.42022796415E+02  0.51100000000E-03 0.  1.
         23    2    1    0    0    0 -0.16470756511E+02  0.20943979488E+02  0.14255094505E+01  0.98407268243E+02  0.94720759440E+02 0.  0.
         11    1    3    3    0    0 -0.49614753825E+02  0.10028114995E+02  0.24839923019E+02  0.56384471827E+02  0.51100000000E-03 0. -1.
         22    1    1    0    0    0  0.16470756511E+02 -0.20943979488E+02 -0.14255094505E+01  0.26682731757E+02  0.00000000000E+00 0. -1.
</event>
<event>
 5    1  0.1059945E-009  0.9118800E+02  0.7815553E-02  0.1125453E+00
         25   -1    0    0    0    0  0.00000000000E+00  0.00000000000E+00  0.99999998245E-14  0.12509000000E+03  0.12509000000E+03 0.  0.
        -11    1    3    3    0    0  0.32232849993E+02 -0.46361731913E+02  0.26606464308E+02  0.62420114930E+02  0.51100000000E-03 0. -1.
         23    2    1    0    0    0  0.92213616561E+01 -0.17653449905E+02  0.10357558340E+02  0.10264101741E+03  0.10015598653E+03 0.  0.
         11    1    3    3    0    0 -0.23011488337E+02  0.28708282007E+02 -0.16248905968E+02  0.40220902485E+02  0.51100000000E-03 0.  1.
         22    1    1    0    0    0 -0.92213616561E+01  0.17653449905E+02 -0.10357558340E+02  0.22448982585E+02  0.00000000000E+00 0. -1.
</event>
<event>
 5    1  0.1059945E-009  0.9118800E+02  0.7815553E-02  0.1125453E+00
         25   -1    0    0    0    0  0.00000000000E+00  0.00000000000E+00  0.99999998245E-14  0.12509000000E+03  0.12509000000E+03 0.  0.
        -11    1    3    3    0    0 -0.10445195091E+02  0.29264012491E+01  0.33005510535E+02  0.34742332257E+02  0.51100000000E-03 0.  1.
         23    2    1    0    0    0 -0.38768449967E+01 -0.10654353186E+02 -0.26572079874E+02  0.96200199070E+02  0.91759782603E+02 0.  0.
         11    1    3    3    0    0  0.65683500944E+01 -0.13580754435E+02 -0.59577590409E+02  0.61457866813E+02  0.51100000000E-03 0. -1.
         22    1    1    0    0    0  0.38768449967E+01  0.10654353186E+02  0.26572079874E+02  0.28889800930E+02  0.00000000000E+00 0. -1.
</event>
<event>
 5    1  0.1059945E-009  0.9118800E+02  0.7815553E-02  0.1125453E+00
         25   -1    0    0    0    0  0.00000000000E+00  0.00000000000E+00  0.99999998245E-14  0.12509000000E+03  0.12509000000E+03 0.  0.
        -11    1    3    3    0    0 -0.47235912849E+02  0.18072165561E+01  0.33592218427E+02  0.57990815078E+02  0.51100000000E-03 0.  1.
         23    2    1    0    0    0 -0.94394900851E+01 -0.23648277084E+01  0.26746693501E+02  0.96628060566E+02  0.92341215566E+02 0.  0.
         11    1    3    3    0    0  0.37796422764E+02 -0.41720442645E+01 -0.68455249262E+01  0.38637245487E+02  0.51100000000E-03 0. -1.
         22    1    1    0    0    0  0.94394900851E+01  0.23648277084E+01 -0.26746693501E+02  0.28461939434E+02  0.00000000000E+00 0.  1.
</event>
<event>
 5    1  0.1059945E-009  0.9118800E+02  0.7815553E-02  0.1125453E+00
         25   -1    0    0    0    0  0.00000000000E+00  0.00000000000E+00  0.99999998245E-14  0.12509000000E+03  0.12509000000E+03 0.  0.
        -11    1    3    3    0    0 -0.18655101920E+02  0.27687755287E+02  0.20081986468E+02  0.38960374757E+02  0.51100000000E-03 0. -1.
         23    2    1    0    0    0  0.94800475753E+01 -0.18098805012E+02 -0.11849382331E+02  0.10147123825E+03  0.98684174444E+02 0.  0.
         11    1    3    3    0    0  0.28135149495E+02 -0.45786560299E+02 -0.31931368800E+02  0.62510863494E+02  0.51100000000E-03 0.  1.
         22    1    1    0    0    0 -0.94800475753E+01  0.18098805012E+02  0.11849382331E+02  0.23618761748E+02  0.00000000000E+00 0.  1.
</event>
<event>
 5    1  0.1059945E-009  0.9118800E+02  0.7815553E-02  0.1125453E+00
         25   -1    0    0    0    0  0.00000000000E+00  0.00000000000E+00  0.99999998245E-14  0.12509000000E+03  0.12509000000E+03 0.  0.
        -11    1    3    3    0    0 -0.23081035476E+02 -0.59106777521E+01  0.53047271606E+02  0.58152242736E+02  0.51100000000E-03 0.  1.
         23    2    1    0    0    0  0.85875504797E+00 -0.14591060944E+02  0.25733020315E+02  0.95495661788E+02  0.90794254037E+02 0.  0.
         11    1    3    3    0    0  0.23939790524E+02 -0.86803831919E+01 -0.27314251291E+02  0.37343419052E+02  0.51100000000E-03 0. -1.
         22    1    1    0    0    0 -0.85875504797E+00  0.14591060944E+02 -0.25733020315E+02  0.29594338212E+02  0.00000000000E+00 0.  1.
</event>
<event>
 5    1  0.1059945E-009  0.9118800E+02  0.7815553E-02  0.1125453E+00
         25   -1    0    0    0    0  0.00000000000E+00  0.00000000000E+00  0.99999998245E-14  0.12509000000E+03  0.12509000000E+03 0.  0.
        -11    1    3    3    0    0 -0.20728624814E+02 -0.35898726147E+02  0.26578323436E+02  0.49242275563E+02  0.51100000000E-03 0.  1.
         23    2    1    0    0    0 -0.26881078000E+02  0.66033546367E+01  0.64613015458E+01  0.96665625520E+02  0.92392088907E+02 0.  0.
         11    1    3    3    0    0 -0.61524531858E+01  0.42502080784E+02 -0.20117021890E+02  0.47423349957E+02  0.51100000000E-03 0. -1.
         22    1    1    0    0    0  0.26881078000E+02 -0.66033546367E+01 -0.64613015458E+01  0.28424374480E+02  0.00000000000E+00 0. -1.
</event>
<event>
 5    1  0.1059945E-009  0.9118800E+02  0.7815553E-02  0.1125453E+00
         25   -1    0    0    0    0  0.00000000000E+00  0.00000000000E+00  0.99999998245E-14  0.12509000000E+03  0.12509000000E+03 0.  0.
        -11    1    3    3    0    0  0.31123731780E+02 -0.40395845334E+00 -0.20428565995E+02  0.37231386910E+02  0.51100000000E-03 0. -1.
         23    2    1    0    0    0 -0.12646231513E+02 -0.11284531077E+01  0.22951589966E+02  0.98860702261E+02  0.95317691914E+02 0.  0.
         11    1    3    3    0    0 -0.43769963293E+02 -0.72449465436E+00  0.43380155961E+02  0.61629315351E+02  0.51100000000E-03 0.  1.
         22    1    1    0    0    0  0.12646231513E+02  0.11284531077E+01 -0.22951589966E+02  0.26229297739E+02  0.00000000000E+00 0.  1.
</event>
<event>
 5    1  0.1059945E-009  0.9118800E+02  0.7815553E-02  0.1125453E+00
         25   -1    0    0    0    0  0.00000000000E+00  0.00000000000E+00  0.99999998245E-14  0.12509000000E+03  0.12509000000E+03 0.  0.
        -11    1    3    3    0    0  0.45911025312E+02 -0.35801292344E+02 -0.14723234407E+02  0.60052713597E+02  0.51100000000E-03 0. -1.
         23    2    1    0    0    0  0.13220992009E+02 -0.23395718457E+02  0.55872965011E+00  0.98211263968E+02  0.94461557893E+02 0.  0.
         11    1    3    3    0    0 -0.32690033302E+02  0.12405573886E+02  0.15281964057E+02  0.38158550372E+02  0.51100000000E-03 0.  1.
         22    1    1    0    0    0 -0.13220992009E+02  0.23395718457E+02 -0.55872965011E+00  0.26878736032E+02  0.00000000000E+00 0. -1.
</event>
<event>
 5    1  0.1059945E-009  0.9118800E+02  0.7815553E-02  0.1125453E+00
         25   -1    0    0    0    0  0.00000000000E+00  0.00000000000E+00  0.99999998245E-14  0.12509000000E+03  0.12509000000E+03 0.  0.
        -11    1    3    3    0    0 -0.27985563007E+02  0.68554387704E+01 -0.52124559029E+02  0.59558025754E+02  0.51100000000E-03 0.  1.
         23    2    1    0    0    0 -0.16604431872E+01  0.95263213307E+01 -0.28371765103E+02  0.95115595507E+02  0.90269106475E+02 0.  0.
         11    1    3    3    0    0  0.26325119819E+02  0.26708825604E+01  0.23752793926E+02  0.35557569752E+02  0.51100000000E-03 0. -1.
         22    1    1    0    0    0  0.16604431872E+01 -0.95263213307E+01  0.28371765103E+02  0.29974404493E+02  0.00000000000E+00 0.  1.
</event>
<event>
 5    1  0.1059945E-009  0.9118800E+02  0.7815553E-02  0.1125453E+00
         25   -1    0    0    0    0  0.00000000000E+00  0.00000000000E+00  0.99999998245E-14  0.12509000000E+03  0.12509000000E+03 0.  0.
        -11    1    3    3    0    0 -0.23293387854E+02  0.23740441416E+02  0.19244627456E+02  0.38425852789E+02  0.51100000000E-03 0.  1.
         23    2    1    0    0    0  0.25418182704E+02  0.16253562449E+02  0.21943766879E+02  0.87783281984E+02  0.79461395575E+02 0.  0.
         11    1    3    3    0    0  0.48711570558E+02 -0.74868789663E+01  0.26991394226E+01  0.49357429196E+02  0.51100000000E-03 0. -1.
         22    1    1    0    0    0 -0.25418182704E+02 -0.16253562449E+02 -0.21943766879E+02  0.37306718016E+02  0.00000000000E+00 0. -1.
</event>
<event>
 5    1  0.1059945E-009  0.9118800E+02  0.7815553E-02  0.1125453E+00
         25   -1    0    0    0    0  0.00000000000E+00  0.00000000000E+00  0.99999998245E-14  0.12509000000E+03  0.12509000000E+03 0.  0.
        -11    1    3    3    0    0 -0.25780833466E+02 -0.19122117895E+02  0.93067109356E+00  0.32111881227E+02  0.51100000000E-03 0. -1.
         23    2    1    0    0    0  0.25553970245E+02  0.10990863371E+02  0.15307693109E+02  0.93338937951E+02  0.87772589095E+02 0.  0.
         11    1    3    3    0    0  0.51334803711E+02  0.30112981265E+02  0.14377022015E+02  0.61227056724E+02  0.51100000000E-03 0.  1.
         22    1    1    0    0    0 -0.25553970245E+02 -0.10990863371E+02 -0.15307693109E+02  0.31751062049E+02  0.00000000000E+00 0.  1.
</event>
<event>
 5    1  0.1059945E-009  0.9118800E+02  0.7815553E-02  0.1125453E+00
         25   -1    0    0    0    0  0.00000000000E+00  0.00000000000E+00  0.99999998245E-14  0.12509000000E+03  0.12509000000E+03 0.  0.
        -11    1    3    3    0    0  0.38526128701E+02  0.25274118547E+02 -0.66801481191E+00  0.46081340096E+02  0.51100000000E-03 0.  1.
         23    2    1    0    0    0  0.39882102608E+01 -0.46967791893E+01  0.25559968477E+02  0.98797842531E+02  0.95235162332E+02 0.  0.
         11    1    3    3    0    0 -0.34537918440E+02 -0.29970897736E+02  0.26227983289E+02  0.52716502435E+02  0.51100000000E-03 0. -1.
         22    1    1    0    0    0 -0.39882102608E+01  0.46967791893E+01 -0.25559968477E+02  0.26292157469E+02  0.00000000000E+00 0.  1.
</event>
<event>
 5    1  0.1059945E-009  0.9118800E+02  0.7815553E-02  0.1125453E+00
         25   -1    0    0    0    0  0.00000000000E+00  0.00000000000E+00  0.99999998245E-14  0.12509000000E+03  0.12509000000E+03 0.  0.
        -11    1    3    3    0    0  0.18302479991E+02 -0.45072310023E+02  0.78605833938E+01  0.49277608264E+02  0.51100000000E-03 0. -1.
         23    2    1    0    0    0 -0.53933835799E+01 -0.99642894142E+01  0.27038580975E+02  0.95773443055E+02  0.91176158526E+02 0.  0.
         11    1    3    3    0    0 -0.23695863571E+02  0.35108020609E+02  0.19177997581E+02  0.46495834791E+02  0.51100000000E-03 0.  1.
         22    1    1    0    0    0  0.53933835799E+01  0.99642894142E+01 -0.27038580975E+02  0.29316556945E+02  0.00000000000E+00 0.  1.
</event>
<event>
 5    1  0.1059945E-009  0.9118800E+02  0.7815553E-02  0.1125453E+00
         25   -1    0    0    0    0  0.00000000000E+00  0.00000000000E+00  0.99999998245E-14  0.12509000000E+03  0.12509000000E+03 0.  0.
        -11    1    3    3    0    0 -0.28700169733E+01 -0.12736596028E+02 -0.38698142134E+02  0.40841205672E+02  0.51100000000E-03 0.  1.
         23    2    1    0    0    0  0.28227738926E+02  0.61075955464E+01  0.28677062285E+01  0.96067048612E+02  0.91578087563E+02 0.  0.
         11    1    3    3    0    0  0.31097755900E+02  0.18844191575E+02  0.41565848363E+02  0.55225842940E+02  0.51100000000E-03 0. -1.
         22    1    1    0    0    0 -0.28227738926E+02 -0.61075955464E+01 -0.28677062285E+01  0.29022951388E+02  0.00000000000E+00 0. -1.
</event>
<event>
 5    1  0.1059945E-009  0.9118800E+02  0.7815553E-02  0.1125453E+00
         25   -1    0    0    0    0  0.00000000000E+00  0.00000000000E+00  0.99999998245E-14  0.12509000000E+03  0.12509000000E+03 0.  0.
        -11    1    3    3    0    0 -0.17746889542E+02 -0.56896843546E+02 -0.26699630704E+01  0.59660134068E+02  0.51100000000E-03 0. -1.
         23    2    1    0    0    0  0.45804326340E+01 -0.26618056571E+02  0.37401287829E+01  0.97822989492E+02  0.93945981346E+02 0.  0.
         11    1    3    3    0    0  0.22327322176E+02  0.30278786975E+02  0.64100918534E+01  0.38162855424E+02  0.51100000000E-03 0.  1.
         22    1    1    0    0    0 -0.45804326340E+01  0.26618056571E+02 -0.37401287829E+01  0.27267010508E+02  0.00000000000E+00 0. -1.
</event>
<event>
 5    1  0.1059945E-009  0.9118800E+02  0.7815553E-02  0.1125453E+00
         25   -1    0    0    0    0  0.00000000000E+00  0.00000000000E+00  0.99999998245E-14  0.12509000000E+03  0.12509000000E+03 0.  0.
        -11    1    3    3    0    0  0.33091185420E+02 -0.13328154936E+01 -0.82966025562E+00  0.33128406029E+02  0.51100000000E-03 0.  1.
         23    2    1    0    0    0 -0.26374191927E+02 -0.17827141422E+01  0.15039945436E+02  0.94676581444E+02  0.89658680817E+02 0.  0.
         11    1    3    3    0    0 -0.59465377347E+02 -0.44989864864E+00  0.15869605691E+02  0.61548175415E+02  0.51100000000E-03 0. -1.
         22    1    1    0    0    0  0.26374191927E+02  0.17827141422E+01 -0.15039945436E+02  0.30413418556E+02  0.00000000000E+00 0. -1.
</event>
<event>
 5    1  0.1059945E-009  0.9118800E+02  0.7815553E-02  0.1125453E+00
         25   -1    0    0    0    0  0.00000000000E+00  0.00000000000E+00  0.99999998245E-14  0.12509000000E+03  0.12509000000E+03 0.  0.
        -11    1    3    3    0    0  0.41448668262E+02 -0.78123316517E+01  0.18024328139E+02  0.45868300946E+02  0.51100000000E-03 0.  1.
         23    2    1    0    0    0  0.45913004329E+01  0.26397905478E+02  0.77893935663E+01  0.97186521625E+02  0.93094660858E+02 0.  0.
         11    1    3    3    0    0 -0.36857367829E+02  0.34210237130E+02 -0.10234934573E+02  0.51318220680E+02  0.51100000000E-03 0. -1.
         22    1    1    0    0    0 -0.45913004329E+01 -0.26397905478E+02 -0.77893935663E+01  0.27903478375E+02  0.00000000000E+00 0.  1.
</event>
<event>
 5    1  0.1059945E-009  0.9118800E+02  0.7815553E-02  0.1125453E+00
         25   -1    0    0    0    0  0.00000000000E+00  0.00000000000E+00  0.99999998245E-14  0.12509000000E+03  0.12509000000E+03 0.  0.
        -11    1    3    3    0    0  0.27286705205E+02 -0.17908483305E+02 -0.32676388968E+02  0.46184677670E+02  0.51100000000E-03 0. -1.
         23    2    1    0    0    0  0.19402482845E+02  0.21538930223E+02 -0.34760893645E+01  0.95892995822E+02  0.91340032815E+02 0.  0.
         11    1    3    3    0    0 -0.78842223595E+01  0.39447413528E+02  0.29200299604E+02  0.49708318152E+02  0.51100000000E-03 0.  1.
         22    1    1    0    0    0 -0.19402482845E+02 -0.21538930223E+02  0.34760893645E+01  0.29197004178E+02  0.00000000000E+00 0.  1.
</event>
<event>
 5    1  0.1059945E-009  0.9118800E+02  0.7815553E-02  0.1125453E+00
         25   -1    0    0    0    0  0.00000000000E+00  0.00000000000E+00  0.99999998245E-14  0.12509000000E+03  0.12509000000E+03 0.  0.
        -11    1    3    3    0    0 -0.40019895040E+02  0.14236093078E+02 -0.37173529912E+02  0.56445811816E+02  0.51100000000E-03 0. -1.
         23    2    1    0    0    0 -0.60164112238E+01 -0.15909853956E+01 -0.29770657784E+02  0.94675850276E+02  0.89657660700E+02 0.  0.
         11    1    3    3    0    0  0.34003483817E+02 -0.15827078474E+02  0.74028721281E+01  0.38230038460E+02  0.51100000000E-03 0.  1.
         22    1    1    0    0    0  0.60164112238E+01  0.15909853956E+01  0.29770657784E+02  0.30414149724E+02  0.00000000000E+00 0. -1.
</event>
<event>
 5    1  0.1059945E-009  0.9118800E+02  0.7815553E-02  0.1125453E+00
         25   -1    0    0    0    0  0.00000000000E+00  0.00000000000E+00  0.99999998245E-14  0.12509000000E+03  0.12509000000E+03 0.  0.
        -11    1    3    3    0    0 -0.54026103927E+01  0.39695930494E+02 -0.10455932114E+02  0.41403884039E+02  0.51100000000E-03 0.  1.
         23    2    1    0    0    0  0.19424408619E+02 -0.80683757776E+01 -0.19989639811E+02  0.96072900944E+02  0.91586081137E+02 0.  0.
         11    1    3    3    0    0  0.24827019012E+02 -0.47764306272E+02 -0.95337076962E+01  0.54669016905E+02  0.51100000000E-03 0. -1.
         22    1    1    0    0    0 -0.19424408619E+02  0.80683757776E+01  0.19989639811E+02  0.29017099056E+02  0.00000000000E+00 0. -1.
</event>
<event>
 5    1  0.1059945E-009  0.9118800E+02  0.7815553E-02  0.1125453E+00
         25   -1    0    0    0    0  0.00000000000E+00  0.00000000000E+00  0.99999998245E-14  0.12509000000E+03  0.12509000000E+03 0.  0.
        -11    1    3    3    0    0  0.17379714287E+02 -0.40398722463E+02  0.13463450431E+02  0.45993214098E+02  0.51100000000E-03 0.  1.
         23    2    1    0    0    0  0.19217385710E+02  0.69868744972E+01  0.22947831594E+02  0.94353583429E+02  0.89206902212E+02 0.  0.
         11    1    3    3    0    0  0.18376714227E+01  0.47385596960E+02  0.94843811627E+01  0.48360369331E+02  0.51100000000E-03 0. -1.
         22    1    1    0    0    0 -0.19217385710E+02 -0.69868744972E+01 -0.22947831594E+02  0.30736416571E+02  0.00000000000E+00 0. -1.
</event>
<event>
 5    1  0.1059945E-009  0.9118800E+02  0.7815553E-02  0.1125453E+00
         25   -1    0    0    0    0  0.00000000000E+00  0.00000000000E+00  0.99999998245E-14  0.12509000000E+03  0.12509000000E+03 0.  0.
        -11    1    3    3    0    0  0.30829193084E+02  0.12930352772E+02  0.45639844990E+01  0.33741119184E+02  0.51100000000E-03 0. -1.
         23    2    1    0    0    0 -0.28962134359E+02 -0.23884105300E+01 -0.27700891816E+01  0.95897824240E+02  0.91346645086E+02 0.  0.
         11    1    3    3    0    0 -0.59791327443E+02 -0.15318763302E+02 -0.73340736805E+01  0.62156705057E+02  0.51100000000E-03 0.  1.
         22    1    1    0    0    0  0.28962134359E+02  0.23884105300E+01  0.27700891816E+01  0.29192175760E+02  0.00000000000E+00 0.  1.
</event>
<event>
 5    1  0.1059945E-009  0.9118800E+02  0.7815553E-02  0.1125453E+00
         25   -1    0    0    0    0  0.00000000000E+00  0.00000000000E+00  0.99999998245E-14  0.12509000000E+03  0.12509000000E+03 0.  0.
        -11    1    3    3    0    0  0.37746689278E+02 -0.37589104952E+01  0.23822017125E+02  0.44793196578E+02  0.51100000000E-03 0.  1.
         23    2    1    0    0    0  0.39801218211E+01  0.28596874377E+02  0.27522564456E+01  0.96086594866E+02  0.91604782645E+02 0.  0.
         11    1    3    3    0    0 -0.33766567456E+02  0.32355784872E+02 -0.21069760680E+02  0.51293398287E+02  0.51100000000E-03 0. -1.
         22    1    1    0    0    0 -0.39801218211E+01 -0.28596874377E+02 -0.27522564456E+01  0.29003405134E+02  0.00000000000E+00 0. -1.
</event>
<event>
 5    1  0.1059945E-009  0.9118800E+02  0.7815553E-02  0.1125453E+00
         25   -1    0    0    0    0  0.00000000000E+00  0.00000000000E+00  0.99999998245E-14  0.12509000000E+03  0.12509000000E+03 0.  0.
        -11    1    3    3    0    0 -0.25768296343E+02 -0.34969198906E+02 -0.34289640938E+02  0.55341028582E+02  0.51100000000E-03 0.  1.
         23    2    1    0    0    0 -0.25691021148E+02 -0.15967097572E+02  0.33760312552E+00  0.94839533088E+02  0.89885740182E+02 0.  0.
         11    1    3    3    0    0  0.77275194568E-01  0.19002101335E+02  0.34627244063E+02  0.39498504507E+02  0.51100000000E-03 0. -1.
         22    1    1    0    0    0  0.25691021148E+02  0.15967097572E+02 -0.33760312552E+00  0.30250466912E+02  0.00000000000E+00 0.  1.
</event>
<event>
 5    1  0.1059945E-009  0.9118800E+02  0.7815553E-02  0.1125453E+00
         25   -1    0    0    0    0  0.00000000000E+00  0.00000000000E+00  0.99999998245E-14  0.12509000000E+03  0.12509000000E+03 0.  0.
        -11    1    3    3    0    0 -0.20165929205E+02 -0.97086392705E+01  0.28580976370E+02  0.36301440573E+02  0.51100000000E-03 0. -1.
         23    2    1    0    0    0 -0.15731770391E+02  0.16177495636E+02 -0.22176773863E+02  0.93451269564E+02  0.87932533908E+02 0.  0.
         11    1    3    3    0    0  0.44341588140E+01  0.25886134906E+02 -0.50757750232E+02  0.57149828991E+02  0.51100000000E-03 0.  1.
         22    1    1    0    0    0  0.15731770391E+02 -0.16177495636E+02  0.22176773863E+02  0.31638730436E+02  0.00000000000E+00 0.  1.
</event>
<event>
 5    1  0.1059945E-009  0.9118800E+02  0.7815553E-02  0.1125453E+00
         25   -1    0    0    0    0  0.00000000000E+00  0.00000000000E+00  0.99999998245E-14  0.12509000000E+03  0.12509000000E+03 0.  0.
        -11    1    3    3    0    0  0.21271539342E+02 -0.11431980764E+02  0.37937005377E+01  0.24445055414E+02  0.51100000000E-03 0. -1.
         23    2    1    0    0    0 -0.28044477516E+02 -0.26928017393E+02 -0.20018936452E+02  0.81359362496E+02  0.68607413661E+02 0.  0.
         11    1    3    3    0    0 -0.49316016858E+02 -0.15496036629E+02 -0.23812636989E+02  0.56914307082E+02  0.51100000000E-03 0.  1.
         22    1    1    0    0    0  0.28044477516E+02  0.26928017393E+02  0.20018936452E+02  0.43730637504E+02  0.00000000000E+00 0.  1.
</event>
<event>
 5    1  0.1059945E-009  0.9118800E+02  0.7815553E-02  0.1125453E+00
         25   -1    0    0    0    0  0.00000000000E+00  0.00000000000E+00  0.99999998245E-14  0.12509000000E+03  0.12509000000E+03 0.  0.
        -11    1    3    3    0    0 -0.29533545093E+02 -0.18432761244E+02 -0.89749080267E+00  0.34825313535E+02  0.51100000000E-03 0. -1.
         23    2    1    0    0    0  0.23260731924E+02  0.15058473340E+02 -0.13400513991E+01  0.97348064114E+02  0.93311470784E+02 0.  0.
         11    1    3    3    0    0  0.52794277017E+02  0.33491234584E+02 -0.44256059640E+00  0.62522750578E+02  0.51100000000E-03 0.  1.
         22    1    1    0    0    0 -0.23260731924E+02 -0.15058473340E+02  0.13400513991E+01  0.27741935886E+02  0.00000000000E+00 0.  1.
</event>
<event>
 5    1  0.1059945E-009  0.9118800E+02  0.7815553E-02  0.1125453E+00
         25   -1    0    0    0    0  0.00000000000E+00  0.00000000000E+00  0.99999998245E-14  0.12509000000E+03  0.12509000000E+03 0.  0.
        -11    1    3    3    0    0 -0.16889322545E+02  0.94585578805E+01 -0.28511188706E+02  0.34461593331E+02  0.51100000000E-03 0.  1.
         23    2    1    0    0    0 -0.14058072353E+02 -0.11551988820E+02  0.26231186738E+02  0.93165824182E+02  0.87525526527E+02 0.  0.
         11    1    3    3    0    0  0.28312501926E+01 -0.21010546701E+02  0.54742375444E+02  0.58704230851E+02  0.51100000000E-03 0. -1.
         22    1    1    0    0    0  0.14058072353E+02  0.11551988820E+02 -0.26231186738E+02  0.31924175818E+02  0.00000000000E+00 0. -1.
</event>
<event>
 5    1  0.1059945E-009  0.9118800E+02  0.7815553E-02  0.1125453E+00
         25   -1    0    0    0    0  0.00000000000E+00  0.00000000000E+00  0.99999998245E-14  0.12509000000E+03  0.12509000000E+03 0.  0.
        -11    1    3    3    0    0  0.62775697990E+01  0.51202571843E+02 -0.23976969043E+02  0.56885905906E+02  0.51100000000E-03 0.  1.
         23    2    1    0    0    0 -0.62110805603E+00  0.12494826797E+02 -0.25980253280E+02  0.96254604521E+02  0.91833919981E+02 0.  0.
         11    1    3    3    0    0 -0.68986778550E+01 -0.38707745046E+02 -0.20032842374E+01  0.39368698616E+02  0.51100000000E-03 0. -1.
         22    1    1    0    0    0  0.62110805603E+00 -0.12494826797E+02  0.25980253280E+02  0.28835395479E+02  0.00000000000E+00 0.  1.
</event>
<event>
 5    1  0.1059945E-009  0.9118800E+02  0.7815553E-02  0.1125453E+00
         25   -1    0    0    0    0  0.00000000000E+00  0.00000000000E+00  0.99999998245E-14  0.12509000000E+03  0.12509000000E+03 0.  0.
        -11    1    3    3    0    0  0.45496983389E+02  0.20721542137E+02 -0.23250458250E+02  0.55135665545E+02  0.51100000000E-03 0.  1.
         23    2    1    0    0    0  0.87894073039E+01  0.62701228956E+01 -0.28199105918E+02  0.94894674261E+02  0.89962444980E+02 0.  0.
         11    1    3    3    0    0 -0.36707576085E+02 -0.14451419241E+02 -0.49486476677E+01  0.39759008716E+02  0.51100000000E-03 0. -1.
         22    1    1    0    0    0 -0.87894073039E+01 -0.62701228956E+01  0.28199105918E+02  0.30195325739E+02  0.00000000000E+00 0.  1.
</event>
<event>
 5    1  0.1059945E-009  0.9118800E+02  0.7815553E-02  0.1125453E+00
         25   -1    0    0    0    0  0.00000000000E+00  0.00000000000E+00  0.99999998245E-14  0.12509000000E+03  0.12509000000E+03 0.  0.
        -11    1    3    3    0    0 -0.21980955197E+02 -0.33297257315E+02  0.61968852995E+00  0.39903054397E+02  0.51100000000E-03 0.  1.
         23    2    1    0    0    0 -0.15836640805E+02  0.18117858402E+02  0.18556346039E+02  0.94702601898E+02  0.89694976687E+02 0.  0.
         11    1    3    3    0    0  0.61443143919E+01  0.51415115717E+02  0.17936657509E+02  0.54799547502E+02  0.51100000000E-03 0. -1.
         22    1    1    0    0    0  0.15836640805E+02 -0.18117858402E+02 -0.18556346039E+02  0.30387398102E+02  0.00000000000E+00 0. -1.
</event>
<event>
 5    1  0.1059945E-009  0.9118800E+02  0.7815553E-02  0.1125453E+00
         25   -1    0    0    0    0  0.00000000000E+00  0.00000000000E+00  0.99999998245E-14  0.12509000000E+03  0.12509000000E+03 0.  0.
        -11    1    3    3    0    0 -0.18495907374E+02  0.51877664175E+02  0.19061378304E+02  0.58281444500E+02  0.51100000000E-03 0.  1.
         23    2    1    0    0    0 -0.18603227227E+01  0.18193522770E+02  0.22601593254E+02  0.96016006654E+02  0.91508340848E+02 0.  0.
         11    1    3    3    0    0  0.16635584651E+02 -0.33684141405E+02  0.35402149503E+01  0.37734562155E+02  0.51100000000E-03 0. -1.
         22    1    1    0    0    0  0.18603227227E+01 -0.18193522770E+02 -0.22601593254E+02  0.29073993346E+02  0.00000000000E+00 0.  1.
</event>
<event>
 5    1  0.1059945E-009  0.9118800E+02  0.7815553E-02  0.1125453E+00
         25   -1    0    0    0    0  0.00000000000E+00  0.00000000000E+00  0.99999998245E-14  0.12509000000E+03  0.12509000000E+03 0.  0.
        -11    1    3    3    0    0  0.36130711987E+02  0.20113050046E+02  0.23804006302E+02  0.47713665204E+02  0.51100000000E-03 0.  1.
         23    2    1    0    0    0  0.22592846829E+02 -0.20073839721E+02  0.37059112139E+01  0.94641197939E+02  0.89609300859E+02 0.  0.
         11    1    3    3    0    0 -0.13537865158E+02 -0.40186889768E+02 -0.20098095088E+02  0.46927532736E+02  0.51100000000E-03 0. -1.
         22    1    1    0    0    0 -0.22592846829E+02  0.20073839721E+02 -0.37059112139E+01  0.30448802061E+02  0.00000000000E+00 0. -1.
</event>
<event>
 5    1  0.1059945E-009  0.9118800E+02  0.7815553E-02  0.1125453E+00
         25   -1    0    0    0    0  0.00000000000E+00  0.00000000000E+00  0.99999998245E-14  0.12509000000E+03  0.12509000000E+03 0.  0.
        -11    1    3    3    0    0  0.33089518137E+02 -0.36035734080E+02 -0.33238424254E+02  0.59146286345E+02  0.51100000000E-03 0. -1.
         23    2    1    0    0    0  0.10104996916E+02 -0.26900533517E+02 -0.63871840163E+01  0.95652850243E+02  0.91010559683E+02 0.  0.
         11    1    3    3    0    0 -0.22984521221E+02  0.91352005635E+01  0.26851240238E+02  0.36506563898E+02  0.51100000000E-03 0.  1.
         22    1    1    0    0    0 -0.10104996916E+02  0.26900533517E+02  0.63871840163E+01  0.29437149757E+02  0.00000000000E+00 0. -1.
</event>
<event>
 5    1  0.1059945E-009  0.9118800E+02  0.7815553E-02  0.1125453E+00
         25   -1    0    0    0    0  0.00000000000E+00  0.00000000000E+00  0.99999998245E-14  0.12509000000E+03  0.12509000000E+03 0.  0.
        -11    1    3    3    0    0 -0.46795501603E+02  0.97693970756E+01  0.16742507984E+02  0.50651472469E+02  0.51100000000E-03 0. -1.
         23    2    1    0    0    0 -0.28300490190E+02  0.26415103949E+02 -0.77979467806E+01  0.85599704539E+02  0.75946204524E+02 0.  0.
         11    1    3    3    0    0  0.18495011413E+02  0.16645706873E+02 -0.24540454765E+02  0.34948232070E+02  0.51100000000E-03 0.  1.
         22    1    1    0    0    0  0.28300490190E+02 -0.26415103949E+02  0.77979467806E+01  0.39490295461E+02  0.00000000000E+00 0. -1.
</event>
<event>
 5    1  0.1059945E-009  0.9118800E+02  0.7815553E-02  0.1125453E+00
         25   -1    0    0    0    0  0.00000000000E+00  0.00000000000E+00  0.99999998245E-14  0.12509000000E+03  0.12509000000E+03 0.  0.
        -11    1    3    3    0    0  0.19186962533E+02 -0.37124980738E+01  0.30926488192E+02  0.36583737444E+02  0.51100000000E-03 0.  1.
         23    2    1    0    0    0 -0.10726604098E+02  0.19604205583E+01 -0.23632441228E+02  0.99063176094E+02  0.95583038742E+02 0.  0.
         11    1    3    3    0    0 -0.29913566632E+02  0.56729186320E+01 -0.54558929419E+02  0.62479438651E+02  0.51100000000E-03 0. -1.
         22    1    1    0    0    0  0.10726604098E+02 -0.19604205583E+01  0.23632441228E+02  0.26026823906E+02  0.00000000000E+00 0. -1.
</event>
<event>
 5    1  0.1059945E-009  0.9118800E+02  0.7815553E-02  0.1125453E+00
         25   -1    0    0    0    0  0.00000000000E+00  0.00000000000E+00  0.99999998245E-14  0.12509000000E+03  0.12509000000E+03 0.  0.
        -11    1    3    3    0    0  0.15285908520E+02 -0.14366790516E+02 -0.42896208514E+02  0.47750899198E+02  0.51100000000E-03 0. -1.
         23    2    1    0    0    0 -0.17541670147E+02  0.12125597490E+02 -0.20491705592E+02  0.95515512615E+02  0.90821599006E+02 0.  0.
         11    1    3    3    0    0 -0.32827578667E+02  0.26492388006E+02  0.22404502922E+02  0.47764613417E+02  0.51100000000E-03 0.  1.
         22    1    1    0    0    0  0.17541670147E+02 -0.12125597490E+02  0.20491705592E+02  0.29574487385E+02  0.00000000000E+00 0. -1.
</event>
<event>
 5    1  0.1059945E-009  0.9118800E+02  0.7815553E-02  0.1125453E+00
         25   -1    0    0    0    0  0.00000000000E+00  0.00000000000E+00  0.99999998245E-14  0.12509000000E+03  0.12509000000E+03 0.  0.
        -11    1    3    3    0    0  0.21637464966E+02  0.57822885345E+01 -0.34392020548E+02  0.41041757132E+02  0.51100000000E-03 0. -1.
         23    2    1    0    0    0  0.45599036776E+01  0.24422044505E+02  0.14672980749E+02  0.96236484731E+02  0.91809235101E+02 0.  0.
         11    1    3    3    0    0 -0.17077561288E+02  0.18639755970E+02  0.49065001297E+02  0.55194727599E+02  0.51100000000E-03 0.  1.
         22    1    1    0    0    0 -0.45599036776E+01 -0.24422044505E+02 -0.14672980749E+02  0.28853515269E+02  0.00000000000E+00 0.  1.
</event>
<event>
 5    1  0.1059945E-009  0.9118800E+02  0.7815553E-02  0.1125453E+00
         25   -1    0    0    0    0  0.00000000000E+00  0.00000000000E+00  0.99999998245E-14  0.12509000000E+03  0.12509000000E+03 0.  0.
        -11    1    3    3    0    0 -0.19494510290E+02  0.38633628615E+00 -0.30469411335E+02  0.36174165015E+02  0.51100000000E-03 0.  1.
         23    2    1    0    0    0 -0.36750159848E+01 -0.47076869878E+01  0.27742457165E+02  0.96711980534E+02  0.92454827835E+02 0.  0.
         11    1    3    3    0    0  0.15819494305E+02 -0.50940232739E+01  0.58211868500E+02  0.60537815519E+02  0.51100000000E-03 0. -1.
         22    1    1    0    0    0  0.36750159848E+01  0.47076869878E+01 -0.27742457165E+02  0.28378019466E+02  0.00000000000E+00 0. -1.
</event>
<event>
 5    1  0.1059945E-009  0.9118800E+02  0.7815553E-02  0.1125453E+00
         25   -1    0    0    0    0  0.00000000000E+00  0.00000000000E+00  0.99999998245E-14  0.12509000000E+03  0.12509000000E+03 0.  0.
        -11    1    3    3    0    0  0.28087342954E+02 -0.23303723257E+02 -0.40897238853E+02  0.54813743696E+02  0.51100000000E-03 0.  1.
         23    2    1    0    0    0 -0.21578015545E+01 -0.26029876564E+02 -0.13622198161E+02  0.95631981326E+02  0.90981871755E+02 0.  0.
         11    1    3    3    0    0 -0.30245144509E+02 -0.27261533064E+01  0.27275040692E+02  0.40818237630E+02  0.51100000000E-03 0. -1.
         22    1    1    0    0    0  0.21578015545E+01  0.26029876564E+02  0.13622198161E+02  0.29458018674E+02  0.00000000000E+00 0.  1.
</event>
<event>
 5    1  0.1059945E-009  0.9118800E+02  0.7815553E-02  0.1125453E+00
         25   -1    0    0    0    0  0.00000000000E+00  0.00000000000E+00  0.99999998245E-14  0.12509000000E+03  0.12509000000E+03 0.  0.
        -11    1    3    3    0    0  0.16808980441E+01 -0.11158703909E+02 -0.33645951699E+02  0.35487915649E+02  0.51100000000E-03 0. -1.
         23    2    1    0    0    0 -0.15863323389E+01  0.29335308719E+02  0.89774142898E+01  0.94370775478E+02  0.89231006433E+02 0.  0.
         11    1    3    3    0    0 -0.32672303830E+01  0.40494012628E+02  0.42623365989E+02  0.58882859828E+02  0.51100000000E-03 0.  1.
         22    1    1    0    0    0  0.15863323389E+01 -0.29335308719E+02 -0.89774142898E+01  0.30719224522E+02  0.00000000000E+00 0.  1.
</event>
<event>
 5    1  0.1059945E-009  0.9118800E+02  0.7815553E-02  0.1125453E+00
         25   -1    0    0    0    0  0.00000000000E+00  0.00000000000E+00  0.99999998245E-14  0.12509000000E+03  0.12509000000E+03 0.  0.
        -11    1    3    3    0    0 -0.16922597525E+02  0.22764029423E+02 -0.55023388295E+02  0.61904350431E+02  0.51100000000E-03 0. -1.
         23    2    1    0    0    0 -0.53461807953E+01  0.15589082019E+02 -0.22197801862E+02  0.97443236450E+02  0.93438968289E+02 0.  0.
         11    1    3    3    0    0  0.11576416730E+02 -0.71749474034E+01  0.32825586433E+02  0.35538886019E+02  0.51100000000E-03 0.  1.
         22    1    1    0    0    0  0.53461807953E+01 -0.15589082019E+02  0.22197801862E+02  0.27646763550E+02  0.00000000000E+00 0. -1.
</event>
<event>
 5    1  0.1059945E-009  0.9118800E+02  0.7815553E-02  0.1125453E+00
         25   -1    0    0    0    0  0.00000000000E+00  0.00000000000E+00  0.99999998245E-14  0.12509000000E+03  0.12509000000E+03 0.  0.
        -11    1    3    3    0    0  0.24394349387E+02  0.45705410934E+02 -0.19823252250E+02  0.55470985215E+02  0.51100000000E-03 0. -1.
         23    2    1    0    0    0  0.62435006170E+01  0.10023729864E+02 -0.26519425689E+02  0.96060077520E+02  0.91568564988E+02 0.  0.
         11    1    3    3    0    0 -0.18150848770E+02 -0.35681681071E+02 -0.66961734384E+01  0.40589092305E+02  0.51100000000E-03 0.  1.
         22    1    1    0    0    0 -0.62435006170E+01 -0.10023729864E+02  0.26519425689E+02  0.29029922480E+02  0.00000000000E+00 0. -1.
</event>
<event>
 5    1  0.1059945E-009  0.9118800E+02  0.7815553E-02  0.1125453E+00
         25   -1    0    0    0    0  0.00000000000E+00  0.00000000000E+00  0.99999998245E-14  0.12509000000E+03  0.12509000000E+03 0.  0.
        -11    1    3    3    0    0 -0.16145283772E+01  0.80063220810E+01 -0.53672500920E+02  0.54290378985E+02  0.51100000000E-03 0.  1.
         23    2    1    0    0    0  0.85882141407E+01  0.23607558941E+02 -0.19231371066E+02  0.93452681935E+02  0.87934543078E+02 0.  0.
         11    1    3    3    0    0  0.10202742518E+02  0.15601236860E+02  0.34441129853E+02  0.39162302949E+02  0.51100000000E-03 0. -1.
         22    1    1    0    0    0 -0.85882141407E+01 -0.23607558941E+02  0.19231371066E+02  0.31637318065E+02  0.00000000000E+00 0.  1.
</event>
<event>
 5    1  0.1059945E-009  0.9118800E+02  0.7815553E-02  0.1125453E+00
         25   -1    0    0    0    0  0.00000000000E+00  0.00000000000E+00  0.99999998245E-14  0.12509000000E+03  0.12509000000E+03 0.  0.
        -11    1    3    3    0    0  0.54379640270E+01  0.30043531476E+02 -0.15663617016E+02  0.34315217245E+02  0.51100000000E-03 0.  1.
         23    2    1    0    0    0 -0.14200337103E+02 -0.19370487087E+02  0.16026666997E+02  0.96215800464E+02  0.91781048480E+02 0.  0.
         11    1    3    3    0    0 -0.19638301129E+02 -0.49414018562E+02  0.31690284013E+02  0.61900583219E+02  0.51100000000E-03 0. -1.
         22    1    1    0    0    0  0.14200337103E+02  0.19370487087E+02 -0.16026666997E+02  0.28874199536E+02  0.00000000000E+00 0. -1.
</event>
<event>
 5    1  0.1059945E-009  0.9118800E+02  0.7815553E-02  0.1125453E+00
         25   -1    0    0    0    0  0.00000000000E+00  0.00000000000E+00  0.99999998245E-14  0.12509000000E+03  0.12509000000E+03 0.  0.
        -11    1    3    3    0    0 -0.35113735991E+02 -0.11645304335E+02 -0.19281637121E+02  0.41717731225E+02  0.51100000000E-03 0.  1.
         23    2    1    0    0    0 -0.57373859152E+01 -0.10751218864E+02  0.26386340673E+02  0.96025497969E+02  0.91521314358E+02 0.  0.
         11    1    3    3    0    0  0.29376350075E+02  0.89408547060E+00  0.45667977794E+02  0.54307766743E+02  0.51100000000E-03 0. -1.
         22    1    1    0    0    0  0.57373859152E+01  0.10751218864E+02 -0.26386340673E+02  0.29064502031E+02  0.00000000000E+00 0. -1.
</event>
<event>
 5    1  0.1059945E-009  0.9118800E+02  0.7815553E-02  0.1125453E+00
         25   -1    0    0    0    0  0.00000000000E+00  0.00000000000E+00  0.99999998245E-14  0.12509000000E+03  0.12509000000E+03 0.  0.
        -11    1    3    3    0    0 -0.15502244966E+02 -0.53860334835E+02  0.11661988445E+02  0.57247333931E+02  0.51100000000E-03 0. -1.
         23    2    1    0    0    0 -0.22024633362E+02 -0.15568227664E+02  0.10614699351E+02  0.96105072371E+02  0.91630010945E+02 0.  0.
         11    1    3    3    0    0 -0.65223883964E+01  0.38292107170E+02 -0.10472890942E+01  0.38857738440E+02  0.51100000000E-03 0.  1.
         22    1    1    0    0    0  0.22024633362E+02  0.15568227664E+02 -0.10614699351E+02  0.28984927629E+02  0.00000000000E+00 0. -1.
</event>
<event>
 5    1  0.1059945E-009  0.9118800E+02  0.7815553E-02  0.1125453E+00
         25   -1    0    0    0    0  0.00000000000E+00  0.00000000000E+00  0.99999998245E-14  0.12509000000E+03  0.12509000000E+03 0.  0.
        -11    1    3    3    0    0  0.36996997124E+02  0.28277827776E+02 -0.19935819191E+02  0.50654222204E+02  0.51100000000E-03 0.  1.
         23    2    1    0    0    0 -0.46415202759E+01  0.29342833507E+02 -0.11971290306E+02  0.93060991582E+02  0.87375573097E+02 0.  0.
         11    1    3    3    0    0 -0.41638517400E+02  0.10650057303E+01  0.79645288858E+01  0.42406769378E+02  0.51100000000E-03 0. -1.
         22    1    1    0    0    0  0.46415202759E+01 -0.29342833507E+02  0.11971290306E+02  0.32029008418E+02  0.00000000000E+00 0.  1.
</event>
<event>
 5    1  0.1059945E-009  0.9118800E+02  0.7815553E-02  0.1125453E+00
         25   -1    0    0    0    0  0.00000000000E+00  0.00000000000E+00  0.99999998245E-14  0.12509000000E+03  0.12509000000E+03 0.  0.
        -11    1    3    3    0    0  0.50763086259E+02  0.25938704458E+02 -0.12017685613E+01  0.57018870240E+02  0.51100000000E-03 0. -1.
         23    2    1    0    0    0  0.21213107205E+02  0.68980516000E+01 -0.18418894310E+02  0.96161904647E+02  0.91707563508E+02 0.  0.
         11    1    3    3    0    0 -0.29549979054E+02 -0.19040652858E+02 -0.17217125748E+02  0.39143034408E+02  0.51100000000E-03 0.  1.
         22    1    1    0    0    0 -0.21213107205E+02 -0.68980516000E+01  0.18418894310E+02  0.28928095353E+02  0.00000000000E+00 0. -1.
</event>
<event>
 5    1  0.1059945E-009  0.9118800E+02  0.7815553E-02  0.1125453E+00
         25   -1    0    0    0    0  0.00000000000E+00  0.00000000000E+00  0.99999998245E-14  0.12509000000E+03  0.12509000000E+03 0.  0.
        -11    1    3    3    0    0  0.38453833748E+02  0.68021354636E+00  0.37900504629E+02  0.53996372765E+02  0.51100000000E-03 0. -1.
         23    2    1    0    0    0  0.34142405190E+02  0.85209017538E+01  0.32876124403E+01  0.89747136585E+02  0.82495033370E+02 0.  0.
         11    1    3    3    0    0 -0.43114285588E+01  0.78406882074E+01 -0.34612892188E+02  0.35750763820E+02  0.51100000000E-03 0.  1.
         22    1    1    0    0    0 -0.34142405190E+02 -0.85209017538E+01 -0.32876124403E+01  0.35342863415E+02  0.00000000000E+00 0. -1.
</event>
<event>
 5    1  0.1059945E-009  0.9118800E+02  0.7815553E-02  0.1125453E+00
         25   -1    0    0    0    0  0.00000000000E+00  0.00000000000E+00  0.99999998245E-14  0.12509000000E+03  0.12509000000E+03 0.  0.
        -11    1    3    3    0    0 -0.35878226419E+02  0.17444301207E+02  0.36604426384E+02  0.54142726258E+02  0.51100000000E-03 0.  1.
         23    2    1    0    0    0 -0.18032689307E+02 -0.14721465777E+02  0.19561385522E+02  0.94683631558E+02  0.89668516455E+02 0.  0.
         11    1    3    3    0    0  0.17845537111E+02 -0.32165766984E+02 -0.17043040861E+02  0.40540905300E+02  0.51100000000E-03 0. -1.
         22    1    1    0    0    0  0.18032689307E+02  0.14721465777E+02 -0.19561385522E+02  0.30406368442E+02  0.00000000000E+00 0.  1.
</event>
<event>
 5    1  0.1059945E-009  0.9118800E+02  0.7815553E-02  0.1125453E+00
         25   -1    0    0    0    0  0.00000000000E+00  0.00000000000E+00  0.99999998245E-14  0.12509000000E+03  0.12509000000E+03 0.  0.
        -11    1    3    3    0    0  0.36635430549E+02  0.27420649086E+02 -0.21315377705E+02  0.50481601547E+02  0.51100000000E-03 0. -1.
         23    2    1    0    0    0  0.13623546540E+02 -0.11374896133E+02 -0.23499531437E+02  0.95641447233E+02  0.90994885398E+02 0.  0.
         11    1    3    3    0    0 -0.23011884010E+02 -0.38795545219E+02 -0.21841537315E+01  0.45159845685E+02  0.51100000000E-03 0.  1.
         22    1    1    0    0    0 -0.13623546540E+02  0.11374896133E+02  0.23499531437E+02  0.29448552767E+02  0.00000000000E+00 0. -1.
</event>
<event>
 5    1  0.1059945E-009  0.9118800E+02  0.7815553E-02  0.1125453E+00
         25   -1    0    0    0    0  0.00000000000E+00  0.00000000000E+00  0.99999998245E-14  0.12509000000E+03  0.12509000000E+03 0.  0.
        -11    1    3    3    0    0 -0.17488822125E+02 -0.30991567404E+02 -0.18291461705E+02  0.40011419883E+02  0.51100000000E-03 0.  1.
         23    2    1    0    0    0 -0.13211360326E+02  0.19878841695E+02  0.10935254391E+02  0.98835701735E+02  0.95284876869E+02 0.  0.
         11    1    3    3    0    0  0.42774617986E+01  0.50870409099E+02  0.29226716096E+02  0.58824281852E+02  0.51100000000E-03 0. -1.
         22    1    1    0    0    0  0.13211360326E+02 -0.19878841695E+02 -0.10935254391E+02  0.26254298265E+02  0.00000000000E+00 0. -1.
</event>
<event>
 5    1  0.1059945E-009  0.9118800E+02  0.7815553E-02  0.1125453E+00
         25   -1    0    0    0    0  0.00000000000E+00  0.00000000000E+00  0.99999998245E-14  0.12509000000E+03  0.12509000000E+03 0.  0.
        -11    1    3    3    0    0  0.24925483662E+02 -0.65776673221E+01 -0.34057558084E+02  0.42713729714E+02  0.51100000000E-03 0.  1.
         23    2    1    0    0    0  0.82958031141E+01  0.23282525441E+02  0.99596520222E+01  0.98442467119E+02  0.94767232332E+02 0.  0.
         11    1    3    3    0    0 -0.16629680548E+02  0.29860192763E+02  0.44017210106E+02  0.55728737405E+02  0.51100000000E-03 0. -1.
         22    1    1    0    0    0 -0.82958031141E+01 -0.23282525441E+02 -0.99596520222E+01  0.26647532881E+02  0.00000000000E+00 0. -1.
</event>
<event>
 5    1  0.1059945E-009  0.9118800E+02  0.7815553E-02  0.1125453E+00
         25   -1    0    0    0    0  0.00000000000E+00  0.00000000000E+00  0.99999998245E-14  0.12509000000E+03  0.12509000000E+03 0.  0.
        -11    1    3    3    0    0  0.27717221212E+01  0.16431710332E+02  0.31050831292E+02  0.35239717254E+02  0.51100000000E-03 0.  1.
         23    2    1    0    0    0 -0.20345772379E+01  0.41008907063E+01 -0.28490457508E+02  0.96234099769E+02  0.91805985536E+02 0.  0.
         11    1    3    3    0    0 -0.48062993591E+01 -0.12330819625E+02 -0.59541288800E+02  0.60994382515E+02  0.51100000000E-03 0. -1.
         22    1    1    0    0    0  0.20345772379E+01 -0.41008907063E+01  0.28490457508E+02  0.28855900231E+02  0.00000000000E+00 0. -1.
</event>
<event>
 5    1  0.1059945E-009  0.9118800E+02  0.7815553E-02  0.1125453E+00
         25   -1    0    0    0    0  0.00000000000E+00  0.00000000000E+00  0.99999998245E-14  0.12509000000E+03  0.12509000000E+03 0.  0.
        -11    1    3    3    0    0  0.47995712444E+02  0.15588839221E+02 -0.19772208741E+02  0.54199082650E+02  0.51100000000E-03 0. -1.
         23    2    1    0    0    0  0.63819814987E+01  0.17313968662E+02 -0.22563336572E+02  0.95941975094E+02  0.91407085224E+02 0.  0.
         11    1    3    3    0    0 -0.41613730946E+02  0.17251294404E+01 -0.27911278310E+01  0.41742892445E+02  0.51100000000E-03 0.  1.
         22    1    1    0    0    0 -0.63819814987E+01 -0.17313968662E+02  0.22563336572E+02  0.29148024906E+02  0.00000000000E+00 0. -1.
</event>
<event>
 5    1  0.1059945E-009  0.9118800E+02  0.7815553E-02  0.1125453E+00
         25   -1    0    0    0    0  0.00000000000E+00  0.00000000000E+00  0.99999998245E-14  0.12509000000E+03  0.12509000000E+03 0.  0.
        -11    1    3    3    0    0 -0.28373009199E+02  0.66565837819E+01  0.39697823046E+02  0.49246877195E+02  0.51100000000E-03 0.  1.
         23    2    1    0    0    0 -0.14653459096E+02  0.22972878963E+02 -0.36938349087E+01  0.97592337415E+02  0.93638362194E+02 0.  0.
         11    1    3    3    0    0  0.13719550103E+02  0.16316295181E+02 -0.43391657955E+02  0.48345460219E+02  0.51100000000E-03 0. -1.
         22    1    1    0    0    0  0.14653459096E+02 -0.22972878963E+02  0.36938349087E+01  0.27497662585E+02  0.00000000000E+00 0. -1.
</event>
<event>
 5    1  0.1059945E-009  0.9118800E+02  0.7815553E-02  0.1125453E+00
         25   -1    0    0    0    0  0.00000000000E+00  0.00000000000E+00  0.99999998245E-14  0.12509000000E+03  0.12509000000E+03 0.  0.
        -11    1    3    3    0    0  0.11233886269E+02 -0.24307101412E+02 -0.56045644605E+02  0.62114005338E+02  0.51100000000E-03 0.  1.
         23    2    1    0    0    0  0.98185885411E+01 -0.89916597453E+01 -0.27344102210E+02  0.94676934525E+02  0.89659173426E+02 0.  0.
         11    1    3    3    0    0 -0.14152977277E+01  0.15315441667E+02  0.28701542395E+02  0.32562929187E+02  0.51100000000E-03 0. -1.
         22    1    1    0    0    0 -0.98185885411E+01  0.89916597453E+01  0.27344102210E+02  0.30413065475E+02  0.00000000000E+00 0.  1.
</event>
<event>
 5    1  0.1059945E-009  0.9118800E+02  0.7815553E-02  0.1125453E+00
         25   -1    0    0    0    0  0.00000000000E+00  0.00000000000E+00  0.99999998245E-14  0.12509000000E+03  0.12509000000E+03 0.  0.
        -11    1    3    3    0    0  0.22504835174E+02  0.41392844728E+02  0.32382225502E+02  0.57170304613E+02  0.51100000000E-03 0.  1.
         23    2    1    0    0    0 -0.80720974208E+01  0.21169562387E+02  0.16172108345E+02  0.97253940352E+02  0.93185206429E+02 0.  0.
         11    1    3    3    0    0 -0.30576932594E+02 -0.20223282341E+02 -0.16210117157E+02  0.40083635739E+02  0.51100000000E-03 0. -1.
         22    1    1    0    0    0  0.80720974208E+01 -0.21169562387E+02 -0.16172108345E+02  0.27836059648E+02  0.00000000000E+00 0.  1.
</event>
<event>
 5    1  0.1059945E-009  0.9118800E+02  0.7815553E-02  0.1125453E+00
         25   -1    0    0    0    0  0.00000000000E+00  0.00000000000E+00  0.99999998245E-14  0.12509000000E+03  0.12509000000E+03 0.  0.
        -11    1    3    3    0    0 -0.50656412355E+02  0.15627569149E+01 -0.31125182645E+02  0.59475131920E+02  0.51100000000E-03 0.  1.
         23    2    1    0    0    0 -0.25205269521E+02 -0.11068553292E+02 -0.71599042516E+01  0.96645620722E+02  0.92365000365E+02 0.  0.
         11    1    3    3    0    0  0.25451142834E+02 -0.12631310207E+02  0.23965278394E+02  0.37170488803E+02  0.51100000000E-03 0. -1.
         22    1    1    0    0    0  0.25205269521E+02  0.11068553292E+02  0.71599042516E+01  0.28444379278E+02  0.00000000000E+00 0.  1.
</event>
<event>
 5    1  0.1059945E-009  0.9118800E+02  0.7815553E-02  0.1125453E+00
         25   -1    0    0    0    0  0.00000000000E+00  0.00000000000E+00  0.99999998245E-14  0.12509000000E+03  0.12509000000E+03 0.  0.
        -11    1    3    3    0    0  0.12869999494E+02 -0.33534686864E+02 -0.26358799599E+02  0.44553321162E+02  0.51100000000E-03 0. -1.
         23    2    1    0    0    0  0.26749012085E+02  0.78470895870E+01  0.28442560527E+01  0.97069003319E+02  0.92936618995E+02 0.  0.
         11    1    3    3    0    0  0.13879012591E+02  0.41381776451E+02  0.29203055651E+02  0.52515682157E+02  0.51100000000E-03 0.  1.
         22    1    1    0    0    0 -0.26749012085E+02 -0.78470895870E+01 -0.28442560527E+01  0.28020996681E+02  0.00000000000E+00 0. -1.
</event>
<event>
 5    1  0.1059945E-009  0.9118800E+02  0.7815553E-02  0.1125453E+00
         25   -1    0    0    0    0  0.00000000000E+00  0.00000000000E+00  0.99999998245E-14  0.12509000000E+03  0.12509000000E+03 0.  0.
        -11    1    3    3    0    0  0.33023700872E+02  0.42562790405E+01 -0.13438599262E+02  0.35906499147E+02  0.51100000000E-03 0.  1.
         23    2    1    0    0    0 -0.12802880689E+02 -0.15592001139E+02  0.20531508746E+02  0.96305158419E+02  0.91902755309E+02 0.  0.
         11    1    3    3    0    0 -0.45826581561E+02 -0.19848280179E+02  0.33970108008E+02  0.60398659273E+02  0.51100000000E-03 0. -1.
         22    1    1    0    0    0  0.12802880689E+02  0.15592001139E+02 -0.20531508746E+02  0.28784841581E+02  0.00000000000E+00 0. -1.
</event>
<event>
 5    1  0.1059945E-009  0.9118800E+02  0.7815553E-02  0.1125453E+00
         25   -1    0    0    0    0  0.00000000000E+00  0.00000000000E+00  0.99999998245E-14  0.12509000000E+03  0.12509000000E+03 0.  0.
        -11    1    3    3    0    0  0.46251440323E+00  0.14531794483E+02 -0.38054358720E+02  0.40737221166E+02  0.51100000000E-03 0.  1.
         23    2    1    0    0    0  0.22328713337E+02 -0.18843231493E+02 -0.28110897293E-02  0.95872901919E+02  0.91312510107E+02 0.  0.
         11    1    3    3    0    0  0.21866198933E+02 -0.33375025977E+02  0.38051547630E+02  0.55135680753E+02  0.51100000000E-03 0. -1.
         22    1    1    0    0    0 -0.22328713337E+02  0.18843231493E+02  0.28110897293E-02  0.29217098081E+02  0.00000000000E+00 0. -1.
</event>
<event>
 5    1  0.1059945E-009  0.9118800E+02  0.7815553E-02  0.1125453E+00
         25   -1    0    0    0    0  0.00000000000E+00  0.00000000000E+00  0.99999998245E-14  0.12509000000E+03  0.12509000000E+03 0.  0.
        -11    1    3    3    0    0 -0.10731858848E+02 -0.51365518008E+02  0.28048350167E+01  0.52549560743E+02  0.51100000000E-03 0.  1.
         23    2    1    0    0    0 -0.14688781416E+02 -0.19271275466E+02 -0.21256752679E+02  0.92856602847E+02  0.87082471257E+02 0.  0.
         11    1    3    3    0    0 -0.39569225679E+01  0.32094242541E+02 -0.24061587695E+02  0.40307042104E+02  0.51100000000E-03 0. -1.
         22    1    1    0    0    0  0.14688781416E+02  0.19271275466E+02  0.21256752679E+02  0.32233397153E+02  0.00000000000E+00 0.  1.
</event>
<event>
 5    1  0.1059945E-009  0.9118800E+02  0.7815553E-02  0.1125453E+00
         25   -1    0    0    0    0  0.00000000000E+00  0.00000000000E+00  0.99999998245E-14  0.12509000000E+03  0.12509000000E+03 0.  0.
        -11    1    3    3    0    0  0.84960436233E+01  0.49865234716E+02 -0.67560989612E+01  0.51033021310E+02  0.51100000000E-03 0.  1.
         23    2    1    0    0    0 -0.14927795876E+02  0.15578859591E+02 -0.21048097620E+02  0.94947631658E+02  0.90036050492E+02 0.  0.
         11    1    3    3    0    0 -0.23423839499E+02 -0.34286375125E+02 -0.14291998659E+02  0.43914610348E+02  0.51100000000E-03 0. -1.
         22    1    1    0    0    0  0.14927795876E+02 -0.15578859591E+02  0.21048097620E+02  0.30142368342E+02  0.00000000000E+00 0. -1.
</event>
<event>
 5    1  0.1059945E-009  0.9118800E+02  0.7815553E-02  0.1125453E+00
         25   -1    0    0    0    0  0.00000000000E+00  0.00000000000E+00  0.99999998245E-14  0.12509000000E+03  0.12509000000E+03 0.  0.
        -11    1    3    3    0    0  0.13810121183E+02  0.33213538687E+00  0.53765584825E+02  0.55511871459E+02  0.51100000000E-03 0.  1.
         23    2    1    0    0    0  0.23261899256E+02 -0.82307212189E+01  0.15253388575E+02  0.96080922252E+02  0.91597036136E+02 0.  0.
         11    1    3    3    0    0  0.94517780731E+01 -0.85628566057E+01 -0.38512196250E+02  0.40569050793E+02  0.51100000000E-03 0. -1.
         22    1    1    0    0    0 -0.23261899256E+02  0.82307212189E+01 -0.15253388575E+02  0.29009077748E+02  0.00000000000E+00 0.  1.
</event>
<event>
 5    1  0.1059945E-009  0.9118800E+02  0.7815553E-02  0.1125453E+00
         25   -1    0    0    0    0  0.00000000000E+00  0.00000000000E+00  0.99999998245E-14  0.12509000000E+03  0.12509000000E+03 0.  0.
        -11    1    3    3    0    0 -0.26587180865E+02  0.29171163568E+02  0.46715458319E+02  0.61156921247E+02  0.51100000000E-03 0.  1.
         23    2    1    0    0    0 -0.20629547873E+02  0.14490212982E+02  0.17469650418E+02  0.94418625668E+02  0.89298060839E+02 0.  0.
         11    1    3    3    0    0  0.59576329916E+01 -0.14680950586E+02 -0.29245807900E+02  0.33261704421E+02  0.51100000000E-03 0. -1.
         22    1    1    0    0    0  0.20629547873E+02 -0.14490212982E+02 -0.17469650418E+02  0.30671374332E+02  0.00000000000E+00 0.  1.
</event>
<event>
 5    1  0.1059945E-009  0.9118800E+02  0.7815553E-02  0.1125453E+00
         25   -1    0    0    0    0  0.00000000000E+00  0.00000000000E+00  0.99999998245E-14  0.12509000000E+03  0.12509000000E+03 0.  0.
        -11    1    3    3    0    0 -0.30123321194E+02 -0.10245352081E+02  0.10917198529E+02  0.33638771425E+02  0.51100000000E-03 0.  1.
         23    2    1    0    0    0  0.19967901958E+02  0.10873005803E+02 -0.18796065201E+02  0.95590314733E+02  0.90924566757E+02 0.  0.
         11    1    3    3    0    0  0.50091223152E+02  0.21118357883E+02 -0.29713263730E+02  0.61951543308E+02  0.51100000000E-03 0. -1.
         22    1    1    0    0    0 -0.19967901958E+02 -0.10873005803E+02  0.18796065201E+02  0.29499685267E+02  0.00000000000E+00 0. -1.
</event>
<event>
 5    1  0.1059945E-009  0.9118800E+02  0.7815553E-02  0.1125453E+00
         25   -1    0    0    0    0  0.00000000000E+00  0.00000000000E+00  0.99999998245E-14  0.12509000000E+03  0.12509000000E+03 0.  0.
        -11    1    3    3    0    0 -0.46038077077E+02  0.26836199508E+02 -0.32474534037E+02  0.62404178596E+02  0.51100000000E-03 0. -1.
         23    2    1    0    0    0 -0.17606146528E+02  0.79927503908E+01 -0.14198859431E+02  0.10110108457E+03  0.98213854611E+02 0.  0.
         11    1    3    3    0    0  0.28431930549E+02 -0.18843449118E+02  0.18275674606E+02  0.38696905974E+02  0.51100000000E-03 0.  1.
         22    1    1    0    0    0  0.17606146528E+02 -0.79927503908E+01  0.14198859431E+02  0.23988915431E+02  0.00000000000E+00 0. -1.
</event>
<event>
 5    1  0.1059945E-009  0.9118800E+02  0.7815553E-02  0.1125453E+00
         25   -1    0    0    0    0  0.00000000000E+00  0.00000000000E+00  0.99999998245E-14  0.12509000000E+03  0.12509000000E+03 0.  0.
        -11    1    3    3    0    0 -0.16605431369E+01  0.37943229897E+02 -0.21693485901E+02  0.43738466243E+02  0.51100000000E-03 0.  1.
         23    2    1    0    0    0 -0.10031566311E+02 -0.14419361422E+02 -0.22216100230E+02  0.96768534362E+02  0.92531312682E+02 0.  0.
         11    1    3    3    0    0 -0.83710231742E+01 -0.52362591319E+02 -0.52261432897E+00  0.53030068118E+02  0.51100000000E-03 0. -1.
         22    1    1    0    0    0  0.10031566311E+02  0.14419361422E+02  0.22216100230E+02  0.28321465638E+02  0.00000000000E+00 0. -1.
</event>
<event>
 5    1  0.1059945E-009  0.9118800E+02  0.7815553E-02  0.1125453E+00
         25   -1    0    0    0    0  0.00000000000E+00  0.00000000000E+00  0.99999998245E-14  0.12509000000E+03  0.12509000000E+03 0.  0.
        -11    1    3    3    0    0  0.10231931503E+01  0.23079453148E+02 -0.74249019908E+01  0.24265969004E+02  0.51100000000E-03 0. -1.
         23    2    1    0    0    0  0.33843839879E+02 -0.18750446571E+02  0.17063767759E+02  0.82803395566E+02  0.71191610481E+02 0.  0.
         11    1    3    3    0    0  0.32820646729E+02 -0.41829899719E+02  0.24488669750E+02  0.58537426563E+02  0.51100000000E-03 0.  1.
         22    1    1    0    0    0 -0.33843839879E+02  0.18750446571E+02 -0.17063767759E+02  0.42286604434E+02  0.00000000000E+00 0.  1.
</event>
<event>
 5    1  0.1059945E-009  0.9118800E+02  0.7815553E-02  0.1125453E+00
         25   -1    0    0    0    0  0.00000000000E+00  0.00000000000E+00  0.99999998245E-14  0.12509000000E+03  0.12509000000E+03 0.  0.
        -11    1    3    3    0    0 -0.25860894470E+02 -0.14410712012E+02 -0.25872648634E+02  0.39317279039E+02  0.51100000000E-03 0.  1.
         23    2    1    0    0    0 -0.58763763976E+01  0.28703377149E+02  0.41077191267E+01  0.95504716230E+02  0.90806727760E+02 0.  0.
         11    1    3    3    0    0  0.19984518072E+02  0.43114089161E+02  0.29980367760E+02  0.56187437191E+02  0.51100000000E-03 0. -1.
         22    1    1    0    0    0  0.58763763976E+01 -0.28703377149E+02 -0.41077191267E+01  0.29585283770E+02  0.00000000000E+00 0. -1.
</event>
<event>
 5    1  0.1059945E-009  0.9118800E+02  0.7815553E-02  0.1125453E+00
         25   -1    0    0    0    0  0.00000000000E+00  0.00000000000E+00  0.99999998245E-14  0.12509000000E+03  0.12509000000E+03 0.  0.
        -11    1    3    3    0    0 -0.16944560686E+02  0.32265570910E+02  0.37189997070E+02  0.52069963370E+02  0.51100000000E-03 0.  1.
         23    2    1    0    0    0  0.17935538552E+02  0.15064008748E+02  0.18626103363E+02  0.95164431849E+02  0.90336755864E+02 0.  0.
         11    1    3    3    0    0  0.34880099238E+02 -0.17201562162E+02 -0.18563893708E+02  0.43094468479E+02  0.51100000000E-03 0. -1.
         22    1    1    0    0    0 -0.17935538552E+02 -0.15064008748E+02 -0.18626103363E+02  0.29925568151E+02  0.00000000000E+00 0.  1.
</event>
<event>
 5    1  0.1059945E-009  0.9118800E+02  0.7815553E-02  0.1125453E+00
         25   -1    0    0    0    0  0.00000000000E+00  0.00000000000E+00  0.99999998245E-14  0.12509000000E+03  0.12509000000E+03 0.  0.
        -11    1    3    3    0    0 -0.23316773147E+02 -0.19473861014E+02 -0.17316832845E+02  0.34968212319E+02  0.51100000000E-03 0. -1.
         23    2    1    0    0    0  0.25925906968E+02  0.12964425512E+02 -0.12881966140E+01  0.96074686259E+02  0.91588519522E+02 0.  0.
         11    1    3    3    0    0  0.49242680115E+02  0.32438286526E+02  0.16028636231E+02  0.61106473940E+02  0.51100000000E-03 0.  1.
         22    1    1    0    0    0 -0.25925906968E+02 -0.12964425512E+02  0.12881966140E+01  0.29015313741E+02  0.00000000000E+00 0.  1.
</event>
<event>
 5    1  0.1059945E-009  0.9118800E+02  0.7815553E-02  0.1125453E+00
         25   -1    0    0    0    0  0.00000000000E+00  0.00000000000E+00  0.99999998245E-14  0.12509000000E+03  0.12509000000E+03 0.  0.
        -11    1    3    3    0    0  0.36236230374E+02 -0.16794677640E+02 -0.41423474598E+02  0.57541548787E+02  0.51100000000E-03 0.  1.
         23    2    1    0    0    0  0.23737295068E+02 -0.12690239376E+02 -0.31779107893E+01  0.97986486030E+02  0.94163426950E+02 0.  0.
         11    1    3    3    0    0 -0.12498935307E+02  0.41044382639E+01  0.38245563809E+02  0.40444937243E+02  0.51100000000E-03 0. -1.
         22    1    1    0    0    0 -0.23737295068E+02  0.12690239376E+02  0.31779107893E+01  0.27103513970E+02  0.00000000000E+00 0.  1.
</event>
<event>
 5    1  0.1059945E-009  0.9118800E+02  0.7815553E-02  0.1125453E+00
         25   -1    0    0    0    0  0.00000000000E+00  0.00000000000E+00  0.99999998245E-14  0.12509000000E+03  0.12509000000E+03 0.  0.
        -11    1    3    3    0    0 -0.19973674911E+02 -0.12763546487E+02  0.24573261537E+02  0.34142363585E+02  0.51100000000E-03 0. -1.
         23    2    1    0    0    0  0.28220181033E+01  0.75777183722E+01 -0.28545927195E+02  0.95420898879E+02  0.90691192415E+02 0.  0.
         11    1    3    3    0    0  0.22795693014E+02  0.20341264859E+02 -0.53119188731E+02  0.61278535294E+02  0.51100000000E-03 0.  1.
         22    1    1    0    0    0 -0.28220181033E+01 -0.75777183722E+01  0.28545927195E+02  0.29669101121E+02  0.00000000000E+00 0.  1.
</event>
<event>
 5    1  0.1059945E-009  0.9118800E+02  0.7815553E-02  0.1125453E+00
         25   -1    0    0    0    0  0.00000000000E+00  0.00000000000E+00  0.99999998245E-14  0.12509000000E+03  0.12509000000E+03 0.  0.
        -11    1    3    3    0    0 -0.32747329442E+02  0.23921339765E+02  0.48640995374E+01  0.40844553447E+02  0.51100000000E-03 0.  1.
         23    2    1    0    0    0  0.10454937829E+02 -0.18621506875E+02 -0.69785104926E+01  0.10262300527E+03  0.10013348770E+03 0.  0.
         11    1    3    3    0    0  0.43202267270E+02 -0.42542846641E+02 -0.11842610030E+02  0.61778451827E+02  0.51100000000E-03 0. -1.
         22    1    1    0    0    0 -0.10454937829E+02  0.18621506875E+02  0.69785104926E+01  0.22466994726E+02  0.00000000000E+00 0. -1.
</event>
<event>
 5    1  0.1059945E-009  0.9118800E+02  0.7815553E-02  0.1125453E+00
         25   -1    0    0    0    0  0.00000000000E+00  0.00000000000E+00  0.99999998245E-14  0.12509000000E+03  0.12509000000E+03 0.  0.
        -11    1    3    3    0    0  0.23390558171E+02 -0.78492513758E+01  0.27873277696E+02  0.37224300779E+02  0.51100000000E-03 0. -1.
         23    2    1    0    0    0  0.89115258269E+01  0.86123722561E+00 -0.28050655835E+02  0.95645198847E+02  0.91000042569E+02 0.  0.
         11    1    3    3    0    0 -0.14479032344E+02  0.87104886014E+01 -0.55923933531E+02  0.58420898069E+02  0.51100000000E-03 0.  1.
         22    1    1    0    0    0 -0.89115258269E+01 -0.86123722561E+00  0.28050655835E+02  0.29444801153E+02  0.00000000000E+00 0.  1.
</event>
<event>
 5    1  0.1059945E-009  0.9118800E+02  0.7815553E-02  0.1125453E+00
         25   -1    0    0    0    0  0.00000000000E+00  0.00000000000E+00  0.99999998245E-14  0.12509000000E+03  0.12509000000E+03 0.  0.
        -11    1    3    3    0    0 -0.44495603876E+02 -0.23493776334E-01 -0.68774855724E+01  0.45023983879E+02  0.51100000000E-03 0. -1.
         23    2    1    0    0    0  0.51908397745E+01 -0.23008795380E+02 -0.90846151938E+01  0.99813929981E+02  0.96560555625E+02 0.  0.
         11    1    3    3    0    0  0.49686443651E+02 -0.22985301603E+02 -0.22071296214E+01  0.54789946102E+02  0.51100000000E-03 0.  1.
         22    1    1    0    0    0 -0.51908397745E+01  0.23008795380E+02  0.90846151938E+01  0.25276070019E+02  0.00000000000E+00 0.  1.
</event>
<event>
 5    1  0.1059945E-009  0.9118800E+02  0.7815553E-02  0.1125453E+00
         25   -1    0    0    0    0  0.00000000000E+00  0.00000000000E+00  0.99999998245E-14  0.12509000000E+03  0.12509000000E+03 0.  0.
        -11    1    3    3    0    0  0.28871231639E+02 -0.17269173195E+02  0.40100379535E+02  0.52343221130E+02  0.51100000000E-03 0.  1.
         23    2    1    0    0    0  0.28664084903E+01 -0.29621451868E+02  0.10771561253E+02  0.93440778205E+02  0.87917607970E+02 0.  0.
         11    1    3    3    0    0 -0.26004823149E+02 -0.12352278674E+02 -0.29328818281E+02  0.41097557074E+02  0.51100000000E-03 0. -1.
         22    1    1    0    0    0 -0.28664084903E+01  0.29621451868E+02 -0.10771561253E+02  0.31649221795E+02  0.00000000000E+00 0. -1.
</event>
<event>
 5    1  0.1059945E-009  0.9118800E+02  0.7815553E-02  0.1125453E+00
         25   -1    0    0    0    0  0.00000000000E+00  0.00000000000E+00  0.99999998245E-14  0.12509000000E+03  0.12509000000E+03 0.  0.
        -11    1    3    3    0    0  0.50484880852E+02 -0.83718592912E+01  0.10024285758E+02  0.52146884162E+02  0.51100000000E-03 0. -1.
         23    2    1    0    0    0  0.11892629092E+02 -0.95413555792E+01  0.26809886535E+02  0.94247786898E+02  0.89058425913E+02 0.  0.
         11    1    3    3    0    0 -0.38592251760E+02 -0.11694962879E+01  0.16785600777E+02  0.42100902736E+02  0.51100000000E-03 0.  1.
         22    1    1    0    0    0 -0.11892629092E+02  0.95413555792E+01 -0.26809886535E+02  0.30842213102E+02  0.00000000000E+00 0.  1.
</event>
<event>
 5    1  0.1059945E-009  0.9118800E+02  0.7815553E-02  0.1125453E+00
         25   -1    0    0    0    0  0.00000000000E+00  0.00000000000E+00  0.99999998245E-14  0.12509000000E+03  0.12509000000E+03 0.  0.
        -11    1    3    3    0    0  0.32757428877E+02  0.35898802592E+02  0.14658282035E+02  0.50760598959E+02  0.51100000000E-03 0.  1.
         23    2    1    0    0    0 -0.16983946747E+01  0.96527890959E+01  0.27465718313E+02  0.95927925926E+02  0.91387857007E+02 0.  0.
         11    1    3    3    0    0 -0.34455823552E+02 -0.26246013496E+02  0.12807436279E+02  0.45167326967E+02  0.51100000000E-03 0. -1.
         22    1    1    0    0    0  0.16983946747E+01 -0.96527890959E+01 -0.27465718313E+02  0.29162074074E+02  0.00000000000E+00 0.  1.
</event>
<event>
 5    1  0.1059945E-009  0.9118800E+02  0.7815553E-02  0.1125453E+00
         25   -1    0    0    0    0  0.00000000000E+00  0.00000000000E+00  0.99999998245E-14  0.12509000000E+03  0.12509000000E+03 0.  0.
        -11    1    3    3    0    0 -0.29862926293E+02  0.32172377637E+02  0.15461039385E+02  0.46539230642E+02  0.51100000000E-03 0. -1.
         23    2    1    0    0    0 -0.24338552384E+02 -0.88167166032E+01 -0.12379163873E+02  0.96396040322E+02  0.92026372675E+02 0.  0.
         11    1    3    3    0    0  0.55243739084E+01 -0.40989094241E+02 -0.27840203258E+02  0.49856809680E+02  0.51100000000E-03 0.  1.
         22    1    1    0    0    0  0.24338552384E+02  0.88167166032E+01  0.12379163873E+02  0.28693959678E+02  0.00000000000E+00 0.  1.
</event>
<event>
 5    1  0.1059945E-009  0.9118800E+02  0.7815553E-02  0.1125453E+00
         25   -1    0    0    0    0  0.00000000000E+00  0.00000000000E+00  0.99999998245E-14  0.12509000000E+03  0.12509000000E+03 0.  0.
        -11    1    3    3    0    0 -0.37692391617E+02  0.14564505583E+02 -0.17025431895E+02  0.43848677747E+02  0.51100000000E-03 0. -1.
         23    2    1    0    0    0 -0.83427901729E+00 -0.23196640537E+02 -0.16486765612E+02  0.96619074584E+02  0.92329041907E+02 0.  0.
         11    1    3    3    0    0  0.36858112599E+02 -0.37761146121E+02  0.53866628345E+00  0.52770396837E+02  0.51100000000E-03 0.  1.
         22    1    1    0    0    0  0.83427901729E+00  0.23196640537E+02  0.16486765612E+02  0.28470925416E+02  0.00000000000E+00 0.  1.
</event>
<event>
 5    1  0.1059945E-009  0.9118800E+02  0.7815553E-02  0.1125453E+00
         25   -1    0    0    0    0  0.00000000000E+00  0.00000000000E+00  0.99999998245E-14  0.12509000000E+03  0.12509000000E+03 0.  0.
        -11    1    3    3    0    0 -0.37877698673E+02 -0.11086766559E+02  0.33056609631E+01  0.39605098715E+02  0.51100000000E-03 0.  1.
         23    2    1    0    0    0  0.16642598780E+02 -0.21118864979E+02  0.11869668883E+02  0.95698307440E+02  0.91073017163E+02 0.  0.
         11    1    3    3    0    0  0.54520297454E+02 -0.10032098420E+02  0.85640079204E+01  0.56093208725E+02  0.51100000000E-03 0. -1.
         22    1    1    0    0    0 -0.16642598780E+02  0.21118864979E+02 -0.11869668883E+02  0.29391692560E+02  0.00000000000E+00 0. -1.
</event>
<event>
 5    1  0.1059945E-009  0.9118800E+02  0.7815553E-02  0.1125453E+00
         25   -1    0    0    0    0  0.00000000000E+00  0.00000000000E+00  0.99999998245E-14  0.12509000000E+03  0.12509000000E+03 0.  0.
        -11    1    3    3    0    0 -0.38604453242E+02 -0.35035128427E+02  0.34413259790E+02  0.62466282774E+02  0.51100000000E-03 0.  1.
         23    2    1    0    0    0 -0.16296117759E+02 -0.17488642717E+02  0.16865326949E+02  0.95834994767E+02  0.91260565913E+02 0.  0.
         11    1    3    3    0    0  0.22308335483E+02  0.17546485710E+02 -0.17547932841E+02  0.33368711992E+02  0.51100000000E-03 0. -1.
         22    1    1    0    0    0  0.16296117759E+02  0.17488642717E+02 -0.16865326949E+02  0.29255005233E+02  0.00000000000E+00 0.  1.
</event>
<event>
 5    1  0.1059945E-009  0.9118800E+02  0.7815553E-02  0.1125453E+00
         25   -1    0    0    0    0  0.00000000000E+00  0.00000000000E+00  0.99999998245E-14  0.12509000000E+03  0.12509000000E+03 0.  0.
        -11    1    3    3    0    0 -0.16290848816E+02 -0.28694865787E+02 -0.46340527548E+02  0.56887885980E+02  0.51100000000E-03 0.  1.
         23    2    1    0    0    0 -0.17205623555E+02  0.28042242398E+01 -0.23604359045E+02  0.95746126339E+02  0.91138673391E+02 0.  0.
         11    1    3    3    0    0 -0.91477473919E+00  0.31499090027E+02  0.22736168503E+02  0.38858240359E+02  0.51100000000E-03 0. -1.
         22    1    1    0    0    0  0.17205623555E+02 -0.28042242398E+01  0.23604359045E+02  0.29343873661E+02  0.00000000000E+00 0.  1.
</event>
<event>
 5    1  0.1059945E-009  0.9118800E+02  0.7815553E-02  0.1125453E+00
         25   -1    0    0    0    0  0.00000000000E+00  0.00000000000E+00  0.99999998245E-14  0.12509000000E+03  0.12509000000E+03 0.  0.
        -11    1    3    3    0    0  0.36461651293E+01 -0.21636326124E+02  0.39433818065E+02  0.45127055474E+02  0.51100000000E-03 0.  1.
         23    2    1    0    0    0 -0.25002264129E+02  0.96790330431E+01  0.11631063925E+02  0.95865377842E+02  0.91302202211E+02 0.  0.
         11    1    3    3    0    0 -0.28648429259E+02  0.31315359167E+02 -0.27802754140E+02  0.50738322368E+02  0.51100000000E-03 0. -1.
         22    1    1    0    0    0  0.25002264129E+02 -0.96790330431E+01 -0.11631063925E+02  0.29224622158E+02  0.00000000000E+00 0.  1.
</event>
<event>
 5    1  0.1059945E-009  0.9118800E+02  0.7815553E-02  0.1125453E+00
         25   -1    0    0    0    0  0.00000000000E+00  0.00000000000E+00  0.99999998245E-14  0.12509000000E+03  0.12509000000E+03 0.  0.
        -11    1    3    3    0    0  0.76829649349E+01  0.14226851904E+02  0.34426797914E+02  0.38034664192E+02  0.51100000000E-03 0. -1.
         23    2    1    0    0    0 -0.27912347742E+02  0.12157340144E+02 -0.81536140644E+01  0.93572044829E+02  0.88104177400E+02 0.  0.
         11    1    3    3    0    0 -0.35595312677E+02 -0.20695117600E+01 -0.42580411979E+02  0.55537380637E+02  0.51100000000E-03 0.  1.
         22    1    1    0    0    0  0.27912347742E+02 -0.12157340144E+02  0.81536140644E+01  0.31517955171E+02  0.00000000000E+00 0.  1.
</event>
<event>
 5    1  0.1059945E-009  0.9118800E+02  0.7815553E-02  0.1125453E+00
         25   -1    0    0    0    0  0.00000000000E+00  0.00000000000E+00  0.99999998245E-14  0.12509000000E+03  0.12509000000E+03 0.  0.
        -11    1    3    3    0    0 -0.34406724168E+02  0.40186888237E+00 -0.66821071375E+01  0.35051886149E+02  0.51100000000E-03 0.  1.
         23    2    1    0    0    0  0.19748924122E+02 -0.20801442151E+02 -0.13087699263E+02  0.93562109625E+02  0.88090070302E+02 0.  0.
         11    1    3    3    0    0  0.54155648290E+02 -0.21203311033E+02 -0.64055921252E+01  0.58510223476E+02  0.51100000000E-03 0. -1.
         22    1    1    0    0    0 -0.19748924122E+02  0.20801442151E+02  0.13087699263E+02  0.31527890375E+02  0.00000000000E+00 0. -1.
</event>
<event>
 5    1  0.1059945E-009  0.9118800E+02  0.7815553E-02  0.1125453E+00
         25   -1    0    0    0    0  0.00000000000E+00  0.00000000000E+00  0.99999998245E-14  0.12509000000E+03  0.12509000000E+03 0.  0.
        -11    1    3    3    0    0  0.32779904768E+02 -0.15179144659E+02  0.18296975291E+02  0.40493306784E+02  0.51100000000E-03 0.  1.
         23    2    1    0    0    0 -0.13662141980E+00  0.28013588920E+02  0.95135256207E+01  0.95504750309E+02  0.90806774704E+02 0.  0.
         11    1    3    3    0    0 -0.32916526188E+02  0.43192733579E+02 -0.87834496704E+01  0.55011443525E+02  0.51100000000E-03 0. -1.
         22    1    1    0    0    0  0.13662141980E+00 -0.28013588920E+02 -0.95135256207E+01  0.29585249691E+02  0.00000000000E+00 0.  1.
</event>
<event>
 5    1  0.1059945E-009  0.9118800E+02  0.7815553E-02  0.1125453E+00
         25   -1    0    0    0    0  0.00000000000E+00  0.00000000000E+00  0.99999998245E-14  0.12509000000E+03  0.12509000000E+03 0.  0.
        -11    1    3    3    0    0 -0.54688943321E+02 -0.16671810738E+02  0.13961989556E+02  0.58853775983E+02  0.51100000000E-03 0. -1.
         23    2    1    0    0    0 -0.17844627312E+02 -0.14853187348E+02  0.17648034506E+02  0.95926649365E+02  0.91386109657E+02 0.  0.
         11    1    3    3    0    0  0.36844316009E+02  0.18186233892E+01  0.36860449503E+01  0.37072873383E+02  0.51100000000E-03 0.  1.
         22    1    1    0    0    0  0.17844627312E+02  0.14853187348E+02 -0.17648034506E+02  0.29163350635E+02  0.00000000000E+00 0. -1.
</event>
<event>
 5    1  0.1059945E-009  0.9118800E+02  0.7815553E-02  0.1125453E+00
         25   -1    0    0    0    0  0.00000000000E+00  0.00000000000E+00  0.99999998245E-14  0.12509000000E+03  0.12509000000E+03 0.  0.
        -11    1    3    3    0    0 -0.19310353557E+02  0.30739390844E+02 -0.13571393624E+02  0.38755420642E+02  0.51100000000E-03 0.  1.
         23    2    1    0    0    0  0.28647164474E+02  0.11677623835E+01 -0.77044396055E+01  0.95401920051E+02  0.90665011214E+02 0.  0.
         11    1    3    3    0    0  0.47957518032E+02 -0.29571628461E+02  0.58669540183E+01  0.56646499409E+02  0.51100000000E-03 0. -1.
         22    1    1    0    0    0 -0.28647164474E+02 -0.11677623835E+01  0.77044396055E+01  0.29688079949E+02  0.00000000000E+00 0. -1.
</event>
<event>
 5    1  0.1059945E-009  0.9118800E+02  0.7815553E-02  0.1125453E+00
         25   -1    0    0    0    0  0.00000000000E+00  0.00000000000E+00  0.99999998245E-14  0.12509000000E+03  0.12509000000E+03 0.  0.
        -11    1    3    3    0    0  0.52209599853E+01 -0.34466409920E+02  0.24585342680E+02  0.42657132005E+02  0.51100000000E-03 0.  1.
         23    2    1    0    0    0  0.29353031158E+02  0.64942326430E+01  0.29713268209E+01  0.94880659079E+02  0.89942955191E+02 0.  0.
         11    1    3    3    0    0  0.24132071173E+02  0.40960642563E+02 -0.21614015859E+02  0.52223527074E+02  0.51100000000E-03 0. -1.
         22    1    1    0    0    0 -0.29353031158E+02 -0.64942326430E+01 -0.29713268209E+01  0.30209340921E+02  0.00000000000E+00 0. -1.
</event>
<event>
 5    1  0.1059945E-009  0.9118800E+02  0.7815553E-02  0.1125453E+00
         25   -1    0    0    0    0  0.00000000000E+00  0.00000000000E+00  0.99999998245E-14  0.12509000000E+03  0.12509000000E+03 0.  0.
        -11    1    3    3    0    0  0.28991198776E+02  0.18663101896E+02  0.10744166232E+02  0.36114236627E+02  0.51100000000E-03 0. -1.
         23    2    1    0    0    0 -0.23117043897E+02 -0.11959078115E+02  0.11681645339E+02  0.96561451041E+02  0.92250938865E+02 0.  0.
         11    1    3    3    0    0 -0.52108242673E+02 -0.30622180011E+02  0.93747910716E+00  0.60447214414E+02  0.51100000000E-03 0.  1.
         22    1    1    0    0    0  0.23117043897E+02  0.11959078115E+02 -0.11681645339E+02  0.28528548959E+02  0.00000000000E+00 0.  1.
</event>
<event>
 5    1  0.1059945E-009  0.9118800E+02  0.7815553E-02  0.1125453E+00
         25   -1    0    0    0    0  0.00000000000E+00  0.00000000000E+00  0.99999998245E-14  0.12509000000E+03  0.12509000000E+03 0.  0.
        -11    1    3    3    0    0  0.15511248794E+02  0.49351970151E+02  0.22059582355E+02  0.56239140915E+02  0.51100000000E-03 0.  1.
         23    2    1    0    0    0 -0.63778857736E+00  0.36678781901E+02  0.29439638932E+02  0.78053501868E+02  0.62288979743E+02 0.  0.
         11    1    3    3    0    0 -0.16149037371E+02 -0.12673188250E+02  0.73800565771E+01  0.21814360953E+02  0.51100000000E-03 0. -1.
         22    1    1    0    0    0  0.63778857736E+00 -0.36678781901E+02 -0.29439638932E+02  0.47036498132E+02  0.00000000000E+00 0.  1.
</event>
<event>
 5    1  0.1059945E-009  0.9118800E+02  0.7815553E-02  0.1125453E+00
         25   -1    0    0    0    0  0.00000000000E+00  0.00000000000E+00  0.99999998245E-14  0.12509000000E+03  0.12509000000E+03 0.  0.
        -11    1    3    3    0    0 -0.35047917633E+00 -0.15136694391E+02  0.59084013291E+02  0.60993138791E+02  0.51100000000E-03 0. -1.
         23    2    1    0    0    0  0.84121672438E+01 -0.10374617232E+02  0.44251448109E+02  0.78866760172E+02  0.63901314226E+02 0.  0.
         11    1    3    3    0    0  0.87626464201E+01  0.47620771598E+01 -0.14832565182E+02  0.17873621381E+02  0.51100000000E-03 0.  1.
         22    1    1    0    0    0 -0.84121672438E+01  0.10374617232E+02 -0.44251448109E+02  0.46223239828E+02  0.00000000000E+00 0. -1.
</event>
<event>
 5    1  0.1059945E-009  0.9118800E+02  0.7815553E-02  0.1125453E+00
         25   -1    0    0    0    0  0.00000000000E+00  0.00000000000E+00  0.99999998245E-14  0.12509000000E+03  0.12509000000E+03 0.  0.
        -11    1    3    3    0    0 -0.88421611416E+01  0.36980749343E+02 -0.43616251660E+02  0.57863088794E+02  0.51100000000E-03 0. -1.
         23    2    1    0    0    0 -0.18287577721E+02  0.91143661871E+01 -0.25487411775E+02  0.92423268776E+02  0.86457765888E+02 0.  0.
         11    1    3    3    0    0 -0.94454165793E+01 -0.27866383156E+02  0.18128839885E+02  0.34560179982E+02  0.51100000000E-03 0.  1.
         22    1    1    0    0    0  0.18287577721E+02 -0.91143661871E+01  0.25487411775E+02  0.32666731224E+02  0.00000000000E+00 0. -1.
</event>
<event>
 5    1  0.1059945E-009  0.9118800E+02  0.7815553E-02  0.1125453E+00
         25   -1    0    0    0    0  0.00000000000E+00  0.00000000000E+00  0.99999998245E-14  0.12509000000E+03  0.12509000000E+03 0.  0.
        -11    1    3    3    0    0 -0.34374061851E+02  0.41124375721E+01  0.86651263595E+01  0.35687150152E+02  0.51100000000E-03 0. -1.
         23    2    1    0    0    0  0.23307874213E+02 -0.11519027011E+02  0.13774374131E+02  0.95667587347E+02  0.91030812929E+02 0.  0.
         11    1    3    3    0    0  0.57681936064E+02 -0.15631464583E+02  0.51092477716E+01  0.59980437195E+02  0.51100000000E-03 0.  1.
         22    1    1    0    0    0 -0.23307874213E+02  0.11519027011E+02 -0.13774374131E+02  0.29422412653E+02  0.00000000000E+00 0.  1.
</event>
<event>
 5    1  0.1059945E-009  0.9118800E+02  0.7815553E-02  0.1125453E+00
         25   -1    0    0    0    0  0.00000000000E+00  0.00000000000E+00  0.99999998245E-14  0.12509000000E+03  0.12509000000E+03 0.  0.
        -11    1    3    3    0    0  0.36900941139E+02 -0.10649150540E+02 -0.31365972690E+02  0.49587378507E+02  0.51100000000E-03 0.  1.
         23    2    1    0    0    0  0.10593017090E+01 -0.28030461077E+02 -0.18665265197E+02  0.91396959277E+02  0.84959891548E+02 0.  0.
         11    1    3    3    0    0 -0.35841639430E+02 -0.17381310537E+02  0.12700707493E+02  0.41809580769E+02  0.51100000000E-03 0. -1.
         22    1    1    0    0    0 -0.10593017090E+01  0.28030461077E+02  0.18665265197E+02  0.33693040723E+02  0.00000000000E+00 0.  1.
</event>
<event>
 5    1  0.1059945E-009  0.9118800E+02  0.7815553E-02  0.1125453E+00
         25   -1    0    0    0    0  0.00000000000E+00  0.00000000000E+00  0.99999998245E-14  0.12509000000E+03  0.12509000000E+03 0.  0.
        -11    1    3    3    0    0 -0.27590480571E+02  0.20129385969E+02  0.38000575982E+02  0.51092764388E+02  0.51100000000E-03 0.  1.
         23    2    1    0    0    0 -0.48508354489E+01  0.28669767593E+02  0.21560324275E+00  0.96011955651E+02  0.91502803044E+02 0.  0.
         11    1    3    3    0    0  0.22739645123E+02  0.85403816236E+01 -0.37784972739E+02  0.44919191263E+02  0.51100000000E-03 0. -1.
         22    1    1    0    0    0  0.48508354489E+01 -0.28669767593E+02 -0.21560324275E+00  0.29078044349E+02  0.00000000000E+00 0. -1.
</event>
<event>
 5    1  0.1059945E-009  0.9118800E+02  0.7815553E-02  0.1125453E+00
         25   -1    0    0    0    0  0.00000000000E+00  0.00000000000E+00  0.99999998245E-14  0.12509000000E+03  0.12509000000E+03 0.  0.
        -11    1    3    3    0    0 -0.32362006707E+02  0.61175677968E+01 -0.93426596308E+01  0.34234622871E+02  0.51100000000E-03 0. -1.
         23    2    1    0    0    0  0.21820149394E+02 -0.17802836121E+02  0.77547284629E+01  0.95880486018E+02  0.91322899056E+02 0.  0.
         11    1    3    3    0    0  0.54182156101E+02 -0.23920403918E+02  0.17097388094E+02  0.61645863148E+02  0.51100000000E-03 0.  1.
         22    1    1    0    0    0 -0.21820149394E+02  0.17802836121E+02 -0.77547284629E+01  0.29209513982E+02  0.00000000000E+00 0.  1.
</event>
<event>
 5    1  0.1059945E-009  0.9118800E+02  0.7815553E-02  0.1125453E+00
         25   -1    0    0    0    0  0.00000000000E+00  0.00000000000E+00  0.99999998245E-14  0.12509000000E+03  0.12509000000E+03 0.  0.
        -11    1    3    3    0    0  0.36912710461E+02 -0.10083587636E+02  0.31664391430E+02  0.49667500622E+02  0.51100000000E-03 0.  1.
         23    2    1    0    0    0  0.22727416103E+02  0.19787363975E+02  0.73354221018E+00  0.94946786834E+02  0.90034876744E+02 0.  0.
         11    1    3    3    0    0 -0.14185294358E+02  0.29870951610E+02 -0.30930849220E+02  0.45279286212E+02  0.51100000000E-03 0. -1.
         22    1    1    0    0    0 -0.22727416103E+02 -0.19787363975E+02 -0.73354221018E+00  0.30143213166E+02  0.00000000000E+00 0.  1.
</event>
<event>
 5    1  0.1059945E-009  0.9118800E+02  0.7815553E-02  0.1125453E+00
         25   -1    0    0    0    0  0.00000000000E+00  0.00000000000E+00  0.99999998245E-14  0.12509000000E+03  0.12509000000E+03 0.  0.
        -11    1    3    3    0    0 -0.30263310351E+02 -0.56259576360E+00 -0.42455599357E+02  0.52140793861E+02  0.51100000000E-03 0. -1.
         23    2    1    0    0    0 -0.66493997268E+00 -0.17293375804E+02 -0.33631538975E+02  0.87266946108E+02  0.78644367105E+02 0.  0.
         11    1    3    3    0    0  0.29598370378E+02 -0.16730780041E+02  0.88240603816E+01  0.35126152247E+02  0.51100000000E-03 0.  1.
         22    1    1    0    0    0  0.66493997268E+00  0.17293375804E+02  0.33631538975E+02  0.37823053892E+02  0.00000000000E+00 0. -1.
</event>
<event>
 5    1  0.1059945E-009  0.9118800E+02  0.7815553E-02  0.1125453E+00
         25   -1    0    0    0    0  0.00000000000E+00  0.00000000000E+00  0.99999998245E-14  0.12509000000E+03  0.12509000000E+03 0.  0.
        -11    1    3    3    0    0 -0.46595168672E+02 -0.69164668130E+01  0.32707604703E+02  0.57347490463E+02  0.51100000000E-03 0. -1.
         23    2    1    0    0    0 -0.26932046414E+02 -0.21305576651E+02  0.14270713284E+02  0.87902421722E+02  0.79648727337E+02 0.  0.
         11    1    3    3    0    0  0.19663122257E+02 -0.14389109838E+02 -0.18436891418E+02  0.30554931260E+02  0.51100000000E-03 0.  1.
         22    1    1    0    0    0  0.26932046414E+02  0.21305576651E+02 -0.14270713284E+02  0.37187578278E+02  0.00000000000E+00 0. -1.
</event>
<event>
 5    1  0.1059945E-009  0.9118800E+02  0.7815553E-02  0.1125453E+00
         25   -1    0    0    0    0  0.00000000000E+00  0.00000000000E+00  0.99999998245E-14  0.12509000000E+03  0.12509000000E+03 0.  0.
        -11    1    3    3    0    0  0.22758181268E+02  0.31648239056E+02  0.37510636662E+02  0.54098001008E+02  0.51100000000E-03 0.  1.
         23    2    1    0    0    0 -0.41003292427E+01  0.27577668625E+02  0.45011163032E+01  0.96848177207E+02  0.92638916627E+02 0.  0.
         11    1    3    3    0    0 -0.26858510511E+02 -0.40705704318E+01 -0.33009520359E+02  0.42750176199E+02  0.51100000000E-03 0. -1.
         22    1    1    0    0    0  0.41003292427E+01 -0.27577668625E+02 -0.45011163032E+01  0.28241822793E+02  0.00000000000E+00 0.  1.
</event>
<event>
 5    1  0.1059945E-009  0.9118800E+02  0.7815553E-02  0.1125453E+00
         25   -1    0    0    0    0  0.00000000000E+00  0.00000000000E+00  0.99999998245E-14  0.12509000000E+03  0.12509000000E+03 0.  0.
        -11    1    3    3    0    0  0.51951415792E+02  0.10635833993E+02 -0.32152328330E+02  0.62014859387E+02  0.51100000000E-03 0.  1.
         23    2    1    0    0    0  0.27164510971E+02  0.11270873767E+02 -0.15962760116E+02  0.91627289974E+02  0.85298342925E+02 0.  0.
         11    1    3    3    0    0 -0.24786904821E+02  0.63503977421E+00  0.16189568213E+02  0.29612430588E+02  0.51100000000E-03 0. -1.
         22    1    1    0    0    0 -0.27164510971E+02 -0.11270873767E+02  0.15962760116E+02  0.33462710026E+02  0.00000000000E+00 0.  1.
</event>
<event>
 5    1  0.1059945E-009  0.9118800E+02  0.7815553E-02  0.1125453E+00
         25   -1    0    0    0    0  0.00000000000E+00  0.00000000000E+00  0.99999998245E-14  0.12509000000E+03  0.12509000000E+03 0.  0.
        -11    1    3    3    0    0  0.41936618290E+02  0.75181354532E+01  0.20055701071E+02  0.47089632192E+02  0.51100000000E-03 0.  1.
         23    2    1    0    0    0  0.16675587365E+01  0.27411141695E+02 -0.28011184414E+01  0.97485694073E+02  0.93495790511E+02 0.  0.
         11    1    3    3    0    0 -0.40269059553E+02  0.19893006242E+02 -0.22856819513E+02  0.50396061881E+02  0.51100000000E-03 0. -1.
         22    1    1    0    0    0 -0.16675587365E+01 -0.27411141695E+02  0.28011184414E+01  0.27604305927E+02  0.00000000000E+00 0. -1.
</event>
<event>
 5    1  0.1059945E-009  0.9118800E+02  0.7815553E-02  0.1125453E+00
         25   -1    0    0    0    0  0.00000000000E+00  0.00000000000E+00  0.99999998245E-14  0.12509000000E+03  0.12509000000E+03 0.  0.
        -11    1    3    3    0    0  0.31725457755E+02  0.23652536800E+02 -0.22343034256E+02  0.45444013323E+02  0.51100000000E-03 0. -1.
         23    2    1    0    0    0  0.39646832758E+01 -0.20459904311E+02 -0.17657522191E+02  0.97774903665E+02  0.93881932760E+02 0.  0.
         11    1    3    3    0    0 -0.27760774479E+02 -0.44112441110E+02  0.46855120646E+01  0.52330890342E+02  0.51100000000E-03 0.  1.
         22    1    1    0    0    0 -0.39646832758E+01  0.20459904311E+02  0.17657522191E+02  0.27315096335E+02  0.00000000000E+00 0. -1.
</event>
<event>
 5    1  0.1059945E-009  0.9118800E+02  0.7815553E-02  0.1125453E+00
         25   -1    0    0    0    0  0.00000000000E+00  0.00000000000E+00  0.99999998245E-14  0.12509000000E+03  0.12509000000E+03 0.  0.
        -11    1    3    3    0    0  0.27682310245E+02  0.20797230680E+02 -0.18848465871E+01  0.34675463247E+02  0.51100000000E-03 0.  1.
         23    2    1    0    0    0 -0.17688718252E+02 -0.18015424367E+02 -0.14884396669E+02  0.95781442671E+02  0.91187133014E+02 0.  0.
         11    1    3    3    0    0 -0.45371028498E+02 -0.38812655047E+02 -0.12999550082E+02  0.61105979424E+02  0.51100000000E-03 0. -1.
         22    1    1    0    0    0  0.17688718252E+02  0.18015424367E+02  0.14884396669E+02  0.29308557329E+02  0.00000000000E+00 0. -1.
</event>
<event>
 5    1  0.1059945E-009  0.9118800E+02  0.7815553E-02  0.1125453E+00
         25   -1    0    0    0    0  0.00000000000E+00  0.00000000000E+00  0.99999998245E-14  0.12509000000E+03  0.12509000000E+03 0.  0.
        -11    1    3    3    0    0 -0.16892220303E+02  0.22905695920E+02 -0.18823180377E+02  0.34122282047E+02  0.51100000000E-03 0.  1.
         23    2    1    0    0    0  0.61158306723E+01 -0.25131720303E+02  0.12972534344E+02  0.96153977510E+02  0.91696750180E+02 0.  0.
         11    1    3    3    0    0  0.23008050975E+02 -0.48037416224E+02  0.31795714721E+02  0.62031695463E+02  0.51100000000E-03 0. -1.
         22    1    1    0    0    0 -0.61158306723E+01  0.25131720303E+02 -0.12972534344E+02  0.28936022490E+02  0.00000000000E+00 0. -1.
</event>
<event>
 5    1  0.1059945E-009  0.9118800E+02  0.7815553E-02  0.1125453E+00
         25   -1    0    0    0    0  0.00000000000E+00  0.00000000000E+00  0.99999998245E-14  0.12509000000E+03  0.12509000000E+03 0.  0.
        -11    1    3    3    0    0  0.12748111177E+02  0.52451126619E+02  0.13988266669E+02  0.55761156972E+02  0.51100000000E-03 0.  1.
         23    2    1    0    0    0  0.17893573468E+02  0.22491139710E+02 -0.10183283722E+02  0.94598515873E+02  0.89549699056E+02 0.  0.
         11    1    3    3    0    0  0.51454622909E+01 -0.29959986909E+02 -0.24171550391E+02  0.38837358901E+02  0.51100000000E-03 0. -1.
         22    1    1    0    0    0 -0.17893573468E+02 -0.22491139710E+02  0.10183283722E+02  0.30491484127E+02  0.00000000000E+00 0. -1.
</event>
<event>
 5    1  0.1059945E-009  0.9118800E+02  0.7815553E-02  0.1125453E+00
         25   -1    0    0    0    0  0.00000000000E+00  0.00000000000E+00  0.99999998245E-14  0.12509000000E+03  0.12509000000E+03 0.  0.
        -11    1    3    3    0    0 -0.16916565776E+02 -0.44608256777E+01 -0.39697496817E+02  0.43381567712E+02  0.51100000000E-03 0. -1.
         23    2    1    0    0    0  0.20412492315E+02 -0.18510174077E+02 -0.33727842537E+01  0.97329019101E+02  0.93285936232E+02 0.  0.
         11    1    3    3    0    0  0.37329058090E+02 -0.14049348399E+02  0.36324712563E+02  0.53947451389E+02  0.51100000000E-03 0.  1.
         22    1    1    0    0    0 -0.20412492315E+02  0.18510174077E+02  0.33727842537E+01  0.27760980899E+02  0.00000000000E+00 0.  1.
</event>
<event>
 5    1  0.1059945E-009  0.9118800E+02  0.7815553E-02  0.1125453E+00
         25   -1    0    0    0    0  0.00000000000E+00  0.00000000000E+00  0.99999998245E-14  0.12509000000E+03  0.12509000000E+03 0.  0.
        -11    1    3    3    0    0 -0.46503076414E+02 -0.16474366154E+02 -0.21326546328E+01  0.49381059853E+02  0.51100000000E-03 0.  1.
         23    2    1    0    0    0 -0.10206976793E+02 -0.12285755788E+02  0.25368879865E+02  0.95111637200E+02  0.90263621104E+02 0.  0.
         11    1    3    3    0    0  0.36296099621E+02  0.41886103660E+01  0.27501534498E+02  0.45730577347E+02  0.51100000000E-03 0. -1.
         22    1    1    0    0    0  0.10206976793E+02  0.12285755788E+02 -0.25368879865E+02  0.29978362800E+02  0.00000000000E+00 0. -1.
</event>
<event>
 5    1  0.1059945E-009  0.9118800E+02  0.7815553E-02  0.1125453E+00
         25   -1    0    0    0    0  0.00000000000E+00  0.00000000000E+00  0.99999998245E-14  0.12509000000E+03  0.12509000000E+03 0.  0.
        -11    1    3    3    0    0  0.35590956297E+02 -0.40212356787E+02  0.14901946364E+02  0.55729864653E+02  0.51100000000E-03 0.  1.
         23    2    1    0    0    0 -0.40279002737E+00 -0.25520103243E+02 -0.44900377674E+01  0.99174785386E+02  0.95728990947E+02 0.  0.
         11    1    3    3    0    0 -0.35993746325E+02  0.14692253544E+02 -0.19391984132E+02  0.43444920733E+02  0.51100000000E-03 0. -1.
         22    1    1    0    0    0  0.40279002737E+00  0.25520103243E+02  0.44900377674E+01  0.25915214614E+02  0.00000000000E+00 0.  1.
</event>
<event>
 5    1  0.1059945E-009  0.9118800E+02  0.7815553E-02  0.1125453E+00
         25   -1    0    0    0    0  0.00000000000E+00  0.00000000000E+00  0.99999998245E-14  0.12509000000E+03  0.12509000000E+03 0.  0.
        -11    1    3    3    0    0  0.20527547712E+02  0.14538690797E+02 -0.38636405135E+02  0.46103422294E+02  0.51100000000E-03 0. -1.
         23    2    1    0    0    0  0.60727038394E+01 -0.25487645107E+02 -0.12345131645E+02  0.96126228486E+02  0.91658887962E+02 0.  0.
         11    1    3    3    0    0 -0.14454843873E+02 -0.40026335904E+02  0.26291273490E+02  0.50022806192E+02  0.51100000000E-03 0.  1.
         22    1    1    0    0    0 -0.60727038394E+01  0.25487645107E+02  0.12345131645E+02  0.28963771514E+02  0.00000000000E+00 0.  1.
</event>
<event>
 5    1  0.1059945E-009  0.9118800E+02  0.7815553E-02  0.1125453E+00
         25   -1    0    0    0    0  0.00000000000E+00  0.00000000000E+00  0.99999998245E-14  0.12509000000E+03  0.12509000000E+03 0.  0.
        -11    1    3    3    0    0 -0.17377686777E+01 -0.35643020054E+02  0.29857897226E+02  0.46528902261E+02  0.51100000000E-03 0.  1.
         23    2    1    0    0    0  0.10644580280E+02  0.93499199558E+01  0.28555737746E+02  0.93212762812E+02  0.87592584734E+02 0.  0.
         11    1    3    3    0    0  0.12382348958E+02  0.44992940010E+02 -0.13021594804E+01  0.46683860552E+02  0.51100000000E-03 0. -1.
         22    1    1    0    0    0 -0.10644580280E+02 -0.93499199558E+01 -0.28555737746E+02  0.31877237188E+02  0.00000000000E+00 0. -1.
</event>
<event>
 5    1  0.1059945E-009  0.9118800E+02  0.7815553E-02  0.1125453E+00
         25   -1    0    0    0    0  0.00000000000E+00  0.00000000000E+00  0.99999998245E-14  0.12509000000E+03  0.12509000000E+03 0.  0.
        -11    1    3    3    0    0 -0.26100831582E+02 -0.16484237261E+02 -0.40543057253E+02  0.50958051170E+02  0.51100000000E-03 0. -1.
         23    2    1    0    0    0  0.83488253706E+01  0.89403531016E+01 -0.26306320067E+02  0.96078704371E+02  0.91594007224E+02 0.  0.
         11    1    3    3    0    0  0.34449656953E+02  0.25424590362E+02  0.14236737187E+02  0.45120653200E+02  0.51100000000E-03 0.  1.
         22    1    1    0    0    0 -0.83488253706E+01 -0.89403531016E+01  0.26306320067E+02  0.29011295629E+02  0.00000000000E+00 0.  1.
</event>
<event>
 5    1  0.1059945E-009  0.9118800E+02  0.7815553E-02  0.1125453E+00
         25   -1    0    0    0    0  0.00000000000E+00  0.00000000000E+00  0.99999998245E-14  0.12509000000E+03  0.12509000000E+03 0.  0.
        -11    1    3    3    0    0 -0.13360496974E+02  0.33363871101E+02 -0.42017303268E+02  0.55291089232E+02  0.51100000000E-03 0. -1.
         23    2    1    0    0    0 -0.20138678595E+02 -0.17263235592E+00 -0.23306095658E+02  0.94287885263E+02  0.89114729619E+02 0.  0.
         11    1    3    3    0    0 -0.67781816207E+01 -0.33536503457E+02  0.18711207610E+02  0.38996796031E+02  0.51100000000E-03 0.  1.
         22    1    1    0    0    0  0.20138678595E+02  0.17263235592E+00  0.23306095658E+02  0.30802114737E+02  0.00000000000E+00 0. -1.
</event>
<event>
 5    1  0.1059945E-009  0.9118800E+02  0.7815553E-02  0.1125453E+00
         25   -1    0    0    0    0  0.00000000000E+00  0.00000000000E+00  0.99999998245E-14  0.12509000000E+03  0.12509000000E+03 0.  0.
        -11    1    3    3    0    0  0.26354516877E+02 -0.85119651865E+00  0.52717526439E+02  0.58944233725E+02  0.51100000000E-03 0.  1.
         23    2    1    0    0    0  0.52084389192E+00  0.92439898448E+01  0.26140970691E+02  0.97357835006E+02  0.93324568371E+02 0.  0.
         11    1    3    3    0    0 -0.25833672985E+02  0.10095186363E+02 -0.26576555748E+02  0.38413601280E+02  0.51100000000E-03 0. -1.
         22    1    1    0    0    0 -0.52084389192E+00 -0.92439898448E+01 -0.26140970691E+02  0.27732164994E+02  0.00000000000E+00 0.  1.
</event>
<event>
 5    1  0.1059945E-009  0.9118800E+02  0.7815553E-02  0.1125453E+00
         25   -1    0    0    0    0  0.00000000000E+00  0.00000000000E+00  0.99999998245E-14  0.12509000000E+03  0.12509000000E+03 0.  0.
        -11    1    3    3    0    0  0.24980222855E+02  0.16508668263E+02  0.15832192408E+02  0.33870429262E+02  0.51100000000E-03 0. -1.
         23    2    1    0    0    0  0.23933437566E+02 -0.31930548685E+02 -0.10323440902E+01  0.85172145506E+02  0.75238681957E+02 0.  0.
         11    1    3    3    0    0 -0.10467852882E+01 -0.48439216948E+02 -0.16864536499E+02  0.51301716244E+02  0.51100000000E-03 0.  1.
         22    1    1    0    0    0 -0.23933437566E+02  0.31930548685E+02  0.10323440902E+01  0.39917854494E+02  0.00000000000E+00 0.  1.
</event>
<event>
 5    1  0.1059945E-009  0.9118800E+02  0.7815553E-02  0.1125453E+00
         25   -1    0    0    0    0  0.00000000000E+00  0.00000000000E+00  0.99999998245E-14  0.12509000000E+03  0.12509000000E+03 0.  0.
        -11    1    3    3    0    0 -0.34383816590E+02  0.21820674935E+02  0.60669342596E+01  0.41172762714E+02  0.51100000000E-03 0. -1.
         23    2    1    0    0    0 -0.10598851265E+02 -0.26228963403E+02 -0.61001457098E+01  0.96150304994E+02  0.91691740105E+02 0.  0.
         11    1    3    3    0    0  0.23784965325E+02 -0.48049638338E+02 -0.12167079969E+02  0.54977542280E+02  0.51100000000E-03 0.  1.
         22    1    1    0    0    0  0.10598851265E+02  0.26228963403E+02  0.61001457098E+01  0.28939695006E+02  0.00000000000E+00 0.  1.
</event>
<event>
 5    1  0.1059945E-009  0.9118800E+02  0.7815553E-02  0.1125453E+00
         25   -1    0    0    0    0  0.00000000000E+00  0.00000000000E+00  0.99999998245E-14  0.12509000000E+03  0.12509000000E+03 0.  0.
        -11    1    3    3    0    0 -0.42460692867E+02 -0.34358802612E+02 -0.22024270411E+01  0.54665239786E+02  0.51100000000E-03 0. -1.
         23    2    1    0    0    0 -0.42898430188E+01 -0.28270321777E+02  0.93468727487E+01  0.95007149792E+02  0.90118703025E+02 0.  0.
         11    1    3    3    0    0  0.38170849848E+02  0.60884808356E+01  0.11549299790E+02  0.40341910006E+02  0.51100000000E-03 0.  1.
         22    1    1    0    0    0  0.42898430188E+01  0.28270321777E+02 -0.93468727487E+01  0.30082850208E+02  0.00000000000E+00 0. -1.
</event>
<event>
 5    1  0.1059945E-009  0.9118800E+02  0.7815553E-02  0.1125453E+00
         25   -1    0    0    0    0  0.00000000000E+00  0.00000000000E+00  0.99999998245E-14  0.12509000000E+03  0.12509000000E+03 0.  0.
        -11    1    3    3    0    0 -0.35361041579E+01 -0.60872892388E+02  0.99385412446E+01  0.61780155897E+02  0.51100000000E-03 0.  1.
         23    2    1    0    0    0 -0.80647116267E+01 -0.24463820662E+02  0.25611321396E+01  0.99204144927E+02  0.95767347660E+02 0.  0.
         11    1    3    3    0    0 -0.45286074688E+01  0.36409071726E+02 -0.73774091049E+01  0.37423989030E+02  0.51100000000E-03 0. -1.
         22    1    1    0    0    0  0.80647116267E+01  0.24463820662E+02 -0.25611321396E+01  0.25885855073E+02  0.00000000000E+00 0.  1.
</event>
<event>
 5    1  0.1059945E-009  0.9118800E+02  0.7815553E-02  0.1125453E+00
         25   -1    0    0    0    0  0.00000000000E+00  0.00000000000E+00  0.99999998245E-14  0.12509000000E+03  0.12509000000E+03 0.  0.
        -11    1    3    3    0    0  0.14101071082E+02 -0.98325423739E+00 -0.45279339304E+02  0.47434434356E+02  0.51100000000E-03 0.  1.
         23    2    1    0    0    0  0.13072880418E+02 -0.25825092930E+02 -0.36608775382E+01  0.95914022696E+02  0.91368824542E+02 0.  0.
         11    1    3    3    0    0 -0.10281906635E+01 -0.24841838693E+02  0.41618461766E+02  0.48479588341E+02  0.51100000000E-03 0. -1.
         22    1    1    0    0    0 -0.13072880418E+02  0.25825092930E+02  0.36608775382E+01  0.29175977304E+02  0.00000000000E+00 0.  1.
</event>
<event>
 5    1  0.1059945E-009  0.9118800E+02  0.7815553E-02  0.1125453E+00
         25   -1    0    0    0    0  0.00000000000E+00  0.00000000000E+00  0.99999998245E-14  0.12509000000E+03  0.12509000000E+03 0.  0.
        -11    1    3    3    0    0  0.73276000517E+01 -0.16025453361E+01  0.48996285403E+02  0.49567104592E+02  0.51100000000E-03 0.  1.
         23    2    1    0    0    0 -0.24527815274E+02 -0.28021116813E+01  0.14851747310E+02  0.96279586081E+02  0.91867941883E+02 0.  0.
         11    1    3    3    0    0 -0.31855415326E+02 -0.11995663452E+01 -0.34144538093E+02  0.46712481489E+02  0.51100000000E-03 0. -1.
         22    1    1    0    0    0  0.24527815274E+02  0.28021116813E+01 -0.14851747310E+02  0.28810413919E+02  0.00000000000E+00 0.  1.
</event>
<event>
 5    1  0.1059945E-009  0.9118800E+02  0.7815553E-02  0.1125453E+00
         25   -1    0    0    0    0  0.00000000000E+00  0.00000000000E+00  0.99999998245E-14  0.12509000000E+03  0.12509000000E+03 0.  0.
        -11    1    3    3    0    0 -0.33688993076E+02 -0.69807854960E+01 -0.25786148791E+02  0.42995407782E+02  0.51100000000E-03 0. -1.
         23    2    1    0    0    0  0.15782811895E+02  0.12255570048E+02 -0.20700159318E+02  0.96318612402E+02  0.91921065870E+02 0.  0.
         11    1    3    3    0    0  0.49471804971E+02  0.19236355544E+02  0.50859894734E+01  0.53323204620E+02  0.51100000000E-03 0.  1.
         22    1    1    0    0    0 -0.15782811895E+02 -0.12255570048E+02  0.20700159318E+02  0.28771387598E+02  0.00000000000E+00 0. -1.
</event>
<event>
 5    1  0.1059945E-009  0.9118800E+02  0.7815553E-02  0.1125453E+00
         25   -1    0    0    0    0  0.00000000000E+00  0.00000000000E+00  0.99999998245E-14  0.12509000000E+03  0.12509000000E+03 0.  0.
        -11    1    3    3    0    0 -0.14682465887E+02 -0.29390425298E+02  0.71996702243E+01  0.33633423187E+02  0.51100000000E-03 0. -1.
         23    2    1    0    0    0  0.61723329761E+01  0.28305168405E+02 -0.35016905506E+01  0.95908805893E+02  0.91361682111E+02 0.  0.
         11    1    3    3    0    0  0.20854798863E+02  0.57695593703E+02 -0.10701360775E+02  0.62275382705E+02  0.51100000000E-03 0.  1.
         22    1    1    0    0    0 -0.61723329761E+01 -0.28305168405E+02  0.35016905506E+01  0.29181194107E+02  0.00000000000E+00 0.  1.
</event>
<event>
 5    1  0.1059945E-009  0.9118800E+02  0.7815553E-02  0.1125453E+00
         25   -1    0    0    0    0  0.00000000000E+00  0.00000000000E+00  0.99999998245E-14  0.12509000000E+03  0.12509000000E+03 0.  0.
        -11    1    3    3    0    0  0.34554846118E+02  0.37188460521E+02  0.31858811798E+02  0.59933320245E+02  0.51100000000E-03 0.  1.
         23    2    1    0    0    0  0.93884144437E+01  0.27082395858E+02  0.10113255487E+02  0.94694664376E+02  0.89683906212E+02 0.  0.
         11    1    3    3    0    0 -0.25166431674E+02 -0.10106064663E+02 -0.21745556311E+02  0.34761344130E+02  0.51100000000E-03 0. -1.
         22    1    1    0    0    0 -0.93884144437E+01 -0.27082395858E+02 -0.10113255487E+02  0.30395335624E+02  0.00000000000E+00 0.  1.
</event>
<event>
 5    1  0.1059945E-009  0.9118800E+02  0.7815553E-02  0.1125453E+00
         25   -1    0    0    0    0  0.00000000000E+00  0.00000000000E+00  0.99999998245E-14  0.12509000000E+03  0.12509000000E+03 0.  0.
        -11    1    3    3    0    0  0.43883722054E+02  0.10109170287E+02 -0.41731723798E+02  0.61396361103E+02  0.51100000000E-03 0. -1.
         23    2    1    0    0    0  0.13183886856E+02  0.11112502368E+02 -0.17528278945E+02  0.10050254091E+03  0.97448538142E+02 0.  0.
         11    1    3    3    0    0 -0.30699835198E+02  0.10033320809E+01  0.24203444853E+02  0.39106179812E+02  0.51100000000E-03 0.  1.
         22    1    1    0    0    0 -0.13183886856E+02 -0.11112502368E+02  0.17528278945E+02  0.24587459086E+02  0.00000000000E+00 0. -1.
</event>
<event>
 5    1  0.1059945E-009  0.9118800E+02  0.7815553E-02  0.1125453E+00
         25   -1    0    0    0    0  0.00000000000E+00  0.00000000000E+00  0.99999998245E-14  0.12509000000E+03  0.12509000000E+03 0.  0.
        -11    1    3    3    0    0 -0.33318710589E+02 -0.48581177441E+02 -0.15766691034E+02  0.60982422248E+02  0.51100000000E-03 0.  1.
         23    2    1    0    0    0 -0.17304668815E+02 -0.23118823504E+02  0.23837945993E+01  0.96113905721E+02  0.91642069123E+02 0.  0.
         11    1    3    3    0    0  0.16014041774E+02  0.25462353937E+02  0.18150485634E+02  0.35131483472E+02  0.51100000000E-03 0. -1.
         22    1    1    0    0    0  0.17304668815E+02  0.23118823504E+02 -0.23837945993E+01  0.28976094279E+02  0.00000000000E+00 0.  1.
</event>
<event>
 5    1  0.1059945E-009  0.9118800E+02  0.7815553E-02  0.1125453E+00
         25   -1    0    0    0    0  0.00000000000E+00  0.00000000000E+00  0.99999998245E-14  0.12509000000E+03  0.12509000000E+03 0.  0.
        -11    1    3    3    0    0 -0.17989811617E+02  0.21015703145E+02 -0.31743245263E+02  0.42106136379E+02  0.51100000000E-03 0. -1.
         23    2    1    0    0    0 -0.21396259498E+02 -0.18914631307E+02  0.45483756395E+01  0.96171996629E+02  0.91721328036E+02 0.  0.
         11    1    3    3    0    0 -0.34064478815E+01 -0.39930334452E+02  0.36291620903E+02  0.54065860250E+02  0.51100000000E-03 0.  1.
         22    1    1    0    0    0  0.21396259498E+02  0.18914631307E+02 -0.45483756395E+01  0.28918003371E+02  0.00000000000E+00 0.  1.
</event>
<event>
 5    1  0.1059945E-009  0.9118800E+02  0.7815553E-02  0.1125453E+00
         25   -1    0    0    0    0  0.00000000000E+00  0.00000000000E+00  0.99999998245E-14  0.12509000000E+03  0.12509000000E+03 0.  0.
        -11    1    3    3    0    0  0.26438855104E+01  0.19082943067E+01  0.34074453024E+02  0.34230104687E+02  0.51100000000E-03 0.  1.
         23    2    1    0    0    0 -0.20711649919E+02 -0.27744904650E+02 -0.67331709904E+01  0.89818371628E+02  0.82602978844E+02 0.  0.
         11    1    3    3    0    0 -0.23355535429E+02 -0.29653198957E+02 -0.40807624014E+02  0.55588266941E+02  0.51100000000E-03 0. -1.
         22    1    1    0    0    0  0.20711649919E+02  0.27744904650E+02  0.67331709904E+01  0.35271628372E+02  0.00000000000E+00 0. -1.
</event>
<event>
 5    1  0.1059945E-009  0.9118800E+02  0.7815553E-02  0.1125453E+00
         25   -1    0    0    0    0  0.00000000000E+00  0.00000000000E+00  0.99999998245E-14  0.12509000000E+03  0.12509000000E+03 0.  0.
        -11    1    3    3    0    0  0.17189882774E+02 -0.29961119576E+02  0.26366233816E+02  0.43455023207E+02  0.51100000000E-03 0. -1.
         23    2    1    0    0    0 -0.63365517749E+01  0.17595497598E+02  0.21286011829E+02  0.96755432354E+02  0.92513598819E+02 0.  0.
         11    1    3    3    0    0 -0.23526434549E+02  0.47556617173E+02 -0.50802219871E+01  0.53300409147E+02  0.51100000000E-03 0.  1.
         22    1    1    0    0    0  0.63365517749E+01 -0.17595497598E+02 -0.21286011829E+02  0.28334567646E+02  0.00000000000E+00 0.  1.
</event>
<event>
 5    1  0.1059945E-009  0.9118800E+02  0.7815553E-02  0.1125453E+00
         25   -1    0    0    0    0  0.00000000000E+00  0.00000000000E+00  0.99999998245E-14  0.12509000000E+03  0.12509000000E+03 0.  0.
        -11    1    3    3    0    0  0.50142950789E+02  0.65780804495E+01 -0.13618768297E+02  0.52374206499E+02  0.51100000000E-03 0. -1.
         23    2    1    0    0    0  0.22710890239E+02  0.28086806792E+02 -0.28538307671E+01  0.88857451080E+02  0.81134758342E+02 0.  0.
         11    1    3    3    0    0 -0.27432060550E+02  0.21508726342E+02  0.10764937529E+02  0.36483244581E+02  0.51100000000E-03 0.  1.
         22    1    1    0    0    0 -0.22710890239E+02 -0.28086806792E+02  0.28538307671E+01  0.36232548920E+02  0.00000000000E+00 0. -1.
</event>
<event>
 5    1  0.1059945E-009  0.9118800E+02  0.7815553E-02  0.1125453E+00
         25   -1    0    0    0    0  0.00000000000E+00  0.00000000000E+00  0.99999998245E-14  0.12509000000E+03  0.12509000000E+03 0.  0.
        -11    1    3    3    0    0 -0.94147167236E+01  0.11975667981E+02  0.39511676492E+02  0.42346500375E+02  0.51100000000E-03 0. -1.
         23    2    1    0    0    0 -0.41327067245E+00  0.28209081222E+02 -0.99485888823E+01  0.95175162932E+02  0.90351614055E+02 0.  0.
         11    1    3    3    0    0  0.90014460512E+01  0.16233413241E+02 -0.49460265374E+02  0.52828662557E+02  0.51100000000E-03 0.  1.
         22    1    1    0    0    0  0.41327067245E+00 -0.28209081222E+02  0.99485888823E+01  0.29914837068E+02  0.00000000000E+00 0.  1.
</event>
<event>
 5    1  0.1059945E-009  0.9118800E+02  0.7815553E-02  0.1125453E+00
         25   -1    0    0    0    0  0.00000000000E+00  0.00000000000E+00  0.99999998245E-14  0.12509000000E+03  0.12509000000E+03 0.  0.
        -11    1    3    3    0    0 -0.17395620343E+02 -0.37260074355E+02  0.16601289064E+02  0.44345501992E+02  0.51100000000E-03 0. -1.
         23    2    1    0    0    0 -0.26546519190E+02  0.54786434260E+01 -0.10777455755E+02  0.95920036554E+02  0.91377057543E+02 0.  0.
         11    1    3    3    0    0 -0.91508988468E+01  0.42738717781E+02 -0.27378744819E+02  0.51574534563E+02  0.51100000000E-03 0.  1.
         22    1    1    0    0    0  0.26546519190E+02 -0.54786434260E+01  0.10777455755E+02  0.29169963446E+02  0.00000000000E+00 0. -1.
</event>
<event>
 5    1  0.1059945E-009  0.9118800E+02  0.7815553E-02  0.1125453E+00
         25   -1    0    0    0    0  0.00000000000E+00  0.00000000000E+00  0.99999998245E-14  0.12509000000E+03  0.12509000000E+03 0.  0.
        -11    1    3    3    0    0  0.18035318412E+02  0.74065758830E+01 -0.56711025598E+02  0.59968912790E+02  0.51100000000E-03 0.  1.
         23    2    1    0    0    0 -0.14149575153E+01 -0.44388171272E+01 -0.28437285158E+02  0.96273609015E+02  0.91859802979E+02 0.  0.
         11    1    3    3    0    0 -0.19450275927E+02 -0.11845393010E+02  0.28273740441E+02  0.36304696225E+02  0.51100000000E-03 0. -1.
         22    1    1    0    0    0  0.14149575153E+01  0.44388171272E+01  0.28437285158E+02  0.28816390985E+02  0.00000000000E+00 0.  1.
</event>
<event>
 5    1  0.1059945E-009  0.9118800E+02  0.7815553E-02  0.1125453E+00
         25   -1    0    0    0    0  0.00000000000E+00  0.00000000000E+00  0.99999998245E-14  0.12509000000E+03  0.12509000000E+03 0.  0.
        -11    1    3    3    0    0 -0.89838090957E+00 -0.30374439309E+02  0.18643030223E+02  0.35650753537E+02  0.51100000000E-03 0.  1.
         23    2    1    0    0    0 -0.29281119434E+01  0.86834534867E+01 -0.27479214342E+02  0.96123063247E+02  0.91654568152E+02 0.  0.
         11    1    3    3    0    0 -0.20297310338E+01  0.39057892796E+02 -0.46122244564E+02  0.60472309710E+02  0.51100000000E-03 0. -1.
         22    1    1    0    0    0  0.29281119434E+01 -0.86834534867E+01  0.27479214342E+02  0.28966936753E+02  0.00000000000E+00 0. -1.
</event>
<event>
 5    1  0.1059945E-009  0.9118800E+02  0.7815553E-02  0.1125453E+00
         25   -1    0    0    0    0  0.00000000000E+00  0.00000000000E+00  0.99999998245E-14  0.12509000000E+03  0.12509000000E+03 0.  0.
        -11    1    3    3    0    0 -0.28069786451E+02  0.27997887799E+02  0.68982212389E+01  0.40241521953E+02  0.51100000000E-03 0.  1.
         23    2    1    0    0    0  0.13816194066E+02  0.93233584212E+01 -0.24238894099E+02  0.95673402340E+02  0.91038803251E+02 0.  0.
         11    1    3    3    0    0  0.41885980517E+02 -0.18674529378E+02 -0.31137115338E+02  0.55431880387E+02  0.51100000000E-03 0. -1.
         22    1    1    0    0    0 -0.13816194066E+02 -0.93233584212E+01  0.24238894099E+02  0.29416597660E+02  0.00000000000E+00 0. -1.
</event>
<event>
 5    1  0.1059945E-009  0.9118800E+02  0.7815553E-02  0.1125453E+00
         25   -1    0    0    0    0  0.00000000000E+00  0.00000000000E+00  0.99999998245E-14  0.12509000000E+03  0.12509000000E+03 0.  0.
        -11    1    3    3    0    0  0.35453601872E+02  0.22712289120E+02  0.24509831376E+02  0.48718967529E+02  0.51100000000E-03 0. -1.
         23    2    1    0    0    0  0.24775632549E+02 -0.14240336796E+02 -0.34982250655E+01  0.96300127842E+02  0.91895907872E+02 0.  0.
         11    1    3    3    0    0 -0.10677969323E+02 -0.36952625915E+02 -0.28008056441E+02  0.47581160314E+02  0.51100000000E-03 0.  1.
         22    1    1    0    0    0 -0.24775632549E+02  0.14240336796E+02  0.34982250655E+01  0.28789872158E+02  0.00000000000E+00 0.  1.
</event>
<event>
 5    1  0.1059945E-009  0.9118800E+02  0.7815553E-02  0.1125453E+00
         25   -1    0    0    0    0  0.00000000000E+00  0.00000000000E+00  0.99999998245E-14  0.12509000000E+03  0.12509000000E+03 0.  0.
        -11    1    3    3    0    0 -0.16329960132E+02 -0.41144110097E+02  0.39326807837E+02  0.59212356890E+02  0.51100000000E-03 0.  1.
         23    2    1    0    0    0  0.58200335418E+01 -0.23961283677E+02  0.15855702063E+02  0.95774147739E+02  0.91177125318E+02 0.  0.
         11    1    3    3    0    0  0.22149993674E+02  0.17182826420E+02 -0.23471105774E+02  0.36561790849E+02  0.51100000000E-03 0. -1.
         22    1    1    0    0    0 -0.58200335418E+01  0.23961283677E+02 -0.15855702063E+02  0.29315852261E+02  0.00000000000E+00 0.  1.
</event>
<event>
 5    1  0.1059945E-009  0.9118800E+02  0.7815553E-02  0.1125453E+00
         25   -1    0    0    0    0  0.00000000000E+00  0.00000000000E+00  0.99999998245E-14  0.12509000000E+03  0.12509000000E+03 0.  0.
        -11    1    3    3    0    0 -0.35884194403E+02  0.32210569799E+02  0.32190796846E+02  0.57977958023E+02  0.51100000000E-03 0.  1.
         23    2    1    0    0    0  0.95515624739E+00  0.18850792090E+02  0.15877984064E+02  0.10042473974E+03  0.97348617286E+02 0.  0.
         11    1    3    3    0    0  0.36839350650E+02 -0.13359777709E+02 -0.16312812782E+02  0.42446781714E+02  0.51100000000E-03 0. -1.
         22    1    1    0    0    0 -0.95515624739E+00 -0.18850792090E+02 -0.15877984064E+02  0.24665260263E+02  0.00000000000E+00 0.  1.
</event>
<event>
 5    1  0.1059945E-009  0.9118800E+02  0.7815553E-02  0.1125453E+00
         25   -1    0    0    0    0  0.00000000000E+00  0.00000000000E+00  0.99999998245E-14  0.12509000000E+03  0.12509000000E+03 0.  0.
        -11    1    3    3    0    0 -0.50501865091E+02  0.32485864024E+02  0.49482198227E+01  0.60251594326E+02  0.51100000000E-03 0.  1.
         23    2    1    0    0    0 -0.28171850453E+02  0.76319234261E+01 -0.57647183907E+01  0.95338842186E+02  0.90577941234E+02 0.  0.
         11    1    3    3    0    0  0.22330014638E+02 -0.24853940598E+02 -0.10712938213E+02  0.35087247860E+02  0.51100000000E-03 0. -1.
         22    1    1    0    0    0  0.28171850453E+02 -0.76319234261E+01  0.57647183907E+01  0.29751157814E+02  0.00000000000E+00 0.  1.
</event>
<event>
 5    1  0.1059945E-009  0.9118800E+02  0.7815553E-02  0.1125453E+00
         25   -1    0    0    0    0  0.00000000000E+00  0.00000000000E+00  0.99999998245E-14  0.12509000000E+03  0.12509000000E+03 0.  0.
        -11    1    3    3    0    0  0.46060604270E+02 -0.36960478519E+02 -0.30102119315E+01  0.59133050100E+02  0.51100000000E-03 0.  1.
         23    2    1    0    0    0  0.10050612566E+02 -0.25271827318E+02 -0.64189183455E+01  0.97145723633E+02  0.93039825013E+02 0.  0.
         11    1    3    3    0    0 -0.36009991704E+02  0.11688651201E+02 -0.34087064140E+01  0.38012673533E+02  0.51100000000E-03 0. -1.
         22    1    1    0    0    0 -0.10050612566E+02  0.25271827318E+02  0.64189183455E+01  0.27944276367E+02  0.00000000000E+00 0.  1.
</event>
<event>
 5    1  0.1059945E-009  0.9118800E+02  0.7815553E-02  0.1125453E+00
         25   -1    0    0    0    0  0.00000000000E+00  0.00000000000E+00  0.99999998245E-14  0.12509000000E+03  0.12509000000E+03 0.  0.
        -11    1    3    3    0    0 -0.26667147953E+01 -0.21117850215E+02  0.48758461067E+02  0.53202091044E+02  0.51100000000E-03 0. -1.
         23    2    1    0    0    0 -0.19213663262E+02  0.60187806202E+01  0.25564496801E+02  0.92548732772E+02  0.86639101247E+02 0.  0.
         11    1    3    3    0    0 -0.16546948467E+02  0.27136630836E+02 -0.23193964266E+02  0.39346641728E+02  0.51100000000E-03 0.  1.
         22    1    1    0    0    0  0.19213663262E+02 -0.60187806202E+01 -0.25564496801E+02  0.32541267228E+02  0.00000000000E+00 0. -1.
</event>
<event>
 5    1  0.1059945E-009  0.9118800E+02  0.7815553E-02  0.1125453E+00
         25   -1    0    0    0    0  0.00000000000E+00  0.00000000000E+00  0.99999998245E-14  0.12509000000E+03  0.12509000000E+03 0.  0.
        -11    1    3    3    0    0 -0.25786603642E+02  0.37719878371E+02  0.11401429834E+02  0.47092788771E+02  0.51100000000E-03 0.  1.
         23    2    1    0    0    0 -0.18922080550E+02  0.22903297391E+01 -0.21801383393E+02  0.96131563224E+02  0.91666168173E+02 0.  0.
         11    1    3    3    0    0  0.68645230918E+01 -0.35429548631E+02 -0.33202813227E+02  0.49038774454E+02  0.51100000000E-03 0. -1.
         22    1    1    0    0    0  0.18922080550E+02 -0.22903297391E+01  0.21801383393E+02  0.28958436776E+02  0.00000000000E+00 0. -1.
</event>
<event>
 5    1  0.1059945E-009  0.9118800E+02  0.7815553E-02  0.1125453E+00
         25   -1    0    0    0    0  0.00000000000E+00  0.00000000000E+00  0.99999998245E-14  0.12509000000E+03  0.12509000000E+03 0.  0.
        -11    1    3    3    0    0 -0.44440480943E+02  0.24057972324E+02  0.26568140935E+02  0.57092981108E+02  0.51100000000E-03 0.  1.
         23    2    1    0    0    0 -0.11758667684E+02  0.23847648846E+01  0.26159499844E+02  0.96310270999E+02  0.91909713842E+02 0.  0.
         11    1    3    3    0    0  0.32681813259E+02 -0.21673207440E+02 -0.40864109102E+00  0.39217289891E+02  0.51100000000E-03 0. -1.
         22    1    1    0    0    0  0.11758667684E+02 -0.23847648846E+01 -0.26159499844E+02  0.28779729001E+02  0.00000000000E+00 0.  1.
</event>
<event>
 5    1  0.1059945E-009  0.9118800E+02  0.7815553E-02  0.1125453E+00
         25   -1    0    0    0    0  0.00000000000E+00  0.00000000000E+00  0.99999998245E-14  0.12509000000E+03  0.12509000000E+03 0.  0.
        -11    1    3    3    0    0  0.27852943677E+02  0.27889716743E+02  0.80036241632E+01  0.40220402429E+02  0.51100000000E-03 0.  1.
         23    2    1    0    0    0 -0.54413082473E+01 -0.10746809538E+02  0.27692070307E+02  0.94891448569E+02  0.89957959642E+02 0.  0.
         11    1    3    3    0    0 -0.33294251925E+02 -0.38636526281E+02  0.19688446144E+02  0.54671046140E+02  0.51100000000E-03 0. -1.
         22    1    1    0    0    0  0.54413082473E+01  0.10746809538E+02 -0.27692070307E+02  0.30198551431E+02  0.00000000000E+00 0. -1.
</event>
<event>
 5    1  0.1059945E-009  0.9118800E+02  0.7815553E-02  0.1125453E+00
         25   -1    0    0    0    0  0.00000000000E+00  0.00000000000E+00  0.99999998245E-14  0.12509000000E+03  0.12509000000E+03 0.  0.
        -11    1    3    3    0    0  0.23721429108E+02  0.72683132361E+01 -0.39513184471E+02  0.46656471400E+02  0.51100000000E-03 0.  1.
         23    2    1    0    0    0 -0.12596788124E+02  0.23427630766E+02 -0.23789549438E+02  0.89404209876E+02  0.81973392797E+02 0.  0.
         11    1    3    3    0    0 -0.36318217232E+02  0.16159317529E+02  0.15723635032E+02  0.42747738476E+02  0.51100000000E-03 0. -1.
         22    1    1    0    0    0  0.12596788124E+02 -0.23427630766E+02  0.23789549438E+02  0.35685790124E+02  0.00000000000E+00 0.  1.
</event>
<event>
 5    1  0.1059945E-009  0.9118800E+02  0.7815553E-02  0.1125453E+00
         25   -1    0    0    0    0  0.00000000000E+00  0.00000000000E+00  0.99999998245E-14  0.12509000000E+03  0.12509000000E+03 0.  0.
        -11    1    3    3    0    0 -0.21372700899E+02  0.35047738559E+02  0.36591684198E+01  0.41213175509E+02  0.51100000000E-03 0. -1.
         23    2    1    0    0    0 -0.12728103712E+02 -0.14404609816E+02 -0.20552805002E+02  0.96949012073E+02  0.92774973676E+02 0.  0.
         11    1    3    3    0    0  0.86445971870E+01 -0.49452348374E+02 -0.24211973422E+02  0.55735836564E+02  0.51100000000E-03 0.  1.
         22    1    1    0    0    0  0.12728103712E+02  0.14404609816E+02  0.20552805002E+02  0.28140987927E+02  0.00000000000E+00 0.  1.
</event>
<event>
 5    1  0.1059945E-009  0.9118800E+02  0.7815553E-02  0.1125453E+00
         25   -1    0    0    0    0  0.00000000000E+00  0.00000000000E+00  0.99999998245E-14  0.12509000000E+03  0.12509000000E+03 0.  0.
        -11    1    3    3    0    0 -0.22961283893E+02 -0.20162088242E+02  0.34089633328E+02  0.45780273710E+02  0.51100000000E-03 0.  1.
         23    2    1    0    0    0 -0.24555103435E+02 -0.87030259419E+01 -0.14188327972E+02  0.95425131622E+02  0.90697030432E+02 0.  0.
         11    1    3    3    0    0 -0.15938195413E+01  0.11459062300E+02 -0.48277961300E+02  0.49644857912E+02  0.51100000000E-03 0. -1.
         22    1    1    0    0    0  0.24555103435E+02  0.87030259419E+01  0.14188327972E+02  0.29664868378E+02  0.00000000000E+00 0.  1.
</event>
<event>
 5    1  0.1059945E-009  0.9118800E+02  0.7815553E-02  0.1125453E+00
         25   -1    0    0    0    0  0.00000000000E+00  0.00000000000E+00  0.99999998245E-14  0.12509000000E+03  0.12509000000E+03 0.  0.
        -11    1    3    3    0    0  0.56021928516E+02 -0.13215660904E+02  0.20653686234E+01  0.57596665837E+02  0.51100000000E-03 0. -1.
         23    2    1    0    0    0  0.24361301964E+02  0.33945277357E+01  0.15753905058E+02  0.95880731325E+02  0.91323235067E+02 0.  0.
         11    1    3    3    0    0 -0.31660626552E+02  0.16610188639E+02  0.13688536435E+02  0.38284065488E+02  0.51100000000E-03 0.  1.
         22    1    1    0    0    0 -0.24361301964E+02 -0.33945277357E+01 -0.15753905058E+02  0.29209268675E+02  0.00000000000E+00 0. -1.
</event>
<event>
 5    1  0.1059945E-009  0.9118800E+02  0.7815553E-02  0.1125453E+00
         25   -1    0    0    0    0  0.00000000000E+00  0.00000000000E+00  0.99999998245E-14  0.12509000000E+03  0.12509000000E+03 0.  0.
        -11    1    3    3    0    0  0.35840047644E+02 -0.45711803150E+02 -0.65023045631E+01  0.58449618709E+02  0.51100000000E-03 0.  1.
         23    2    1    0    0    0  0.10358067232E+02 -0.22570692786E+02  0.11977978728E+02  0.97518316990E+02  0.93539427219E+02 0.  0.
         11    1    3    3    0    0 -0.25481980412E+02  0.23141110364E+02  0.18480283291E+02  0.39068698281E+02  0.51100000000E-03 0. -1.
         22    1    1    0    0    0 -0.10358067232E+02  0.22570692786E+02 -0.11977978728E+02  0.27571683010E+02  0.00000000000E+00 0.  1.
</event>
<event>
 5    1  0.1059945E-009  0.9118800E+02  0.7815553E-02  0.1125453E+00
         25   -1    0    0    0    0  0.00000000000E+00  0.00000000000E+00  0.99999998245E-14  0.12509000000E+03  0.12509000000E+03 0.  0.
        -11    1    3    3    0    0 -0.38378795641E+02 -0.13204669836E+02  0.34002463130E+02  0.52947736113E+02  0.51100000000E-03 0.  1.
         23    2    1    0    0    0  0.34419408292E+01  0.19114619672E+01  0.26807646356E+02  0.97994787385E+02  0.94174454116E+02 0.  0.
         11    1    3    3    0    0  0.41820736470E+02  0.15116131803E+02 -0.71948167744E+01  0.45047051272E+02  0.51100000000E-03 0. -1.
         22    1    1    0    0    0 -0.34419408292E+01 -0.19114619672E+01 -0.26807646356E+02  0.27095212615E+02  0.00000000000E+00 0. -1.
</event>
<event>
 5    1  0.1059945E-009  0.9118800E+02  0.7815553E-02  0.1125453E+00
         25   -1    0    0    0    0  0.00000000000E+00  0.00000000000E+00  0.99999998245E-14  0.12509000000E+03  0.12509000000E+03 0.  0.
        -11    1    3    3    0    0 -0.25279461611E+01 -0.23024855051E+01  0.35718115371E+02  0.35881411862E+02  0.51100000000E-03 0.  1.
         23    2    1    0    0    0  0.20713793795E+02 -0.20622305876E+02 -0.13171486673E+02  0.93030230597E+02  0.87331523465E+02 0.  0.
         11    1    3    3    0    0  0.23241739956E+02 -0.18319820371E+02 -0.48889602043E+02  0.57148818735E+02  0.51100000000E-03 0. -1.
         22    1    1    0    0    0 -0.20713793795E+02  0.20622305876E+02  0.13171486673E+02  0.32059769403E+02  0.00000000000E+00 0. -1.
</event>
<event>
 5    1  0.1059945E-009  0.9118800E+02  0.7815553E-02  0.1125453E+00
         25   -1    0    0    0    0  0.00000000000E+00  0.00000000000E+00  0.99999998245E-14  0.12509000000E+03  0.12509000000E+03 0.  0.
        -11    1    3    3    0    0  0.14442651131E+02 -0.49855768179E+02 -0.22618086582E+02  0.56619481040E+02  0.51100000000E-03 0.  1.
         23    2    1    0    0    0  0.21094760794E+02 -0.18328011814E+02  0.18583321198E+01  0.97083601655E+02  0.92956265857E+02 0.  0.
         11    1    3    3    0    0  0.66521096631E+01  0.31527756365E+02  0.24476418702E+02  0.40464120615E+02  0.51100000000E-03 0. -1.
         22    1    1    0    0    0 -0.21094760794E+02  0.18328011814E+02 -0.18583321198E+01  0.28006398345E+02  0.00000000000E+00 0.  1.
</event>
<event>
 5    1  0.1059945E-009  0.9118800E+02  0.7815553E-02  0.1125453E+00
         25   -1    0    0    0    0  0.00000000000E+00  0.00000000000E+00  0.99999998245E-14  0.12509000000E+03  0.12509000000E+03 0.  0.
        -11    1    3    3    0    0 -0.12961908084E+02  0.18946029539E+02  0.24754235835E+02  0.33759965766E+02  0.51100000000E-03 0. -1.
         23    2    1    0    0    0  0.20459197371E+02 -0.42173572039E+01 -0.21340465452E+02  0.95227308820E+02  0.90423780172E+02 0.  0.
         11    1    3    3    0    0  0.33421105454E+02 -0.23163386743E+02 -0.46094701287E+02  0.61467343054E+02  0.51100000000E-03 0.  1.
         22    1    1    0    0    0 -0.20459197371E+02  0.42173572039E+01  0.21340465452E+02  0.29862691180E+02  0.00000000000E+00 0.  1.
</event>
<event>
 5    1  0.1059945E-009  0.9118800E+02  0.7815553E-02  0.1125453E+00
         25   -1    0    0    0    0  0.00000000000E+00  0.00000000000E+00  0.99999998245E-14  0.12509000000E+03  0.12509000000E+03 0.  0.
        -11    1    3    3    0    0  0.59105085573E+02  0.27574502401E+01  0.19788384746E+02  0.62390663112E+02  0.51100000000E-03 0. -1.
         23    2    1    0    0    0  0.35439907117E+02 -0.11432607881E+01  0.10515828456E+02  0.88105182712E+02  0.79966533693E+02 0.  0.
         11    1    3    3    0    0 -0.23665178455E+02 -0.39007110283E+01 -0.92725562900E+01  0.25714519600E+02  0.51100000000E-03 0.  1.
         22    1    1    0    0    0 -0.35439907117E+02  0.11432607881E+01 -0.10515828456E+02  0.36984817288E+02  0.00000000000E+00 0. -1.
</event>
<event>
 5    1  0.1059945E-009  0.9118800E+02  0.7815553E-02  0.1125453E+00
         25   -1    0    0    0    0  0.00000000000E+00  0.00000000000E+00  0.99999998245E-14  0.12509000000E+03  0.12509000000E+03 0.  0.
        -11    1    3    3    0    0 -0.24342456009E+02  0.21879728023E+02 -0.32307302875E+02  0.45989558405E+02  0.51100000000E-03 0.  1.
         23    2    1    0    0    0 -0.68272334570E+01 -0.22266584051E+02 -0.18193808258E+02  0.95536209365E+02  0.90850100489E+02 0.  0.
         11    1    3    3    0    0  0.17515222552E+02 -0.44146312074E+02  0.14113494617E+02  0.49546650960E+02  0.51100000000E-03 0. -1.
         22    1    1    0    0    0  0.68272334570E+01  0.22266584051E+02  0.18193808258E+02  0.29553790635E+02  0.00000000000E+00 0. -1.
</event>
<event>
 5    1  0.1059945E-009  0.9118800E+02  0.7815553E-02  0.1125453E+00
         25   -1    0    0    0    0  0.00000000000E+00  0.00000000000E+00  0.99999998245E-14  0.12509000000E+03  0.12509000000E+03 0.  0.
        -11    1    3    3    0    0  0.78105300106E+01  0.19272266617E+02 -0.48727709740E+02  0.52979376519E+02  0.51100000000E-03 0.  1.
         23    2    1    0    0    0 -0.17308172619E+02 -0.44154367964E+01 -0.22632539214E+02  0.96257713361E+02  0.91838154537E+02 0.  0.
         11    1    3    3    0    0 -0.25118702630E+02 -0.23687703414E+02  0.26095170525E+02  0.43278336842E+02  0.51100000000E-03 0. -1.
         22    1    1    0    0    0  0.17308172619E+02  0.44154367964E+01  0.22632539214E+02  0.28832286639E+02  0.00000000000E+00 0.  1.
</event>
<event>
 4    1  0.1059945E-009  0.9118800E+02  0.7815553E-02  0.1125453E+00
         25   -1    0    0    0    0  0.00000000000E+00  0.00000000000E+00  0.99999998245E-14  0.12509000000E+03  0.12509000000E+03 0.  0.
        -11    1    1    0    0    0 -0.37237061879E+01  0.45072174581E+02 -0.39321204100E+02  0.59929325054E+02  0.51100000000E-03 0.  1.
         11    1    1    0    0    0 -0.13594190580E+01 -0.13690380988E+02 -0.10235851497E+01  0.13795734073E+02  0.51100000000E-03 0. -1.
         22    1    1    0    0    0  0.50831252460E+01 -0.31381793593E+02  0.40344789250E+02  0.51364940874E+02  0.00000000000E+00 0.  1.
</event>
<event>
 5    1  0.1059945E-009  0.9118800E+02  0.7815553E-02  0.1125453E+00
         25   -1    0    0    0    0  0.00000000000E+00  0.00000000000E+00  0.99999998245E-14  0.12509000000E+03  0.12509000000E+03 0.  0.
        -11    1    3    3    0    0 -0.26680774505E+02  0.43826750228E+02  0.69975115967E+00  0.51314105426E+02  0.51100000000E-03 0. -1.
         23    2    1    0    0    0 -0.16466529555E+01  0.16740181789E+02  0.24618036286E+02  0.95274016655E+02  0.90488371555E+02 0.  0.
         11    1    3    3    0    0  0.25034121549E+02 -0.27086568440E+02  0.23918285126E+02  0.43959911229E+02  0.51100000000E-03 0.  1.
         22    1    1    0    0    0  0.16466529555E+01 -0.16740181789E+02 -0.24618036286E+02  0.29815983345E+02  0.00000000000E+00 0. -1.
</event>
<event>
 5    1  0.1059945E-009  0.9118800E+02  0.7815553E-02  0.1125453E+00
         25   -1    0    0    0    0  0.00000000000E+00  0.00000000000E+00  0.99999998245E-14  0.12509000000E+03  0.12509000000E+03 0.  0.
        -11    1    3    3    0    0  0.13193051417E+02 -0.55095204697E+02 -0.19167630416E+02  0.59807493195E+02  0.51100000000E-03 0.  1.
         23    2    1    0    0    0 -0.70088891369E+01 -0.26113295391E+02 -0.94640543859E+01  0.96443934851E+02  0.92091451943E+02 0.  0.
         11    1    3    3    0    0 -0.20201940554E+02  0.28981909306E+02  0.97035760296E+01  0.36636441655E+02  0.51100000000E-03 0. -1.
         22    1    1    0    0    0  0.70088891369E+01  0.26113295391E+02  0.94640543859E+01  0.28646065149E+02  0.00000000000E+00 0.  1.
</event>
<event>
 5    1  0.1059945E-009  0.9118800E+02  0.7815553E-02  0.1125453E+00
         25   -1    0    0    0    0  0.00000000000E+00  0.00000000000E+00  0.99999998245E-14  0.12509000000E+03  0.12509000000E+03 0.  0.
        -11    1    3    3    0    0  0.47680125874E+02 -0.22052530405E+02 -0.79794923324E+01  0.53135494716E+02  0.51100000000E-03 0. -1.
         23    2    1    0    0    0  0.14420285998E+02  0.14192681594E+02 -0.10306191155E+02  0.10238329537E+03  0.99833585207E+02 0.  0.
         11    1    3    3    0    0 -0.33259839875E+02  0.36245211999E+02 -0.23266988222E+01  0.49247800652E+02  0.51100000000E-03 0.  1.
         22    1    1    0    0    0 -0.14420285998E+02 -0.14192681594E+02  0.10306191155E+02  0.22706704631E+02  0.00000000000E+00 0. -1.
</event>
<event>
 5    1  0.1059945E-009  0.9118800E+02  0.7815553E-02  0.1125453E+00
         25   -1    0    0    0    0  0.00000000000E+00  0.00000000000E+00  0.99999998245E-14  0.12509000000E+03  0.12509000000E+03 0.  0.
        -11    1    3    3    0    0 -0.13441683198E+02 -0.51042473337E+02 -0.30806757248E+02  0.61115212704E+02  0.51100000000E-03 0.  1.
         23    2    1    0    0    0  0.33544350536E+01 -0.23971507495E+02 -0.13747389873E+02  0.97253402966E+02  0.93184485050E+02 0.  0.
         11    1    3    3    0    0  0.16796118251E+02  0.27070965842E+02  0.17059367374E+02  0.36138190262E+02  0.51100000000E-03 0. -1.
         22    1    1    0    0    0 -0.33544350536E+01  0.23971507495E+02  0.13747389873E+02  0.27836597034E+02  0.00000000000E+00 0.  1.
</event>
<event>
 5    1  0.1059945E-009  0.9118800E+02  0.7815553E-02  0.1125453E+00
         25   -1    0    0    0    0  0.00000000000E+00  0.00000000000E+00  0.99999998245E-14  0.12509000000E+03  0.12509000000E+03 0.  0.
        -11    1    3    3    0    0 -0.43485391850E+02 -0.16755109022E+02 -0.40564856571E+02  0.61783659422E+02  0.51100000000E-03 0.  1.
         23    2    1    0    0    0 -0.21716830098E+02 -0.15652024477E+02 -0.21139202610E+02  0.90980287795E+02  0.84344177633E+02 0.  0.
         11    1    3    3    0    0  0.21768561753E+02  0.11030845449E+01  0.19425653960E+02  0.29196628373E+02  0.51100000000E-03 0. -1.
         22    1    1    0    0    0  0.21716830098E+02  0.15652024477E+02  0.21139202610E+02  0.34109712205E+02  0.00000000000E+00 0.  1.
</event>
<event>
 5    1  0.1059945E-009  0.9118800E+02  0.7815553E-02  0.1125453E+00
         25   -1    0    0    0    0  0.00000000000E+00  0.00000000000E+00  0.99999998245E-14  0.12509000000E+03  0.12509000000E+03 0.  0.
        -11    1    3    3    0    0 -0.37679782200E+02  0.14608882896E+02  0.43377290921E+01  0.40644819351E+02  0.51100000000E-03 0. -1.
         23    2    1    0    0    0  0.18072267900E+02  0.81565842654E+01  0.17892607414E+02  0.98382657677E+02  0.94688252690E+02 0.  0.
         11    1    3    3    0    0  0.55752050100E+02 -0.64522986308E+01  0.13554878322E+02  0.57737838326E+02  0.51100000000E-03 0.  1.
         22    1    1    0    0    0 -0.18072267900E+02 -0.81565842654E+01 -0.17892607414E+02  0.26707342323E+02  0.00000000000E+00 0.  1.
</event>
<event>
 5    1  0.1059945E-009  0.9118800E+02  0.7815553E-02  0.1125453E+00
         25   -1    0    0    0    0  0.00000000000E+00  0.00000000000E+00  0.99999998245E-14  0.12509000000E+03  0.12509000000E+03 0.  0.
        -11    1    3    3    0    0  0.29768918804E+02 -0.46476422592E+02  0.18113663620E+02  0.58089165890E+02  0.51100000000E-03 0. -1.
         23    2    1    0    0    0  0.70891348486E+01 -0.19047112992E+02  0.23428167223E+02  0.94075046096E+02  0.88815465615E+02 0.  0.
         11    1    3    3    0    0 -0.22679783956E+02  0.27429309601E+02  0.53145036031E+01  0.35985880207E+02  0.51100000000E-03 0.  1.
         22    1    1    0    0    0 -0.70891348486E+01  0.19047112992E+02 -0.23428167223E+02  0.31014953904E+02  0.00000000000E+00 0. -1.
</event>
<event>
 5    1  0.1059945E-009  0.9118800E+02  0.7815553E-02  0.1125453E+00
         25   -1    0    0    0    0  0.00000000000E+00  0.00000000000E+00  0.99999998245E-14  0.12509000000E+03  0.12509000000E+03 0.  0.
        -11    1    3    3    0    0  0.17928270642E+01 -0.45708829396E+01  0.36116733440E+02  0.36448945587E+02  0.51100000000E-03 0.  1.
         23    2    1    0    0    0  0.11280423208E+02 -0.25289760659E+02 -0.15843451924E+02  0.93186474947E+02  0.87555035276E+02 0.  0.
         11    1    3    3    0    0  0.94875961439E+01 -0.20718877719E+02 -0.51960185364E+02  0.56737529360E+02  0.51100000000E-03 0. -1.
         22    1    1    0    0    0 -0.11280423208E+02  0.25289760659E+02  0.15843451924E+02  0.31903525053E+02  0.00000000000E+00 0. -1.
</event>
<event>
 5    1  0.1059945E-009  0.9118800E+02  0.7815553E-02  0.1125453E+00
         25   -1    0    0    0    0  0.00000000000E+00  0.00000000000E+00  0.99999998245E-14  0.12509000000E+03  0.12509000000E+03 0.  0.
        -11    1    3    3    0    0  0.59453797356E+01  0.40519611646E+02 -0.10227097803E+02  0.42211135946E+02  0.51100000000E-03 0.  1.
         23    2    1    0    0    0  0.71633662940E+01  0.87816401737E+01  0.29741350044E+02  0.93262670184E+02  0.87663827926E+02 0.  0.
         11    1    3    3    0    0  0.12179865584E+01 -0.31737971472E+02  0.39968447847E+02  0.51051534237E+02  0.51100000000E-03 0. -1.
         22    1    1    0    0    0 -0.71633662940E+01 -0.87816401737E+01 -0.29741350044E+02  0.31827329816E+02  0.00000000000E+00 0. -1.
</event>
<event>
 5    1  0.1059945E-009  0.9118800E+02  0.7815553E-02  0.1125453E+00
         25   -1    0    0    0    0  0.00000000000E+00  0.00000000000E+00  0.99999998245E-14  0.12509000000E+03  0.12509000000E+03 0.  0.
        -11    1    3    3    0    0  0.24017293541E+02  0.31601271759E+02 -0.24330244920E+02  0.46555682617E+02  0.51100000000E-03 0. -1.
         23    2    1    0    0    0 -0.20311862165E+02  0.20477996752E+02 -0.11626751914E+02  0.93991745135E+02  0.88698064792E+02 0.  0.
         11    1    3    3    0    0 -0.44329155705E+02 -0.11123275007E+02  0.12703493006E+02  0.47436062518E+02  0.51100000000E-03 0.  1.
         22    1    1    0    0    0  0.20311862165E+02 -0.20477996752E+02  0.11626751914E+02  0.31098254865E+02  0.00000000000E+00 0. -1.
</event>
<event>
 5    1  0.1059945E-009  0.9118800E+02  0.7815553E-02  0.1125453E+00
         25   -1    0    0    0    0  0.00000000000E+00  0.00000000000E+00  0.99999998245E-14  0.12509000000E+03  0.12509000000E+03 0.  0.
        -11    1    3    3    0    0 -0.50499002195E+02  0.34809516206E+02 -0.92373916338E+01  0.62025648289E+02  0.51100000000E-03 0. -1.
         23    2    1    0    0    0 -0.28479873442E+02  0.14124780117E+02 -0.12468947517E+01  0.93275422349E+02  0.87682022463E+02 0.  0.
         11    1    3    3    0    0  0.22019128754E+02 -0.20684736089E+02  0.79904968821E+01  0.31249774060E+02  0.51100000000E-03 0.  1.
         22    1    1    0    0    0  0.28479873442E+02 -0.14124780117E+02  0.12468947517E+01  0.31814577651E+02  0.00000000000E+00 0. -1.
</event>
<event>
 5    1  0.1059945E-009  0.9118800E+02  0.7815553E-02  0.1125453E+00
         25   -1    0    0    0    0  0.00000000000E+00  0.00000000000E+00  0.99999998245E-14  0.12509000000E+03  0.12509000000E+03 0.  0.
        -11    1    3    3    0    0  0.14967031453E+02  0.19803558340E+02  0.51368879766E+02  0.57052210843E+02  0.51100000000E-03 0.  1.
         23    2    1    0    0    0  0.57471734498E+01 -0.88236379521E+01  0.28111382400E+02  0.95071065812E+02  0.90207378550E+02 0.  0.
         11    1    3    3    0    0 -0.92198580036E+01 -0.28627196292E+02 -0.23257497366E+02  0.38018854969E+02  0.51100000000E-03 0. -1.
         22    1    1    0    0    0 -0.57471734498E+01  0.88236379521E+01 -0.28111382400E+02  0.30018934188E+02  0.00000000000E+00 0.  1.
</event>
<event>
 5    1  0.1059945E-009  0.9118800E+02  0.7815553E-02  0.1125453E+00
         25   -1    0    0    0    0  0.00000000000E+00  0.00000000000E+00  0.99999998245E-14  0.12509000000E+03  0.12509000000E+03 0.  0.
        -11    1    3    3    0    0 -0.28102931348E+02  0.18471388180E+02 -0.12446430504E+02  0.35859176848E+02  0.51100000000E-03 0.  1.
         23    2    1    0    0    0  0.24269091028E+02 -0.77833844525E+01 -0.16734588970E+02  0.94600389952E+02  0.89552316878E+02 0.  0.
         11    1    3    3    0    0  0.52372022376E+02 -0.26254772632E+02 -0.42881584663E+01  0.58741213105E+02  0.51100000000E-03 0. -1.
         22    1    1    0    0    0 -0.24269091028E+02  0.77833844525E+01  0.16734588970E+02  0.30489610048E+02  0.00000000000E+00 0. -1.
</event>
<event>
 5    1  0.1059945E-009  0.9118800E+02  0.7815553E-02  0.1125453E+00
         25   -1    0    0    0    0  0.00000000000E+00  0.00000000000E+00  0.99999998245E-14  0.12509000000E+03  0.12509000000E+03 0.  0.
        -11    1    3    3    0    0  0.32773528572E+02 -0.21953849475E+02 -0.10121051278E+02  0.40724824875E+02  0.51100000000E-03 0.  1.
         23    2    1    0    0    0  0.18085624898E+02  0.26664358143E+02  0.15372277377E+01  0.92834133987E+02  0.87050189781E+02 0.  0.
         11    1    3    3    0    0 -0.14687903674E+02  0.48618207618E+02  0.11658279016E+02  0.52109309112E+02  0.51100000000E-03 0. -1.
         22    1    1    0    0    0 -0.18085624898E+02 -0.26664358143E+02 -0.15372277377E+01  0.32255866013E+02  0.00000000000E+00 0. -1.
</event>
<event>
 5    1  0.1059945E-009  0.9118800E+02  0.7815553E-02  0.1125453E+00
         25   -1    0    0    0    0  0.00000000000E+00  0.00000000000E+00  0.99999998245E-14  0.12509000000E+03  0.12509000000E+03 0.  0.
        -11    1    3    3    0    0  0.21354157688E+02 -0.20902992794E+02 -0.26383728501E+02  0.39862718023E+02  0.51100000000E-03 0.  1.
         23    2    1    0    0    0 -0.26079913509E+02 -0.17229444693E+02 -0.93223971488E+00  0.93818851573E+02  0.88453898651E+02 0.  0.
         11    1    3    3    0    0 -0.47434071197E+02  0.36735481006E+01  0.25451488786E+02  0.53956133550E+02  0.51100000000E-03 0. -1.
         22    1    1    0    0    0  0.26079913509E+02  0.17229444693E+02  0.93223971488E+00  0.31271148427E+02  0.00000000000E+00 0.  1.
</event>
<event>
 5    1  0.1059945E-009  0.9118800E+02  0.7815553E-02  0.1125453E+00
         25   -1    0    0    0    0  0.00000000000E+00  0.00000000000E+00  0.99999998245E-14  0.12509000000E+03  0.12509000000E+03 0.  0.
        -11    1    3    3    0    0 -0.32075704315E+02  0.13619569770E+02  0.47156857743E+02  0.58635422062E+02  0.51100000000E-03 0.  1.
         23    2    1    0    0    0 -0.15987643350E+02  0.18932943550E+02  0.12227188450E+02  0.97457315933E+02  0.93457815083E+02 0.  0.
         11    1    3    3    0    0  0.16088060965E+02  0.53133737800E+01 -0.34929669293E+02  0.38821893870E+02  0.51100000000E-03 0. -1.
         22    1    1    0    0    0  0.15987643350E+02 -0.18932943550E+02 -0.12227188450E+02  0.27632684067E+02  0.00000000000E+00 0.  1.
</event>
<event>
 5    1  0.1059945E-009  0.9118800E+02  0.7815553E-02  0.1125453E+00
         25   -1    0    0    0    0  0.00000000000E+00  0.00000000000E+00  0.99999998245E-14  0.12509000000E+03  0.12509000000E+03 0.  0.
        -11    1    3    3    0    0 -0.66000151084E+01  0.60818025860E+01 -0.61388961854E+02  0.62041543823E+02  0.51100000000E-03 0.  1.
         23    2    1    0    0    0 -0.85096057066E+01  0.19347606695E+01 -0.27450574235E+02  0.96285647656E+02  0.91876195125E+02 0.  0.
         11    1    3    3    0    0 -0.19095905982E+01 -0.41470419165E+01  0.33938387619E+02  0.34244103834E+02  0.51100000000E-03 0. -1.
         22    1    1    0    0    0  0.85096057066E+01 -0.19347606695E+01  0.27450574235E+02  0.28804352344E+02  0.00000000000E+00 0.  1.
</event>
<event>
 5    1  0.1059945E-009  0.9118800E+02  0.7815553E-02  0.1125453E+00
         25   -1    0    0    0    0  0.00000000000E+00  0.00000000000E+00  0.99999998245E-14  0.12509000000E+03  0.12509000000E+03 0.  0.
        -11    1    3    3    0    0 -0.14335847423E+02  0.18552359605E+02  0.49964658023E+02  0.55192151796E+02  0.51100000000E-03 0.  1.
         23    2    1    0    0    0 -0.17929408317E+02  0.21347616013E+02  0.99126535787E+01  0.95502078596E+02  0.90803094238E+02 0.  0.
         11    1    3    3    0    0 -0.35935608937E+01  0.27952564081E+01 -0.40052004445E+02  0.40309926800E+02  0.51100000000E-03 0. -1.
         22    1    1    0    0    0  0.17929408317E+02 -0.21347616013E+02 -0.99126535787E+01  0.29587921404E+02  0.00000000000E+00 0.  1.
</event>
<event>
 5    1  0.1059945E-009  0.9118800E+02  0.7815553E-02  0.1125453E+00
         25   -1    0    0    0    0  0.00000000000E+00  0.00000000000E+00  0.99999998245E-14  0.12509000000E+03  0.12509000000E+03 0.  0.
        -11    1    3    3    0    0  0.17655899494E+02 -0.45957277184E+02 -0.34725364871E+02  0.60246602218E+02  0.51100000000E-03 0. -1.
         23    2    1    0    0    0 -0.19637092529E+01 -0.25619381945E+02 -0.22104940215E+02  0.91195497980E+02  0.84662752050E+02 0.  0.
         11    1    3    3    0    0 -0.19619608747E+02  0.20337895239E+02  0.12620424656E+02  0.30948895762E+02  0.51100000000E-03 0.  1.
         22    1    1    0    0    0  0.19637092529E+01  0.25619381945E+02  0.22104940215E+02  0.33894502020E+02  0.00000000000E+00 0. -1.
</event>
<event>
 5    1  0.1059945E-009  0.9118800E+02  0.7815553E-02  0.1125453E+00
         25   -1    0    0    0    0  0.00000000000E+00  0.00000000000E+00  0.99999998245E-14  0.12509000000E+03  0.12509000000E+03 0.  0.
        -11    1    3    3    0    0  0.68563466708E+01 -0.40235163416E+02  0.23683862990E+01  0.40883824659E+02  0.51100000000E-03 0.  1.
         23    2    1    0    0    0 -0.38645261899E+01  0.44159837608E+01  0.30030072777E+02  0.94491948653E+02  0.89400713722E+02 0.  0.
         11    1    3    3    0    0 -0.10720872861E+02  0.44651147177E+02  0.27661686478E+02  0.53608123994E+02  0.51100000000E-03 0. -1.
         22    1    1    0    0    0  0.38645261899E+01 -0.44159837608E+01 -0.30030072777E+02  0.30598051347E+02  0.00000000000E+00 0. -1.
</event>
<event>
 5    1  0.1059945E-009  0.9118800E+02  0.7815553E-02  0.1125453E+00
         25   -1    0    0    0    0  0.00000000000E+00  0.00000000000E+00  0.99999998245E-14  0.12509000000E+03  0.12509000000E+03 0.  0.
        -11    1    3    3    0    0  0.16847848858E+02 -0.35196444463E+02  0.43473635175E+01  0.39262441134E+02  0.51100000000E-03 0. -1.
         23    2    1    0    0    0  0.17378405945E+02  0.15969760263E+02 -0.18305414764E+02  0.95221447211E+02  0.90415671004E+02 0.  0.
         11    1    3    3    0    0  0.53055708684E+00  0.51166204726E+02 -0.22652778281E+02  0.55959006076E+02  0.51100000000E-03 0.  1.
         22    1    1    0    0    0 -0.17378405945E+02 -0.15969760263E+02  0.18305414764E+02  0.29868552789E+02  0.00000000000E+00 0.  1.
</event>
<event>
 5    1  0.1059945E-009  0.9118800E+02  0.7815553E-02  0.1125453E+00
         25   -1    0    0    0    0  0.00000000000E+00  0.00000000000E+00  0.99999998245E-14  0.12509000000E+03  0.12509000000E+03 0.  0.
        -11    1    3    3    0    0 -0.14944418405E+02 -0.44071301569E+02  0.25689097799E+02  0.53155855834E+02  0.51100000000E-03 0. -1.
         23    2    1    0    0    0  0.13721703848E+02 -0.25529052992E+02 -0.36914938486E+00  0.96104590318E+02  0.91629352861E+02 0.  0.
         11    1    3    3    0    0  0.28666122253E+02  0.18542248577E+02 -0.26058247183E+02  0.42948734485E+02  0.51100000000E-03 0.  1.
         22    1    1    0    0    0 -0.13721703848E+02  0.25529052992E+02  0.36914938486E+00  0.28985409682E+02  0.00000000000E+00 0.  1.
</event>
<event>
 5    1  0.1059945E-009  0.9118800E+02  0.7815553E-02  0.1125453E+00
         25   -1    0    0    0    0  0.00000000000E+00  0.00000000000E+00  0.99999998245E-14  0.12509000000E+03  0.12509000000E+03 0.  0.
        -11    1    3    3    0    0 -0.35466112198E+02  0.63891059313E+01  0.15248756026E+02  0.39130427415E+02  0.51100000000E-03 0.  1.
         23    2    1    0    0    0  0.17451107067E+02 -0.84812446347E+01  0.23393093502E+02  0.94697410903E+02  0.89687736953E+02 0.  0.
         11    1    3    3    0    0  0.52917219266E+02 -0.14870350566E+02  0.81443374758E+01  0.55566983488E+02  0.51100000000E-03 0. -1.
         22    1    1    0    0    0 -0.17451107067E+02  0.84812446347E+01 -0.23393093502E+02  0.30392589097E+02  0.00000000000E+00 0. -1.
</event>
<event>
 5    1  0.1059945E-009  0.9118800E+02  0.7815553E-02  0.1125453E+00
         25   -1    0    0    0    0  0.00000000000E+00  0.00000000000E+00  0.99999998245E-14  0.12509000000E+03  0.12509000000E+03 0.  0.
        -11    1    3    3    0    0 -0.32399841805E+02  0.30418808441E+02  0.27511568956E+02  0.52267964210E+02  0.51100000000E-03 0.  1.
         23    2    1    0    0    0  0.64042051803E+01  0.10508796987E+02  0.26475544062E+02  0.95894056935E+02  0.91341485996E+02 0.  0.
         11    1    3    3    0    0  0.38804046986E+02 -0.19910011454E+02 -0.10360248944E+01  0.43626092725E+02  0.51100000000E-03 0. -1.
         22    1    1    0    0    0 -0.64042051803E+01 -0.10508796987E+02 -0.26475544062E+02  0.29195943065E+02  0.00000000000E+00 0.  1.
</event>
<event>
 5    1  0.1059945E-009  0.9118800E+02  0.7815553E-02  0.1125453E+00
         25   -1    0    0    0    0  0.00000000000E+00  0.00000000000E+00  0.99999998245E-14  0.12509000000E+03  0.12509000000E+03 0.  0.
        -11    1    3    3    0    0 -0.12403638206E+02 -0.43668875275E+01  0.14244077857E+02  0.19385915034E+02  0.51100000000E-03 0.  1.
         23    2    1    0    0    0 -0.24047851699E+02  0.29665897326E+02 -0.30086351657E+02  0.76473611904E+02  0.59031009869E+02 0.  0.
         11    1    3    3    0    0 -0.11644213493E+02  0.34032784853E+02 -0.44330429515E+02  0.57087696870E+02  0.51100000000E-03 0. -1.
         22    1    1    0    0    0  0.24047851699E+02 -0.29665897326E+02  0.30086351657E+02  0.48616388096E+02  0.00000000000E+00 0. -1.
</event>
<event>
 5    1  0.1059945E-009  0.9118800E+02  0.7815553E-02  0.1125453E+00
         25   -1    0    0    0    0  0.00000000000E+00  0.00000000000E+00  0.99999998245E-14  0.12509000000E+03  0.12509000000E+03 0.  0.
        -11    1    3    3    0    0  0.46859004627E+02  0.17996648729E+02 -0.29004164789E+02  0.57973159785E+02  0.51100000000E-03 0.  1.
         23    2    1    0    0    0  0.12283940911E+02  0.16695960548E+02 -0.24708751737E+02  0.92838291281E+02  0.87056163553E+02 0.  0.
         11    1    3    3    0    0 -0.34575063715E+02 -0.13006881811E+01  0.42954130517E+01  0.34865131496E+02  0.51100000000E-03 0. -1.
         22    1    1    0    0    0 -0.12283940911E+02 -0.16695960548E+02  0.24708751737E+02  0.32251708719E+02  0.00000000000E+00 0.  1.
</event>
<event>
 5    1  0.1059945E-009  0.9118800E+02  0.7815553E-02  0.1125453E+00
         25   -1    0    0    0    0  0.00000000000E+00  0.00000000000E+00  0.99999998245E-14  0.12509000000E+03  0.12509000000E+03 0.  0.
        -11    1    3    3    0    0 -0.31995865713E+02 -0.47669507451E+02 -0.19628233609E+02  0.60674417329E+02  0.51100000000E-03 0.  1.
         23    2    1    0    0    0 -0.15447873863E+02 -0.16441737215E+02 -0.18300126798E+02  0.96040694150E+02  0.91542081922E+02 0.  0.
         11    1    3    3    0    0  0.16547991850E+02  0.31227770237E+02  0.13281068111E+01  0.35366276821E+02  0.51100000000E-03 0. -1.
         22    1    1    0    0    0  0.15447873863E+02  0.16441737215E+02  0.18300126798E+02  0.29049305850E+02  0.00000000000E+00 0.  1.
</event>
<event>
 5    1  0.1059945E-009  0.9118800E+02  0.7815553E-02  0.1125453E+00
         25   -1    0    0    0    0  0.00000000000E+00  0.00000000000E+00  0.99999998245E-14  0.12509000000E+03  0.12509000000E+03 0.  0.
        -11    1    3    3    0    0  0.34269320480E+02  0.18341977252E+02 -0.32691243242E+02  0.50789091748E+02  0.51100000000E-03 0. -1.
         23    2    1    0    0    0 -0.94984922231E+01  0.18302977515E+01 -0.25113818075E+02  0.98177638478E+02  0.94417019093E+02 0.  0.
         11    1    3    3    0    0 -0.43767812703E+02 -0.16511679500E+02  0.75774251665E+01  0.47388546730E+02  0.51100000000E-03 0.  1.
         22    1    1    0    0    0  0.94984922231E+01 -0.18302977515E+01  0.25113818075E+02  0.26912361522E+02  0.00000000000E+00 0. -1.
</event>
<event>
 5    1  0.1059945E-009  0.9118800E+02  0.7815553E-02  0.1125453E+00
         25   -1    0    0    0    0  0.00000000000E+00  0.00000000000E+00  0.99999998245E-14  0.12509000000E+03  0.12509000000E+03 0.  0.
        -11    1    3    3    0    0  0.85589432052E+01 -0.36672247005E+02 -0.18279998338E+02  0.41860094944E+02  0.51100000000E-03 0. -1.
         23    2    1    0    0    0  0.26238018433E+02  0.12304828656E+02 -0.41423859422E+01  0.95815407247E+02  0.91233713533E+02 0.  0.
         11    1    3    3    0    0  0.17679075228E+02  0.48977075661E+02  0.14137612396E+02  0.53955312303E+02  0.51100000000E-03 0.  1.
         22    1    1    0    0    0 -0.26238018433E+02 -0.12304828656E+02  0.41423859422E+01  0.29274592753E+02  0.00000000000E+00 0.  1.
</event>
<event>
 5    1  0.1059945E-009  0.9118800E+02  0.7815553E-02  0.1125453E+00
         25   -1    0    0    0    0  0.00000000000E+00  0.00000000000E+00  0.99999998245E-14  0.12509000000E+03  0.12509000000E+03 0.  0.
        -11    1    3    3    0    0  0.52251058084E+02 -0.16827438571E+02 -0.25491326125E+02  0.60523908232E+02  0.51100000000E-03 0.  1.
         23    2    1    0    0    0  0.25164286767E+02 -0.15079847723E+02 -0.33300309261E+01  0.95564887946E+02  0.90889578975E+02 0.  0.
         11    1    3    3    0    0 -0.27086771317E+02  0.17475908479E+01  0.22161295199E+02  0.35040979714E+02  0.51100000000E-03 0. -1.
         22    1    1    0    0    0 -0.25164286767E+02  0.15079847723E+02  0.33300309261E+01  0.29525112054E+02  0.00000000000E+00 0.  1.
</event>
<event>
 5    1  0.1059945E-009  0.9118800E+02  0.7815553E-02  0.1125453E+00
         25   -1    0    0    0    0  0.00000000000E+00  0.00000000000E+00  0.99999998245E-14  0.12509000000E+03  0.12509000000E+03 0.  0.
        -11    1    3    3    0    0  0.21296894900E+02  0.24823765256E+02  0.63486540183E+01  0.33317900023E+02  0.51100000000E-03 0.  1.
         23    2    1    0    0    0 -0.24778187467E+02 -0.15781971645E+02 -0.34558192935E+01  0.95510076232E+02  0.90814111083E+02 0.  0.
         11    1    3    3    0    0 -0.46075082367E+02 -0.40605736901E+02 -0.98044733117E+01  0.62192176208E+02  0.51100000000E-03 0. -1.
         22    1    1    0    0    0  0.24778187467E+02  0.15781971645E+02  0.34558192935E+01  0.29579923768E+02  0.00000000000E+00 0. -1.
</event>
<event>
 5    1  0.1059945E-009  0.9118800E+02  0.7815553E-02  0.1125453E+00
         25   -1    0    0    0    0  0.00000000000E+00  0.00000000000E+00  0.99999998245E-14  0.12509000000E+03  0.12509000000E+03 0.  0.
        -11    1    3    3    0    0  0.20751862898E+02  0.10423217348E+02 -0.54963929161E+02  0.59668390147E+02  0.51100000000E-03 0.  1.
         23    2    1    0    0    0  0.14008715279E+02 -0.77578124660E+01 -0.27017381267E+02  0.93683525372E+02  0.88262315162E+02 0.  0.
         11    1    3    3    0    0 -0.67431476186E+01 -0.18181029814E+02  0.27946547895E+02  0.34015135225E+02  0.51100000000E-03 0. -1.
         22    1    1    0    0    0 -0.14008715279E+02  0.77578124660E+01  0.27017381267E+02  0.31406474628E+02  0.00000000000E+00 0.  1.
</event>
<event>
 5    1  0.1059945E-009  0.9118800E+02  0.7815553E-02  0.1125453E+00
         25   -1    0    0    0    0  0.00000000000E+00  0.00000000000E+00  0.99999998245E-14  0.12509000000E+03  0.12509000000E+03 0.  0.
        -11    1    3    3    0    0 -0.78418670952E+01  0.34337170316E+02 -0.45261729170E+02  0.57351201143E+02  0.51100000000E-03 0.  1.
         23    2    1    0    0    0  0.88120369995E+01  0.29771356559E+01 -0.25408901337E+02  0.98032143471E+02  0.94224060376E+02 0.  0.
         11    1    3    3    0    0  0.16653904095E+02 -0.31360034660E+02  0.19852827834E+02  0.40680942328E+02  0.51100000000E-03 0. -1.
         22    1    1    0    0    0 -0.88120369995E+01 -0.29771356559E+01  0.25408901337E+02  0.27057856529E+02  0.00000000000E+00 0.  1.
</event>
<event>
 5    1  0.1059945E-009  0.9118800E+02  0.7815553E-02  0.1125453E+00
         25   -1    0    0    0    0  0.00000000000E+00  0.00000000000E+00  0.99999998245E-14  0.12509000000E+03  0.12509000000E+03 0.  0.
        -11    1    3    3    0    0  0.22196904240E+02  0.37522275514E+02 -0.33348585760E+02  0.54888540608E+02  0.51100000000E-03 0.  1.
         23    2    1    0    0    0  0.55910291953E+01  0.47722187653E+00 -0.28810551541E+02  0.95738079649E+02  0.91127628448E+02 0.  0.
         11    1    3    3    0    0 -0.16605875045E+02 -0.37045053638E+02  0.45380342182E+01  0.40849539041E+02  0.51100000000E-03 0. -1.
         22    1    1    0    0    0 -0.55910291953E+01 -0.47722187653E+00  0.28810551541E+02  0.29351920351E+02  0.00000000000E+00 0.  1.
</event>
<event>
 5    1  0.1059945E-009  0.9118800E+02  0.7815553E-02  0.1125453E+00
         25   -1    0    0    0    0  0.00000000000E+00  0.00000000000E+00  0.99999998245E-14  0.12509000000E+03  0.12509000000E+03 0.  0.
        -11    1    3    3    0    0  0.14401824920E+02  0.93605404370E+01  0.28790787862E+02  0.33525240405E+02  0.51100000000E-03 0. -1.
         23    2    1    0    0    0 -0.24125659049E+02  0.99748803545E+01 -0.17429124948E+02  0.93700191796E+02  0.88285932535E+02 0.  0.
         11    1    3    3    0    0 -0.38527483969E+02  0.61433991749E+00 -0.46219912810E+02  0.60174951391E+02  0.51100000000E-03 0.  1.
         22    1    1    0    0    0  0.24125659049E+02 -0.99748803545E+01  0.17429124948E+02  0.31389808204E+02  0.00000000000E+00 0.  1.
</event>
<event>
 5    1  0.1059945E-009  0.9118800E+02  0.7815553E-02  0.1125453E+00
         25   -1    0    0    0    0  0.00000000000E+00  0.00000000000E+00  0.99999998245E-14  0.12509000000E+03  0.12509000000E+03 0.  0.
        -11    1    3    3    0    0  0.28857387455E+02 -0.10168076371E+01  0.19571247965E+02  0.34882896320E+02  0.51100000000E-03 0. -1.
         23    2    1    0    0    0  0.27080411020E+01  0.17453140753E+02 -0.27857488934E+02  0.92105377849E+02  0.85996600690E+02 0.  0.
         11    1    3    3    0    0 -0.26149346353E+02  0.18469948390E+02 -0.47428736899E+02  0.57222481529E+02  0.51100000000E-03 0.  1.
         22    1    1    0    0    0 -0.27080411020E+01 -0.17453140753E+02  0.27857488934E+02  0.32984622151E+02  0.00000000000E+00 0.  1.
</event>
<event>
 5    1  0.1059945E-009  0.9118800E+02  0.7815553E-02  0.1125453E+00
         25   -1    0    0    0    0  0.00000000000E+00  0.00000000000E+00  0.99999998245E-14  0.12509000000E+03  0.12509000000E+03 0.  0.
        -11    1    3    3    0    0 -0.40054131239E+02 -0.29746051740E+02  0.15948282474E+02  0.52378514084E+02  0.51100000000E-03 0. -1.
         23    2    1    0    0    0 -0.25385859624E+02 -0.19945295230E+01 -0.14227969880E+02  0.95920578618E+02  0.91377799594E+02 0.  0.
         11    1    3    3    0    0  0.14668271616E+02  0.27751522217E+02 -0.30176252354E+02  0.43542064535E+02  0.51100000000E-03 0.  1.
         22    1    1    0    0    0  0.25385859624E+02  0.19945295230E+01  0.14227969880E+02  0.29169421382E+02  0.00000000000E+00 0.  1.
</event>
<event>
 5    1  0.1059945E-009  0.9118800E+02  0.7815553E-02  0.1125453E+00
         25   -1    0    0    0    0  0.00000000000E+00  0.00000000000E+00  0.99999998245E-14  0.12509000000E+03  0.12509000000E+03 0.  0.
        -11    1    3    3    0    0 -0.28967826210E+02  0.18555521078E+02 -0.17307063234E+02  0.38509437231E+02  0.51100000000E-03 0.  1.
         23    2    1    0    0    0  0.24453793059E+02  0.17739281862E+02  0.64508991062E+00  0.94872682831E+02  0.89931861376E+02 0.  0.
         11    1    3    3    0    0  0.53421619268E+02 -0.81623921659E+00  0.17952153145E+02  0.56363245599E+02  0.51100000000E-03 0. -1.
         22    1    1    0    0    0 -0.24453793059E+02 -0.17739281862E+02 -0.64508991062E+00  0.30217317169E+02  0.00000000000E+00 0. -1.
</event>
<event>
 5    1  0.1059945E-009  0.9118800E+02  0.7815553E-02  0.1125453E+00
         25   -1    0    0    0    0  0.00000000000E+00  0.00000000000E+00  0.99999998245E-14  0.12509000000E+03  0.12509000000E+03 0.  0.
        -11    1    3    3    0    0 -0.42798437355E+01  0.34805760292E+02  0.22356236822E+02  0.41587971062E+02  0.51100000000E-03 0.  1.
         23    2    1    0    0    0  0.15193278037E+02 -0.15129434604E+02  0.20813434354E+02  0.95207989717E+02  0.90397050657E+02 0.  0.
         11    1    3    3    0    0  0.19473121772E+02 -0.49935194896E+02 -0.15428024678E+01  0.53620018655E+02  0.51100000000E-03 0. -1.
         22    1    1    0    0    0 -0.15193278037E+02  0.15129434604E+02 -0.20813434354E+02  0.29882010283E+02  0.00000000000E+00 0. -1.
</event>
<event>
 5    1  0.1059945E-009  0.9118800E+02  0.7815553E-02  0.1125453E+00
         25   -1    0    0    0    0  0.00000000000E+00  0.00000000000E+00  0.99999998245E-14  0.12509000000E+03  0.12509000000E+03 0.  0.
        -11    1    3    3    0    0  0.26180410526E+02  0.13552259600E+02  0.34746687657E+02  0.45567641359E+02  0.51100000000E-03 0. -1.
         23    2    1    0    0    0  0.20679604995E+02 -0.89808931968E+01 -0.13295532254E+02  0.98916087735E+02  0.95390349247E+02 0.  0.
         11    1    3    3    0    0 -0.55008055308E+01 -0.22533152797E+02 -0.48042219911E+02  0.53348446376E+02  0.51100000000E-03 0.  1.
         22    1    1    0    0    0 -0.20679604995E+02  0.89808931968E+01  0.13295532254E+02  0.26173912265E+02  0.00000000000E+00 0.  1.
</event>
<event>
 5    1  0.1059945E-009  0.9118800E+02  0.7815553E-02  0.1125453E+00
         25   -1    0    0    0    0  0.00000000000E+00  0.00000000000E+00  0.99999998245E-14  0.12509000000E+03  0.12509000000E+03 0.  0.
        -11    1    3    3    0    0 -0.29993126836E+02  0.21273876047E+02  0.31145128931E+02  0.48189049751E+02  0.51100000000E-03 0.  1.
         23    2    1    0    0    0 -0.18385461667E+02  0.11407300960E+02 -0.16287415814E+02  0.98008057127E+02  0.94192078393E+02 0.  0.
         11    1    3    3    0    0  0.11607665169E+02 -0.98665750869E+01 -0.47432544745E+02  0.49819007376E+02  0.51100000000E-03 0. -1.
         22    1    1    0    0    0  0.18385461667E+02 -0.11407300960E+02  0.16287415814E+02  0.27081942873E+02  0.00000000000E+00 0.  1.
</event>
<event>
 5    1  0.1059945E-009  0.9118800E+02  0.7815553E-02  0.1125453E+00
         25   -1    0    0    0    0  0.00000000000E+00  0.00000000000E+00  0.99999998245E-14  0.12509000000E+03  0.12509000000E+03 0.  0.
        -11    1    3    3    0    0 -0.86889427831E-01  0.13540964119E+02 -0.43209494554E+02  0.45281626284E+02  0.51100000000E-03 0.  1.
         23    2    1    0    0    0 -0.12130394197E+01 -0.25652640554E+02 -0.74477266118E+01  0.98350552292E+02  0.94645829663E+02 0.  0.
         11    1    3    3    0    0 -0.11261499918E+01 -0.39193604673E+02  0.35761767942E+02  0.53068926008E+02  0.51100000000E-03 0. -1.
         22    1    1    0    0    0  0.12130394197E+01  0.25652640554E+02  0.74477266118E+01  0.26739447708E+02  0.00000000000E+00 0.  1.
</event>
<event>
 5    1  0.1059945E-009  0.9118800E+02  0.7815553E-02  0.1125453E+00
         25   -1    0    0    0    0  0.00000000000E+00  0.00000000000E+00  0.99999998245E-14  0.12509000000E+03  0.12509000000E+03 0.  0.
        -11    1    3    3    0    0 -0.31081520772E+02  0.16138728489E+02 -0.44743586545E+01  0.35306364531E+02  0.51100000000E-03 0.  1.
         23    2    1    0    0    0  0.26809472843E+02  0.19888391521E+01 -0.12505987691E+02  0.95440328106E+02  0.90717987111E+02 0.  0.
         11    1    3    3    0    0  0.57890993615E+02 -0.14149889337E+02 -0.80316290364E+01  0.60133963575E+02  0.51100000000E-03 0. -1.
         22    1    1    0    0    0 -0.26809472843E+02 -0.19888391521E+01  0.12505987691E+02  0.29649671894E+02  0.00000000000E+00 0. -1.
</event>
<event>
 5    1  0.1059945E-009  0.9118800E+02  0.7815553E-02  0.1125453E+00
         25   -1    0    0    0    0  0.00000000000E+00  0.00000000000E+00  0.99999998245E-14  0.12509000000E+03  0.12509000000E+03 0.  0.
        -11    1    3    3    0    0  0.31117615637E+02  0.12013759828E+02 -0.48634935931E+02  0.58974515016E+02  0.51100000000E-03 0. -1.
         23    2    1    0    0    0  0.18159672781E+02  0.18530484888E+02 -0.16205889472E+02  0.94499422377E+02  0.89411170389E+02 0.  0.
         11    1    3    3    0    0 -0.12957942856E+02  0.65167250598E+01  0.32429046459E+02  0.35524907361E+02  0.51100000000E-03 0.  1.
         22    1    1    0    0    0 -0.18159672781E+02 -0.18530484888E+02  0.16205889472E+02  0.30590577623E+02  0.00000000000E+00 0. -1.
</event>
<event>
 5    1  0.1059945E-009  0.9118800E+02  0.7815553E-02  0.1125453E+00
         25   -1    0    0    0    0  0.00000000000E+00  0.00000000000E+00  0.99999998245E-14  0.12509000000E+03  0.12509000000E+03 0.  0.
        -11    1    3    3    0    0  0.22530184723E+02  0.56940245509E+02 -0.16950664162E+01  0.61259073064E+02  0.51100000000E-03 0.  1.
         23    2    1    0    0    0  0.10610349617E+02  0.28209818100E+02 -0.97908460479E+01  0.93400348336E+02  0.87860065142E+02 0.  0.
         11    1    3    3    0    0 -0.11919835106E+02 -0.28730427408E+02 -0.80957796318E+01  0.32141275272E+02  0.51100000000E-03 0. -1.
         22    1    1    0    0    0 -0.10610349617E+02 -0.28209818100E+02  0.97908460479E+01  0.31689651664E+02  0.00000000000E+00 0.  1.
</event>
<event>
 5    1  0.1059945E-009  0.9118800E+02  0.7815553E-02  0.1125453E+00
         25   -1    0    0    0    0  0.00000000000E+00  0.00000000000E+00  0.99999998245E-14  0.12509000000E+03  0.12509000000E+03 0.  0.
        -11    1    3    3    0    0 -0.37838958167E+02 -0.19434028808E+01  0.87599865855E+01  0.38888313606E+02  0.51100000000E-03 0. -1.
         23    2    1    0    0    0  0.78638155641E+01  0.27910304604E+02 -0.60879648495E+01  0.95460824947E+02  0.90746245571E+02 0.  0.
         11    1    3    3    0    0  0.45702773731E+02  0.29853707485E+02 -0.14847951435E+02  0.56572511340E+02  0.51100000000E-03 0.  1.
         22    1    1    0    0    0 -0.78638155641E+01 -0.27910304604E+02  0.60879648495E+01  0.29629175053E+02  0.00000000000E+00 0.  1.
</event>
<event>
 5    1  0.1059945E-009  0.9118800E+02  0.7815553E-02  0.1125453E+00
         25   -1    0    0    0    0  0.00000000000E+00  0.00000000000E+00  0.99999998245E-14  0.12509000000E+03  0.12509000000E+03 0.  0.
        -11    1    3    3    0    0 -0.25933826572E+02  0.16633745749E+02 -0.91732247476E+01  0.32146429209E+02  0.51100000000E-03 0. -1.
         23    2    1    0    0    0  0.20885483581E+02 -0.16626591620E+02  0.15013318117E+02  0.94462452037E+02  0.89359432354E+02 0.  0.
         11    1    3    3    0    0  0.46819310153E+02 -0.33260337370E+02  0.24186542864E+02  0.62316022829E+02  0.51100000000E-03 0.  1.
         22    1    1    0    0    0 -0.20885483581E+02  0.16626591620E+02 -0.15013318117E+02  0.30627547963E+02  0.00000000000E+00 0.  1.
</event>
<event>
 5    1  0.1059945E-009  0.9118800E+02  0.7815553E-02  0.1125453E+00
         25   -1    0    0    0    0  0.00000000000E+00  0.00000000000E+00  0.99999998245E-14  0.12509000000E+03  0.12509000000E+03 0.  0.
        -11    1    3    3    0    0 -0.36719795762E+02  0.14343752795E+02  0.32084819865E+02  0.50828361287E+02  0.51100000000E-03 0.  1.
         23    2    1    0    0    0 -0.27553743703E+02 -0.11982259133E+02 -0.21380312911E+01  0.94967674330E+02  0.90063892120E+02 0.  0.
         11    1    3    3    0    0  0.91660520590E+01 -0.26326011928E+02 -0.34222851156E+02  0.44139313043E+02  0.51100000000E-03 0. -1.
         22    1    1    0    0    0  0.27553743703E+02  0.11982259133E+02  0.21380312911E+01  0.30122325670E+02  0.00000000000E+00 0.  1.
</event>
<event>
 5    1  0.1059945E-009  0.9118800E+02  0.7815553E-02  0.1125453E+00
         25   -1    0    0    0    0  0.00000000000E+00  0.00000000000E+00  0.99999998245E-14  0.12509000000E+03  0.12509000000E+03 0.  0.
        -11    1    3    3    0    0 -0.23190958819E+02 -0.21234859927E+02 -0.45571802374E+02  0.55367219714E+02  0.51100000000E-03 0.  1.
         23    2    1    0    0    0 -0.22056624362E+02  0.76647193006E+01 -0.15661328424E+02  0.96973815902E+02  0.92808411054E+02 0.  0.
         11    1    3    3    0    0  0.11343344566E+01  0.28899579227E+02  0.29910473949E+02  0.41606596188E+02  0.51100000000E-03 0. -1.
         22    1    1    0    0    0  0.22056624362E+02 -0.76647193006E+01  0.15661328424E+02  0.28116184098E+02  0.00000000000E+00 0. -1.
</event>
<event>
 5    1  0.1059945E-009  0.9118800E+02  0.7815553E-02  0.1125453E+00
         25   -1    0    0    0    0  0.00000000000E+00  0.00000000000E+00  0.99999998245E-14  0.12509000000E+03  0.12509000000E+03 0.  0.
        -11    1    3    3    0    0 -0.12595366834E+02 -0.18411867950E+02  0.35836556397E+02  0.42212544601E+02  0.51100000000E-03 0.  1.
         23    2    1    0    0    0 -0.15473290368E+02  0.25216326649E+02  0.66962389976E+01  0.94756430128E+02  0.89770014979E+02 0.  0.
         11    1    3    3    0    0 -0.28779235339E+01  0.43628194599E+02 -0.29140317399E+02  0.52543885526E+02  0.51100000000E-03 0. -1.
         22    1    1    0    0    0  0.15473290368E+02 -0.25216326649E+02 -0.66962389976E+01  0.30333569872E+02  0.00000000000E+00 0.  1.
</event>
<event>
 5    1  0.1059945E-009  0.9118800E+02  0.7815553E-02  0.1125453E+00
         25   -1    0    0    0    0  0.00000000000E+00  0.00000000000E+00  0.99999998245E-14  0.12509000000E+03  0.12509000000E+03 0.  0.
        -11    1    3    3    0    0  0.28190598945E+01  0.50150751702E+02 -0.14521362924E+02  0.52286852806E+02  0.51100000000E-03 0. -1.
         23    2    1    0    0    0  0.11297421389E+02  0.10578441360E+02 -0.26420364794E+02  0.94470221629E+02  0.89370307973E+02 0.  0.
         11    1    3    3    0    0  0.84783614942E+01 -0.39572310342E+02 -0.11899001870E+02  0.42183368823E+02  0.51100000000E-03 0.  1.
         22    1    1    0    0    0 -0.11297421389E+02 -0.10578441360E+02  0.26420364794E+02  0.30619778371E+02  0.00000000000E+00 0.  1.
</event>
<event>
 5    1  0.1059945E-009  0.9118800E+02  0.7815553E-02  0.1125453E+00
         25   -1    0    0    0    0  0.00000000000E+00  0.00000000000E+00  0.99999998245E-14  0.12509000000E+03  0.12509000000E+03 0.  0.
        -11    1    3    3    0    0 -0.31927695744E+02  0.12360148265E+02  0.26252909353E+02  0.43143554216E+02  0.51100000000E-03 0.  1.
         23    2    1    0    0    0  0.63413585248E+00 -0.26418289350E+02  0.13751105711E+02  0.95300386898E+02  0.90524818112E+02 0.  0.
         11    1    3    3    0    0  0.32561831597E+02 -0.38778437616E+02 -0.12501803642E+02  0.52156832682E+02  0.51100000000E-03 0. -1.
         22    1    1    0    0    0 -0.63413585248E+00  0.26418289350E+02 -0.13751105711E+02  0.29789613102E+02  0.00000000000E+00 0. -1.
</event>
<event>
 5    1  0.1059945E-009  0.9118800E+02  0.7815553E-02  0.1125453E+00
         25   -1    0    0    0    0  0.00000000000E+00  0.00000000000E+00  0.99999998245E-14  0.12509000000E+03  0.12509000000E+03 0.  0.
        -11    1    3    3    0    0  0.14898545703E+02 -0.12944539683E+02  0.31673973680E+02  0.37319812173E+02  0.51100000000E-03 0.  1.
         23    2    1    0    0    0  0.29047180717E+02 -0.53811894474E+01 -0.18659992267E+02  0.90148746175E+02  0.83101776263E+02 0.  0.
         11    1    3    3    0    0  0.14148635014E+02  0.75633502351E+01 -0.50333965947E+02  0.52828934002E+02  0.51100000000E-03 0. -1.
         22    1    1    0    0    0 -0.29047180717E+02  0.53811894474E+01  0.18659992267E+02  0.34941253825E+02  0.00000000000E+00 0. -1.
</event>
<event>
 5    1  0.1059945E-009  0.9118800E+02  0.7815553E-02  0.1125453E+00
         25   -1    0    0    0    0  0.00000000000E+00  0.00000000000E+00  0.99999998245E-14  0.12509000000E+03  0.12509000000E+03 0.  0.
        -11    1    3    3    0    0  0.39151713408E+02 -0.12578953458E+01 -0.16273567162E+02  0.42417778725E+02  0.51100000000E-03 0.  1.
         23    2    1    0    0    0 -0.11474548960E+02 -0.14703998801E+02 -0.23273677082E+02  0.95264894811E+02  0.90475760753E+02 0.  0.
         11    1    3    3    0    0 -0.50626262368E+02 -0.13446103455E+02 -0.70001099202E+01  0.52847116086E+02  0.51100000000E-03 0. -1.
         22    1    1    0    0    0  0.11474548960E+02  0.14703998801E+02  0.23273677082E+02  0.29825105189E+02  0.00000000000E+00 0. -1.
</event>
<event>
 5    1  0.1059945E-009  0.9118800E+02  0.7815553E-02  0.1125453E+00
         25   -1    0    0    0    0  0.00000000000E+00  0.00000000000E+00  0.99999998245E-14  0.12509000000E+03  0.12509000000E+03 0.  0.
        -11    1    3    3    0    0  0.27337371946E+02  0.39526794400E+02  0.75151125994E+01  0.48643358212E+02  0.51100000000E-03 0.  1.
         23    2    1    0    0    0 -0.71124337127E+01  0.17521759626E+02  0.25533614038E+02  0.93316359674E+02  0.87740405534E+02 0.  0.
         11    1    3    3    0    0 -0.34449805658E+02 -0.22005034774E+02  0.18018501439E+02  0.44673001463E+02  0.51100000000E-03 0. -1.
         22    1    1    0    0    0  0.71124337127E+01 -0.17521759626E+02 -0.25533614038E+02  0.31773640326E+02  0.00000000000E+00 0. -1.
</event>
<event>
 5    1  0.1059945E-009  0.9118800E+02  0.7815553E-02  0.1125453E+00
         25   -1    0    0    0    0  0.00000000000E+00  0.00000000000E+00  0.99999998245E-14  0.12509000000E+03  0.12509000000E+03 0.  0.
        -11    1    3    3    0    0 -0.17207891713E+01  0.51515435953E+02  0.29619392168E+02  0.59448378022E+02  0.51100000000E-03 0. -1.
         23    2    1    0    0    0 -0.60501573339E+01  0.15919432601E+02  0.23874270854E+02  0.95764012431E+02  0.91163219173E+02 0.  0.
         11    1    3    3    0    0 -0.43293681626E+01 -0.35596003352E+02 -0.57451213137E+01  0.36315634409E+02  0.51100000000E-03 0.  1.
         22    1    1    0    0    0  0.60501573339E+01 -0.15919432601E+02 -0.23874270854E+02  0.29325987569E+02  0.00000000000E+00 0. -1.
</event>
<event>
 5    1  0.1059945E-009  0.9118800E+02  0.7815553E-02  0.1125453E+00
         25   -1    0    0    0    0  0.00000000000E+00  0.00000000000E+00  0.99999998245E-14  0.12509000000E+03  0.12509000000E+03 0.  0.
        -11    1    3    3    0    0 -0.36292740187E+02 -0.44513230329E+01  0.22817195589E+02  0.43099903501E+02  0.51100000000E-03 0. -1.
         23    2    1    0    0    0 -0.26212675415E+02  0.16082117528E+02 -0.17684741110E+02  0.89614812549E+02  0.82294141367E+02 0.  0.
         11    1    3    3    0    0  0.10080064772E+02  0.20533440561E+02 -0.40501936698E+02  0.46514909047E+02  0.51100000000E-03 0.  1.
         22    1    1    0    0    0  0.26212675415E+02 -0.16082117528E+02  0.17684741110E+02  0.35475187451E+02  0.00000000000E+00 0. -1.
</event>
<event>
 5    1  0.1059945E-009  0.9118800E+02  0.7815553E-02  0.1125453E+00
         25   -1    0    0    0    0  0.00000000000E+00  0.00000000000E+00  0.99999998245E-14  0.12509000000E+03  0.12509000000E+03 0.  0.
        -11    1    3    3    0    0 -0.63666914184E+01  0.11267673268E+02  0.31534456652E+02  0.34086906241E+02  0.51100000000E-03 0. -1.
         23    2    1    0    0    0 -0.10646430038E+02 -0.42204392846E+00 -0.28116195128E+02  0.95022658546E+02  0.90140227507E+02 0.  0.
         11    1    3    3    0    0 -0.42797386197E+01 -0.11689717196E+02 -0.59650651781E+02  0.60935752304E+02  0.51100000000E-03 0.  1.
         22    1    1    0    0    0  0.10646430038E+02  0.42204392846E+00  0.28116195128E+02  0.30067341454E+02  0.00000000000E+00 0.  1.
</event>
<event>
 5    1  0.1059945E-009  0.9118800E+02  0.7815553E-02  0.1125453E+00
         25   -1    0    0    0    0  0.00000000000E+00  0.00000000000E+00  0.99999998245E-14  0.12509000000E+03  0.12509000000E+03 0.  0.
        -11    1    3    3    0    0  0.45162457146E+01 -0.23641505481E+02 -0.48929399197E+02  0.54528922260E+02  0.51100000000E-03 0.  1.
         23    2    1    0    0    0 -0.16575098761E+02 -0.20234143650E+02 -0.14136229250E+02  0.95358073631E+02  0.90604496362E+02 0.  0.
         11    1    3    3    0    0 -0.21091344476E+02  0.34073618306E+01  0.34793169947E+02  0.40829151371E+02  0.51100000000E-03 0. -1.
         22    1    1    0    0    0  0.16575098761E+02  0.20234143650E+02  0.14136229250E+02  0.29731926369E+02  0.00000000000E+00 0.  1.
</event>
<event>
 5    1  0.1059945E-009  0.9118800E+02  0.7815553E-02  0.1125453E+00
         25   -1    0    0    0    0  0.00000000000E+00  0.00000000000E+00  0.99999998245E-14  0.12509000000E+03  0.12509000000E+03 0.  0.
        -11    1    3    3    0    0  0.37508623973E+02  0.24375206513E+02 -0.38292073228E+02  0.58884042296E+02  0.51100000000E-03 0.  1.
         23    2    1    0    0    0  0.21837362870E+02  0.29512366390E+02 -0.31484090942E+02  0.76725775934E+02  0.59562962680E+02 0.  0.
         11    1    3    3    0    0 -0.15671261102E+02  0.51371598770E+01  0.68079822853E+01  0.17841733638E+02  0.51100000000E-03 0. -1.
         22    1    1    0    0    0 -0.21837362870E+02 -0.29512366390E+02  0.31484090942E+02  0.48364224066E+02  0.00000000000E+00 0.  1.
</event>
<event>
 5    1  0.1059945E-009  0.9118800E+02  0.7815553E-02  0.1125453E+00
         25   -1    0    0    0    0  0.00000000000E+00  0.00000000000E+00  0.99999998245E-14  0.12509000000E+03  0.12509000000E+03 0.  0.
        -11    1    3    3    0    0  0.26523457948E+02  0.44828255486E+02 -0.78859148864E+01  0.52680679240E+02  0.51100000000E-03 0.  1.
         23    2    1    0    0    0  0.35083205779E+02  0.10887409268E+02 -0.10761311182E+01  0.88340509303E+02  0.80333806816E+02 0.  0.
         11    1    3    3    0    0  0.85597478311E+01 -0.33940846217E+02  0.68097837682E+01  0.35659830063E+02  0.51100000000E-03 0. -1.
         22    1    1    0    0    0 -0.35083205779E+02 -0.10887409268E+02  0.10761311182E+01  0.36749490697E+02  0.00000000000E+00 0.  1.
</event>
<event>
 5    1  0.1059945E-009  0.9118800E+02  0.7815553E-02  0.1125453E+00
         25   -1    0    0    0    0  0.00000000000E+00  0.00000000000E+00  0.99999998245E-14  0.12509000000E+03  0.12509000000E+03 0.  0.
        -11    1    3    3    0    0  0.24413131301E+02  0.37734669696E+02  0.67193855615E+01  0.45442891849E+02  0.51100000000E-03 0.  1.
         23    2    1    0    0    0  0.30361201906E+01  0.90550011696E+01 -0.28130189730E+02  0.95382784610E+02  0.90638606310E+02 0.  0.
         11    1    3    3    0    0 -0.21377011111E+02 -0.28679668526E+02 -0.34849575291E+02  0.49939892761E+02  0.51100000000E-03 0. -1.
         22    1    1    0    0    0 -0.30361201906E+01 -0.90550011696E+01  0.28130189730E+02  0.29707215390E+02  0.00000000000E+00 0. -1.
</event>
<event>
 5    1  0.1059945E-009  0.9118800E+02  0.7815553E-02  0.1125453E+00
         25   -1    0    0    0    0  0.00000000000E+00  0.00000000000E+00  0.99999998245E-14  0.12509000000E+03  0.12509000000E+03 0.  0.
        -11    1    3    3    0    0 -0.28609378254E+02  0.29668273757E+02  0.18850246005E+02  0.45321460330E+02  0.51100000000E-03 0.  1.
         23    2    1    0    0    0  0.15664027565E+02 -0.93043717849E+01  0.14706976037E+01  0.10681170562E+03  0.10523613644E+03 0.  0.
         11    1    3    3    0    0  0.44273405819E+02 -0.38972645542E+02 -0.17379548401E+02  0.61490245293E+02  0.51100000000E-03 0. -1.
         22    1    1    0    0    0 -0.15664027565E+02  0.93043717849E+01 -0.14706976037E+01  0.18278294377E+02  0.00000000000E+00 0. -1.
</event>
<event>
 5    1  0.1059945E-009  0.9118800E+02  0.7815553E-02  0.1125453E+00
         25   -1    0    0    0    0  0.00000000000E+00  0.00000000000E+00  0.99999998245E-14  0.12509000000E+03  0.12509000000E+03 0.  0.
        -11    1    3    3    0    0  0.18040134987E+02  0.45036601334E+02 -0.35269622895E+02  0.59980732152E+02  0.51100000000E-03 0. -1.
         23    2    1    0    0    0  0.18297243674E+01  0.14107811829E+02 -0.24909189871E+02  0.96404707847E+02  0.92038153552E+02 0.  0.
         11    1    3    3    0    0 -0.16210410620E+02 -0.30928789505E+02  0.10360433024E+02  0.36423975695E+02  0.51100000000E-03 0.  1.
         22    1    1    0    0    0 -0.18297243674E+01 -0.14107811829E+02  0.24909189871E+02  0.28685292153E+02  0.00000000000E+00 0. -1.
</event>
<event>
 5    1  0.1059945E-009  0.9118800E+02  0.7815553E-02  0.1125453E+00
         25   -1    0    0    0    0  0.00000000000E+00  0.00000000000E+00  0.99999998245E-14  0.12509000000E+03  0.12509000000E+03 0.  0.
        -11    1    3    3    0    0 -0.90149931308E+01  0.16224249932E+02  0.13012996989E+02  0.22667917371E+02  0.51100000000E-03 0.  1.
         23    2    1    0    0    0  0.37053236907E+02 -0.17572989073E+02  0.18567309806E+02  0.80073366366E+02  0.66221195228E+02 0.  0.
         11    1    3    3    0    0  0.46068230038E+02 -0.33797239006E+02  0.55543128171E+01  0.57405448996E+02  0.51100000000E-03 0. -1.
         22    1    1    0    0    0 -0.37053236907E+02  0.17572989073E+02 -0.18567309806E+02  0.45016633634E+02  0.00000000000E+00 0. -1.
</event>
<event>
 5    1  0.1059945E-009  0.9118800E+02  0.7815553E-02  0.1125453E+00
         25   -1    0    0    0    0  0.00000000000E+00  0.00000000000E+00  0.99999998245E-14  0.12509000000E+03  0.12509000000E+03 0.  0.
        -11    1    3    3    0    0 -0.17653262639E+02  0.39395954507E+02  0.21255326895E+02  0.48119308339E+02  0.51100000000E-03 0.  1.
         23    2    1    0    0    0 -0.31775675805E+02  0.17257449657E+02 -0.86427539403E+01  0.87911910523E+02  0.79663628304E+02 0.  0.
         11    1    3    3    0    0 -0.14122413166E+02 -0.22138504851E+02 -0.29898080836E+02  0.39792602184E+02  0.51100000000E-03 0. -1.
         22    1    1    0    0    0  0.31775675805E+02 -0.17257449657E+02  0.86427539403E+01  0.37178089477E+02  0.00000000000E+00 0.  1.
</event>
<event>
 5    1  0.1059945E-009  0.9118800E+02  0.7815553E-02  0.1125453E+00
         25   -1    0    0    0    0  0.00000000000E+00  0.00000000000E+00  0.99999998245E-14  0.12509000000E+03  0.12509000000E+03 0.  0.
        -11    1    3    3    0    0 -0.16613057576E+02  0.31679245273E+02 -0.63395795256E+01  0.36328481003E+02  0.51100000000E-03 0. -1.
         23    2    1    0    0    0  0.20554576122E+02 -0.15527425168E+02 -0.11990017080E+02  0.96676059029E+02  0.92406213795E+02 0.  0.
         11    1    3    3    0    0  0.37167633699E+02 -0.47206670441E+02 -0.56504375548E+01  0.60347578027E+02  0.51100000000E-03 0.  1.
         22    1    1    0    0    0 -0.20554576122E+02  0.15527425168E+02  0.11990017080E+02  0.28413940971E+02  0.00000000000E+00 0.  1.
</event>
<event>
 5    1  0.1059945E-009  0.9118800E+02  0.7815553E-02  0.1125453E+00
         25   -1    0    0    0    0  0.00000000000E+00  0.00000000000E+00  0.99999998245E-14  0.12509000000E+03  0.12509000000E+03 0.  0.
        -11    1    3    3    0    0 -0.32049222863E+02  0.14623421691E+02  0.10069730088E+02  0.36638731042E+02  0.51100000000E-03 0.  1.
         23    2    1    0    0    0  0.75587647699E+01 -0.11322258958E+02 -0.25717858884E+02  0.95991258818E+02  0.91474504815E+02 0.  0.
         11    1    3    3    0    0  0.39607987633E+02 -0.25945680649E+02 -0.35787588972E+02  0.59352527776E+02  0.51100000000E-03 0. -1.
         22    1    1    0    0    0 -0.75587647699E+01  0.11322258958E+02  0.25717858884E+02  0.29098741182E+02  0.00000000000E+00 0. -1.
</event>
<event>
 5    1  0.1059945E-009  0.9118800E+02  0.7815553E-02  0.1125453E+00
         25   -1    0    0    0    0  0.00000000000E+00  0.00000000000E+00  0.99999998245E-14  0.12509000000E+03  0.12509000000E+03 0.  0.
        -11    1    3    3    0    0  0.72851222206E+01  0.59767412643E+02  0.80224534629E+01  0.60741883241E+02  0.51100000000E-03 0. -1.
         23    2    1    0    0    0  0.54172328550E+01  0.34696874909E+02  0.15107205228E+02  0.86861120994E+02  0.77996199588E+02 0.  0.
         11    1    3    3    0    0 -0.18678893656E+01 -0.25070537734E+02  0.70847517652E+01  0.26119237753E+02  0.51100000000E-03 0.  1.
         22    1    1    0    0    0 -0.54172328550E+01 -0.34696874909E+02 -0.15107205228E+02  0.38228879006E+02  0.00000000000E+00 0. -1.
</event>
<event>
 5    1  0.1059945E-009  0.9118800E+02  0.7815553E-02  0.1125453E+00
         25   -1    0    0    0    0  0.00000000000E+00  0.00000000000E+00  0.99999998245E-14  0.12509000000E+03  0.12509000000E+03 0.  0.
        -11    1    3    3    0    0 -0.18906841882E+02 -0.48633185373E+02  0.24428598810E+02  0.57614337014E+02  0.51100000000E-03 0. -1.
         23    2    1    0    0    0 -0.23871649241E+02 -0.13987079493E+02  0.79276976689E+01  0.96309061506E+02  0.91908067696E+02 0.  0.
         11    1    3    3    0    0 -0.49648073591E+01  0.34646105880E+02 -0.16500901141E+02  0.38694724492E+02  0.51100000000E-03 0.  1.
         22    1    1    0    0    0  0.23871649241E+02  0.13987079493E+02 -0.79276976689E+01  0.28780938494E+02  0.00000000000E+00 0. -1.
</event>
<event>
 5    1  0.1059945E-009  0.9118800E+02  0.7815553E-02  0.1125453E+00
         25   -1    0    0    0    0  0.00000000000E+00  0.00000000000E+00  0.99999998245E-14  0.12509000000E+03  0.12509000000E+03 0.  0.
        -11    1    3    3    0    0 -0.70407965879E+01 -0.32100093767E+02  0.15591061031E+02  0.36374029482E+02  0.51100000000E-03 0. -1.
         23    2    1    0    0    0 -0.13234824770E+02  0.25713801607E+02  0.84828949288E+01  0.94951657542E+02  0.90041643609E+02 0.  0.
         11    1    3    3    0    0 -0.61940281821E+01  0.57813895374E+02 -0.71081661022E+01  0.58577628059E+02  0.51100000000E-03 0.  1.
         22    1    1    0    0    0  0.13234824770E+02 -0.25713801607E+02 -0.84828949288E+01  0.30138342458E+02  0.00000000000E+00 0.  1.
</event>
<event>
 5    1  0.1059945E-009  0.9118800E+02  0.7815553E-02  0.1125453E+00
         25   -1    0    0    0    0  0.00000000000E+00  0.00000000000E+00  0.99999998245E-14  0.12509000000E+03  0.12509000000E+03 0.  0.
        -11    1    3    3    0    0 -0.53973863763E+02  0.14250454192E+02  0.27502536228E+02  0.62230562535E+02  0.51100000000E-03 0.  1.
         23    2    1    0    0    0 -0.24661545213E+02  0.25163425117E+01  0.14453615381E+02  0.96394516218E+02  0.92024300961E+02 0.  0.
         11    1    3    3    0    0  0.29312318550E+02 -0.11734111680E+02 -0.13048920847E+02  0.34163953683E+02  0.51100000000E-03 0. -1.
         22    1    1    0    0    0  0.24661545213E+02 -0.25163425117E+01 -0.14453615381E+02  0.28695483782E+02  0.00000000000E+00 0.  1.
</event>
<event>
 5    1  0.1059945E-009  0.9118800E+02  0.7815553E-02  0.1125453E+00
         25   -1    0    0    0    0  0.00000000000E+00  0.00000000000E+00  0.99999998245E-14  0.12509000000E+03  0.12509000000E+03 0.  0.
        -11    1    3    3    0    0 -0.23099521316E+02  0.15030734105E+02 -0.83213119114E+01  0.28788106658E+02  0.51100000000E-03 0.  1.
         23    2    1    0    0    0  0.17085270007E+02 -0.30656807795E+02 -0.30245704570E+01  0.89863669764E+02  0.82671547715E+02 0.  0.
         11    1    3    3    0    0  0.40184791323E+02 -0.45687541900E+02  0.52967414544E+01  0.61075563107E+02  0.51100000000E-03 0. -1.
         22    1    1    0    0    0 -0.17085270007E+02  0.30656807795E+02  0.30245704570E+01  0.35226330236E+02  0.00000000000E+00 0. -1.
</event>
<event>
 5    1  0.1059945E-009  0.9118800E+02  0.7815553E-02  0.1125453E+00
         25   -1    0    0    0    0  0.00000000000E+00  0.00000000000E+00  0.99999998245E-14  0.12509000000E+03  0.12509000000E+03 0.  0.
        -11    1    3    3    0    0 -0.89888667252E+01  0.19788759048E+02 -0.50838818612E+02  0.55289964621E+02  0.51100000000E-03 0. -1.
         23    2    1    0    0    0  0.87166393170E+01  0.22564675276E+02 -0.11950437951E+02  0.98109315455E+02  0.94326456737E+02 0.  0.
         11    1    3    3    0    0  0.17705506042E+02  0.27759162288E+01  0.38888380661E+02  0.42819350834E+02  0.51100000000E-03 0.  1.
         22    1    1    0    0    0 -0.87166393170E+01 -0.22564675276E+02  0.11950437951E+02  0.26980684545E+02  0.00000000000E+00 0. -1.
</event>
<event>
 5    1  0.1059945E-009  0.9118800E+02  0.7815553E-02  0.1125453E+00
         25   -1    0    0    0    0  0.00000000000E+00  0.00000000000E+00  0.99999998245E-14  0.12509000000E+03  0.12509000000E+03 0.  0.
        -11    1    3    3    0    0  0.34060177700E+02  0.28433600063E+02 -0.32161487374E+02  0.54798965208E+02  0.51100000000E-03 0.  1.
         23    2    1    0    0    0  0.26744014414E+02 -0.47534330194E+01 -0.71297133314E+01  0.97006726604E+02  0.92852758504E+02 0.  0.
         11    1    3    3    0    0 -0.73161632855E+01 -0.33187033083E+02  0.25031774043E+02  0.42207761396E+02  0.51100000000E-03 0. -1.
         22    1    1    0    0    0 -0.26744014414E+02  0.47534330194E+01  0.71297133314E+01  0.28083273396E+02  0.00000000000E+00 0.  1.
</event>
<event>
 5    1  0.1059945E-009  0.9118800E+02  0.7815553E-02  0.1125453E+00
         25   -1    0    0    0    0  0.00000000000E+00  0.00000000000E+00  0.99999998245E-14  0.12509000000E+03  0.12509000000E+03 0.  0.
        -11    1    3    3    0    0  0.37278892802E+02 -0.39982026198E+00 -0.15269774736E+02  0.40286992014E+02  0.51100000000E-03 0.  1.
         23    2    1    0    0    0 -0.52447145397E-02  0.19299271787E+02  0.21474046277E+02  0.96217927291E+02  0.91783947124E+02 0.  0.
         11    1    3    3    0    0 -0.37284137517E+02  0.19699092049E+02  0.36743821014E+02  0.55930935276E+02  0.51100000000E-03 0. -1.
         22    1    1    0    0    0  0.52447145397E-02 -0.19299271787E+02 -0.21474046277E+02  0.28872072709E+02  0.00000000000E+00 0. -1.
</event>
<event>
 5    1  0.1059945E-009  0.9118800E+02  0.7815553E-02  0.1125453E+00
         25   -1    0    0    0    0  0.00000000000E+00  0.00000000000E+00  0.99999998245E-14  0.12509000000E+03  0.12509000000E+03 0.  0.
        -11    1    3    3    0    0  0.10875756115E+02 -0.30436450796E+02 -0.66243627896E+01  0.32993056706E+02  0.51100000000E-03 0.  1.
         23    2    1    0    0    0 -0.26122944324E+02  0.15854899711E+02  0.68675267713E+01  0.93769894812E+02  0.88384637715E+02 0.  0.
         11    1    3    3    0    0 -0.36998700440E+02  0.46291350508E+02  0.13491889561E+02  0.60776838106E+02  0.51100000000E-03 0. -1.
         22    1    1    0    0    0  0.26122944324E+02 -0.15854899711E+02 -0.68675267713E+01  0.31320105188E+02  0.00000000000E+00 0. -1.
</event>
<event>
 5    1  0.1059945E-009  0.9118800E+02  0.7815553E-02  0.1125453E+00
         25   -1    0    0    0    0  0.00000000000E+00  0.00000000000E+00  0.99999998245E-14  0.12509000000E+03  0.12509000000E+03 0.  0.
        -11    1    3    3    0    0 -0.13515635795E+02  0.32771838079E+02 -0.44892414201E+02  0.57201351689E+02  0.51100000000E-03 0. -1.
         23    2    1    0    0    0  0.48126394839E+01  0.40772255466E+01 -0.30120323926E+02  0.94316323255E+02  0.89154638982E+02 0.  0.
         11    1    3    3    0    0  0.18328275278E+02 -0.28694612532E+02  0.14772090274E+02  0.37114971567E+02  0.51100000000E-03 0.  1.
         22    1    1    0    0    0 -0.48126394839E+01 -0.40772255466E+01  0.30120323926E+02  0.30773676745E+02  0.00000000000E+00 0. -1.
</event>
<event>
 5    1  0.1059945E-009  0.9118800E+02  0.7815553E-02  0.1125453E+00
         25   -1    0    0    0    0  0.00000000000E+00  0.00000000000E+00  0.99999998245E-14  0.12509000000E+03  0.12509000000E+03 0.  0.
        -11    1    3    3    0    0  0.20980157015E+02  0.36113903686E+02 -0.43890505269E+02  0.60586776452E+02  0.51100000000E-03 0.  1.
         23    2    1    0    0    0 -0.13316853274E+01  0.19255735927E+02 -0.18214455112E+02  0.98550913224E+02  0.94910270099E+02 0.  0.
         11    1    3    3    0    0 -0.22311842343E+02 -0.16858167760E+02  0.25676050156E+02  0.37964136772E+02  0.51100000000E-03 0. -1.
         22    1    1    0    0    0  0.13316853274E+01 -0.19255735927E+02  0.18214455112E+02  0.26539086776E+02  0.00000000000E+00 0.  1.
</event>
<event>
 5    1  0.1059945E-009  0.9118800E+02  0.7815553E-02  0.1125453E+00
         25   -1    0    0    0    0  0.00000000000E+00  0.00000000000E+00  0.99999998245E-14  0.12509000000E+03  0.12509000000E+03 0.  0.
        -11    1    3    3    0    0  0.35056115689E+02  0.19015639102E+02  0.41194198723E+01  0.40093583003E+02  0.51100000000E-03 0.  1.
         23    2    1    0    0    0  0.40940029924E+01 -0.28021298004E+02  0.45501872995E+01  0.96407981124E+02  0.92042602189E+02 0.  0.
         11    1    3    3    0    0 -0.30962112697E+02 -0.47036937106E+02  0.43076742718E+00  0.56314398121E+02  0.51100000000E-03 0. -1.
         22    1    1    0    0    0 -0.40940029924E+01  0.28021298004E+02 -0.45501872995E+01  0.28682018876E+02  0.00000000000E+00 0. -1.
</event>
<event>
 5    1  0.1059945E-009  0.9118800E+02  0.7815553E-02  0.1125453E+00
         25   -1    0    0    0    0  0.00000000000E+00  0.00000000000E+00  0.99999998245E-14  0.12509000000E+03  0.12509000000E+03 0.  0.
        -11    1    3    3    0    0  0.31614325639E+02  0.22343943827E+02 -0.12069468782E+02  0.40551072591E+02  0.51100000000E-03 0. -1.
         23    2    1    0    0    0 -0.66369282285E+01 -0.14048248210E+02 -0.25681053278E+02  0.95074694045E+02  0.90212409658E+02 0.  0.
         11    1    3    3    0    0 -0.38251253868E+02 -0.36392192037E+02 -0.13611584497E+02  0.54523621454E+02  0.51100000000E-03 0.  1.
         22    1    1    0    0    0  0.66369282285E+01  0.14048248210E+02  0.25681053278E+02  0.30015305955E+02  0.00000000000E+00 0.  1.
</event>
<event>
 5    1  0.1059945E-009  0.9118800E+02  0.7815553E-02  0.1125453E+00
         25   -1    0    0    0    0  0.00000000000E+00  0.00000000000E+00  0.99999998245E-14  0.12509000000E+03  0.12509000000E+03 0.  0.
        -11    1    3    3    0    0  0.16843841018E+02 -0.95027094093E+01  0.42014115344E+02  0.46251511919E+02  0.51100000000E-03 0. -1.
         23    2    1    0    0    0 -0.21960577673E+02 -0.14981446492E+02  0.10627008848E+02  0.96460574093E+02  0.92114050646E+02 0.  0.
         11    1    3    3    0    0 -0.38804418690E+02 -0.54787370830E+01 -0.31387106496E+02  0.50209062174E+02  0.51100000000E-03 0.  1.
         22    1    1    0    0    0  0.21960577673E+02  0.14981446492E+02 -0.10627008848E+02  0.28629425907E+02  0.00000000000E+00 0. -1.
</event>
<event>
 5    1  0.1059945E-009  0.9118800E+02  0.7815553E-02  0.1125453E+00
         25   -1    0    0    0    0  0.00000000000E+00  0.00000000000E+00  0.99999998245E-14  0.12509000000E+03  0.12509000000E+03 0.  0.
        -11    1    3    3    0    0 -0.49377326958E+02  0.34616303844E+02 -0.82799531474E+01  0.60868436268E+02  0.51100000000E-03 0.  1.
         23    2    1    0    0    0 -0.27672941373E+02  0.70129384744E+01 -0.45783500916E+01  0.96177471922E+02  0.91728794964E+02 0.  0.
         11    1    3    3    0    0  0.21704385585E+02 -0.27603365370E+02  0.37016030558E+01  0.35309035654E+02  0.51100000000E-03 0. -1.
         22    1    1    0    0    0  0.27672941373E+02 -0.70129384744E+01  0.45783500916E+01  0.28912528078E+02  0.00000000000E+00 0.  1.
</event>
<event>
 5    1  0.1059945E-009  0.9118800E+02  0.7815553E-02  0.1125453E+00
         25   -1    0    0    0    0  0.00000000000E+00  0.00000000000E+00  0.99999998245E-14  0.12509000000E+03  0.12509000000E+03 0.  0.
        -11    1    3    3    0    0  0.27234802455E+02 -0.41628054484E+02  0.20043465457E+02  0.53631799267E+02  0.51100000000E-03 0.  1.
         23    2    1    0    0    0 -0.35820031399E+01 -0.31983679799E+02 -0.21826537366E+01  0.92832435038E+02  0.87047748378E+02 0.  0.
         11    1    3    3    0    0 -0.30816805595E+02  0.96443746848E+01 -0.22226119193E+02  0.39200635770E+02  0.51100000000E-03 0. -1.
         22    1    1    0    0    0  0.35820031399E+01  0.31983679799E+02  0.21826537366E+01  0.32257564962E+02  0.00000000000E+00 0.  1.
</event>
<event>
 5    1  0.1059945E-009  0.9118800E+02  0.7815553E-02  0.1125453E+00
         25   -1    0    0    0    0  0.00000000000E+00  0.00000000000E+00  0.99999998245E-14  0.12509000000E+03  0.12509000000E+03 0.  0.
        -11    1    3    3    0    0 -0.50314956271E+01  0.12636475072E+02  0.31540095173E+02  0.34347839150E+02  0.51100000000E-03 0. -1.
         23    2    1    0    0    0  0.14542054604E+02  0.67155362725E+01 -0.25518853131E+02  0.94960585060E+02  0.90054045274E+02 0.  0.
         11    1    3    3    0    0  0.19573550232E+02 -0.59209387996E+01 -0.57058948304E+02  0.60612745910E+02  0.51100000000E-03 0.  1.
         22    1    1    0    0    0 -0.14542054604E+02 -0.67155362725E+01  0.25518853131E+02  0.30129414940E+02  0.00000000000E+00 0.  1.
</event>
<event>
 5    1  0.1059945E-009  0.9118800E+02  0.7815553E-02  0.1125453E+00
         25   -1    0    0    0    0  0.00000000000E+00  0.00000000000E+00  0.99999998245E-14  0.12509000000E+03  0.12509000000E+03 0.  0.
        -11    1    3    3    0    0  0.37592102437E+02  0.14708740222E+02 -0.42073345268E+02  0.58306771363E+02  0.51100000000E-03 0.  1.
         23    2    1    0    0    0  0.69076067058E+01  0.19464081722E+02 -0.19394768340E+02  0.96757641351E+02  0.92516585611E+02 0.  0.
         11    1    3    3    0    0 -0.30684495731E+02  0.47553414993E+01  0.22678576928E+02  0.38450869987E+02  0.51100000000E-03 0. -1.
         22    1    1    0    0    0 -0.69076067058E+01 -0.19464081722E+02  0.19394768340E+02  0.28332358649E+02  0.00000000000E+00 0.  1.
</event>
<event>
 5    1  0.1059945E-009  0.9118800E+02  0.7815553E-02  0.1125453E+00
         25   -1    0    0    0    0  0.00000000000E+00  0.00000000000E+00  0.99999998245E-14  0.12509000000E+03  0.12509000000E+03 0.  0.
        -11    1    3    3    0    0  0.16849116281E+02 -0.25615312176E+02 -0.50657151337E+02  0.59213038422E+02  0.51100000000E-03 0.  1.
         23    2    1    0    0    0  0.10572288207E+02 -0.23388866956E+02 -0.15264863871E+02  0.95226503145E+02  0.90422665615E+02 0.  0.
         11    1    3    3    0    0 -0.62768280745E+01  0.22264452208E+01  0.35392287466E+02  0.36013464723E+02  0.51100000000E-03 0. -1.
         22    1    1    0    0    0 -0.10572288207E+02  0.23388866956E+02  0.15264863871E+02  0.29863496855E+02  0.00000000000E+00 0.  1.
</event>
<event>
 5    1  0.1059945E-009  0.9118800E+02  0.7815553E-02  0.1125453E+00
         25   -1    0    0    0    0  0.00000000000E+00  0.00000000000E+00  0.99999998245E-14  0.12509000000E+03  0.12509000000E+03 0.  0.
        -11    1    3    3    0    0 -0.33715438738E+02 -0.28480995405E+02 -0.24919800018E+02  0.50684261283E+02  0.51100000000E-03 0. -1.
         23    2    1    0    0    0 -0.87032323733E+01  0.94131207229E+01 -0.25999437505E+02  0.96101660171E+02  0.91625352613E+02 0.  0.
         11    1    3    3    0    0  0.25012206365E+02  0.37894116128E+02 -0.10796374871E+01  0.45417398888E+02  0.51100000000E-03 0.  1.
         22    1    1    0    0    0  0.87032323733E+01 -0.94131207229E+01  0.25999437505E+02  0.28988339829E+02  0.00000000000E+00 0. -1.
</event>
<event>
 5    1  0.1059945E-009  0.9118800E+02  0.7815553E-02  0.1125453E+00
         25   -1    0    0    0    0  0.00000000000E+00  0.00000000000E+00  0.99999998245E-14  0.12509000000E+03  0.12509000000E+03 0.  0.
        -11    1    3    3    0    0  0.34207082903E+01 -0.49025220626E+01  0.55547691000E+02  0.55868434232E+02  0.51100000000E-03 0.  1.
         23    2    1    0    0    0  0.20872937726E+02 -0.63434433850E+01  0.20005905181E+02  0.95490083692E+02  0.90786568600E+02 0.  0.
         11    1    3    3    0    0  0.17452229436E+02 -0.14409213224E+01 -0.35541785819E+02  0.39621649461E+02  0.51100000000E-03 0. -1.
         22    1    1    0    0    0 -0.20872937726E+02  0.63434433850E+01 -0.20005905181E+02  0.29599916308E+02  0.00000000000E+00 0.  1.
</event>
<event>
 5    1  0.1059945E-009  0.9118800E+02  0.7815553E-02  0.1125453E+00
         25   -1    0    0    0    0  0.00000000000E+00  0.00000000000E+00  0.99999998245E-14  0.12509000000E+03  0.12509000000E+03 0.  0.
        -11    1    3    3    0    0 -0.47552536627E+02  0.24145971746E+01 -0.91496855991E+01  0.48484954017E+02  0.51100000000E-03 0.  1.
         23    2    1    0    0    0 -0.11728197387E+02 -0.30287334707E+01  0.24388382406E+02  0.97859189568E+02  0.93994169746E+02 0.  0.
         11    1    3    3    0    0  0.35824339240E+02 -0.54433306453E+01  0.33538068005E+02  0.49374235551E+02  0.51100000000E-03 0. -1.
         22    1    1    0    0    0  0.11728197387E+02  0.30287334707E+01 -0.24388382406E+02  0.27230810432E+02  0.00000000000E+00 0.  1.
</event>
<event>
 5    1  0.1059945E-009  0.9118800E+02  0.7815553E-02  0.1125453E+00
         25   -1    0    0    0    0  0.00000000000E+00  0.00000000000E+00  0.99999998245E-14  0.12509000000E+03  0.12509000000E+03 0.  0.
        -11    1    3    3    0    0 -0.19695017305E+01 -0.41405048966E+02 -0.12573624644E+02  0.43316891092E+02  0.51100000000E-03 0.  1.
         23    2    1    0    0    0 -0.24891648919E+02  0.75110313985E+01 -0.94435118802E+01  0.97427937618E+02  0.93418484966E+02 0.  0.
         11    1    3    3    0    0 -0.22922147188E+02  0.48916080365E+02  0.31301127636E+01  0.54111046526E+02  0.51100000000E-03 0. -1.
         22    1    1    0    0    0  0.24891648919E+02 -0.75110313985E+01  0.94435118802E+01  0.27662062382E+02  0.00000000000E+00 0.  1.
</event>
<event>
 5    1  0.1059945E-009  0.9118800E+02  0.7815553E-02  0.1125453E+00
         25   -1    0    0    0    0  0.00000000000E+00  0.00000000000E+00  0.99999998245E-14  0.12509000000E+03  0.12509000000E+03 0.  0.
        -11    1    3    3    0    0  0.33375286744E+02 -0.31248205105E+02  0.13799137449E+01  0.45741275121E+02  0.51100000000E-03 0. -1.
         23    2    1    0    0    0 -0.10063910840E+02 -0.21997438452E+02 -0.18730905423E+02  0.94495614603E+02  0.89405842993E+02 0.  0.
         11    1    3    3    0    0 -0.43439197584E+02  0.92507666526E+01 -0.20110819168E+02  0.48754339481E+02  0.51100000000E-03 0.  1.
         22    1    1    0    0    0  0.10063910840E+02  0.21997438452E+02  0.18730905423E+02  0.30594385397E+02  0.00000000000E+00 0.  1.
</event>
<event>
 5    1  0.1059945E-009  0.9118800E+02  0.7815553E-02  0.1125453E+00
         25   -1    0    0    0    0  0.00000000000E+00  0.00000000000E+00  0.99999998245E-14  0.12509000000E+03  0.12509000000E+03 0.  0.
        -11    1    3    3    0    0 -0.23670185185E+02  0.22008642618E+02 -0.13080772069E+02  0.34867816318E+02  0.51100000000E-03 0.  1.
         23    2    1    0    0    0 -0.11213188235E+01 -0.16262183539E+02  0.26245346178E+02  0.94194463666E+02  0.88983497459E+02 0.  0.
         11    1    3    3    0    0  0.22548866362E+02 -0.38270826157E+02  0.39326118247E+02  0.59326647348E+02  0.51100000000E-03 0. -1.
         22    1    1    0    0    0  0.11213188235E+01  0.16262183539E+02 -0.26245346178E+02  0.30895536334E+02  0.00000000000E+00 0. -1.
</event>
<event>
 5    1  0.1059945E-009  0.9118800E+02  0.7815553E-02  0.1125453E+00
         25   -1    0    0    0    0  0.00000000000E+00  0.00000000000E+00  0.99999998245E-14  0.12509000000E+03  0.12509000000E+03 0.  0.
        -11    1    3    3    0    0  0.55253234921E+01 -0.10198757817E+02  0.25372035972E+02  0.27897743104E+02  0.51100000000E-03 0. -1.
         23    2    1    0    0    0 -0.16151731044E+02  0.18715817925E+02 -0.25025539001E+02  0.89912765052E+02  0.82745800260E+02 0.  0.
         11    1    3    3    0    0 -0.21677054536E+02  0.28914575742E+02 -0.50397574973E+02  0.62015021947E+02  0.51100000000E-03 0.  1.
         22    1    1    0    0    0  0.16151731044E+02 -0.18715817925E+02  0.25025539001E+02  0.35177234948E+02  0.00000000000E+00 0.  1.
</event>
<event>
 5    1  0.1059945E-009  0.9118800E+02  0.7815553E-02  0.1125453E+00
         25   -1    0    0    0    0  0.00000000000E+00  0.00000000000E+00  0.99999998245E-14  0.12509000000E+03  0.12509000000E+03 0.  0.
        -11    1    3    3    0    0  0.16230266123E+02  0.90145674778E+01 -0.33450256942E+02  0.38257073268E+02  0.51100000000E-03 0.  1.
         23    2    1    0    0    0 -0.18504398562E+02 -0.22015197322E+02  0.11957945268E+01  0.96306122502E+02  0.91904067524E+02 0.  0.
         11    1    3    3    0    0 -0.34734664685E+02 -0.31029764800E+02  0.34646051469E+02  0.58049049234E+02  0.51100000000E-03 0. -1.
         22    1    1    0    0    0  0.18504398562E+02  0.22015197322E+02 -0.11957945268E+01  0.28783877498E+02  0.00000000000E+00 0. -1.
</event>
<event>
 5    1  0.1059945E-009  0.9118800E+02  0.7815553E-02  0.1125453E+00
         25   -1    0    0    0    0  0.00000000000E+00  0.00000000000E+00  0.99999998245E-14  0.12509000000E+03  0.12509000000E+03 0.  0.
        -11    1    3    3    0    0 -0.43152778865E+02  0.24522891161E+02 -0.21828218390E+02  0.54221818791E+02  0.51100000000E-03 0. -1.
         23    2    1    0    0    0 -0.30024642685E+02 -0.67468008704E+00  0.65205485993E+01  0.94358063588E+02  0.89213184275E+02 0.  0.
         11    1    3    3    0    0  0.13128136180E+02 -0.25197571248E+02  0.28348766990E+02  0.40136244797E+02  0.51100000000E-03 0.  1.
         22    1    1    0    0    0  0.30024642685E+02  0.67468008704E+00 -0.65205485993E+01  0.30731936412E+02  0.00000000000E+00 0. -1.
</event>
<event>
 5    1  0.1059945E-009  0.9118800E+02  0.7815553E-02  0.1125453E+00
         25   -1    0    0    0    0  0.00000000000E+00  0.00000000000E+00  0.99999998245E-14  0.12509000000E+03  0.12509000000E+03 0.  0.
        -11    1    3    3    0    0 -0.28729922409E+02  0.27843241225E+01  0.41638006767E+02  0.50664430425E+02  0.51100000000E-03 0.  1.
         23    2    1    0    0    0 -0.17101324981E+02 -0.23062254083E+02  0.67821724108E+01  0.95588801005E+02  0.90922484213E+02 0.  0.
         11    1    3    3    0    0  0.11628597429E+02 -0.25846578206E+02 -0.34855834356E+02  0.44924370581E+02  0.51100000000E-03 0. -1.
         22    1    1    0    0    0  0.17101324981E+02  0.23062254083E+02 -0.67821724108E+01  0.29501198995E+02  0.00000000000E+00 0.  1.
</event>
<event>
 5    1  0.1059945E-009  0.9118800E+02  0.7815553E-02  0.1125453E+00
         25   -1    0    0    0    0  0.00000000000E+00  0.00000000000E+00  0.99999998245E-14  0.12509000000E+03  0.12509000000E+03 0.  0.
        -11    1    3    3    0    0  0.29928338343E+02  0.49081613879E+02  0.17305794165E+02  0.60034996201E+02  0.51100000000E-03 0. -1.
         23    2    1    0    0    0  0.13119262073E+02  0.25936135306E+02 -0.40650007216E+01  0.95741705623E+02  0.91132605651E+02 0.  0.
         11    1    3    3    0    0 -0.16809076270E+02 -0.23145478573E+02 -0.21370794887E+02  0.35706709422E+02  0.51100000000E-03 0.  1.
         22    1    1    0    0    0 -0.13119262073E+02 -0.25936135306E+02  0.40650007216E+01  0.29348294377E+02  0.00000000000E+00 0. -1.
</event>
<event>
 5    1  0.1059945E-009  0.9118800E+02  0.7815553E-02  0.1125453E+00
         25   -1    0    0    0    0  0.00000000000E+00  0.00000000000E+00  0.99999998245E-14  0.12509000000E+03  0.12509000000E+03 0.  0.
        -11    1    3    3    0    0 -0.41793697611E+02 -0.12705272185E+02  0.37280328970E+02  0.57427868058E+02  0.51100000000E-03 0.  1.
         23    2    1    0    0    0 -0.28309756450E+02  0.45990146447E+01  0.57509847183E+01  0.95838212513E+02  0.91264976341E+02 0.  0.
         11    1    3    3    0    0  0.13483941161E+02  0.17304286829E+02 -0.31529344252E+02  0.38410344455E+02  0.51100000000E-03 0. -1.
         22    1    1    0    0    0  0.28309756450E+02 -0.45990146447E+01 -0.57509847183E+01  0.29251787487E+02  0.00000000000E+00 0.  1.
</event>
<event>
 5    1  0.1059945E-009  0.9118800E+02  0.7815553E-02  0.1125453E+00
         25   -1    0    0    0    0  0.00000000000E+00  0.00000000000E+00  0.99999998245E-14  0.12509000000E+03  0.12509000000E+03 0.  0.
        -11    1    3    3    0    0 -0.42445076304E+02 -0.24309292771E+02  0.29871000647E+02  0.57313200028E+02  0.51100000000E-03 0. -1.
         23    2    1    0    0    0 -0.65548137720E+01 -0.11685065153E+02  0.26359800342E+02  0.95520667825E+02  0.90828699079E+02 0.  0.
         11    1    3    3    0    0  0.35890262532E+02  0.12624227618E+02 -0.35112003047E+01  0.38207467797E+02  0.51100000000E-03 0.  1.
         22    1    1    0    0    0  0.65548137720E+01  0.11685065153E+02 -0.26359800342E+02  0.29569332175E+02  0.00000000000E+00 0. -1.
</event>
<event>
 5    1  0.1059945E-009  0.9118800E+02  0.7815553E-02  0.1125453E+00
         25   -1    0    0    0    0  0.00000000000E+00  0.00000000000E+00  0.99999998245E-14  0.12509000000E+03  0.12509000000E+03 0.  0.
        -11    1    3    3    0    0 -0.22892194842E+02 -0.29827471974E+02  0.25363840488E+00  0.37600465446E+02  0.51100000000E-03 0.  1.
         23    2    1    0    0    0  0.20861261269E+02  0.79809832736E+01  0.16097686495E+02  0.97557767503E+02  0.93592169405E+02 0.  0.
         11    1    3    3    0    0  0.43753456111E+02  0.37808455247E+02  0.15844048091E+02  0.59957302058E+02  0.51100000000E-03 0. -1.
         22    1    1    0    0    0 -0.20861261269E+02 -0.79809832736E+01 -0.16097686495E+02  0.27532232497E+02  0.00000000000E+00 0. -1.
</event>
<event>
 5    1  0.1059945E-009  0.9118800E+02  0.7815553E-02  0.1125453E+00
         25   -1    0    0    0    0  0.00000000000E+00  0.00000000000E+00  0.99999998245E-14  0.12509000000E+03  0.12509000000E+03 0.  0.
        -11    1    3    3    0    0 -0.94727419455E+01  0.23327222873E+02 -0.27038836575E+02  0.36945782581E+02  0.51100000000E-03 0.  1.
         23    2    1    0    0    0 -0.17907753518E+02 -0.23327918160E+02  0.64376654323E+01  0.94984802144E+02  0.90087677850E+02 0.  0.
         11    1    3    3    0    0 -0.84350115726E+01 -0.46655141033E+02  0.33476502007E+02  0.58039019563E+02  0.51100000000E-03 0. -1.
         22    1    1    0    0    0  0.17907753518E+02  0.23327918160E+02 -0.64376654323E+01  0.30105197856E+02  0.00000000000E+00 0. -1.
</event>
<event>
 5    1  0.1059945E-009  0.9118800E+02  0.7815553E-02  0.1125453E+00
         25   -1    0    0    0    0  0.00000000000E+00  0.00000000000E+00  0.99999998245E-14  0.12509000000E+03  0.12509000000E+03 0.  0.
        -11    1    3    3    0    0 -0.36712616546E+02  0.25642768303E+02  0.68516278561E+00  0.44786574196E+02  0.51100000000E-03 0.  1.
         23    2    1    0    0    0 -0.43201017557E+01  0.25621952347E+02 -0.27160251624E+02  0.87502409102E+02  0.79018001804E+02 0.  0.
         11    1    3    3    0    0  0.32392514791E+02 -0.20815955276E-01 -0.27845414409E+02  0.42715834905E+02  0.51100000000E-03 0. -1.
         22    1    1    0    0    0  0.43201017557E+01 -0.25621952347E+02  0.27160251624E+02  0.37587590898E+02  0.00000000000E+00 0. -1.
</event>
<event>
 5    1  0.1059945E-009  0.9118800E+02  0.7815553E-02  0.1125453E+00
         25   -1    0    0    0    0  0.00000000000E+00  0.00000000000E+00  0.99999998245E-14  0.12509000000E+03  0.12509000000E+03 0.  0.
        -11    1    3    3    0    0  0.11123919809E+02 -0.29721609543E+02 -0.39368541119E+02  0.50566764736E+02  0.51100000000E-03 0. -1.
         23    2    1    0    0    0  0.66692720757E+00  0.13917151368E+02 -0.22736323472E+02  0.98424061068E+02  0.94742933763E+02 0.  0.
         11    1    3    3    0    0 -0.10456992602E+02  0.43638760910E+02  0.16632217647E+02  0.47857296332E+02  0.51100000000E-03 0.  1.
         22    1    1    0    0    0 -0.66692720757E+00 -0.13917151368E+02  0.22736323472E+02  0.26665938932E+02  0.00000000000E+00 0.  1.
</event>
<event>
 5    1  0.1059945E-009  0.9118800E+02  0.7815553E-02  0.1125453E+00
         25   -1    0    0    0    0  0.00000000000E+00  0.00000000000E+00  0.99999998245E-14  0.12509000000E+03  0.12509000000E+03 0.  0.
        -11    1    3    3    0    0 -0.38458764991E+02  0.15275467099E+01 -0.79819953565E+01  0.39308043117E+02  0.51100000000E-03 0. -1.
         23    2    1    0    0    0  0.12564477189E+02  0.21962553883E+02 -0.16436174803E+02  0.94917699752E+02  0.89994455518E+02 0.  0.
         11    1    3    3    0    0  0.51023242180E+02  0.20435007173E+02 -0.84541794466E+01  0.55609656635E+02  0.51100000000E-03 0.  1.
         22    1    1    0    0    0 -0.12564477189E+02 -0.21962553883E+02  0.16436174803E+02  0.30172300248E+02  0.00000000000E+00 0. -1.
</event>
<event>
 5    1  0.1059945E-009  0.9118800E+02  0.7815553E-02  0.1125453E+00
         25   -1    0    0    0    0  0.00000000000E+00  0.00000000000E+00  0.99999998245E-14  0.12509000000E+03  0.12509000000E+03 0.  0.
        -11    1    3    3    0    0  0.30507794560E+01  0.37630172310E+02 -0.62939684287E+01  0.38274680433E+02  0.51100000000E-03 0.  1.
         23    2    1    0    0    0  0.18637846138E+02 -0.99914114453E+01  0.20960797773E+02  0.95314965917E+02  0.90544961611E+02 0.  0.
         11    1    3    3    0    0  0.15587066682E+02 -0.47621583756E+02  0.27254766202E+02  0.57040285484E+02  0.51100000000E-03 0. -1.
         22    1    1    0    0    0 -0.18637846138E+02  0.99914114453E+01 -0.20960797773E+02  0.29775034083E+02  0.00000000000E+00 0. -1.
</event>
<event>
 5    1  0.1059945E-009  0.9118800E+02  0.7815553E-02  0.1125453E+00
         25   -1    0    0    0    0  0.00000000000E+00  0.00000000000E+00  0.99999998245E-14  0.12509000000E+03  0.12509000000E+03 0.  0.
        -11    1    3    3    0    0  0.22524531851E+02 -0.10613226261E+02  0.36171284401E+02  0.43913060953E+02  0.51100000000E-03 0. -1.
         23    2    1    0    0    0  0.12054042769E+02  0.26247417094E+02  0.59490546409E+00  0.96200888492E+02  0.91760722441E+02 0.  0.
         11    1    3    3    0    0 -0.10470489082E+02  0.36860643355E+02 -0.35576378937E+02  0.52287827539E+02  0.51100000000E-03 0.  1.
         22    1    1    0    0    0 -0.12054042769E+02 -0.26247417094E+02 -0.59490546409E+00  0.28889111508E+02  0.00000000000E+00 0.  1.
</event>
<event>
 5    1  0.1059945E-009  0.9118800E+02  0.7815553E-02  0.1125453E+00
         25   -1    0    0    0    0  0.00000000000E+00  0.00000000000E+00  0.99999998245E-14  0.12509000000E+03  0.12509000000E+03 0.  0.
        -11    1    3    3    0    0 -0.13954643964E+02 -0.29255408722E+01  0.24741536309E+02  0.28555813712E+02  0.51100000000E-03 0.  1.
         23    2    1    0    0    0 -0.16778503032E+02 -0.67017572721E+01 -0.33521594872E+02  0.87009440165E+02  0.78233711663E+02 0.  0.
         11    1    3    3    0    0 -0.28238590687E+01 -0.37762163999E+01 -0.58263131181E+02  0.58453626454E+02  0.51100000000E-03 0. -1.
         22    1    1    0    0    0  0.16778503032E+02  0.67017572721E+01  0.33521594872E+02  0.38080559835E+02  0.00000000000E+00 0. -1.
</event>
<event>
 5    1  0.1059945E-009  0.9118800E+02  0.7815553E-02  0.1125453E+00
         25   -1    0    0    0    0  0.00000000000E+00  0.00000000000E+00  0.99999998245E-14  0.12509000000E+03  0.12509000000E+03 0.  0.
        -11    1    3    3    0    0 -0.15985491683E+02  0.28354254391E+02 -0.95131620551E+01  0.33911649016E+02  0.51100000000E-03 0. -1.
         23    2    1    0    0    0  0.24186365938E+02 -0.16118377417E+02 -0.11394676487E+02  0.93871078813E+02  0.88527726715E+02 0.  0.
         11    1    3    3    0    0  0.40171857622E+02 -0.44472631808E+02 -0.18815144320E+01  0.59959429797E+02  0.51100000000E-03 0.  1.
         22    1    1    0    0    0 -0.24186365938E+02  0.16118377417E+02  0.11394676487E+02  0.31218921187E+02  0.00000000000E+00 0.  1.
</event>
<event>
 5    1  0.1059945E-009  0.9118800E+02  0.7815553E-02  0.1125453E+00
         25   -1    0    0    0    0  0.00000000000E+00  0.00000000000E+00  0.99999998245E-14  0.12509000000E+03  0.12509000000E+03 0.  0.
        -11    1    3    3    0    0  0.92999967249E+01  0.20047272901E+02  0.33135623282E+02  0.39829042424E+02  0.51100000000E-03 0. -1.
         23    2    1    0    0    0  0.18880800356E+02  0.71481993957E+00 -0.20240496787E+02  0.97401134010E+02  0.93382587277E+02 0.  0.
         11    1    3    3    0    0  0.95808036309E+01 -0.19332452961E+02 -0.53376120069E+02  0.57572091586E+02  0.51100000000E-03 0.  1.
         22    1    1    0    0    0 -0.18880800356E+02 -0.71481993957E+00  0.20240496787E+02  0.27688865990E+02  0.00000000000E+00 0.  1.
</event>
<event>
 5    1  0.1059945E-009  0.9118800E+02  0.7815553E-02  0.1125453E+00
         25   -1    0    0    0    0  0.00000000000E+00  0.00000000000E+00  0.99999998245E-14  0.12509000000E+03  0.12509000000E+03 0.  0.
        -11    1    3    3    0    0 -0.14043706197E+02  0.12783655061E+02  0.56503815904E+02  0.59609803996E+02  0.51100000000E-03 0.  1.
         23    2    1    0    0    0 -0.18725395427E+02  0.12240447383E+02  0.24683868785E+02  0.91776904013E+02  0.85517470414E+02 0.  0.
         11    1    3    3    0    0 -0.46816892302E+01 -0.54320767728E+00 -0.31819947119E+02  0.32167100018E+02  0.51100000000E-03 0. -1.
         22    1    1    0    0    0  0.18725395427E+02 -0.12240447383E+02 -0.24683868785E+02  0.33313095987E+02  0.00000000000E+00 0.  1.
</event>
<event>
 5    1  0.1059945E-009  0.9118800E+02  0.7815553E-02  0.1125453E+00
         25   -1    0    0    0    0  0.00000000000E+00  0.00000000000E+00  0.99999998245E-14  0.12509000000E+03  0.12509000000E+03 0.  0.
        -11    1    3    3    0    0  0.59908843344E+02 -0.57581469235E+01  0.12886320762E+02  0.61549029480E+02  0.51100000000E-03 0. -1.
         23    2    1    0    0    0  0.25534707669E+02 -0.77039875056E+01  0.11607908212E+02  0.96001922506E+02  0.91489086085E+02 0.  0.
         11    1    3    3    0    0 -0.34374135675E+02 -0.19458405820E+01 -0.12784125507E+01  0.34452893026E+02  0.51100000000E-03 0.  1.
         22    1    1    0    0    0 -0.25534707669E+02  0.77039875056E+01 -0.11607908212E+02  0.29088077494E+02  0.00000000000E+00 0. -1.
</event>
<event>
 5    1  0.1059945E-009  0.9118800E+02  0.7815553E-02  0.1125453E+00
         25   -1    0    0    0    0  0.00000000000E+00  0.00000000000E+00  0.99999998245E-14  0.12509000000E+03  0.12509000000E+03 0.  0.
        -11    1    3    3    0    0 -0.18274214445E+01 -0.28213034406E+02  0.24931248860E+02  0.37694587801E+02  0.51100000000E-03 0. -1.
         23    2    1    0    0    0 -0.97701160205E+01 -0.58358087417E+01 -0.27541518017E+02  0.95289881789E+02  0.90510300662E+02 0.  0.
         11    1    3    3    0    0 -0.79426945760E+01  0.22377225665E+02 -0.52472766877E+02  0.57595293988E+02  0.51100000000E-03 0.  1.
         22    1    1    0    0    0  0.97701160205E+01  0.58358087417E+01  0.27541518017E+02  0.29800118211E+02  0.00000000000E+00 0.  1.
</event>
<event>
 5    1  0.1059945E-009  0.9118800E+02  0.7815553E-02  0.1125453E+00
         25   -1    0    0    0    0  0.00000000000E+00  0.00000000000E+00  0.99999998245E-14  0.12509000000E+03  0.12509000000E+03 0.  0.
        -11    1    3    3    0    0 -0.52512360057E+02  0.28309972677E+02  0.30469180968E+01  0.59735133898E+02  0.51100000000E-03 0.  1.
         23    2    1    0    0    0 -0.20976539839E+02  0.13876059598E+02  0.14251403369E+02  0.96182167989E+02  0.91735198738E+02 0.  0.
         11    1    3    3    0    0  0.31535820217E+02 -0.14433913079E+02  0.11204485272E+02  0.36447034091E+02  0.51100000000E-03 0. -1.
         22    1    1    0    0    0  0.20976539839E+02 -0.13876059598E+02 -0.14251403369E+02  0.28907832011E+02  0.00000000000E+00 0.  1.
</event>
<event>
 5    1  0.1059945E-009  0.9118800E+02  0.7815553E-02  0.1125453E+00
         25   -1    0    0    0    0  0.00000000000E+00  0.00000000000E+00  0.99999998245E-14  0.12509000000E+03  0.12509000000E+03 0.  0.
        -11    1    3    3    0    0  0.26181112407E+02 -0.46699066425E+02 -0.20406132057E+02  0.57294534448E+02  0.51100000000E-03 0.  1.
         23    2    1    0    0    0 -0.30836723550E+01 -0.30016410889E+02 -0.43764661908E+01  0.94599880057E+02  0.89551604635E+02 0.  0.
         11    1    3    3    0    0 -0.29264784762E+02  0.16682655536E+02  0.16029665866E+02  0.37305345609E+02  0.51100000000E-03 0. -1.
         22    1    1    0    0    0  0.30836723550E+01  0.30016410889E+02  0.43764661908E+01  0.30490119943E+02  0.00000000000E+00 0.  1.
</event>
<event>
 5    1  0.1059945E-009  0.9118800E+02  0.7815553E-02  0.1125453E+00
         25   -1    0    0    0    0  0.00000000000E+00  0.00000000000E+00  0.99999998245E-14  0.12509000000E+03  0.12509000000E+03 0.  0.
        -11    1    3    3    0    0 -0.35586188239E+02 -0.10515594769E+02 -0.46327603031E+02  0.59356560965E+02  0.51100000000E-03 0.  1.
         23    2    1    0    0    0 -0.23717385650E+02  0.63201495936E+01 -0.16851416397E+02  0.95317044024E+02  0.90547832520E+02 0.  0.
         11    1    3    3    0    0  0.11868802589E+02  0.16835744362E+02  0.29476186634E+02  0.35960483060E+02  0.51100000000E-03 0. -1.
         22    1    1    0    0    0  0.23717385650E+02 -0.63201495936E+01  0.16851416397E+02  0.29772955976E+02  0.00000000000E+00 0.  1.
</event>
<event>
 5    1  0.1059945E-009  0.9118800E+02  0.7815553E-02  0.1125453E+00
         25   -1    0    0    0    0  0.00000000000E+00  0.00000000000E+00  0.99999998245E-14  0.12509000000E+03  0.12509000000E+03 0.  0.
        -11    1    3    3    0    0 -0.49267034765E+01  0.40396570844E+02 -0.67147221769E+01  0.41246125118E+02  0.51100000000E-03 0. -1.
         23    2    1    0    0    0 -0.27759693526E+02 -0.89342736278E+01 -0.37796062469E+01  0.95684094924E+02  0.91053493992E+02 0.  0.
         11    1    3    3    0    0 -0.22832990050E+02 -0.49330844471E+02  0.29351159301E+01  0.54437969807E+02  0.51100000000E-03 0.  1.
         22    1    1    0    0    0  0.27759693526E+02  0.89342736278E+01  0.37796062469E+01  0.29405905076E+02  0.00000000000E+00 0. -1.
</event>
<event>
 5    1  0.1059945E-009  0.9118800E+02  0.7815553E-02  0.1125453E+00
         25   -1    0    0    0    0  0.00000000000E+00  0.00000000000E+00  0.99999998245E-14  0.12509000000E+03  0.12509000000E+03 0.  0.
        -11    1    3    3    0    0  0.84215738210E+00 -0.38324175260E+02 -0.81320425243E+01  0.39186499643E+02  0.51100000000E-03 0. -1.
         23    2    1    0    0    0  0.66794826507E+00  0.77196803654E+01 -0.32775729140E+02  0.91410807010E+02  0.84980277699E+02 0.  0.
         11    1    3    3    0    0 -0.17420911703E+00  0.46043855625E+02 -0.24643686615E+02  0.52224307367E+02  0.51100000000E-03 0.  1.
         22    1    1    0    0    0 -0.66794826507E+00 -0.77196803654E+01  0.32775729140E+02  0.33679192990E+02  0.00000000000E+00 0. -1.
</event>
<event>
 5    1  0.1059945E-009  0.9118800E+02  0.7815553E-02  0.1125453E+00
         25   -1    0    0    0    0  0.00000000000E+00  0.00000000000E+00  0.99999998245E-14  0.12509000000E+03  0.12509000000E+03 0.  0.
        -11    1    3    3    0    0 -0.59382937532E+01  0.23043266828E+02  0.50444253665E+02  0.55775247260E+02  0.51100000000E-03 0.  1.
         23    2    1    0    0    0  0.16235335118E+02  0.14409085096E+02  0.34185758775E+02  0.84594642948E+02  0.74272334505E+02 0.  0.
         11    1    3    3    0    0  0.22173628871E+02 -0.86341817321E+01 -0.16258494890E+02  0.28819395689E+02  0.51100000000E-03 0. -1.
         22    1    1    0    0    0 -0.16235335118E+02 -0.14409085096E+02 -0.34185758775E+02  0.40495357052E+02  0.00000000000E+00 0.  1.
</event>
<event>
 5    1  0.1059945E-009  0.9118800E+02  0.7815553E-02  0.1125453E+00
         25   -1    0    0    0    0  0.00000000000E+00  0.00000000000E+00  0.99999998245E-14  0.12509000000E+03  0.12509000000E+03 0.  0.
        -11    1    3    3    0    0  0.36048423877E+02  0.36526623482E+02  0.19850590929E+02  0.55024803930E+02  0.51100000000E-03 0. -1.
         23    2    1    0    0    0  0.56441211971E+01  0.16438477842E+02 -0.12441883456E+02  0.10371524569E+03  0.10148877803E+03 0.  0.
         11    1    3    3    0    0 -0.30404302680E+02 -0.20088145640E+02 -0.32292474385E+02  0.48690441761E+02  0.51100000000E-03 0.  1.
         22    1    1    0    0    0 -0.56441211971E+01 -0.16438477842E+02  0.12441883456E+02  0.21374754309E+02  0.00000000000E+00 0. -1.
</event>
<event>
 5    1  0.1059945E-009  0.9118800E+02  0.7815553E-02  0.1125453E+00
         25   -1    0    0    0    0  0.00000000000E+00  0.00000000000E+00  0.99999998245E-14  0.12509000000E+03  0.12509000000E+03 0.  0.
        -11    1    3    3    0    0  0.30147397942E+02  0.76665969636E+01  0.36869577444E+02  0.48239071849E+02  0.51100000000E-03 0. -1.
         23    2    1    0    0    0  0.27485505854E+02 -0.11701150572E+02 -0.53286426013E+01  0.94745900265E+02  0.89755340945E+02 0.  0.
         11    1    3    3    0    0 -0.26618920875E+01 -0.19367747535E+02 -0.42198220045E+02  0.46506828416E+02  0.51100000000E-03 0.  1.
         22    1    1    0    0    0 -0.27485505854E+02  0.11701150572E+02  0.53286426013E+01  0.30344099735E+02  0.00000000000E+00 0. -1.
</event>
<event>
 5    1  0.1059945E-009  0.9118800E+02  0.7815553E-02  0.1125453E+00
         25   -1    0    0    0    0  0.00000000000E+00  0.00000000000E+00  0.99999998245E-14  0.12509000000E+03  0.12509000000E+03 0.  0.
        -11    1    3    3    0    0 -0.33220763435E+01 -0.60401202677E+01  0.51703967423E+02  0.52161475167E+02  0.51100000000E-03 0.  1.
         23    2    1    0    0    0 -0.16427051471E+02  0.15456413920E+02  0.11065837053E+02  0.99966276132E+02  0.96757712162E+02 0.  0.
         11    1    3    3    0    0 -0.13104975127E+02  0.21496534187E+02 -0.40638130369E+02  0.47804800965E+02  0.51100000000E-03 0. -1.
         22    1    1    0    0    0  0.16427051471E+02 -0.15456413920E+02 -0.11065837053E+02  0.25123723868E+02  0.00000000000E+00 0.  1.
</event>
<event>
 5    1  0.1059945E-009  0.9118800E+02  0.7815553E-02  0.1125453E+00
         25   -1    0    0    0    0  0.00000000000E+00  0.00000000000E+00  0.99999998245E-14  0.12509000000E+03  0.12509000000E+03 0.  0.
        -11    1    3    3    0    0  0.97730663778E+01 -0.22231900875E+02  0.44444600958E+02  0.50646745182E+02  0.51100000000E-03 0. -1.
         23    2    1    0    0    0 -0.75750698223E+01  0.14305656833E+02  0.24453005264E+02  0.95764533820E+02  0.91163934597E+02 0.  0.
         11    1    3    3    0    0 -0.17348136200E+02  0.36537557708E+02 -0.19991595695E+02  0.45117788638E+02  0.51100000000E-03 0.  1.
         22    1    1    0    0    0  0.75750698223E+01 -0.14305656833E+02 -0.24453005264E+02  0.29325466180E+02  0.00000000000E+00 0. -1.
</event>
<event>
 5    1  0.1059945E-009  0.9118800E+02  0.7815553E-02  0.1125453E+00
         25   -1    0    0    0    0  0.00000000000E+00  0.00000000000E+00  0.99999998245E-14  0.12509000000E+03  0.12509000000E+03 0.  0.
        -11    1    3    3    0    0 -0.39464705241E+02 -0.36817455317E+02 -0.13908020129E+02  0.55735276082E+02  0.51100000000E-03 0.  1.
         23    2    1    0    0    0 -0.26153612565E+02 -0.90704024292E+01  0.10975780577E+02  0.95311628492E+02  0.90540350762E+02 0.  0.
         11    1    3    3    0    0  0.13311092676E+02  0.27747052888E+02  0.24883800706E+02  0.39576352409E+02  0.51100000000E-03 0. -1.
         22    1    1    0    0    0  0.26153612565E+02  0.90704024292E+01 -0.10975780577E+02  0.29778371508E+02  0.00000000000E+00 0.  1.
</event>
<event>
 5    1  0.1059945E-009  0.9118800E+02  0.7815553E-02  0.1125453E+00
         25   -1    0    0    0    0  0.00000000000E+00  0.00000000000E+00  0.99999998245E-14  0.12509000000E+03  0.12509000000E+03 0.  0.
        -11    1    3    3    0    0  0.36378522935E+02 -0.13377121520E+02  0.89111109966E+01  0.39771248541E+02  0.51100000000E-03 0. -1.
         23    2    1    0    0    0 -0.39483255107E+01 -0.11071764657E+02  0.35209228707E+02  0.87970422509E+02  0.79755452499E+02 0.  0.
         11    1    3    3    0    0 -0.40326848445E+02  0.23053568638E+01  0.26298117711E+02  0.48199173968E+02  0.51100000000E-03 0.  1.
         22    1    1    0    0    0  0.39483255107E+01  0.11071764657E+02 -0.35209228707E+02  0.37119577491E+02  0.00000000000E+00 0.  1.
</event>
<event>
 5    1  0.1059945E-009  0.9118800E+02  0.7815553E-02  0.1125453E+00
         25   -1    0    0    0    0  0.00000000000E+00  0.00000000000E+00  0.99999998245E-14  0.12509000000E+03  0.12509000000E+03 0.  0.
        -11    1    3    3    0    0  0.38181407940E+02 -0.50551458893E+01  0.32846417736E+01  0.38654408340E+02  0.51100000000E-03 0. -1.
         23    2    1    0    0    0 -0.52441396362E+01  0.28833468054E+02 -0.76243786284E+01  0.94807975134E+02  0.89841811641E+02 0.  0.
         11    1    3    3    0    0 -0.43425547576E+02  0.33888613943E+02 -0.10909020402E+02  0.56153566794E+02  0.51100000000E-03 0.  1.
         22    1    1    0    0    0  0.52441396362E+01 -0.28833468054E+02  0.76243786284E+01  0.30282024866E+02  0.00000000000E+00 0.  1.
</event>
<event>
 5    1  0.1059945E-009  0.9118800E+02  0.7815553E-02  0.1125453E+00
         25   -1    0    0    0    0  0.00000000000E+00  0.00000000000E+00  0.99999998245E-14  0.12509000000E+03  0.12509000000E+03 0.  0.
        -11    1    3    3    0    0  0.51218995251E+01 -0.81286146387E+00  0.39645029596E+02  0.39982783425E+02  0.51100000000E-03 0.  1.
         23    2    1    0    0    0  0.16691668062E+01  0.31041018779E+02 -0.35916944658E+01  0.93797329392E+02  0.88423457109E+02 0.  0.
         11    1    3    3    0    0 -0.34527327189E+01  0.31853880243E+02 -0.43236724061E+02  0.53814545967E+02  0.51100000000E-03 0. -1.
         22    1    1    0    0    0 -0.16691668062E+01 -0.31041018779E+02  0.35916944658E+01  0.31292670608E+02  0.00000000000E+00 0. -1.
</event>
<event>
 5    1  0.1059945E-009  0.9118800E+02  0.7815553E-02  0.1125453E+00
         25   -1    0    0    0    0  0.00000000000E+00  0.00000000000E+00  0.99999998245E-14  0.12509000000E+03  0.12509000000E+03 0.  0.
        -11    1    3    3    0    0  0.94376087391E+01 -0.21127879044E+02 -0.27345940719E+02  0.35822565593E+02  0.51100000000E-03 0. -1.
         23    2    1    0    0    0 -0.21347846104E+02  0.20564305878E+01  0.19236212227E+02  0.96280430394E+02  0.91869091516E+02 0.  0.
         11    1    3    3    0    0 -0.30785454843E+02  0.23184309632E+02  0.46582152945E+02  0.60457864801E+02  0.51100000000E-03 0.  1.
         22    1    1    0    0    0  0.21347846104E+02 -0.20564305878E+01 -0.19236212227E+02  0.28809569606E+02  0.00000000000E+00 0.  1.
</event>
<event>
 5    1  0.1059945E-009  0.9118800E+02  0.7815553E-02  0.1125453E+00
         25   -1    0    0    0    0  0.00000000000E+00  0.00000000000E+00  0.99999998245E-14  0.12509000000E+03  0.12509000000E+03 0.  0.
        -11    1    3    3    0    0  0.29568206211E+02 -0.19061711165E+02 -0.39184275866E+01  0.35397481917E+02  0.51100000000E-03 0.  1.
         23    2    1    0    0    0 -0.25722051199E+02  0.93761494833E+01 -0.26370384348E+01  0.97585635461E+02  0.93629408732E+02 0.  0.
         11    1    3    3    0    0 -0.55290257410E+02  0.28437860648E+02  0.12813891518E+01  0.62188153543E+02  0.51100000000E-03 0. -1.
         22    1    1    0    0    0  0.25722051199E+02 -0.93761494833E+01  0.26370384348E+01  0.27504364539E+02  0.00000000000E+00 0. -1.
</event>
<event>
 5    1  0.1059945E-009  0.9118800E+02  0.7815553E-02  0.1125453E+00
         25   -1    0    0    0    0  0.00000000000E+00  0.00000000000E+00  0.99999998245E-14  0.12509000000E+03  0.12509000000E+03 0.  0.
        -11    1    3    3    0    0 -0.18497312119E+02  0.41629630656E+02 -0.14789217678E+02  0.47894651726E+02  0.51100000000E-03 0.  1.
         23    2    1    0    0    0  0.62327419456E+01  0.17224972830E+02  0.20623949488E+02  0.97505691895E+02  0.93522542193E+02 0.  0.
         11    1    3    3    0    0  0.24730054064E+02 -0.24404657826E+02  0.35413167166E+02  0.49611040169E+02  0.51100000000E-03 0. -1.
         22    1    1    0    0    0 -0.62327419456E+01 -0.17224972830E+02 -0.20623949488E+02  0.27584308105E+02  0.00000000000E+00 0. -1.
</event>
<event>
 5    1  0.1059945E-009  0.9118800E+02  0.7815553E-02  0.1125453E+00
         25   -1    0    0    0    0  0.00000000000E+00  0.00000000000E+00  0.99999998245E-14  0.12509000000E+03  0.12509000000E+03 0.  0.
        -11    1    3    3    0    0 -0.30620301080E+02 -0.47090335680E+02  0.16710070658E+02  0.58603148502E+02  0.51100000000E-03 0. -1.
         23    2    1    0    0    0 -0.85383884102E+01 -0.16477654036E+02  0.21541229853E+02  0.96656890027E+02  0.92380261133E+02 0.  0.
         11    1    3    3    0    0  0.22081912670E+02  0.30612681644E+02  0.48311591941E+01  0.38053741525E+02  0.51100000000E-03 0.  1.
         22    1    1    0    0    0  0.85383884102E+01  0.16477654036E+02 -0.21541229853E+02  0.28433109973E+02  0.00000000000E+00 0. -1.
</event>
<event>
 5    1  0.1059945E-009  0.9118800E+02  0.7815553E-02  0.1125453E+00
         25   -1    0    0    0    0  0.00000000000E+00  0.00000000000E+00  0.99999998245E-14  0.12509000000E+03  0.12509000000E+03 0.  0.
        -11    1    3    3    0    0 -0.50523009846E+02  0.18017995360E+02  0.23835464896E+02  0.58697121460E+02  0.51100000000E-03 0.  1.
         23    2    1    0    0    0 -0.30522684092E+02 -0.24600584762E+01  0.25616416206E+01  0.94361379144E+02  0.89217833051E+02 0.  0.
         11    1    3    3    0    0  0.20000325754E+02 -0.20478053836E+02 -0.21273823275E+02  0.35664257684E+02  0.51100000000E-03 0. -1.
         22    1    1    0    0    0  0.30522684092E+02  0.24600584762E+01 -0.25616416206E+01  0.30728620856E+02  0.00000000000E+00 0.  1.
</event>
<event>
 5    1  0.1059945E-009  0.9118800E+02  0.7815553E-02  0.1125453E+00
         25   -1    0    0    0    0  0.00000000000E+00  0.00000000000E+00  0.99999998245E-14  0.12509000000E+03  0.12509000000E+03 0.  0.
        -11    1    3    3    0    0  0.48160519596E+02 -0.12346224290E+02 -0.36941008122E+02  0.61939510680E+02  0.51100000000E-03 0. -1.
         23    2    1    0    0    0  0.26807144229E+02 -0.66228557352E+01 -0.12860366815E+02  0.94628971876E+02  0.89592232274E+02 0.  0.
         11    1    3    3    0    0 -0.21353375367E+02  0.57233685552E+01  0.24080641308E+02  0.32689461195E+02  0.51100000000E-03 0.  1.
         22    1    1    0    0    0 -0.26807144229E+02  0.66228557352E+01  0.12860366815E+02  0.30461028124E+02  0.00000000000E+00 0. -1.
</event>
<event>
 5    1  0.1059945E-009  0.9118800E+02  0.7815553E-02  0.1125453E+00
         25   -1    0    0    0    0  0.00000000000E+00  0.00000000000E+00  0.99999998245E-14  0.12509000000E+03  0.12509000000E+03 0.  0.
        -11    1    3    3    0    0  0.56187961270E+02  0.67480893371E+01  0.15767293439E+02  0.58747180733E+02  0.51100000000E-03 0.  1.
         23    2    1    0    0    0  0.24190845583E+02 -0.11332813672E+02  0.12354540000E+02  0.95657631180E+02  0.91017130633E+02 0.  0.
         11    1    3    3    0    0 -0.31997115687E+02 -0.18080903009E+02 -0.34127534397E+01  0.36910450447E+02  0.51100000000E-03 0. -1.
         22    1    1    0    0    0 -0.24190845583E+02  0.11332813672E+02 -0.12354540000E+02  0.29432368820E+02  0.00000000000E+00 0.  1.
</event>
<event>
 5    1  0.1059945E-009  0.9118800E+02  0.7815553E-02  0.1125453E+00
         25   -1    0    0    0    0  0.00000000000E+00  0.00000000000E+00  0.99999998245E-14  0.12509000000E+03  0.12509000000E+03 0.  0.
        -11    1    3    3    0    0 -0.28467742441E+02  0.43907815113E+02 -0.16581753794E+01  0.52355115639E+02  0.51100000000E-03 0.  1.
         23    2    1    0    0    0  0.11500779812E+02  0.22289088876E+02 -0.91154880553E+01  0.98403607556E+02  0.94715924945E+02 0.  0.
         11    1    3    3    0    0  0.39968522253E+02 -0.21618726237E+02 -0.74573126759E+01  0.46048491916E+02  0.51100000000E-03 0. -1.
         22    1    1    0    0    0 -0.11500779812E+02 -0.22289088876E+02  0.91154880553E+01  0.26686392444E+02  0.00000000000E+00 0. -1.
</event>
<event>
 5    1  0.1059945E-009  0.9118800E+02  0.7815553E-02  0.1125453E+00
         25   -1    0    0    0    0  0.00000000000E+00  0.00000000000E+00  0.99999998245E-14  0.12509000000E+03  0.12509000000E+03 0.  0.
        -11    1    3    3    0    0  0.50716343435E+02  0.89050122473E+00 -0.19208684684E+02  0.54239414187E+02  0.51100000000E-03 0.  1.
         23    2    1    0    0    0  0.17899132730E+02  0.20414889149E+02 -0.18133960822E+02  0.92440540792E+02  0.86482752011E+02 0.  0.
         11    1    3    3    0    0 -0.32817210704E+02  0.19524387925E+02  0.10747238621E+01  0.38201126605E+02  0.51100000000E-03 0. -1.
         22    1    1    0    0    0 -0.17899132730E+02 -0.20414889149E+02  0.18133960822E+02  0.32649459208E+02  0.00000000000E+00 0.  1.
</event>
<event>
 5    1  0.1059945E-009  0.9118800E+02  0.7815553E-02  0.1125453E+00
         25   -1    0    0    0    0  0.00000000000E+00  0.00000000000E+00  0.99999998245E-14  0.12509000000E+03  0.12509000000E+03 0.  0.
        -11    1    3    3    0    0 -0.13642142705E+02  0.27099712344E+02 -0.49634369204E+02  0.58172786363E+02  0.51100000000E-03 0. -1.
         23    2    1    0    0    0 -0.20946919784E+02  0.13975987871E+02 -0.15359965378E+02  0.95593725289E+02  0.90929258728E+02 0.  0.
         11    1    3    3    0    0 -0.73047770794E+01 -0.13123724473E+02  0.34274403826E+02  0.37420938926E+02  0.51100000000E-03 0.  1.
         22    1    1    0    0    0  0.20946919784E+02 -0.13975987871E+02  0.15359965378E+02  0.29496274711E+02  0.00000000000E+00 0. -1.
</event>
<event>
 5    1  0.1059945E-009  0.9118800E+02  0.7815553E-02  0.1125453E+00
         25   -1    0    0    0    0  0.00000000000E+00  0.00000000000E+00  0.99999998245E-14  0.12509000000E+03  0.12509000000E+03 0.  0.
        -11    1    3    3    0    0  0.28643288517E+02  0.26271605000E+02  0.10144443444E+02  0.40168954920E+02  0.51100000000E-03 0. -1.
         23    2    1    0    0    0 -0.25199626938E+02  0.14814096155E+02  0.46507928195E+01  0.95490869666E+02  0.90787651544E+02 0.  0.
         11    1    3    3    0    0 -0.53842915455E+02 -0.11457508844E+02 -0.54936506240E+01  0.55321914745E+02  0.51100000000E-03 0.  1.
         22    1    1    0    0    0  0.25199626938E+02 -0.14814096155E+02 -0.46507928195E+01  0.29599130334E+02  0.00000000000E+00 0.  1.
</event>
<event>
 5    1  0.1059945E-009  0.9118800E+02  0.7815553E-02  0.1125453E+00
         25   -1    0    0    0    0  0.00000000000E+00  0.00000000000E+00  0.99999998245E-14  0.12509000000E+03  0.12509000000E+03 0.  0.
        -11    1    3    3    0    0  0.14393898059E+02  0.68192733454E+01  0.28942612306E+02  0.33035762404E+02  0.51100000000E-03 0.  1.
         23    2    1    0    0    0 -0.15988590523E+02 -0.14029190964E+02 -0.21065595482E+02  0.95153190901E+02  0.90321189095E+02 0.  0.
         11    1    3    3    0    0 -0.30382488582E+02 -0.20848464310E+02 -0.50008207788E+02  0.62117428496E+02  0.51100000000E-03 0. -1.
         22    1    1    0    0    0  0.15988590523E+02  0.14029190964E+02  0.21065595482E+02  0.29936809099E+02  0.00000000000E+00 0. -1.
</event>
<event>
 5    1  0.1059945E-009  0.9118800E+02  0.7815553E-02  0.1125453E+00
         25   -1    0    0    0    0  0.00000000000E+00  0.00000000000E+00  0.99999998245E-14  0.12509000000E+03  0.12509000000E+03 0.  0.
        -11    1    3    3    0    0  0.36914157999E+02  0.24693071055E+01 -0.13161623492E+02  0.39268064271E+02  0.51100000000E-03 0. -1.
         23    2    1    0    0    0 -0.16012108479E+02  0.22728547875E+02 -0.79218808545E+01  0.96180992706E+02  0.91733596110E+02 0.  0.
         11    1    3    3    0    0 -0.52926266478E+02  0.20259240770E+02  0.52397426374E+01  0.56912928435E+02  0.51100000000E-03 0.  1.
         22    1    1    0    0    0  0.16012108479E+02 -0.22728547875E+02  0.79218808545E+01  0.28909007294E+02  0.00000000000E+00 0.  1.
</event>
<event>
 5    1  0.1059945E-009  0.9118800E+02  0.7815553E-02  0.1125453E+00
         25   -1    0    0    0    0  0.00000000000E+00  0.00000000000E+00  0.99999998245E-14  0.12509000000E+03  0.12509000000E+03 0.  0.
        -11    1    3    3    0    0  0.34190119174E+02 -0.19724717484E+02 -0.15089767539E+02  0.42257896464E+02  0.51100000000E-03 0.  1.
         23    2    1    0    0    0  0.93485793251E+01  0.26594419072E+02 -0.10462762831E+02  0.95021270941E+02  0.90138301870E+02 0.  0.
         11    1    3    3    0    0 -0.24841539849E+02  0.46319136556E+02  0.46270047084E+01  0.52763374477E+02  0.51100000000E-03 0. -1.
         22    1    1    0    0    0 -0.93485793251E+01 -0.26594419072E+02  0.10462762831E+02  0.30068729059E+02  0.00000000000E+00 0. -1.
</event>
<event>
 5    1  0.1059945E-009  0.9118800E+02  0.7815553E-02  0.1125453E+00
         25   -1    0    0    0    0  0.00000000000E+00  0.00000000000E+00  0.99999998245E-14  0.12509000000E+03  0.12509000000E+03 0.  0.
        -11    1    3    3    0    0  0.27239624276E+02 -0.24413044991E+02 -0.46825012271E+02  0.59418647502E+02  0.51100000000E-03 0.  1.
         23    2    1    0    0    0  0.80256883020E+01 -0.23170806689E+02 -0.15843783865E+02  0.95895421008E+02  0.91343354043E+02 0.  0.
         11    1    3    3    0    0 -0.19213935974E+02  0.12422383018E+01  0.30981228407E+02  0.36476773507E+02  0.51100000000E-03 0. -1.
         22    1    1    0    0    0 -0.80256883020E+01  0.23170806689E+02  0.15843783865E+02  0.29194578992E+02  0.00000000000E+00 0.  1.
</event>
<event>
 5    1  0.1059945E-009  0.9118800E+02  0.7815553E-02  0.1125453E+00
         25   -1    0    0    0    0  0.00000000000E+00  0.00000000000E+00  0.99999998245E-14  0.12509000000E+03  0.12509000000E+03 0.  0.
        -11    1    3    3    0    0 -0.91036547152E+01 -0.23523682197E+02  0.54779056618E+02  0.60307422408E+02  0.51100000000E-03 0. -1.
         23    2    1    0    0    0  0.68063130794E+01 -0.82114040357E+01  0.28660383423E+02  0.94509440294E+02  0.89425184779E+02 0.  0.
         11    1    3    3    0    0  0.15909967795E+02  0.15312278161E+02 -0.26118673195E+02  0.34202017885E+02  0.51100000000E-03 0.  1.
         22    1    1    0    0    0 -0.68063130794E+01  0.82114040357E+01 -0.28660383423E+02  0.30580559706E+02  0.00000000000E+00 0. -1.
</event>
<event>
 5    1  0.1059945E-009  0.9118800E+02  0.7815553E-02  0.1125453E+00
         25   -1    0    0    0    0  0.00000000000E+00  0.00000000000E+00  0.99999998245E-14  0.12509000000E+03  0.12509000000E+03 0.  0.
        -11    1    3    3    0    0  0.34076036255E+02 -0.62575214716E+01 -0.38268152018E+02  0.51621548610E+02  0.51100000000E-03 0.  1.
         23    2    1    0    0    0  0.91063530417E+01  0.20987741750E+02 -0.25759565068E+02  0.90637624727E+02  0.83834437161E+02 0.  0.
         11    1    3    3    0    0 -0.24969683213E+02  0.27245263222E+02  0.12508586950E+02  0.39016076117E+02  0.51100000000E-03 0. -1.
         22    1    1    0    0    0 -0.91063530417E+01 -0.20987741750E+02  0.25759565068E+02  0.34452375273E+02  0.00000000000E+00 0.  1.
</event>
<event>
 5    1  0.1059945E-009  0.9118800E+02  0.7815553E-02  0.1125453E+00
         25   -1    0    0    0    0  0.00000000000E+00  0.00000000000E+00  0.99999998245E-14  0.12509000000E+03  0.12509000000E+03 0.  0.
        -11    1    3    3    0    0  0.20091546470E+01  0.18986495224E+02 -0.41671724765E+02  0.45837281207E+02  0.51100000000E-03 0. -1.
         23    2    1    0    0    0 -0.77214806590E+01  0.27609725106E+02  0.64666831708E+01  0.95700611180E+02  0.91076181326E+02 0.  0.
         11    1    3    3    0    0 -0.97306353061E+01  0.86232298824E+01  0.48138407936E+02  0.49863329973E+02  0.51100000000E-03 0.  1.
         22    1    1    0    0    0  0.77214806590E+01 -0.27609725106E+02 -0.64666831708E+01  0.29389388820E+02  0.00000000000E+00 0.  1.
</event>
<event>
 5    1  0.1059945E-009  0.9118800E+02  0.7815553E-02  0.1125453E+00
         25   -1    0    0    0    0  0.00000000000E+00  0.00000000000E+00  0.99999998245E-14  0.12509000000E+03  0.12509000000E+03 0.  0.
        -11    1    3    3    0    0  0.12252306090E+02  0.51678295588E+02 -0.13336010130E+02  0.54759605604E+02  0.51100000000E-03 0. -1.
         23    2    1    0    0    0  0.25750794472E+02  0.19109953232E+02 -0.14187238544E+02  0.90024754158E+02  0.82914925648E+02 0.  0.
         11    1    3    3    0    0  0.13498488383E+02 -0.32568342357E+02 -0.85122841399E+00  0.35265148554E+02  0.51100000000E-03 0.  1.
         22    1    1    0    0    0 -0.25750794472E+02 -0.19109953232E+02  0.14187238544E+02  0.35065245842E+02  0.00000000000E+00 0. -1.
</event>
<event>
 5    1  0.1059945E-009  0.9118800E+02  0.7815553E-02  0.1125453E+00
         25   -1    0    0    0    0  0.00000000000E+00  0.00000000000E+00  0.99999998245E-14  0.12509000000E+03  0.12509000000E+03 0.  0.
        -11    1    3    3    0    0 -0.39541694152E+01  0.35379957262E+02  0.15464717605E+02  0.38814099532E+02  0.51100000000E-03 0.  1.
         23    2    1    0    0    0 -0.23562181764E+02 -0.16507078792E+02  0.29495646030E+00  0.96319406349E+02  0.91922146300E+02 0.  0.
         11    1    3    3    0    0 -0.19608012348E+02 -0.51887036054E+02 -0.15169761145E+02  0.57505306817E+02  0.51100000000E-03 0. -1.
         22    1    1    0    0    0  0.23562181764E+02  0.16507078792E+02 -0.29495646030E+00  0.28770593651E+02  0.00000000000E+00 0. -1.
</event>
<event>
 5    1  0.1059945E-009  0.9118800E+02  0.7815553E-02  0.1125453E+00
         25   -1    0    0    0    0  0.00000000000E+00  0.00000000000E+00  0.99999998245E-14  0.12509000000E+03  0.12509000000E+03 0.  0.
        -11    1    3    3    0    0 -0.46566940164E+02  0.36540024041E+02  0.12974664718E+01  0.59205883936E+02  0.51100000000E-03 0.  1.
         23    2    1    0    0    0 -0.87422928421E+01  0.24070402772E+02  0.42019957897E+01  0.99138723685E+02  0.95681857170E+02 0.  0.
         11    1    3    3    0    0  0.37824647322E+02 -0.12469621269E+02  0.29045293180E+01  0.39932839749E+02  0.51100000000E-03 0. -1.
         22    1    1    0    0    0  0.87422928421E+01 -0.24070402772E+02 -0.42019957897E+01  0.25951276315E+02  0.00000000000E+00 0.  1.
</event>
<event>
 5    1  0.1059945E-009  0.9118800E+02  0.7815553E-02  0.1125453E+00
         25   -1    0    0    0    0  0.00000000000E+00  0.00000000000E+00  0.99999998245E-14  0.12509000000E+03  0.12509000000E+03 0.  0.
        -11    1    3    3    0    0  0.74868986117E+01 -0.33880789129E+02  0.45537053658E+01  0.34995681957E+02  0.51100000000E-03 0.  1.
         23    2    1    0    0    0  0.39987276483E+01  0.27653885855E+02  0.53829059487E+01  0.96634721015E+02  0.92350237701E+02 0.  0.
         11    1    3    3    0    0 -0.34881709634E+01  0.61534674984E+02  0.82920058294E+00  0.61639039057E+02  0.51100000000E-03 0. -1.
         22    1    1    0    0    0 -0.39987276483E+01 -0.27653885855E+02 -0.53829059487E+01  0.28455278985E+02  0.00000000000E+00 0. -1.
</event>
<event>
 5    1  0.1059945E-009  0.9118800E+02  0.7815553E-02  0.1125453E+00
         25   -1    0    0    0    0  0.00000000000E+00  0.00000000000E+00  0.99999998245E-14  0.12509000000E+03  0.12509000000E+03 0.  0.
        -11    1    3    3    0    0 -0.23876725909E+02 -0.13569424554E+02  0.27615935603E+02  0.38946979631E+02  0.51100000000E-03 0. -1.
         23    2    1    0    0    0  0.12432314117E+02 -0.20703942359E+02 -0.15981682429E+02  0.96130893717E+02  0.91665254541E+02 0.  0.
         11    1    3    3    0    0  0.36309040025E+02 -0.71345178047E+01 -0.43597618032E+02  0.57183914086E+02  0.51100000000E-03 0.  1.
         22    1    1    0    0    0 -0.12432314117E+02  0.20703942359E+02  0.15981682429E+02  0.28959106283E+02  0.00000000000E+00 0.  1.
</event>
<event>
 5    1  0.1059945E-009  0.9118800E+02  0.7815553E-02  0.1125453E+00
         25   -1    0    0    0    0  0.00000000000E+00  0.00000000000E+00  0.99999998245E-14  0.12509000000E+03  0.12509000000E+03 0.  0.
        -11    1    3    3    0    0 -0.39764585941E+02  0.80856345454E+01 -0.16860772882E+02  0.43941841603E+02  0.51100000000E-03 0.  1.
         23    2    1    0    0    0 -0.11676766367E+01  0.27414302805E+02  0.11228186509E+02  0.95442409216E+02  0.90720856685E+02 0.  0.
         11    1    3    3    0    0  0.38596909304E+02  0.19328668259E+02  0.28088959391E+02  0.51500567613E+02  0.51100000000E-03 0. -1.
         22    1    1    0    0    0  0.11676766367E+01 -0.27414302805E+02 -0.11228186509E+02  0.29647590784E+02  0.00000000000E+00 0.  1.
</event>
<event>
 5    1  0.1059945E-009  0.9118800E+02  0.7815553E-02  0.1125453E+00
         25   -1    0    0    0    0  0.00000000000E+00  0.00000000000E+00  0.99999998245E-14  0.12509000000E+03  0.12509000000E+03 0.  0.
        -11    1    3    3    0    0  0.77741411792E+01  0.55716629213E+02 -0.11933318768E+02  0.57508122374E+02  0.51100000000E-03 0.  1.
         23    2    1    0    0    0  0.57426046523E+01  0.20163473867E+02 -0.22185428761E+02  0.94565641925E+02  0.89503766383E+02 0.  0.
         11    1    3    3    0    0 -0.20315365268E+01 -0.35553155345E+02 -0.10252109993E+02  0.37057519551E+02  0.51100000000E-03 0. -1.
         22    1    1    0    0    0 -0.57426046523E+01 -0.20163473867E+02  0.22185428761E+02  0.30524358075E+02  0.00000000000E+00 0.  1.
</event>
<event>
 5    1  0.1059945E-009  0.9118800E+02  0.7815553E-02  0.1125453E+00
         25   -1    0    0    0    0  0.00000000000E+00  0.00000000000E+00  0.99999998245E-14  0.12509000000E+03  0.12509000000E+03 0.  0.
        -11    1    3    3    0    0 -0.16887175725E+02 -0.71261624134E+01 -0.51370296309E+02  0.54542334364E+02  0.51100000000E-03 0. -1.
         23    2    1    0    0    0 -0.94943996889E+01  0.18692509097E+02 -0.17412246387E+02  0.97836746139E+02  0.93964296671E+02 0.  0.
         11    1    3    3    0    0  0.73927760362E+01  0.25818671511E+02  0.33958049923E+02  0.43294411775E+02  0.51100000000E-03 0.  1.
         22    1    1    0    0    0  0.94943996889E+01 -0.18692509097E+02  0.17412246387E+02  0.27253253861E+02  0.00000000000E+00 0. -1.
</event>
<event>
 5    1  0.1059945E-009  0.9118800E+02  0.7815553E-02  0.1125453E+00
         25   -1    0    0    0    0  0.00000000000E+00  0.00000000000E+00  0.99999998245E-14  0.12509000000E+03  0.12509000000E+03 0.  0.
        -11    1    3    3    0    0 -0.53336530801E+02  0.26969238951E+01 -0.30243309977E+02  0.61373583201E+02  0.51100000000E-03 0. -1.
         23    2    1    0    0    0 -0.20578669929E+02 -0.32978542416E+01 -0.19973668517E+02  0.96222978459E+02  0.91790830973E+02 0.  0.
         11    1    3    3    0    0  0.32757860872E+02 -0.59947781367E+01  0.10269641460E+02  0.34849395257E+02  0.51100000000E-03 0.  1.
         22    1    1    0    0    0  0.20578669929E+02  0.32978542416E+01  0.19973668517E+02  0.28867021541E+02  0.00000000000E+00 0. -1.
</event>
<event>
 5    1  0.1059945E-009  0.9118800E+02  0.7815553E-02  0.1125453E+00
         25   -1    0    0    0    0  0.00000000000E+00  0.00000000000E+00  0.99999998245E-14  0.12509000000E+03  0.12509000000E+03 0.  0.
        -11    1    3    3    0    0  0.21036597093E+02  0.53742041497E+02  0.24024122031E+02  0.62513229649E+02  0.51100000000E-03 0.  1.
         23    2    1    0    0    0  0.96811226991E+01  0.22935438796E+02  0.90279534844E+01  0.98608639884E+02  0.94986322311E+02 0.  0.
         11    1    3    3    0    0 -0.11355474394E+02 -0.30806602701E+02 -0.14996168546E+02  0.36095410235E+02  0.51100000000E-03 0. -1.
         22    1    1    0    0    0 -0.96811226991E+01 -0.22935438796E+02 -0.90279534844E+01  0.26481360116E+02  0.00000000000E+00 0.  1.
</event>
<event>
 5    1  0.1059945E-009  0.9118800E+02  0.7815553E-02  0.1125453E+00
         25   -1    0    0    0    0  0.00000000000E+00  0.00000000000E+00  0.99999998245E-14  0.12509000000E+03  0.12509000000E+03 0.  0.
        -11    1    3    3    0    0  0.28759965928E+02  0.41116195507E+02  0.62976410188E+01  0.50570124143E+02  0.51100000000E-03 0. -1.
         23    2    1    0    0    0  0.26931371177E+02 -0.11804011372E+01 -0.10558883416E+02  0.96138624916E+02  0.91675804231E+02 0.  0.
         11    1    3    3    0    0 -0.18285947516E+01 -0.42296596644E+02 -0.16856524435E+02  0.45568500773E+02  0.51100000000E-03 0.  1.
         22    1    1    0    0    0 -0.26931371177E+02  0.11804011372E+01  0.10558883416E+02  0.28951375084E+02  0.00000000000E+00 0. -1.
</event>
<event>
 5    1  0.1059945E-009  0.9118800E+02  0.7815553E-02  0.1125453E+00
         25   -1    0    0    0    0  0.00000000000E+00  0.00000000000E+00  0.99999998245E-14  0.12509000000E+03  0.12509000000E+03 0.  0.
        -11    1    3    3    0    0  0.14376299827E+02 -0.26643298040E+02  0.47990622553E+02  0.56741899690E+02  0.51100000000E-03 0. -1.
         23    2    1    0    0    0  0.62818920923E+01  0.47738362934E+01  0.30472781536E+02  0.93612355620E+02  0.88161391941E+02 0.  0.
         11    1    3    3    0    0 -0.80944077348E+01  0.31417134333E+02 -0.17517841018E+02  0.36870455930E+02  0.51100000000E-03 0.  1.
         22    1    1    0    0    0 -0.62818920923E+01 -0.47738362934E+01 -0.30472781536E+02  0.31477644380E+02  0.00000000000E+00 0. -1.
</event>
<event>
 5    1  0.1059945E-009  0.9118800E+02  0.7815553E-02  0.1125453E+00
         25   -1    0    0    0    0  0.00000000000E+00  0.00000000000E+00  0.99999998245E-14  0.12509000000E+03  0.12509000000E+03 0.  0.
        -11    1    3    3    0    0  0.29543967699E+02 -0.33472543696E+02  0.64390093171E+01  0.45107849097E+02  0.51100000000E-03 0. -1.
         23    2    1    0    0    0 -0.17903272203E+02 -0.14748114378E+02  0.15875816446E+02  0.96981716860E+02  0.92819059594E+02 0.  0.
         11    1    3    3    0    0 -0.47447239903E+02  0.18724429318E+02  0.94368071284E+01  0.51873867763E+02  0.51100000000E-03 0.  1.
         22    1    1    0    0    0  0.17903272203E+02  0.14748114378E+02 -0.15875816446E+02  0.28108283140E+02  0.00000000000E+00 0. -1.
</event>
<event>
 5    1  0.1059945E-009  0.9118800E+02  0.7815553E-02  0.1125453E+00
         25   -1    0    0    0    0  0.00000000000E+00  0.00000000000E+00  0.99999998245E-14  0.12509000000E+03  0.12509000000E+03 0.  0.
        -11    1    3    3    0    0  0.53096207810E+01  0.48650583110E+02  0.25994184568E+02  0.55414519229E+02  0.51100000000E-03 0.  1.
         23    2    1    0    0    0 -0.17853474382E+02  0.24515393334E+02  0.67020043338E+01  0.94030896344E+02  0.88753262179E+02 0.  0.
         11    1    3    3    0    0 -0.23163095163E+02 -0.24135189777E+02 -0.19292180234E+02  0.38616377115E+02  0.51100000000E-03 0. -1.
         22    1    1    0    0    0  0.17853474382E+02 -0.24515393334E+02 -0.67020043338E+01  0.31059103656E+02  0.00000000000E+00 0.  1.
</event>
<event>
 5    1  0.1059945E-009  0.9118800E+02  0.7815553E-02  0.1125453E+00
         25   -1    0    0    0    0  0.00000000000E+00  0.00000000000E+00  0.99999998245E-14  0.12509000000E+03  0.12509000000E+03 0.  0.
        -11    1    3    3    0    0 -0.87033112227E+01 -0.55371813752E+02  0.25934483754E+02  0.61760690024E+02  0.51100000000E-03 0.  1.
         23    2    1    0    0    0  0.23235430206E+01 -0.26245692851E+02  0.15018689530E+02  0.94761856625E+02  0.89777576212E+02 0.  0.
         11    1    3    3    0    0  0.11026854243E+02  0.29126120901E+02 -0.10915794224E+02  0.33001166601E+02  0.51100000000E-03 0. -1.
         22    1    1    0    0    0 -0.23235430206E+01  0.26245692851E+02 -0.15018689530E+02  0.30328143375E+02  0.00000000000E+00 0.  1.
</event>
<event>
 5    1  0.1059945E-009  0.9118800E+02  0.7815553E-02  0.1125453E+00
         25   -1    0    0    0    0  0.00000000000E+00  0.00000000000E+00  0.99999998245E-14  0.12509000000E+03  0.12509000000E+03 0.  0.
        -11    1    3    3    0    0 -0.26157795727E+02 -0.17829878556E+02  0.30219082177E+02  0.43764457891E+02  0.51100000000E-03 0.  1.
         23    2    1    0    0    0  0.19030851935E+02 -0.23664244964E+01  0.27448267311E+02  0.91605963973E+02  0.85267062614E+02 0.  0.
         11    1    3    3    0    0  0.45188647661E+02  0.15463454060E+02 -0.27708148663E+01  0.47841506082E+02  0.51100000000E-03 0. -1.
         22    1    1    0    0    0 -0.19030851935E+02  0.23664244964E+01 -0.27448267311E+02  0.33484036027E+02  0.00000000000E+00 0.  1.
</event>
<event>
 5    1  0.1059945E-009  0.9118800E+02  0.7815553E-02  0.1125453E+00
         25   -1    0    0    0    0  0.00000000000E+00  0.00000000000E+00  0.99999998245E-14  0.12509000000E+03  0.12509000000E+03 0.  0.
        -11    1    3    3    0    0  0.14118002555E+02 -0.51636837732E+01  0.26381656160E+02  0.30364015022E+02  0.51100000000E-03 0.  1.
         23    2    1    0    0    0 -0.13308557603E+02  0.37921747343E+01 -0.29082181518E+02  0.92883299198E+02  0.87120810909E+02 0.  0.
         11    1    3    3    0    0 -0.27426560158E+02  0.89558585076E+01 -0.55463837678E+02  0.62519284176E+02  0.51100000000E-03 0. -1.
         22    1    1    0    0    0  0.13308557603E+02 -0.37921747343E+01  0.29082181518E+02  0.32206700802E+02  0.00000000000E+00 0. -1.
</event>
<event>
 5    1  0.1059945E-009  0.9118800E+02  0.7815553E-02  0.1125453E+00
         25   -1    0    0    0    0  0.00000000000E+00  0.00000000000E+00  0.99999998245E-14  0.12509000000E+03  0.12509000000E+03 0.  0.
        -11    1    3    3    0    0 -0.11542875041E+02  0.51796739887E+01 -0.32379630470E+02  0.34763593837E+02  0.51100000000E-03 0. -1.
         23    2    1    0    0    0  0.47725075553E+01 -0.15744000444E+02  0.23372942447E+02  0.96507753465E+02  0.92178097517E+02 0.  0.
         11    1    3    3    0    0  0.16315382597E+02 -0.20923674433E+02  0.55752572917E+02  0.61744159628E+02  0.51100000000E-03 0.  1.
         22    1    1    0    0    0 -0.47725075553E+01  0.15744000444E+02 -0.23372942447E+02  0.28582246535E+02  0.00000000000E+00 0.  1.
</event>
<event>
 5    1  0.1059945E-009  0.9118800E+02  0.7815553E-02  0.1125453E+00
         25   -1    0    0    0    0  0.00000000000E+00  0.00000000000E+00  0.99999998245E-14  0.12509000000E+03  0.12509000000E+03 0.  0.
        -11    1    3    3    0    0 -0.28674196293E+02  0.42902313414E+02  0.85281741907E+01  0.52302464422E+02  0.51100000000E-03 0. -1.
         23    2    1    0    0    0 -0.53481889256E+00  0.17057058635E+02  0.25739214305E+02  0.94207376511E+02  0.89001648049E+02 0.  0.
         11    1    3    3    0    0  0.28139377400E+02 -0.25845254779E+02  0.17211040115E+02  0.41904912089E+02  0.51100000000E-03 0.  1.
         22    1    1    0    0    0  0.53481889256E+00 -0.17057058635E+02 -0.25739214305E+02  0.30882623489E+02  0.00000000000E+00 0. -1.
</event>
<event>
 5    1  0.1059945E-009  0.9118800E+02  0.7815553E-02  0.1125453E+00
         25   -1    0    0    0    0  0.00000000000E+00  0.00000000000E+00  0.99999998245E-14  0.12509000000E+03  0.12509000000E+03 0.  0.
        -11    1    3    3    0    0  0.24549724980E+02  0.75538038387E+01 -0.25841675927E+02  0.36435438299E+02  0.51100000000E-03 0.  1.
         23    2    1    0    0    0 -0.33793493688E+01  0.16692500975E+02  0.24811524020E+02  0.94995626520E+02  0.90102706634E+02 0.  0.
         11    1    3    3    0    0 -0.27929074349E+02  0.91386971365E+01  0.50653199947E+02  0.58560188221E+02  0.51100000000E-03 0. -1.
         22    1    1    0    0    0  0.33793493688E+01 -0.16692500975E+02 -0.24811524020E+02  0.30094373480E+02  0.00000000000E+00 0. -1.
</event>
<event>
 5    1  0.1059945E-009  0.9118800E+02  0.7815553E-02  0.1125453E+00
         25   -1    0    0    0    0  0.00000000000E+00  0.00000000000E+00  0.99999998245E-14  0.12509000000E+03  0.12509000000E+03 0.  0.
        -11    1    3    3    0    0  0.16677030800E+02 -0.59149166435E+01 -0.31352591029E+02  0.36001313305E+02  0.51100000000E-03 0.  1.
         23    2    1    0    0    0 -0.13412620265E+02 -0.94714296504E+01  0.22168017234E+02  0.97503275836E+02  0.93519310566E+02 0.  0.
         11    1    3    3    0    0 -0.30089651065E+02 -0.35565130069E+01  0.53520608263E+02  0.61501962531E+02  0.51100000000E-03 0. -1.
         22    1    1    0    0    0  0.13412620265E+02  0.94714296504E+01 -0.22168017234E+02  0.27586724164E+02  0.00000000000E+00 0. -1.
</event>
<event>
 5    1  0.1059945E-009  0.9118800E+02  0.7815553E-02  0.1125453E+00
         25   -1    0    0    0    0  0.00000000000E+00  0.00000000000E+00  0.99999998245E-14  0.12509000000E+03  0.12509000000E+03 0.  0.
        -11    1    3    3    0    0 -0.41555685038E+02 -0.11233065144E+02  0.10561754736E+02  0.44323891694E+02  0.51100000000E-03 0. -1.
         23    2    1    0    0    0 -0.11017680065E+02  0.24660522965E+02 -0.10716909513E+02  0.96031734112E+02  0.91529837431E+02 0.  0.
         11    1    3    3    0    0  0.30538004973E+02  0.35893588109E+02 -0.21278664249E+02  0.51707842418E+02  0.51100000000E-03 0.  1.
         22    1    1    0    0    0  0.11017680065E+02 -0.24660522965E+02  0.10716909513E+02  0.29058265888E+02  0.00000000000E+00 0. -1.
</event>
<event>
 5    1  0.1059945E-009  0.9118800E+02  0.7815553E-02  0.1125453E+00
         25   -1    0    0    0    0  0.00000000000E+00  0.00000000000E+00  0.99999998245E-14  0.12509000000E+03  0.12509000000E+03 0.  0.
        -11    1    3    3    0    0  0.40809417648E+02  0.21458414445E+02  0.37413473244E+02  0.59377100803E+02  0.51100000000E-03 0.  1.
         23    2    1    0    0    0  0.46573071404E+01  0.14583416146E+02  0.19480050275E+02  0.10031422766E+03  0.97206508919E+02 0.  0.
         11    1    3    3    0    0 -0.36152110507E+02 -0.68749982993E+01 -0.17933422970E+02  0.40937126859E+02  0.51100000000E-03 0. -1.
         22    1    1    0    0    0 -0.46573071404E+01 -0.14583416146E+02 -0.19480050275E+02  0.24775772339E+02  0.00000000000E+00 0.  1.
</event>
<event>
 5    1  0.1059945E-009  0.9118800E+02  0.7815553E-02  0.1125453E+00
         25   -1    0    0    0    0  0.00000000000E+00  0.00000000000E+00  0.99999998245E-14  0.12509000000E+03  0.12509000000E+03 0.  0.
        -11    1    3    3    0    0 -0.37351860309E+02 -0.90076442123E+01 -0.48272043017E+02  0.61696752427E+02  0.51100000000E-03 0.  1.
         23    2    1    0    0    0 -0.17940488207E+02  0.30315932462E+01 -0.23038710877E+02  0.95732992768E+02  0.91120645469E+02 0.  0.
         11    1    3    3    0    0  0.19411372101E+02  0.12039237458E+02  0.25233332139E+02  0.34036240341E+02  0.51100000000E-03 0. -1.
         22    1    1    0    0    0  0.17940488207E+02 -0.30315932462E+01  0.23038710877E+02  0.29357007232E+02  0.00000000000E+00 0.  1.
</event>
<event>
 5    1  0.1059945E-009  0.9118800E+02  0.7815553E-02  0.1125453E+00
         25   -1    0    0    0    0  0.00000000000E+00  0.00000000000E+00  0.99999998245E-14  0.12509000000E+03  0.12509000000E+03 0.  0.
        -11    1    3    3    0    0 -0.10198184446E+02 -0.16778244933E+02 -0.40101400487E+02  0.44650137630E+02  0.51100000000E-03 0. -1.
         23    2    1    0    0    0  0.27590771203E+01 -0.28081785191E+02  0.80233543754E+01  0.95754468958E+02  0.91150123115E+02 0.  0.
         11    1    3    3    0    0  0.12957261567E+02 -0.11303540258E+02  0.48124754862E+02  0.51104331328E+02  0.51100000000E-03 0.  1.
         22    1    1    0    0    0 -0.27590771203E+01  0.28081785191E+02 -0.80233543754E+01  0.29335531042E+02  0.00000000000E+00 0.  1.
</event>
<event>
 5    1  0.1059945E-009  0.9118800E+02  0.7815553E-02  0.1125453E+00
         25   -1    0    0    0    0  0.00000000000E+00  0.00000000000E+00  0.99999998245E-14  0.12509000000E+03  0.12509000000E+03 0.  0.
        -11    1    3    3    0    0  0.21966657558E+01  0.24394905288E+02  0.24169678111E+02  0.34410900667E+02  0.51100000000E-03 0. -1.
         23    2    1    0    0    0 -0.13138800011E+02 -0.11287790521E+02 -0.23497850837E+02  0.95897684667E+02  0.91346453954E+02 0.  0.
         11    1    3    3    0    0 -0.15335465766E+02 -0.35682695808E+02 -0.47667528948E+02  0.61486784000E+02  0.51100000000E-03 0.  1.
         22    1    1    0    0    0  0.13138800011E+02  0.11287790521E+02  0.23497850837E+02  0.29192315333E+02  0.00000000000E+00 0.  1.
</event>
<event>
 5    1  0.1059945E-009  0.9118800E+02  0.7815553E-02  0.1125453E+00
         25   -1    0    0    0    0  0.00000000000E+00  0.00000000000E+00  0.99999998245E-14  0.12509000000E+03  0.12509000000E+03 0.  0.
        -11    1    3    3    0    0 -0.41866933665E+02  0.14023069657E+02 -0.35580918704E+02  0.56705276591E+02  0.51100000000E-03 0. -1.
         23    2    1    0    0    0 -0.68484854078E+01  0.20589554445E+02 -0.19957165334E+02  0.95609159564E+02  0.90950488948E+02 0.  0.
         11    1    3    3    0    0  0.35018448258E+02  0.65664847872E+01  0.15623753369E+02  0.38903882974E+02  0.51100000000E-03 0.  1.
         22    1    1    0    0    0  0.68484854078E+01 -0.20589554445E+02  0.19957165334E+02  0.29480840436E+02  0.00000000000E+00 0. -1.
</event>
<event>
 5    1  0.1059945E-009  0.9118800E+02  0.7815553E-02  0.1125453E+00
         25   -1    0    0    0    0  0.00000000000E+00  0.00000000000E+00  0.99999998245E-14  0.12509000000E+03  0.12509000000E+03 0.  0.
        -11    1    3    3    0    0  0.48305306079E+02  0.10789408621E+02 -0.19814988873E+01  0.49535242726E+02  0.51100000000E-03 0. -1.
         23    2    1    0    0    0  0.94630457243E+01  0.51303785245E+01 -0.26959476727E+02  0.96060990310E+02  0.91569811924E+02 0.  0.
         11    1    3    3    0    0 -0.38842260355E+02 -0.56590300968E+01 -0.24977977840E+02  0.46525747585E+02  0.51100000000E-03 0.  1.
         22    1    1    0    0    0 -0.94630457243E+01 -0.51303785245E+01  0.26959476727E+02  0.29029009690E+02  0.00000000000E+00 0. -1.
</event>
<event>
 5    1  0.1059945E-009  0.9118800E+02  0.7815553E-02  0.1125453E+00
         25   -1    0    0    0    0  0.00000000000E+00  0.00000000000E+00  0.99999998245E-14  0.12509000000E+03  0.12509000000E+03 0.  0.
        -11    1    3    3    0    0  0.70464284140E+01 -0.50460589264E+02 -0.14993335551E+02  0.53110482331E+02  0.51100000000E-03 0.  1.
         23    2    1    0    0    0  0.12270304251E+02 -0.20470786111E+02  0.15844875351E+02  0.96442600025E+02  0.92089638800E+02 0.  0.
         11    1    3    3    0    0  0.52238758370E+01  0.29989803153E+02  0.30838210902E+02  0.43332117694E+02  0.51100000000E-03 0. -1.
         22    1    1    0    0    0 -0.12270304251E+02  0.20470786111E+02 -0.15844875351E+02  0.28647399975E+02  0.00000000000E+00 0.  1.
</event>
<event>
 5    1  0.1059945E-009  0.9118800E+02  0.7815553E-02  0.1125453E+00
         25   -1    0    0    0    0  0.00000000000E+00  0.00000000000E+00  0.99999998245E-14  0.12509000000E+03  0.12509000000E+03 0.  0.
        -11    1    3    3    0    0 -0.27524912177E+02  0.18884676311E+02 -0.42219542277E+02  0.53821385527E+02  0.51100000000E-03 0.  1.
         23    2    1    0    0    0 -0.13240223080E+02  0.23545074654E+02 -0.59928837914E+00  0.98070873548E+02  0.94275463639E+02 0.  0.
         11    1    3    3    0    0  0.14284689097E+02  0.46603983430E+01  0.41620253898E+02  0.44249488021E+02  0.51100000000E-03 0. -1.
         22    1    1    0    0    0  0.13240223080E+02 -0.23545074654E+02  0.59928837914E+00  0.27019126452E+02  0.00000000000E+00 0.  1.
</event>
<event>
 5    1  0.1059945E-009  0.9118800E+02  0.7815553E-02  0.1125453E+00
         25   -1    0    0    0    0  0.00000000000E+00  0.00000000000E+00  0.99999998245E-14  0.12509000000E+03  0.12509000000E+03 0.  0.
        -11    1    3    3    0    0 -0.38184095910E+02 -0.11778817628E+02 -0.41249290452E+02  0.57430564060E+02  0.51100000000E-03 0. -1.
         23    2    1    0    0    0 -0.56214541247E+01 -0.16606511469E+02 -0.26052469811E+02  0.93687640966E+02  0.88268147805E+02 0.  0.
         11    1    3    3    0    0  0.32562641785E+02 -0.48276938412E+01  0.15196820642E+02  0.36257076906E+02  0.51100000000E-03 0.  1.
         22    1    1    0    0    0  0.56214541247E+01  0.16606511469E+02  0.26052469811E+02  0.31402359034E+02  0.00000000000E+00 0. -1.
</event>
<event>
 5    1  0.1059945E-009  0.9118800E+02  0.7815553E-02  0.1125453E+00
         25   -1    0    0    0    0  0.00000000000E+00  0.00000000000E+00  0.99999998245E-14  0.12509000000E+03  0.12509000000E+03 0.  0.
        -11    1    3    3    0    0  0.20002114385E+02 -0.29385650177E+02 -0.58772319599E+01  0.36029749818E+02  0.51100000000E-03 0.  1.
         23    2    1    0    0    0 -0.23163271933E+02  0.13539793461E+02 -0.84523851535E+01  0.96959838458E+02  0.92789569918E+02 0.  0.
         11    1    3    3    0    0 -0.43165386318E+02  0.42925443638E+02 -0.25751531935E+01  0.60930088640E+02  0.51100000000E-03 0. -1.
         22    1    1    0    0    0  0.23163271933E+02 -0.13539793461E+02  0.84523851535E+01  0.28130161542E+02  0.00000000000E+00 0. -1.
</event>
<event>
 5    1  0.1059945E-009  0.9118800E+02  0.7815553E-02  0.1125453E+00
         25   -1    0    0    0    0  0.00000000000E+00  0.00000000000E+00  0.99999998245E-14  0.12509000000E+03  0.12509000000E+03 0.  0.
        -11    1    3    3    0    0 -0.24669456520E+02  0.14811767104E+02  0.53839496402E+02  0.61046391398E+02  0.51100000000E-03 0. -1.
         23    2    1    0    0    0 -0.11908144827E+02  0.15778664177E+02  0.21208100566E+02  0.96097696089E+02  0.91619940556E+02 0.  0.
         11    1    3    3    0    0  0.12761311692E+02  0.96689707354E+00 -0.32631395836E+02  0.35051304691E+02  0.51100000000E-03 0.  1.
         22    1    1    0    0    0  0.11908144827E+02 -0.15778664177E+02 -0.21208100566E+02  0.28992303911E+02  0.00000000000E+00 0. -1.
</event>
<event>
 5    1  0.1059945E-009  0.9118800E+02  0.7815553E-02  0.1125453E+00
         25   -1    0    0    0    0  0.00000000000E+00  0.00000000000E+00  0.99999998245E-14  0.12509000000E+03  0.12509000000E+03 0.  0.
        -11    1    3    3    0    0  0.37554280344E+02 -0.10647658595E+02 -0.32446120883E+02  0.50758717147E+02  0.51100000000E-03 0.  1.
         23    2    1    0    0    0 -0.76935115013E+01 -0.16859964942E+02 -0.19406726720E+02  0.98255887772E+02  0.94520632154E+02 0.  0.
         11    1    3    3    0    0 -0.45247791846E+02 -0.62123063466E+01  0.13039394163E+02  0.47497170626E+02  0.51100000000E-03 0. -1.
         22    1    1    0    0    0  0.76935115013E+01  0.16859964942E+02  0.19406726720E+02  0.26834112228E+02  0.00000000000E+00 0. -1.
</event>
<event>
 5    1  0.1059945E-009  0.9118800E+02  0.7815553E-02  0.1125453E+00
         25   -1    0    0    0    0  0.00000000000E+00  0.00000000000E+00  0.99999998245E-14  0.12509000000E+03  0.12509000000E+03 0.  0.
        -11    1    3    3    0    0 -0.39943214525E+02  0.64305563764E+01  0.12702329685E+02  0.42404735839E+02  0.51100000000E-03 0.  1.
         23    2    1    0    0    0  0.10799071736E+02  0.19778795772E+02  0.19471402113E+02  0.95308189901E+02  0.90535599901E+02 0.  0.
         11    1    3    3    0    0  0.50742286261E+02  0.13348239395E+02  0.67690724275E+01  0.52903454062E+02  0.51100000000E-03 0. -1.
         22    1    1    0    0    0 -0.10799071736E+02 -0.19778795772E+02 -0.19471402113E+02  0.29781810099E+02  0.00000000000E+00 0. -1.
</event>
<event>
 5    1  0.1059945E-009  0.9118800E+02  0.7815553E-02  0.1125453E+00
         25   -1    0    0    0    0  0.00000000000E+00  0.00000000000E+00  0.99999998245E-14  0.12509000000E+03  0.12509000000E+03 0.  0.
        -11    1    3    3    0    0 -0.37760662937E+02 -0.33610891741E+02 -0.17818511303E+02  0.53600924006E+02  0.51100000000E-03 0. -1.
         23    2    1    0    0    0 -0.41001979313E+02 -0.21323043511E+02  0.38433936788E+01  0.78715371515E+02  0.63604273015E+02 0.  0.
         11    1    3    3    0    0 -0.32413163761E+01  0.12287848230E+02  0.21661904982E+02  0.25114447509E+02  0.51100000000E-03 0.  1.
         22    1    1    0    0    0  0.41001979313E+02  0.21323043511E+02 -0.38433936788E+01  0.46374628485E+02  0.00000000000E+00 0. -1.
</event>
<event>
 5    1  0.1059945E-009  0.9118800E+02  0.7815553E-02  0.1125453E+00
         25   -1    0    0    0    0  0.00000000000E+00  0.00000000000E+00  0.99999998245E-14  0.12509000000E+03  0.12509000000E+03 0.  0.
        -11    1    3    3    0    0 -0.18988604369E+02  0.31941399319E+02  0.48233173208E+02  0.60887265370E+02  0.51100000000E-03 0.  1.
         23    2    1    0    0    0 -0.13393563786E+02  0.41907918657E+01  0.14841421904E+02  0.10466408285E+03  0.10265160567E+03 0.  0.
         11    1    3    3    0    0  0.55950405828E+01 -0.27750607453E+02 -0.33391751304E+02  0.43776817478E+02  0.51100000000E-03 0. -1.
         22    1    1    0    0    0  0.13393563786E+02 -0.41907918657E+01 -0.14841421904E+02  0.20425917152E+02  0.00000000000E+00 0.  1.
</event>
<event>
 5    1  0.1059945E-009  0.9118800E+02  0.7815553E-02  0.1125453E+00
         25   -1    0    0    0    0  0.00000000000E+00  0.00000000000E+00  0.99999998245E-14  0.12509000000E+03  0.12509000000E+03 0.  0.
        -11    1    3    3    0    0 -0.23760678842E+02  0.48915623891E+02  0.22890648136E+02  0.59002456661E+02  0.51100000000E-03 0.  1.
         23    2    1    0    0    0 -0.22771499011E+02  0.13536604751E+02  0.11775262948E+02  0.96099697261E+02  0.91622672745E+02 0.  0.
         11    1    3    3    0    0  0.98917983148E+00 -0.35379019140E+02 -0.11115385188E+02  0.37097240600E+02  0.51100000000E-03 0. -1.
         22    1    1    0    0    0  0.22771499011E+02 -0.13536604751E+02 -0.11775262948E+02  0.28990302739E+02  0.00000000000E+00 0.  1.
</event>
<event>
 5    1  0.1059945E-009  0.9118800E+02  0.7815553E-02  0.1125453E+00
         25   -1    0    0    0    0  0.00000000000E+00  0.00000000000E+00  0.99999998245E-14  0.12509000000E+03  0.12509000000E+03 0.  0.
        -11    1    3    3    0    0 -0.63766970808E+01  0.29847268436E+02 -0.26037017833E+02  0.40117926125E+02  0.51100000000E-03 0.  1.
         23    2    1    0    0    0  0.15593380946E+02  0.61594099686E+01  0.21642924610E+02  0.97712855406E+02  0.93799222094E+02 0.  0.
         11    1    3    3    0    0  0.21970078027E+02 -0.23687858467E+02  0.47679942442E+02  0.57594929280E+02  0.51100000000E-03 0. -1.
         22    1    1    0    0    0 -0.15593380946E+02 -0.61594099686E+01 -0.21642924610E+02  0.27377144594E+02  0.00000000000E+00 0. -1.
</event>
<event>
 5    1  0.1059945E-009  0.9118800E+02  0.7815553E-02  0.1125453E+00
         25   -1    0    0    0    0  0.00000000000E+00  0.00000000000E+00  0.99999998245E-14  0.12509000000E+03  0.12509000000E+03 0.  0.
        -11    1    3    3    0    0 -0.71102811635E-01 -0.41610546002E+02  0.12128787985E+01  0.41628279684E+02  0.51100000000E-03 0. -1.
         23    2    1    0    0    0 -0.19735447117E+02  0.11752811772E+01  0.24045526452E+02  0.93960327642E+02  0.88653745942E+02 0.  0.
         11    1    3    3    0    0 -0.19664344305E+02  0.42785827179E+02  0.22832647654E+02  0.52332047958E+02  0.51100000000E-03 0.  1.
         22    1    1    0    0    0  0.19735447117E+02 -0.11752811772E+01 -0.24045526452E+02  0.31129672358E+02  0.00000000000E+00 0.  1.
</event>
<event>
 5    1  0.1059945E-009  0.9118800E+02  0.7815553E-02  0.1125453E+00
         25   -1    0    0    0    0  0.00000000000E+00  0.00000000000E+00  0.99999998245E-14  0.12509000000E+03  0.12509000000E+03 0.  0.
        -11    1    3    3    0    0 -0.29872643347E+02 -0.13913505844E+02 -0.33364590226E+02  0.46895163361E+02  0.51100000000E-03 0.  1.
         23    2    1    0    0    0 -0.42059820792E+01 -0.28813293123E+02  0.51517497558E+01  0.95519124609E+02  0.90826573725E+02 0.  0.
         11    1    3    3    0    0  0.25666661268E+02 -0.14899787279E+02  0.38516339982E+02  0.48623961248E+02  0.51100000000E-03 0. -1.
         22    1    1    0    0    0  0.42059820792E+01  0.28813293123E+02 -0.51517497558E+01  0.29570875391E+02  0.00000000000E+00 0. -1.
</event>
<event>
 5    1  0.1059945E-009  0.9118800E+02  0.7815553E-02  0.1125453E+00
         25   -1    0    0    0    0  0.00000000000E+00  0.00000000000E+00  0.99999998245E-14  0.12509000000E+03  0.12509000000E+03 0.  0.
        -11    1    3    3    0    0  0.43124412593E+02  0.24727803975E+02 -0.21818431848E+02  0.54288334101E+02  0.51100000000E-03 0. -1.
         23    2    1    0    0    0  0.18987295965E+02  0.21357271040E+02  0.10393940320E+02  0.94681375734E+02  0.89665369464E+02 0.  0.
         11    1    3    3    0    0 -0.24137116628E+02 -0.33705329348E+01  0.32212372169E+02  0.40393041633E+02  0.51100000000E-03 0.  1.
         22    1    1    0    0    0 -0.18987295965E+02 -0.21357271040E+02 -0.10393940320E+02  0.30408624266E+02  0.00000000000E+00 0. -1.
</event>
<event>
 5    1  0.1059945E-009  0.9118800E+02  0.7815553E-02  0.1125453E+00
         25   -1    0    0    0    0  0.00000000000E+00  0.00000000000E+00  0.99999998245E-14  0.12509000000E+03  0.12509000000E+03 0.  0.
        -11    1    3    3    0    0  0.46155335015E+02  0.63255314388E+01 -0.36319753692E+02  0.59071582059E+02  0.51100000000E-03 0. -1.
         23    2    1    0    0    0  0.27988953037E+02 -0.90857609055E+01 -0.11439521009E+02  0.93517936649E+02  0.88027321275E+02 0.  0.
         11    1    3    3    0    0 -0.18166381979E+02 -0.15411292344E+02  0.24880232683E+02  0.34446354590E+02  0.51100000000E-03 0.  1.
         22    1    1    0    0    0 -0.27988953037E+02  0.90857609055E+01  0.11439521009E+02  0.31572063351E+02  0.00000000000E+00 0. -1.
</event>
<event>
 5    1  0.1059945E-009  0.9118800E+02  0.7815553E-02  0.1125453E+00
         25   -1    0    0    0    0  0.00000000000E+00  0.00000000000E+00  0.99999998245E-14  0.12509000000E+03  0.12509000000E+03 0.  0.
        -11    1    3    3    0    0  0.32816962460E+02  0.28070448937E+02 -0.27136305295E+02  0.51002766533E+02  0.51100000000E-03 0.  1.
         23    2    1    0    0    0  0.26020930746E+01  0.27852583465E+02  0.66573783201E+01  0.96334861674E+02  0.91943175895E+02 0.  0.
         11    1    3    3    0    0 -0.30214869386E+02 -0.21786547155E+00  0.33793683615E+02  0.45332095142E+02  0.51100000000E-03 0. -1.
         22    1    1    0    0    0 -0.26020930746E+01 -0.27852583465E+02 -0.66573783201E+01  0.28755138326E+02  0.00000000000E+00 0. -1.
</event>
<event>
 5    1  0.1059945E-009  0.9118800E+02  0.7815553E-02  0.1125453E+00
         25   -1    0    0    0    0  0.00000000000E+00  0.00000000000E+00  0.99999998245E-14  0.12509000000E+03  0.12509000000E+03 0.  0.
        -11    1    3    3    0    0 -0.59977352825E+01 -0.44427575998E+02 -0.13719745737E+02  0.46882979437E+02  0.51100000000E-03 0.  1.
         23    2    1    0    0    0  0.83811324761E+01 -0.14312724112E+02  0.23149354483E+02  0.96612112683E+02  0.92319609244E+02 0.  0.
         11    1    3    3    0    0  0.14378867759E+02  0.30114851886E+02  0.36869100219E+02  0.49729133246E+02  0.51100000000E-03 0. -1.
         22    1    1    0    0    0 -0.83811324761E+01  0.14312724112E+02 -0.23149354483E+02  0.28477887317E+02  0.00000000000E+00 0. -1.
</event>
<event>
 5    1  0.1059945E-009  0.9118800E+02  0.7815553E-02  0.1125453E+00
         25   -1    0    0    0    0  0.00000000000E+00  0.00000000000E+00  0.99999998245E-14  0.12509000000E+03  0.12509000000E+03 0.  0.
        -11    1    3    3    0    0  0.27860471375E+02  0.61011273257E+01 -0.25933961770E+02  0.38548670447E+02  0.51100000000E-03 0. -1.
         23    2    1    0    0    0 -0.27105798106E+02  0.13665604153E+01 -0.53877804436E+01  0.97420161611E+02  0.93408072092E+02 0.  0.
         11    1    3    3    0    0 -0.54966269481E+02 -0.47345669104E+01  0.20546181327E+02  0.58871491164E+02  0.51100000000E-03 0.  1.
         22    1    1    0    0    0  0.27105798106E+02 -0.13665604153E+01  0.53877804436E+01  0.27669838389E+02  0.00000000000E+00 0.  1.
</event>
<event>
 5    1  0.1059945E-009  0.9118800E+02  0.7815553E-02  0.1125453E+00
         25   -1    0    0    0    0  0.00000000000E+00  0.00000000000E+00  0.99999998245E-14  0.12509000000E+03  0.12509000000E+03 0.  0.
        -11    1    3    3    0    0 -0.64571495309E+01 -0.60595202626E+02  0.13845275853E+02  0.62491319598E+02  0.51100000000E-03 0. -1.
         23    2    1    0    0    0 -0.48946169686E+01 -0.28693606101E+02  0.64818161498E+01  0.95268963013E+02  0.90481385194E+02 0.  0.
         11    1    3    3    0    0  0.15625325623E+01  0.31901596525E+02 -0.73634597033E+01  0.32777643416E+02  0.51100000000E-03 0.  1.
         22    1    1    0    0    0  0.48946169686E+01  0.28693606101E+02 -0.64818161498E+01  0.29821036987E+02  0.00000000000E+00 0. -1.
</event>
<event>
 5    1  0.1059945E-009  0.9118800E+02  0.7815553E-02  0.1125453E+00
         25   -1    0    0    0    0  0.00000000000E+00  0.00000000000E+00  0.99999998245E-14  0.12509000000E+03  0.12509000000E+03 0.  0.
        -11    1    3    3    0    0 -0.16729017786E+02 -0.33205376738E+02  0.23151116290E+02  0.43799900298E+02  0.51100000000E-03 0.  1.
         23    2    1    0    0    0 -0.47680283180E+01  0.18313563847E+02  0.21125578321E+02  0.96727863723E+02  0.92476315055E+02 0.  0.
         11    1    3    3    0    0  0.11960989468E+02  0.51518940584E+02 -0.20255379685E+01  0.52927963425E+02  0.51100000000E-03 0. -1.
         22    1    1    0    0    0  0.47680283180E+01 -0.18313563847E+02 -0.21125578321E+02  0.28362136277E+02  0.00000000000E+00 0. -1.
</event>
<event>
 5    1  0.1059945E-009  0.9118800E+02  0.7815553E-02  0.1125453E+00
         25   -1    0    0    0    0  0.00000000000E+00  0.00000000000E+00  0.99999998245E-14  0.12509000000E+03  0.12509000000E+03 0.  0.
        -11    1    3    3    0    0 -0.15883627481E+02  0.29352713594E+02 -0.37810248597E+02  0.50432988376E+02  0.51100000000E-03 0. -1.
         23    2    1    0    0    0  0.14356469084E+02  0.25455803244E+02 -0.46205225360E+01  0.95501905234E+02  0.90802855415E+02 0.  0.
         11    1    3    3    0    0  0.30240096564E+02 -0.38969103497E+01  0.33189726061E+02  0.45068916859E+02  0.51100000000E-03 0.  1.
         22    1    1    0    0    0 -0.14356469084E+02 -0.25455803244E+02  0.46205225360E+01  0.29588094766E+02  0.00000000000E+00 0. -1.
</event>
<event>
 5    1  0.1059945E-009  0.9118800E+02  0.7815553E-02  0.1125453E+00
         25   -1    0    0    0    0  0.00000000000E+00  0.00000000000E+00  0.99999998245E-14  0.12509000000E+03  0.12509000000E+03 0.  0.
        -11    1    3    3    0    0  0.37998165862E+02 -0.76045568549E+01 -0.46685659925E+02  0.60673229161E+02  0.51100000000E-03 0. -1.
         23    2    1    0    0    0  0.14837459125E+02  0.27715220689E+01 -0.31271424979E+02  0.90366325827E+02  0.83428647930E+02 0.  0.
         11    1    3    3    0    0 -0.23160706737E+02  0.10376078924E+02  0.15414234946E+02  0.29693096666E+02  0.51100000000E-03 0.  1.
         22    1    1    0    0    0 -0.14837459125E+02 -0.27715220689E+01  0.31271424979E+02  0.34723674173E+02  0.00000000000E+00 0. -1.
</event>
<event>
 5    1  0.1059945E-009  0.9118800E+02  0.7815553E-02  0.1125453E+00
         25   -1    0    0    0    0  0.00000000000E+00  0.00000000000E+00  0.99999998245E-14  0.12509000000E+03  0.12509000000E+03 0.  0.
        -11    1    3    3    0    0  0.33429723375E+02  0.25945270259E+02 -0.12498844730E+02  0.44123968244E+02  0.51100000000E-03 0.  1.
         23    2    1    0    0    0  0.13263458651E+02  0.35581233708E+01  0.27588730938E+02  0.94272510614E+02  0.89093145670E+02 0.  0.
         11    1    3    3    0    0 -0.20166264724E+02 -0.22387146888E+02  0.40087575667E+02  0.50148542370E+02  0.51100000000E-03 0. -1.
         22    1    1    0    0    0 -0.13263458651E+02 -0.35581233708E+01 -0.27588730938E+02  0.30817489386E+02  0.00000000000E+00 0.  1.
</event>
<event>
 5    1  0.1059945E-009  0.9118800E+02  0.7815553E-02  0.1125453E+00
         25   -1    0    0    0    0  0.00000000000E+00  0.00000000000E+00  0.99999998245E-14  0.12509000000E+03  0.12509000000E+03 0.  0.
        -11    1    3    3    0    0  0.82921805357E+01  0.42499007744E+02  0.39559130734E+02  0.58650240766E+02  0.51100000000E-03 0. -1.
         23    2    1    0    0    0 -0.45077179921E+01  0.26618982727E+02  0.67854546245E+01  0.97252396702E+02  0.93183134240E+02 0.  0.
         11    1    3    3    0    0 -0.12799898528E+02 -0.15880025017E+02 -0.32773676110E+02  0.38602155935E+02  0.51100000000E-03 0.  1.
         22    1    1    0    0    0  0.45077179921E+01 -0.26618982727E+02 -0.67854546245E+01  0.27837603298E+02  0.00000000000E+00 0. -1.
</event>
<event>
 5    1  0.1059945E-009  0.9118800E+02  0.7815553E-02  0.1125453E+00
         25   -1    0    0    0    0  0.00000000000E+00  0.00000000000E+00  0.99999998245E-14  0.12509000000E+03  0.12509000000E+03 0.  0.
        -11    1    3    3    0    0  0.34153482051E+02 -0.56202204958E+01  0.23676272340E+02  0.41935821046E+02  0.51100000000E-03 0. -1.
         23    2    1    0    0    0 -0.17974116668E+02 -0.14079096606E+01  0.25020335846E+02  0.94250604976E+02  0.89062384051E+02 0.  0.
         11    1    3    3    0    0 -0.52127598718E+02  0.42123108352E+01  0.13440635066E+01  0.52314783930E+02  0.51100000000E-03 0.  1.
         22    1    1    0    0    0  0.17974116668E+02  0.14079096606E+01 -0.25020335846E+02  0.30839395024E+02  0.00000000000E+00 0. -1.
</event>
<event>
 5    1  0.1059945E-009  0.9118800E+02  0.7815553E-02  0.1125453E+00
         25   -1    0    0    0    0  0.00000000000E+00  0.00000000000E+00  0.99999998245E-14  0.12509000000E+03  0.12509000000E+03 0.  0.
        -11    1    3    3    0    0 -0.19204746473E+02 -0.76407129780E+01  0.58027469261E+02  0.61598619879E+02  0.51100000000E-03 0. -1.
         23    2    1    0    0    0 -0.15362822566E+01 -0.37140134793E+01  0.29043485429E+02  0.95769732178E+02  0.91171067211E+02 0.  0.
         11    1    3    3    0    0  0.17668464216E+02  0.39266994987E+01 -0.28983983833E+02  0.34171112299E+02  0.51100000000E-03 0.  1.
         22    1    1    0    0    0  0.15362822566E+01  0.37140134793E+01 -0.29043485429E+02  0.29320267822E+02  0.00000000000E+00 0. -1.
</event>
<event>
 5    1  0.1059945E-009  0.9118800E+02  0.7815553E-02  0.1125453E+00
         25   -1    0    0    0    0  0.00000000000E+00  0.00000000000E+00  0.99999998245E-14  0.12509000000E+03  0.12509000000E+03 0.  0.
        -11    1    3    3    0    0 -0.11321777615E+02  0.53878048994E+02 -0.14688817714E+02  0.56980594749E+02  0.51100000000E-03 0. -1.
         23    2    1    0    0    0 -0.12501323647E+02  0.15127981786E+02 -0.21098963017E+02  0.96274983668E+02  0.91861674892E+02 0.  0.
         11    1    3    3    0    0 -0.11795460322E+01 -0.38750067208E+02 -0.64101453023E+01  0.39294388919E+02  0.51100000000E-03 0.  1.
         22    1    1    0    0    0  0.12501323647E+02 -0.15127981786E+02  0.21098963017E+02  0.28815016332E+02  0.00000000000E+00 0. -1.
</event>
<event>
 5    1  0.1059945E-009  0.9118800E+02  0.7815553E-02  0.1125453E+00
         25   -1    0    0    0    0  0.00000000000E+00  0.00000000000E+00  0.99999998245E-14  0.12509000000E+03  0.12509000000E+03 0.  0.
        -11    1    3    3    0    0 -0.33685482578E+02  0.20579176524E+02  0.20666510786E+02  0.44556917659E+02  0.51100000000E-03 0.  1.
         23    2    1    0    0    0  0.10318762626E+02 -0.44824673548E+01  0.27236133687E+02  0.95621773824E+02  0.90967836488E+02 0.  0.
         11    1    3    3    0    0  0.44004245204E+02 -0.25061643879E+02  0.65696229009E+01  0.51064856166E+02  0.51100000000E-03 0. -1.
         22    1    1    0    0    0 -0.10318762626E+02  0.44824673548E+01 -0.27236133687E+02  0.29468226176E+02  0.00000000000E+00 0. -1.
</event>
<event>
 5    1  0.1059945E-009  0.9118800E+02  0.7815553E-02  0.1125453E+00
         25   -1    0    0    0    0  0.00000000000E+00  0.00000000000E+00  0.99999998245E-14  0.12509000000E+03  0.12509000000E+03 0.  0.
        -11    1    3    3    0    0 -0.32199368388E+02 -0.21702538572E+02  0.11582275980E+02  0.40520965218E+02  0.51100000000E-03 0. -1.
         23    2    1    0    0    0 -0.14319148645E+02  0.13746360123E+02 -0.24076313438E+02  0.93886325484E+02  0.88549267696E+02 0.  0.
         11    1    3    3    0    0  0.17880219743E+02  0.35448898695E+02 -0.35658589418E+02  0.53365360266E+02  0.51100000000E-03 0.  1.
         22    1    1    0    0    0  0.14319148645E+02 -0.13746360123E+02  0.24076313438E+02  0.31203674516E+02  0.00000000000E+00 0.  1.
</event>
<event>
 5    1  0.1059945E-009  0.9118800E+02  0.7815553E-02  0.1125453E+00
         25   -1    0    0    0    0  0.00000000000E+00  0.00000000000E+00  0.99999998245E-14  0.12509000000E+03  0.12509000000E+03 0.  0.
        -11    1    3    3    0    0 -0.20844622918E+02 -0.24162257011E+02 -0.28957703228E+02  0.43091316352E+02  0.51100000000E-03 0.  1.
         23    2    1    0    0    0  0.11972996872E+02  0.12620153829E+01  0.16507781190E+02  0.10465835355E+03  0.10264462378E+03 0.  0.
         11    1    3    3    0    0  0.32817619790E+02  0.25424272394E+02  0.45465484418E+02  0.61567037196E+02  0.51100000000E-03 0. -1.
         22    1    1    0    0    0 -0.11972996872E+02 -0.12620153829E+01 -0.16507781190E+02  0.20431646452E+02  0.00000000000E+00 0. -1.
</event>
<event>
 5    1  0.1059945E-009  0.9118800E+02  0.7815553E-02  0.1125453E+00
         25   -1    0    0    0    0  0.00000000000E+00  0.00000000000E+00  0.99999998245E-14  0.12509000000E+03  0.12509000000E+03 0.  0.
        -11    1    3    3    0    0 -0.48860751786E+02  0.19326698894E+02 -0.32370878969E+02  0.61715218226E+02  0.51100000000E-03 0.  1.
         23    2    1    0    0    0 -0.21411598174E+02  0.15836894629E+02 -0.13292606174E+02  0.95324967718E+02  0.90558778281E+02 0.  0.
         11    1    3    3    0    0  0.27449153611E+02 -0.34898042646E+01  0.19078272795E+02  0.33609749492E+02  0.51100000000E-03 0. -1.
         22    1    1    0    0    0  0.21411598174E+02 -0.15836894629E+02  0.13292606174E+02  0.29765032282E+02  0.00000000000E+00 0.  1.
</event>
<event>
 5    1  0.1059945E-009  0.9118800E+02  0.7815553E-02  0.1125453E+00
         25   -1    0    0    0    0  0.00000000000E+00  0.00000000000E+00  0.99999998245E-14  0.12509000000E+03  0.12509000000E+03 0.  0.
        -11    1    3    3    0    0  0.60642311273E+01 -0.63019629052E+01 -0.61846005933E+02  0.62461332724E+02  0.51100000000E-03 0.  1.
         23    2    1    0    0    0  0.50803575536E+01 -0.20802018876E+01 -0.31538411981E+02  0.93077366508E+02  0.87399012884E+02 0.  0.
         11    1    3    3    0    0 -0.98387357374E+00  0.42217610176E+01  0.30307593951E+02  0.30616033784E+02  0.51100000000E-03 0. -1.
         22    1    1    0    0    0 -0.50803575536E+01  0.20802018876E+01  0.31538411981E+02  0.32012633492E+02  0.00000000000E+00 0.  1.
</event>
<event>
 5    1  0.1059945E-009  0.9118800E+02  0.7815553E-02  0.1125453E+00
         25   -1    0    0    0    0  0.00000000000E+00  0.00000000000E+00  0.99999998245E-14  0.12509000000E+03  0.12509000000E+03 0.  0.
        -11    1    3    3    0    0 -0.51042225820E+00  0.43383473831E+00  0.45693251598E+02  0.45698161728E+02  0.51100000000E-03 0.  1.
         23    2    1    0    0    0  0.19207101329E+02 -0.23440702880E+02  0.94961566221E+01  0.93332224833E+02  0.87763021306E+02 0.  0.
         11    1    3    3    0    0  0.19717523587E+02 -0.23874537618E+02 -0.36197094976E+02  0.47634063105E+02  0.51100000000E-03 0. -1.
         22    1    1    0    0    0 -0.19207101329E+02  0.23440702880E+02 -0.94961566221E+01  0.31757775167E+02  0.00000000000E+00 0.  1.
</event>
<event>
 5    1  0.1059945E-009  0.9118800E+02  0.7815553E-02  0.1125453E+00
         25   -1    0    0    0    0  0.00000000000E+00  0.00000000000E+00  0.99999998245E-14  0.12509000000E+03  0.12509000000E+03 0.  0.
        -11    1    3    3    0    0 -0.26958740506E+02 -0.17859478850E+01  0.17454363233E+02  0.32165479876E+02  0.51100000000E-03 0.  1.
         23    2    1    0    0    0  0.28464691008E+02 -0.97256634404E+01 -0.84332189439E+01  0.93849860031E+02  0.88497739421E+02 0.  0.
         11    1    3    3    0    0  0.55423431514E+02 -0.79397155553E+01 -0.25887582177E+02  0.61684380155E+02  0.51100000000E-03 0. -1.
         22    1    1    0    0    0 -0.28464691008E+02  0.97256634404E+01  0.84332189439E+01  0.31240139969E+02  0.00000000000E+00 0. -1.
</event>
<event>
 5    1  0.1059945E-009  0.9118800E+02  0.7815553E-02  0.1125453E+00
         25   -1    0    0    0    0  0.00000000000E+00  0.00000000000E+00  0.99999998245E-14  0.12509000000E+03  0.12509000000E+03 0.  0.
        -11    1    3    3    0    0  0.25896021993E+02  0.50586277398E+01 -0.27531995724E+02  0.38134032812E+02  0.51100000000E-03 0.  1.
         23    2    1    0    0    0 -0.12728534656E+02 -0.28447057482E+02 -0.13267462401E+02  0.91218533654E+02  0.84696780633E+02 0.  0.
         11    1    3    3    0    0 -0.38624556649E+02 -0.33505685222E+02  0.14264533323E+02  0.53084500842E+02  0.51100000000E-03 0. -1.
         22    1    1    0    0    0  0.12728534656E+02  0.28447057482E+02  0.13267462401E+02  0.33871466346E+02  0.00000000000E+00 0. -1.
</event>
<event>
 5    1  0.1059945E-009  0.9118800E+02  0.7815553E-02  0.1125453E+00
         25   -1    0    0    0    0  0.00000000000E+00  0.00000000000E+00  0.99999998245E-14  0.12509000000E+03  0.12509000000E+03 0.  0.
        -11    1    3    3    0    0 -0.19711087130E+02  0.47301335520E+02  0.18639231460E+02  0.54528563593E+02  0.51100000000E-03 0. -1.
         23    2    1    0    0    0 -0.25652750263E+02  0.71305756752E+01  0.12778086680E+02  0.95557167344E+02  0.90878952602E+02 0.  0.
         11    1    3    3    0    0 -0.59416631329E+01 -0.40170759845E+02 -0.58611447807E+01  0.41028603750E+02  0.51100000000E-03 0.  1.
         22    1    1    0    0    0  0.25652750263E+02 -0.71305756752E+01 -0.12778086680E+02  0.29532832656E+02  0.00000000000E+00 0. -1.
</event>
<event>
 5    1  0.1059945E-009  0.9118800E+02  0.7815553E-02  0.1125453E+00
         25   -1    0    0    0    0  0.00000000000E+00  0.00000000000E+00  0.99999998245E-14  0.12509000000E+03  0.12509000000E+03 0.  0.
        -11    1    3    3    0    0  0.88172033762E+01  0.40804346650E+02  0.13836461851E+02  0.43979375368E+02  0.51100000000E-03 0.  1.
         23    2    1    0    0    0  0.28838454027E+02 -0.37831124076E+01 -0.34011696565E+01  0.95806278836E+02  0.91221196765E+02 0.  0.
         11    1    3    3    0    0  0.20021250651E+02 -0.44587459058E+02 -0.17237631507E+02  0.51826903468E+02  0.51100000000E-03 0. -1.
         22    1    1    0    0    0 -0.28838454027E+02  0.37831124076E+01  0.34011696565E+01  0.29283721164E+02  0.00000000000E+00 0.  1.
</event>
<event>
 5    1  0.1059945E-009  0.9118800E+02  0.7815553E-02  0.1125453E+00
         25   -1    0    0    0    0  0.00000000000E+00  0.00000000000E+00  0.99999998245E-14  0.12509000000E+03  0.12509000000E+03 0.  0.
        -11    1    3    3    0    0 -0.22881674965E+02  0.26195278540E+02  0.25322752217E+02  0.43023312832E+02  0.51100000000E-03 0.  1.
         23    2    1    0    0    0 -0.23691111401E+02 -0.42725877941E+01 -0.17316454270E+02  0.95435601433E+02  0.90711469322E+02 0.  0.
         11    1    3    3    0    0 -0.80943643692E+00 -0.30467866334E+02 -0.42639206486E+02  0.52412288601E+02  0.51100000000E-03 0. -1.
         22    1    1    0    0    0  0.23691111401E+02  0.42725877941E+01  0.17316454270E+02  0.29654398567E+02  0.00000000000E+00 0. -1.
</event>
<event>
 5    1  0.1059945E-009  0.9118800E+02  0.7815553E-02  0.1125453E+00
         25   -1    0    0    0    0  0.00000000000E+00  0.00000000000E+00  0.99999998245E-14  0.12509000000E+03  0.12509000000E+03 0.  0.
        -11    1    3    3    0    0 -0.12246731602E+02 -0.49538711603E+02  0.28494163039E-01  0.51030061674E+02  0.51100000000E-03 0.  1.
         23    2    1    0    0    0  0.21382616382E+02 -0.20208883262E+02 -0.74300666182E+00  0.95659279572E+02  0.91019396083E+02 0.  0.
         11    1    3    3    0    0  0.33629347984E+02  0.29329828342E+02 -0.77150082486E+00  0.44629217898E+02  0.51100000000E-03 0. -1.
         22    1    1    0    0    0 -0.21382616382E+02  0.20208883262E+02  0.74300666182E+00  0.29430720428E+02  0.00000000000E+00 0.  1.
</event>
<event>
 5    1  0.1059945E-009  0.9118800E+02  0.7815553E-02  0.1125453E+00
         25   -1    0    0    0    0  0.00000000000E+00  0.00000000000E+00  0.99999998245E-14  0.12509000000E+03  0.12509000000E+03 0.  0.
        -11    1    3    3    0    0 -0.31812194884E+01 -0.38237781259E+02 -0.17229179648E+02  0.42060583741E+02  0.51100000000E-03 0. -1.
         23    2    1    0    0    0 -0.11350876484E+02 -0.68124931755E+00  0.24064929785E+02  0.98473701551E+02  0.94808451912E+02 0.  0.
         11    1    3    3    0    0 -0.81696569959E+01  0.37556531941E+02  0.41294109433E+02  0.56413117810E+02  0.51100000000E-03 0.  1.
         22    1    1    0    0    0  0.11350876484E+02  0.68124931755E+00 -0.24064929785E+02  0.26616298449E+02  0.00000000000E+00 0.  1.
</event>
<event>
 5    1  0.1059945E-009  0.9118800E+02  0.7815553E-02  0.1125453E+00
         25   -1    0    0    0    0  0.00000000000E+00  0.00000000000E+00  0.99999998245E-14  0.12509000000E+03  0.12509000000E+03 0.  0.
        -11    1    3    3    0    0  0.53869997196E+02  0.15818380748E+02 -0.18939575323E+02  0.59252892596E+02  0.51100000000E-03 0.  1.
         23    2    1    0    0    0  0.24963986417E+02 -0.72615911744E+01 -0.92994665153E+01  0.97478201767E+02  0.93485765858E+02 0.  0.
         11    1    3    3    0    0 -0.28906010779E+02 -0.23079971923E+02  0.96401088076E+01  0.38225309170E+02  0.51100000000E-03 0. -1.
         22    1    1    0    0    0 -0.24963986417E+02  0.72615911744E+01  0.92994665153E+01  0.27611798233E+02  0.00000000000E+00 0.  1.
</event>
<event>
 5    1  0.1059945E-009  0.9118800E+02  0.7815553E-02  0.1125453E+00
         25   -1    0    0    0    0  0.00000000000E+00  0.00000000000E+00  0.99999998245E-14  0.12509000000E+03  0.12509000000E+03 0.  0.
        -11    1    3    3    0    0  0.45922054745E+02  0.19089996908E+02 -0.28477579353E+02  0.57308250889E+02  0.51100000000E-03 0.  1.
         23    2    1    0    0    0  0.19442683711E+02  0.21325868662E+02 -0.37036236867E-01  0.96231517785E+02  0.91802467393E+02 0.  0.
         11    1    3    3    0    0 -0.26479371034E+02  0.22358717539E+01  0.28440543116E+02  0.38923266896E+02  0.51100000000E-03 0. -1.
         22    1    1    0    0    0 -0.19442683711E+02 -0.21325868662E+02  0.37036236867E-01  0.28858482215E+02  0.00000000000E+00 0.  1.
</event>
<event>
 5    1  0.1059945E-009  0.9118800E+02  0.7815553E-02  0.1125453E+00
         25   -1    0    0    0    0  0.00000000000E+00  0.00000000000E+00  0.99999998245E-14  0.12509000000E+03  0.12509000000E+03 0.  0.
        -11    1    3    3    0    0  0.74621858217E+01  0.43580262329E+02  0.36349364224E+02  0.57238097118E+02  0.51100000000E-03 0.  1.
         23    2    1    0    0    0  0.19364290094E+02  0.12184255581E+02  0.20514026430E+02  0.94361233424E+02  0.89217628740E+02 0.  0.
         11    1    3    3    0    0  0.11902104272E+02 -0.31396006748E+02 -0.15835337795E+02  0.37123136306E+02  0.51100000000E-03 0. -1.
         22    1    1    0    0    0 -0.19364290094E+02 -0.12184255581E+02 -0.20514026430E+02  0.30728766576E+02  0.00000000000E+00 0.  1.
</event>
<event>
 5    1  0.1059945E-009  0.9118800E+02  0.7815553E-02  0.1125453E+00
         25   -1    0    0    0    0  0.00000000000E+00  0.00000000000E+00  0.99999998245E-14  0.12509000000E+03  0.12509000000E+03 0.  0.
        -11    1    3    3    0    0 -0.23921904014E+02  0.42071459694E+01  0.25428883770E+02  0.35165120488E+02  0.51100000000E-03 0.  1.
         23    2    1    0    0    0  0.20075246328E+02 -0.90963273797E+01 -0.16639139219E+02  0.97474431187E+02  0.93480720442E+02 0.  0.
         11    1    3    3    0    0  0.43997150342E+02 -0.13303473349E+02 -0.42068022988E+02  0.62309310699E+02  0.51100000000E-03 0. -1.
         22    1    1    0    0    0 -0.20075246328E+02  0.90963273797E+01  0.16639139219E+02  0.27615568813E+02  0.00000000000E+00 0. -1.
</event>
<event>
 5    1  0.1059945E-009  0.9118800E+02  0.7815553E-02  0.1125453E+00
         25   -1    0    0    0    0  0.00000000000E+00  0.00000000000E+00  0.99999998245E-14  0.12509000000E+03  0.12509000000E+03 0.  0.
        -11    1    3    3    0    0  0.21374890391E+02  0.14725724474E+02  0.24497038671E+02  0.35690864439E+02  0.51100000000E-03 0. -1.
         23    2    1    0    0    0 -0.86547665127E+01  0.91323287976E+01 -0.26850777878E+02  0.95437534920E+02  0.90714135537E+02 0.  0.
         11    1    3    3    0    0 -0.30029656903E+02 -0.55933956763E+01 -0.51347816549E+02  0.59746670481E+02  0.51100000000E-03 0.  1.
         22    1    1    0    0    0  0.86547665127E+01 -0.91323287976E+01  0.26850777878E+02  0.29652465080E+02  0.00000000000E+00 0.  1.
</event>
<event>
 5    1  0.1059945E-009  0.9118800E+02  0.7815553E-02  0.1125453E+00
         25   -1    0    0    0    0  0.00000000000E+00  0.00000000000E+00  0.99999998245E-14  0.12509000000E+03  0.12509000000E+03 0.  0.
        -11    1    3    3    0    0  0.46077065922E+02  0.28263479379E+01  0.39553496429E+02  0.60791145134E+02  0.51100000000E-03 0. -1.
         23    2    1    0    0    0  0.15653433734E+02  0.98586454141E+01  0.20961495268E+02  0.97132761922E+02  0.93022396646E+02 0.  0.
         11    1    3    3    0    0 -0.30423632188E+02  0.70322974762E+01 -0.18592001161E+02  0.36341616788E+02  0.51100000000E-03 0.  1.
         22    1    1    0    0    0 -0.15653433734E+02 -0.98586454141E+01 -0.20961495268E+02  0.27957238078E+02  0.00000000000E+00 0. -1.
</event>
<event>
 5    1  0.1059945E-009  0.9118800E+02  0.7815553E-02  0.1125453E+00
         25   -1    0    0    0    0  0.00000000000E+00  0.00000000000E+00  0.99999998245E-14  0.12509000000E+03  0.12509000000E+03 0.  0.
        -11    1    3    3    0    0 -0.20150357187E+02  0.31844409998E+01 -0.51319704839E+02  0.55225806144E+02  0.51100000000E-03 0.  1.
         23    2    1    0    0    0 -0.22098215475E+02 -0.13490855773E+02 -0.15173821517E+02  0.95080348617E+02  0.90220250039E+02 0.  0.
         11    1    3    3    0    0 -0.19478582885E+01 -0.16675296773E+02  0.36145883322E+02  0.39854542473E+02  0.51100000000E-03 0. -1.
         22    1    1    0    0    0  0.22098215475E+02  0.13490855773E+02  0.15173821517E+02  0.30009651383E+02  0.00000000000E+00 0.  1.
</event>
<event>
 5    1  0.1059945E-009  0.9118800E+02  0.7815553E-02  0.1125453E+00
         25   -1    0    0    0    0  0.00000000000E+00  0.00000000000E+00  0.99999998245E-14  0.12509000000E+03  0.12509000000E+03 0.  0.
        -11    1    3    3    0    0 -0.36035331524E+02 -0.33115509432E+01 -0.50315351268E+02  0.61976980091E+02  0.51100000000E-03 0.  1.
         23    2    1    0    0    0 -0.13128708550E+02  0.38575047427E+01 -0.22885174480E+02  0.98425894127E+02  0.94745353937E+02 0.  0.
         11    1    3    3    0    0  0.22906622974E+02  0.71690556859E+01  0.27430176788E+02  0.36448914036E+02  0.51100000000E-03 0. -1.
         22    1    1    0    0    0  0.13128708550E+02 -0.38575047427E+01  0.22885174480E+02  0.26664105873E+02  0.00000000000E+00 0.  1.
</event>
<event>
 5    1  0.1059945E-009  0.9118800E+02  0.7815553E-02  0.1125453E+00
         25   -1    0    0    0    0  0.00000000000E+00  0.00000000000E+00  0.99999998245E-14  0.12509000000E+03  0.12509000000E+03 0.  0.
        -11    1    3    3    0    0 -0.19354922212E+02 -0.42082849870E+02  0.85827613909E+01  0.47108842698E+02  0.51100000000E-03 0. -1.
         23    2    1    0    0    0 -0.17209374151E+02 -0.35246348510E+01 -0.22403027493E+02  0.96621047607E+02  0.92331714976E+02 0.  0.
         11    1    3    3    0    0  0.21455480613E+01  0.38558215019E+02 -0.30985788884E+02  0.49512204909E+02  0.51100000000E-03 0.  1.
         22    1    1    0    0    0  0.17209374151E+02  0.35246348510E+01  0.22403027493E+02  0.28468952393E+02  0.00000000000E+00 0. -1.
</event>
<event>
 5    1  0.1059945E-009  0.9118800E+02  0.7815553E-02  0.1125453E+00
         25   -1    0    0    0    0  0.00000000000E+00  0.00000000000E+00  0.99999998245E-14  0.12509000000E+03  0.12509000000E+03 0.  0.
        -11    1    3    3    0    0 -0.29425184588E+02 -0.41110009984E+01  0.40036038798E+02  0.49856055000E+02  0.51100000000E-03 0. -1.
         23    2    1    0    0    0  0.10700289579E+02 -0.16670308838E+02  0.21649236128E+02  0.95745753225E+02  0.91138161282E+02 0.  0.
         11    1    3    3    0    0  0.40125474167E+02 -0.12559307839E+02 -0.18386802670E+02  0.45889698225E+02  0.51100000000E-03 0.  1.
         22    1    1    0    0    0 -0.10700289579E+02  0.16670308838E+02 -0.21649236128E+02  0.29344246775E+02  0.00000000000E+00 0. -1.
</event>
<event>
 5    1  0.1059945E-009  0.9118800E+02  0.7815553E-02  0.1125453E+00
         25   -1    0    0    0    0  0.00000000000E+00  0.00000000000E+00  0.99999998245E-14  0.12509000000E+03  0.12509000000E+03 0.  0.
        -11    1    3    3    0    0  0.17088569355E+02  0.21325655015E+02  0.41466739068E+02  0.49661788265E+02  0.51100000000E-03 0. -1.
         23    2    1    0    0    0 -0.10380471996E+02  0.26892106205E+02  0.47152817138E+01  0.95880866896E+02  0.91323420764E+02 0.  0.
         11    1    3    3    0    0 -0.27469041352E+02  0.55664511905E+01 -0.36751457354E+02  0.46219078632E+02  0.51100000000E-03 0.  1.
         22    1    1    0    0    0  0.10380471996E+02 -0.26892106205E+02 -0.47152817138E+01  0.29209133104E+02  0.00000000000E+00 0. -1.
</event>
<event>
 5    1  0.1059945E-009  0.9118800E+02  0.7815553E-02  0.1125453E+00
         25   -1    0    0    0    0  0.00000000000E+00  0.00000000000E+00  0.99999998245E-14  0.12509000000E+03  0.12509000000E+03 0.  0.
        -11    1    3    3    0    0 -0.29904873170E+02 -0.41532937260E+02 -0.25053224079E+02  0.56982017811E+02  0.51100000000E-03 0. -1.
         23    2    1    0    0    0 -0.34901281014E+01 -0.28388511288E+02  0.11815171064E+01  0.96463359436E+02  0.92117833038E+02 0.  0.
         11    1    3    3    0    0  0.26414745069E+02  0.13144425972E+02  0.26234741185E+02  0.39481341625E+02  0.51100000000E-03 0.  1.
         22    1    1    0    0    0  0.34901281014E+01  0.28388511288E+02 -0.11815171064E+01  0.28626640564E+02  0.00000000000E+00 0. -1.
</event>
<event>
 5    1  0.1059945E-009  0.9118800E+02  0.7815553E-02  0.1125453E+00
         25   -1    0    0    0    0  0.00000000000E+00  0.00000000000E+00  0.99999998245E-14  0.12509000000E+03  0.12509000000E+03 0.  0.
        -11    1    3    3    0    0 -0.49152051368E+02 -0.27014038465E+02 -0.38849062346E+01  0.56220769513E+02  0.51100000000E-03 0.  1.
         23    2    1    0    0    0 -0.27939420165E+02  0.54953477037E+01  0.53377262236E+01  0.96119301583E+02  0.91649434096E+02 0.  0.
         11    1    3    3    0    0  0.21212631203E+02  0.32509386169E+02  0.92226324582E+01  0.39898532070E+02  0.51100000000E-03 0. -1.
         22    1    1    0    0    0  0.27939420165E+02 -0.54953477037E+01 -0.53377262236E+01  0.28970698417E+02  0.00000000000E+00 0.  1.
</event>
<event>
 5    1  0.1059945E-009  0.9118800E+02  0.7815553E-02  0.1125453E+00
         25   -1    0    0    0    0  0.00000000000E+00  0.00000000000E+00  0.99999998245E-14  0.12509000000E+03  0.12509000000E+03 0.  0.
        -11    1    3    3    0    0  0.34979999421E+02 -0.21136916007E+02 -0.73083713089E+01  0.41518452154E+02  0.51100000000E-03 0. -1.
         23    2    1    0    0    0 -0.20048321973E+02 -0.19835919291E+02 -0.20487969403E+01  0.96812862999E+02  0.92591219698E+02 0.  0.
         11    1    3    3    0    0 -0.55028321395E+02  0.13009967161E+01  0.52595743686E+01  0.55294410846E+02  0.51100000000E-03 0.  1.
         22    1    1    0    0    0  0.20048321973E+02  0.19835919291E+02  0.20487969403E+01  0.28277137001E+02  0.00000000000E+00 0.  1.
</event>
<event>
 5    1  0.1059945E-009  0.9118800E+02  0.7815553E-02  0.1125453E+00
         25   -1    0    0    0    0  0.00000000000E+00  0.00000000000E+00  0.99999998245E-14  0.12509000000E+03  0.12509000000E+03 0.  0.
        -11    1    3    3    0    0  0.54566828756E+02 -0.19820837222E+02 -0.11312520548E+02  0.59147083699E+02  0.51100000000E-03 0. -1.
         23    2    1    0    0    0  0.20521407848E+02 -0.22765295076E+02 -0.31638451766E+01  0.94277717445E+02  0.89100455949E+02 0.  0.
         11    1    3    3    0    0 -0.34045420908E+02 -0.29444578539E+01  0.81486753719E+01  0.35130633746E+02  0.51100000000E-03 0.  1.
         22    1    1    0    0    0 -0.20521407848E+02  0.22765295076E+02  0.31638451766E+01  0.30812282555E+02  0.00000000000E+00 0. -1.
</event>
<event>
 5    1  0.1059945E-009  0.9118800E+02  0.7815553E-02  0.1125453E+00
         25   -1    0    0    0    0  0.00000000000E+00  0.00000000000E+00  0.99999998245E-14  0.12509000000E+03  0.12509000000E+03 0.  0.
        -11    1    3    3    0    0  0.32417076850E+02  0.46585291090E+01  0.37332775627E+02  0.49661905936E+02  0.51100000000E-03 0.  1.
         23    2    1    0    0    0  0.23767718603E+02 -0.41066576682E+01 -0.10301641161E+02  0.98862287644E+02  0.95319772466E+02 0.  0.
         11    1    3    3    0    0 -0.86493582469E+01 -0.87651867772E+01 -0.47634416787E+02  0.49200381708E+02  0.51100000000E-03 0. -1.
         22    1    1    0    0    0 -0.23767718603E+02  0.41066576682E+01  0.10301641161E+02  0.26227712356E+02  0.00000000000E+00 0.  1.
</event>
<event>
 5    1  0.1059945E-009  0.9118800E+02  0.7815553E-02  0.1125453E+00
         25   -1    0    0    0    0  0.00000000000E+00  0.00000000000E+00  0.99999998245E-14  0.12509000000E+03  0.12509000000E+03 0.  0.
        -11    1    3    3    0    0 -0.46308020227E+02  0.31357054492E+02 -0.13892706474E+02  0.57625557674E+02  0.51100000000E-03 0.  1.
         23    2    1    0    0    0 -0.29048422790E+02 -0.12507922732E+01 -0.74171430600E+01  0.95083511383E+02  0.90224635094E+02 0.  0.
         11    1    3    3    0    0  0.17259597436E+02 -0.32607846765E+02  0.64755634139E+01  0.37457953710E+02  0.51100000000E-03 0. -1.
         22    1    1    0    0    0  0.29048422790E+02  0.12507922732E+01  0.74171430600E+01  0.30006488617E+02  0.00000000000E+00 0.  1.
</event>
<event>
 5    1  0.1059945E-009  0.9118800E+02  0.7815553E-02  0.1125453E+00
         25   -1    0    0    0    0  0.00000000000E+00  0.00000000000E+00  0.99999998245E-14  0.12509000000E+03  0.12509000000E+03 0.  0.
        -11    1    3    3    0    0  0.39014642616E+02  0.23046371948E+01 -0.24700478719E+02  0.46233833285E+02  0.51100000000E-03 0.  1.
         23    2    1    0    0    0 -0.50355561118E+01  0.24001777129E+02 -0.15167133251E+02  0.96254534653E+02  0.91833824812E+02 0.  0.
         11    1    3    3    0    0 -0.44050198728E+02  0.21697139934E+02  0.95333454678E+01  0.50020701368E+02  0.51100000000E-03 0. -1.
         22    1    1    0    0    0  0.50355561118E+01 -0.24001777129E+02  0.15167133251E+02  0.28835465347E+02  0.00000000000E+00 0. -1.
</event>
<event>
 5    1  0.1059945E-009  0.9118800E+02  0.7815553E-02  0.1125453E+00
         25   -1    0    0    0    0  0.00000000000E+00  0.00000000000E+00  0.99999998245E-14  0.12509000000E+03  0.12509000000E+03 0.  0.
        -11    1    3    3    0    0 -0.46247003544E+02 -0.35823501827E+02 -0.16686938458E+02  0.60832249139E+02  0.51100000000E-03 0.  1.
         23    2    1    0    0    0 -0.27275761289E+02 -0.11916228249E+02 -0.63035161307E+00  0.95318184591E+02  0.90549408176E+02 0.  0.
         11    1    3    3    0    0  0.18971242255E+02  0.23907273578E+02  0.16056586845E+02  0.34485935452E+02  0.51100000000E-03 0. -1.
         22    1    1    0    0    0  0.27275761289E+02  0.11916228249E+02  0.63035161307E+00  0.29771815409E+02  0.00000000000E+00 0.  1.
</event>
<event>
 5    1  0.1059945E-009  0.9118800E+02  0.7815553E-02  0.1125453E+00
         25   -1    0    0    0    0  0.00000000000E+00  0.00000000000E+00  0.99999998245E-14  0.12509000000E+03  0.12509000000E+03 0.  0.
        -11    1    3    3    0    0 -0.12908400955E+01 -0.32891722894E+02 -0.33517998549E+02  0.46978590125E+02  0.51100000000E-03 0.  1.
         23    2    1    0    0    0  0.26944740499E+02  0.22539703805E+00 -0.10923025206E+02  0.96014540863E+02  0.91506337119E+02 0.  0.
         11    1    3    3    0    0  0.28235580595E+02  0.33117119932E+02  0.22594973343E+02  0.49035950738E+02  0.51100000000E-03 0. -1.
         22    1    1    0    0    0 -0.26944740499E+02 -0.22539703805E+00  0.10923025206E+02  0.29075459137E+02  0.00000000000E+00 0.  1.
</event>
<event>
 5    1  0.1059945E-009  0.9118800E+02  0.7815553E-02  0.1125453E+00
         25   -1    0    0    0    0  0.00000000000E+00  0.00000000000E+00  0.99999998245E-14  0.12509000000E+03  0.12509000000E+03 0.  0.
        -11    1    3    3    0    0 -0.27593895609E+02 -0.21405081375E+02 -0.34078824372E+02  0.48795151955E+02  0.51100000000E-03 0.  1.
         23    2    1    0    0    0 -0.82939065486E+01  0.19094102407E+02 -0.20987562990E+02  0.95529021788E+02  0.90840203495E+02 0.  0.
         11    1    3    3    0    0  0.19299989060E+02  0.40499183782E+02  0.13091261381E+02  0.46733869833E+02  0.51100000000E-03 0. -1.
         22    1    1    0    0    0  0.82939065486E+01 -0.19094102407E+02  0.20987562990E+02  0.29560978212E+02  0.00000000000E+00 0. -1.
</event>
<event>
 5    1  0.1059945E-009  0.9118800E+02  0.7815553E-02  0.1125453E+00
         25   -1    0    0    0    0  0.00000000000E+00  0.00000000000E+00  0.99999998245E-14  0.12509000000E+03  0.12509000000E+03 0.  0.
        -11    1    3    3    0    0 -0.61675083431E+01 -0.54368493237E+02 -0.26492330650E+02  0.60793213433E+02  0.51100000000E-03 0. -1.
         23    2    1    0    0    0 -0.79784066997E+01 -0.28585247489E+02 -0.38338758854E+01  0.95165596050E+02  0.90338367927E+02 0.  0.
         11    1    3    3    0    0 -0.18108983566E+01  0.25783245748E+02  0.22658454764E+02  0.34372382617E+02  0.51100000000E-03 0.  1.
         22    1    1    0    0    0  0.79784066997E+01  0.28585247489E+02  0.38338758854E+01  0.29924403950E+02  0.00000000000E+00 0. -1.
</event>
<event>
 5    1  0.1059945E-009  0.9118800E+02  0.7815553E-02  0.1125453E+00
         25   -1    0    0    0    0  0.00000000000E+00  0.00000000000E+00  0.99999998245E-14  0.12509000000E+03  0.12509000000E+03 0.  0.
        -11    1    3    3    0    0  0.19111236534E+01  0.37433541911E+02 -0.24787042974E+02  0.44936844051E+02  0.51100000000E-03 0.  1.
         23    2    1    0    0    0 -0.53897610115E+01 -0.38620582976E+01 -0.36111349407E+02  0.88374954391E+02  0.80387424325E+02 0.  0.
         11    1    3    3    0    0 -0.73008846649E+01 -0.41295600209E+02 -0.11324306433E+02  0.43438110340E+02  0.51100000000E-03 0. -1.
         22    1    1    0    0    0  0.53897610115E+01  0.38620582976E+01  0.36111349407E+02  0.36715045609E+02  0.00000000000E+00 0.  1.
</event>
<event>
 5    1  0.1059945E-009  0.9118800E+02  0.7815553E-02  0.1125453E+00
         25   -1    0    0    0    0  0.00000000000E+00  0.00000000000E+00  0.99999998245E-14  0.12509000000E+03  0.12509000000E+03 0.  0.
        -11    1    3    3    0    0 -0.37080970063E+02 -0.35312208195E+01  0.88231284035E+01  0.38279439081E+02  0.51100000000E-03 0.  1.
         23    2    1    0    0    0  0.38944333704E+01  0.11205254293E+02 -0.27599709687E+02  0.95048889670E+02  0.90176621790E+02 0.  0.
         11    1    3    3    0    0  0.40975403433E+02  0.14736475113E+02 -0.36422838091E+02  0.56769450589E+02  0.51100000000E-03 0. -1.
         22    1    1    0    0    0 -0.38944333704E+01 -0.11205254293E+02  0.27599709687E+02  0.30041110330E+02  0.00000000000E+00 0. -1.
</event>
<event>
 5    1  0.1059945E-009  0.9118800E+02  0.7815553E-02  0.1125453E+00
         25   -1    0    0    0    0  0.00000000000E+00  0.00000000000E+00  0.99999998245E-14  0.12509000000E+03  0.12509000000E+03 0.  0.
        -11    1    3    3    0    0 -0.57664336037E+01 -0.24092013553E+02  0.24194692800E+02  0.34627446246E+02  0.51100000000E-03 0. -1.
         23    2    1    0    0    0 -0.61061793072E+01  0.25732100148E+02 -0.11836175227E+02  0.96115503495E+02  0.91644250034E+02 0.  0.
         11    1    3    3    0    0 -0.33974570354E+00  0.49824113701E+02 -0.36030868027E+02  0.61488057249E+02  0.51100000000E-03 0.  1.
         22    1    1    0    0    0  0.61061793072E+01 -0.25732100148E+02  0.11836175227E+02  0.28974496505E+02  0.00000000000E+00 0.  1.
</event>
<event>
 5    1  0.1059945E-009  0.9118800E+02  0.7815553E-02  0.1125453E+00
         25   -1    0    0    0    0  0.00000000000E+00  0.00000000000E+00  0.99999998245E-14  0.12509000000E+03  0.12509000000E+03 0.  0.
        -11    1    3    3    0    0 -0.32406595578E+02 -0.10953874028E+02 -0.15531661092E+02  0.37568700932E+02  0.51100000000E-03 0.  1.
         23    2    1    0    0    0  0.11759085529E+02  0.25950132050E+02 -0.70055088614E+01  0.95751244057E+02  0.91145697310E+02 0.  0.
         11    1    3    3    0    0  0.44165681108E+02  0.36904006078E+02  0.85261522310E+01  0.58182543124E+02  0.51100000000E-03 0. -1.
         22    1    1    0    0    0 -0.11759085529E+02 -0.25950132050E+02  0.70055088614E+01  0.29338755943E+02  0.00000000000E+00 0. -1.
</event>
<event>
 5    1  0.1059945E-009  0.9118800E+02  0.7815553E-02  0.1125453E+00
         25   -1    0    0    0    0  0.00000000000E+00  0.00000000000E+00  0.99999998245E-14  0.12509000000E+03  0.12509000000E+03 0.  0.
        -11    1    3    3    0    0  0.17100165646E+02  0.31773287902E+02 -0.21567520203E+02  0.42037071939E+02  0.51100000000E-03 0. -1.
         23    2    1    0    0    0 -0.98997191435E+01 -0.15782277245E+02 -0.21391563110E+02  0.96723052924E+02  0.92469807399E+02 0.  0.
         11    1    3    3    0    0 -0.26999884790E+02 -0.47555565147E+02  0.17595709346E+00  0.54685980985E+02  0.51100000000E-03 0.  1.
         22    1    1    0    0    0  0.98997191435E+01  0.15782277245E+02  0.21391563110E+02  0.28366947076E+02  0.00000000000E+00 0. -1.
</event>
<event>
 5    1  0.1059945E-009  0.9118800E+02  0.7815553E-02  0.1125453E+00
         25   -1    0    0    0    0  0.00000000000E+00  0.00000000000E+00  0.99999998245E-14  0.12509000000E+03  0.12509000000E+03 0.  0.
        -11    1    3    3    0    0  0.32100920540E+02  0.34969347898E+02  0.22413259541E+02  0.52494557770E+02  0.51100000000E-03 0. -1.
         23    2    1    0    0    0 -0.75546675843E+01  0.22860017676E+02  0.19584933674E+02  0.94054165268E+02  0.88786051645E+02 0.  0.
         11    1    3    3    0    0 -0.39655588124E+02 -0.12109330222E+02 -0.28283258669E+01  0.41559607498E+02  0.51100000000E-03 0.  1.
         22    1    1    0    0    0  0.75546675843E+01 -0.22860017676E+02 -0.19584933674E+02  0.31035834732E+02  0.00000000000E+00 0. -1.
</event>
<event>
 5    1  0.1059945E-009  0.9118800E+02  0.7815553E-02  0.1125453E+00
         25   -1    0    0    0    0  0.00000000000E+00  0.00000000000E+00  0.99999998245E-14  0.12509000000E+03  0.12509000000E+03 0.  0.
        -11    1    3    3    0    0 -0.48092693065E+02  0.28522350271E+02  0.73425948837E+01  0.56394550190E+02  0.51100000000E-03 0.  1.
         23    2    1    0    0    0 -0.92070675607E+01  0.27920782679E+02  0.25244760512E+01  0.95582150573E+02  0.90913334172E+02 0.  0.
         11    1    3    3    0    0  0.38885625504E+02 -0.60156759193E+00 -0.48181188325E+01  0.39187600383E+02  0.51100000000E-03 0. -1.
         22    1    1    0    0    0  0.92070675607E+01 -0.27920782679E+02 -0.25244760512E+01  0.29507849427E+02  0.00000000000E+00 0.  1.
</event>
<event>
 5    1  0.1059945E-009  0.9118800E+02  0.7815553E-02  0.1125453E+00
         25   -1    0    0    0    0  0.00000000000E+00  0.00000000000E+00  0.99999998245E-14  0.12509000000E+03  0.12509000000E+03 0.  0.
        -11    1    3    3    0    0 -0.42614568293E+02 -0.15429065105E+02 -0.14901559406E+02  0.47708636050E+02  0.51100000000E-03 0. -1.
         23    2    1    0    0    0 -0.93359297451E+01 -0.16646278608E+02  0.21024586179E+02  0.96694729272E+02  0.92431484189E+02 0.  0.
         11    1    3    3    0    0  0.33278638548E+02 -0.12172135033E+01  0.35926145585E+02  0.48986093222E+02  0.51100000000E-03 0.  1.
         22    1    1    0    0    0  0.93359297451E+01  0.16646278608E+02 -0.21024586179E+02  0.28395270728E+02  0.00000000000E+00 0. -1.
</event>
<event>
 5    1  0.1059945E-009  0.9118800E+02  0.7815553E-02  0.1125453E+00
         25   -1    0    0    0    0  0.00000000000E+00  0.00000000000E+00  0.99999998245E-14  0.12509000000E+03  0.12509000000E+03 0.  0.
        -11    1    3    3    0    0 -0.34116680074E+02  0.24790053462E+02 -0.53053189967E+01  0.42504599984E+02  0.51100000000E-03 0. -1.
         23    2    1    0    0    0  0.12956461495E+01 -0.41306638261E+01 -0.30211748885E+02  0.94569664922E+02  0.89509388727E+02 0.  0.
         11    1    3    3    0    0  0.35412326223E+02 -0.28920717288E+02 -0.24906429888E+02  0.52065064938E+02  0.51100000000E-03 0.  1.
         22    1    1    0    0    0 -0.12956461495E+01  0.41306638261E+01  0.30211748885E+02  0.30520335078E+02  0.00000000000E+00 0.  1.
</event>
<event>
 5    1  0.1059945E-009  0.9118800E+02  0.7815553E-02  0.1125453E+00
         25   -1    0    0    0    0  0.00000000000E+00  0.00000000000E+00  0.99999998245E-14  0.12509000000E+03  0.12509000000E+03 0.  0.
        -11    1    3    3    0    0  0.39965953524E+02  0.12319025128E+02 -0.39722130577E+02  0.57679142496E+02  0.51100000000E-03 0.  1.
         23    2    1    0    0    0  0.27089118419E+02  0.30424170528E+01 -0.30222100778E+01  0.97663545763E+02  0.93733440025E+02 0.  0.
         11    1    3    3    0    0 -0.12876835105E+02 -0.92766080755E+01  0.36699920499E+02  0.39984403267E+02  0.51100000000E-03 0. -1.
         22    1    1    0    0    0 -0.27089118419E+02 -0.30424170528E+01  0.30222100778E+01  0.27426454237E+02  0.00000000000E+00 0.  1.
</event>
<event>
 5    1  0.1059945E-009  0.9118800E+02  0.7815553E-02  0.1125453E+00
         25   -1    0    0    0    0  0.00000000000E+00  0.00000000000E+00  0.99999998245E-14  0.12509000000E+03  0.12509000000E+03 0.  0.
        -11    1    3    3    0    0 -0.11910682710E+02 -0.10844946075E+02 -0.41960282922E+02  0.44945996052E+02  0.51100000000E-03 0. -1.
         23    2    1    0    0    0  0.26092485939E+02 -0.10889557102E+02 -0.85377026563E+01  0.95555399224E+02  0.90876518847E+02 0.  0.
         11    1    3    3    0    0  0.38003168649E+02 -0.44611027346E-01  0.33422580266E+02  0.50609403171E+02  0.51100000000E-03 0.  1.
         22    1    1    0    0    0 -0.26092485939E+02  0.10889557102E+02  0.85377026563E+01  0.29534600776E+02  0.00000000000E+00 0.  1.
</event>
<event>
 5    1  0.1059945E-009  0.9118800E+02  0.7815553E-02  0.1125453E+00
         25   -1    0    0    0    0  0.00000000000E+00  0.00000000000E+00  0.99999998245E-14  0.12509000000E+03  0.12509000000E+03 0.  0.
        -11    1    3    3    0    0 -0.32256332675E+01  0.34535798579E+02 -0.36383717520E+02  0.50268290147E+02  0.51100000000E-03 0.  1.
         23    2    1    0    0    0  0.15941311960E+02  0.23471950003E+02  0.41151904403E+01  0.96419585697E+02  0.92058371969E+02 0.  0.
         11    1    3    3    0    0  0.19166945228E+02 -0.11063848576E+02  0.40498907961E+02  0.46151295550E+02  0.51100000000E-03 0. -1.
         22    1    1    0    0    0 -0.15941311960E+02 -0.23471950003E+02 -0.41151904403E+01  0.28670414303E+02  0.00000000000E+00 0. -1.
</event>
<event>
 5    1  0.1059945E-009  0.9118800E+02  0.7815553E-02  0.1125453E+00
         25   -1    0    0    0    0  0.00000000000E+00  0.00000000000E+00  0.99999998245E-14  0.12509000000E+03  0.12509000000E+03 0.  0.
        -11    1    3    3    0    0 -0.15253561448E+02  0.29177735644E+01 -0.31515187258E+02  0.35133909085E+02  0.51100000000E-03 0. -1.
         23    2    1    0    0    0  0.83014552153E+01 -0.19251457101E+02  0.20099280714E+02  0.96046690195E+02  0.91550275002E+02 0.  0.
         11    1    3    3    0    0  0.23555016664E+02 -0.22169230665E+02  0.51614467972E+02  0.60912781110E+02  0.51100000000E-03 0.  1.
         22    1    1    0    0    0 -0.83014552153E+01  0.19251457101E+02 -0.20099280714E+02  0.29043309805E+02  0.00000000000E+00 0.  1.
</event>
<event>
 5    1  0.1059945E-009  0.9118800E+02  0.7815553E-02  0.1125453E+00
         25   -1    0    0    0    0  0.00000000000E+00  0.00000000000E+00  0.99999998245E-14  0.12509000000E+03  0.12509000000E+03 0.  0.
        -11    1    3    3    0    0  0.37089640056E+02 -0.39788636498E+02 -0.29777165552E+01  0.54476084569E+02  0.51100000000E-03 0.  1.
         23    2    1    0    0    0  0.18317170043E+02 -0.81551232902E+01 -0.21526156714E+02  0.95672315232E+02  0.91037309520E+02 0.  0.
         11    1    3    3    0    0 -0.18772470013E+02  0.31633513207E+02 -0.18548440158E+02  0.41196230663E+02  0.51100000000E-03 0. -1.
         22    1    1    0    0    0 -0.18317170043E+02  0.81551232902E+01  0.21526156714E+02  0.29417684768E+02  0.00000000000E+00 0.  1.
</event>
<event>
 5    1  0.1059945E-009  0.9118800E+02  0.7815553E-02  0.1125453E+00
         25   -1    0    0    0    0  0.00000000000E+00  0.00000000000E+00  0.99999998245E-14  0.12509000000E+03  0.12509000000E+03 0.  0.
        -11    1    3    3    0    0  0.31316568264E+01  0.47071132829E+02  0.23549545120E+01  0.47233935166E+02  0.51100000000E-03 0.  1.
         23    2    1    0    0    0 -0.24393568898E+02  0.10361500852E+02 -0.12937168139E+02  0.95598014259E+02  0.90935158807E+02 0.  0.
         11    1    3    3    0    0 -0.27525225724E+02 -0.36709631977E+02 -0.15292122651E+02  0.48364079093E+02  0.51100000000E-03 0. -1.
         22    1    1    0    0    0  0.24393568898E+02 -0.10361500852E+02  0.12937168139E+02  0.29491985741E+02  0.00000000000E+00 0.  1.
</event>
<event>
 5    1  0.1059945E-009  0.9118800E+02  0.7815553E-02  0.1125453E+00
         25   -1    0    0    0    0  0.00000000000E+00  0.00000000000E+00  0.99999998245E-14  0.12509000000E+03  0.12509000000E+03 0.  0.
        -11    1    3    3    0    0 -0.12016562200E+02  0.57079029689E+02  0.20763825240E+02  0.61915667130E+02  0.51100000000E-03 0. -1.
         23    2    1    0    0    0 -0.11299228030E+02  0.25387192107E+02  0.72810443825E+01  0.96363780540E+02  0.91982512009E+02 0.  0.
         11    1    3    3    0    0  0.71733417067E+00 -0.31691837581E+02 -0.13482780857E+02  0.34448113410E+02  0.51100000000E-03 0.  1.
         22    1    1    0    0    0  0.11299228030E+02 -0.25387192107E+02 -0.72810443825E+01  0.28726219460E+02  0.00000000000E+00 0. -1.
</event>
<event>
 5    1  0.1059945E-009  0.9118800E+02  0.7815553E-02  0.1125453E+00
         25   -1    0    0    0    0  0.00000000000E+00  0.00000000000E+00  0.99999998245E-14  0.12509000000E+03  0.12509000000E+03 0.  0.
        -11    1    3    3    0    0  0.35990050693E+02  0.22598931336E+02 -0.15662235074E+02  0.45291291152E+02  0.51100000000E-03 0. -1.
         23    2    1    0    0    0  0.30163979134E+02 -0.19009222922E+02 -0.12025667918E+02  0.87462445174E+02  0.78954711282E+02 0.  0.
         11    1    3    3    0    0 -0.58260715590E+01 -0.41608154258E+02  0.36365671561E+01  0.42171154022E+02  0.51100000000E-03 0.  1.
         22    1    1    0    0    0 -0.30163979134E+02  0.19009222922E+02  0.12025667918E+02  0.37627554826E+02  0.00000000000E+00 0. -1.
</event>
<event>
 5    1  0.1059945E-009  0.9118800E+02  0.7815553E-02  0.1125453E+00
         25   -1    0    0    0    0  0.00000000000E+00  0.00000000000E+00  0.99999998245E-14  0.12509000000E+03  0.12509000000E+03 0.  0.
        -11    1    3    3    0    0  0.48603287898E+02 -0.28977191090E+02 -0.18856138002E+02  0.59644875208E+02  0.51100000000E-03 0. -1.
         23    2    1    0    0    0  0.31412851727E+02 -0.69875748839E+01 -0.77721255097E+00  0.92899978010E+02  0.87144755427E+02 0.  0.
         11    1    3    3    0    0 -0.17190436171E+02  0.21989616206E+02  0.18078925451E+02  0.33255102802E+02  0.51100000000E-03 0.  1.
         22    1    1    0    0    0 -0.31412851727E+02  0.69875748839E+01  0.77721255097E+00  0.32190021990E+02  0.00000000000E+00 0. -1.
</event>
<event>
 5    1  0.1059945E-009  0.9118800E+02  0.7815553E-02  0.1125453E+00
         25   -1    0    0    0    0  0.00000000000E+00  0.00000000000E+00  0.99999998245E-14  0.12509000000E+03  0.12509000000E+03 0.  0.
        -11    1    3    3    0    0 -0.14505798157E+02 -0.28247175623E+02  0.42022271396E+02  0.52670602848E+02  0.51100000000E-03 0.  1.
         23    2    1    0    0    0 -0.69791886379E+01 -0.28611460132E+02 -0.27950317469E+00  0.95638296365E+02  0.90990553821E+02 0.  0.
         11    1    3    3    0    0  0.75266095190E+01 -0.36428450945E+00 -0.42301774571E+02  0.42967693517E+02  0.51100000000E-03 0. -1.
         22    1    1    0    0    0  0.69791886379E+01  0.28611460132E+02  0.27950317469E+00  0.29451703635E+02  0.00000000000E+00 0.  1.
</event>
<event>
 5    1  0.1059945E-009  0.9118800E+02  0.7815553E-02  0.1125453E+00
         25   -1    0    0    0    0  0.00000000000E+00  0.00000000000E+00  0.99999998245E-14  0.12509000000E+03  0.12509000000E+03 0.  0.
        -11    1    3    3    0    0  0.18371609198E+02  0.21491442738E+02 -0.17443175557E+02  0.33221416425E+02  0.51100000000E-03 0. -1.
         23    2    1    0    0    0 -0.13895854161E+02 -0.12227798729E+02  0.23409648939E+02  0.95246650857E+02  0.90450533505E+02 0.  0.
         11    1    3    3    0    0 -0.32267463359E+02 -0.33719241467E+02  0.40852824496E+02  0.62025234432E+02  0.51100000000E-03 0.  1.
         22    1    1    0    0    0  0.13895854161E+02  0.12227798729E+02 -0.23409648939E+02  0.29843349143E+02  0.00000000000E+00 0.  1.
</event>
<event>
 5    1  0.1059945E-009  0.9118800E+02  0.7815553E-02  0.1125453E+00
         25   -1    0    0    0    0  0.00000000000E+00  0.00000000000E+00  0.99999998245E-14  0.12509000000E+03  0.12509000000E+03 0.  0.
        -11    1    3    3    0    0  0.14136166628E+02 -0.24200591593E+02  0.25537450453E+02  0.37916503218E+02  0.51100000000E-03 0.  1.
         23    2    1    0    0    0 -0.81994752512E+01 -0.86525472554E+01 -0.26161419499E+02  0.96340776730E+02  0.91951223061E+02 0.  0.
         11    1    3    3    0    0 -0.22335641879E+02  0.15548044337E+02 -0.51698869952E+02  0.58424273512E+02  0.51100000000E-03 0. -1.
         22    1    1    0    0    0  0.81994752512E+01  0.86525472554E+01  0.26161419499E+02  0.28749223270E+02  0.00000000000E+00 0. -1.
</event>
<event>
 5    1  0.1059945E-009  0.9118800E+02  0.7815553E-02  0.1125453E+00
         25   -1    0    0    0    0  0.00000000000E+00  0.00000000000E+00  0.99999998245E-14  0.12509000000E+03  0.12509000000E+03 0.  0.
        -11    1    3    3    0    0 -0.36089793041E+02 -0.38935246745E+02  0.15704239379E+02  0.55362891323E+02  0.51100000000E-03 0.  1.
         23    2    1    0    0    0 -0.25034284797E+02  0.19545149560E+00  0.14742423957E+02  0.96036726850E+02  0.91536660543E+02 0.  0.
         11    1    3    3    0    0  0.11055508244E+02  0.39130698241E+02 -0.96181542264E+00  0.40673835528E+02  0.51100000000E-03 0. -1.
         22    1    1    0    0    0  0.25034284797E+02 -0.19545149560E+00 -0.14742423957E+02  0.29053273150E+02  0.00000000000E+00 0.  1.
</event>
<event>
 5    1  0.1059945E-009  0.9118800E+02  0.7815553E-02  0.1125453E+00
         25   -1    0    0    0    0  0.00000000000E+00  0.00000000000E+00  0.99999998245E-14  0.12509000000E+03  0.12509000000E+03 0.  0.
        -11    1    3    3    0    0  0.90797024861E+01 -0.49860619842E+02  0.82627999122E+01  0.51349744605E+02  0.51100000000E-03 0.  1.
         23    2    1    0    0    0  0.21857005297E+01 -0.11869733374E+02  0.27917170310E+02  0.94675591321E+02  0.89657299405E+02 0.  0.
         11    1    3    3    0    0 -0.68940019565E+01  0.37990886469E+02  0.19654370398E+02  0.43325846716E+02  0.51100000000E-03 0. -1.
         22    1    1    0    0    0 -0.21857005297E+01  0.11869733374E+02 -0.27917170310E+02  0.30414408679E+02  0.00000000000E+00 0.  1.
</event>
<event>
 5    1  0.1059945E-009  0.9118800E+02  0.7815553E-02  0.1125453E+00
         25   -1    0    0    0    0  0.00000000000E+00  0.00000000000E+00  0.99999998245E-14  0.12509000000E+03  0.12509000000E+03 0.  0.
        -11    1    3    3    0    0 -0.18424562634E+01  0.48938308478E+02  0.20684280178E+02  0.53161942482E+02  0.51100000000E-03 0. -1.
         23    2    1    0    0    0 -0.15558874019E+02  0.21270492765E+02 -0.10194945587E+02  0.96833154126E+02  0.92618628792E+02 0.  0.
         11    1    3    3    0    0 -0.13716417756E+02 -0.27667815713E+02 -0.30879225765E+02  0.43671211644E+02  0.51100000000E-03 0.  1.
         22    1    1    0    0    0  0.15558874019E+02 -0.21270492765E+02  0.10194945587E+02  0.28256845874E+02  0.00000000000E+00 0.  1.
</event>
<event>
 5    1  0.1059945E-009  0.9118800E+02  0.7815553E-02  0.1125453E+00
         25   -1    0    0    0    0  0.00000000000E+00  0.00000000000E+00  0.99999998245E-14  0.12509000000E+03  0.12509000000E+03 0.  0.
        -11    1    3    3    0    0 -0.11795344087E+02  0.29011760314E+02  0.11341343374E+02  0.33308233943E+02  0.51100000000E-03 0. -1.
         23    2    1    0    0    0  0.88782771162E+01 -0.28559402655E+02  0.36306358929E+01  0.94962856067E+02  0.90057199773E+02 0.  0.
         11    1    3    3    0    0  0.20673621203E+02 -0.57571162968E+02 -0.77107074808E+01  0.61654622124E+02  0.51100000000E-03 0.  1.
         22    1    1    0    0    0 -0.88782771162E+01  0.28559402655E+02 -0.36306358929E+01  0.30127143933E+02  0.00000000000E+00 0.  1.
</event>
<event>
 5    1  0.1059945E-009  0.9118800E+02  0.7815553E-02  0.1125453E+00
         25   -1    0    0    0    0  0.00000000000E+00  0.00000000000E+00  0.99999998245E-14  0.12509000000E+03  0.12509000000E+03 0.  0.
        -11    1    3    3    0    0  0.15293098718E+02  0.17072420396E+02  0.55309413471E+02  0.59870507141E+02  0.51100000000E-03 0.  1.
         23    2    1    0    0    0 -0.45129152644E+01  0.12888302930E+02  0.28720513133E+02  0.93288386343E+02  0.87700515365E+02 0.  0.
         11    1    3    3    0    0 -0.19806013983E+02 -0.41841174661E+01 -0.26588900338E+02  0.33417879201E+02  0.51100000000E-03 0. -1.
         22    1    1    0    0    0  0.45129152644E+01 -0.12888302930E+02 -0.28720513133E+02  0.31801613657E+02  0.00000000000E+00 0.  1.
</event>
<event>
 5    1  0.1059945E-009  0.9118800E+02  0.7815553E-02  0.1125453E+00
         25   -1    0    0    0    0  0.00000000000E+00  0.00000000000E+00  0.99999998245E-14  0.12509000000E+03  0.12509000000E+03 0.  0.
        -11    1    3    3    0    0  0.31732792483E+02 -0.71825501329E+01  0.87718313096E+01  0.33697242765E+02  0.51100000000E-03 0. -1.
         23    2    1    0    0    0 -0.28987932966E+02  0.10295088343E+00 -0.28995481080E+01  0.95957230894E+02  0.91427960303E+02 0.  0.
         11    1    3    3    0    0 -0.60720725449E+02  0.72855010164E+01 -0.11671379418E+02  0.62259988129E+02  0.51100000000E-03 0.  1.
         22    1    1    0    0    0  0.28987932966E+02 -0.10295088343E+00  0.28995481080E+01  0.29132769106E+02  0.00000000000E+00 0.  1.
</event>
<event>
 5    1  0.1059945E-009  0.9118800E+02  0.7815553E-02  0.1125453E+00
         25   -1    0    0    0    0  0.00000000000E+00  0.00000000000E+00  0.99999998245E-14  0.12509000000E+03  0.12509000000E+03 0.  0.
        -11    1    3    3    0    0 -0.94589831659E+01 -0.61651596430E+02  0.36738960527E+01  0.62481110885E+02  0.51100000000E-03 0.  1.
         23    2    1    0    0    0 -0.65227008175E+01 -0.29841950021E+02  0.23455420221E+01  0.94453597235E+02  0.89347036079E+02 0.  0.
         11    1    3    3    0    0  0.29362823485E+01  0.31809646409E+02 -0.13283540306E+01  0.31972486350E+02  0.51100000000E-03 0. -1.
         22    1    1    0    0    0  0.65227008175E+01  0.29841950021E+02 -0.23455420221E+01  0.30636402765E+02  0.00000000000E+00 0.  1.
</event>
<event>
 5    1  0.1059945E-009  0.9118800E+02  0.7815553E-02  0.1125453E+00
         25   -1    0    0    0    0  0.00000000000E+00  0.00000000000E+00  0.99999998245E-14  0.12509000000E+03  0.12509000000E+03 0.  0.
        -11    1    3    3    0    0 -0.13215848976E+02  0.41675544950E+02 -0.17746667961E+02  0.47185314823E+02  0.51100000000E-03 0. -1.
         23    2    1    0    0    0  0.40452317162E+01  0.18581609371E+02  0.21822335048E+02  0.96144285060E+02  0.91683527071E+02 0.  0.
         11    1    3    3    0    0  0.17261080692E+02 -0.23093935579E+02  0.39569003009E+02  0.48958970236E+02  0.51100000000E-03 0.  1.
         22    1    1    0    0    0 -0.40452317162E+01 -0.18581609371E+02 -0.21822335048E+02  0.28945714940E+02  0.00000000000E+00 0.  1.
</event>
<event>
 5    1  0.1059945E-009  0.9118800E+02  0.7815553E-02  0.1125453E+00
         25   -1    0    0    0    0  0.00000000000E+00  0.00000000000E+00  0.99999998245E-14  0.12509000000E+03  0.12509000000E+03 0.  0.
        -11    1    3    3    0    0  0.38739181828E+02  0.95499425801E+00  0.43420409777E+01  0.38993455129E+02  0.51100000000E-03 0.  1.
         23    2    1    0    0    0 -0.13515516586E+02 -0.30584822484E+01  0.25942165249E+02  0.95678787171E+02  0.91046201868E+02 0.  0.
         11    1    3    3    0    0 -0.52254698414E+02 -0.40134765064E+01  0.21600124271E+02  0.56685332043E+02  0.51100000000E-03 0. -1.
         22    1    1    0    0    0  0.13515516586E+02  0.30584822484E+01 -0.25942165249E+02  0.29411212829E+02  0.00000000000E+00 0. -1.
</event>
<event>
 5    1  0.1059945E-009  0.9118800E+02  0.7815553E-02  0.1125453E+00
         25   -1    0    0    0    0  0.00000000000E+00  0.00000000000E+00  0.99999998245E-14  0.12509000000E+03  0.12509000000E+03 0.  0.
        -11    1    3    3    0    0 -0.18130023281E+02 -0.23258380289E+02 -0.19827303844E+02  0.35535503033E+02  0.51100000000E-03 0.  1.
         23    2    1    0    0    0  0.24387887967E+02  0.49040223115E+01  0.13818797895E+02  0.96633406922E+02  0.92348457723E+02 0.  0.
         11    1    3    3    0    0  0.42517911248E+02  0.28162402601E+02  0.33646101739E+02  0.61097903889E+02  0.51100000000E-03 0. -1.
         22    1    1    0    0    0 -0.24387887967E+02 -0.49040223115E+01 -0.13818797895E+02  0.28456593078E+02  0.00000000000E+00 0. -1.
</event>
<event>
 5    1  0.1059945E-009  0.9118800E+02  0.7815553E-02  0.1125453E+00
         25   -1    0    0    0    0  0.00000000000E+00  0.00000000000E+00  0.99999998245E-14  0.12509000000E+03  0.12509000000E+03 0.  0.
        -11    1    3    3    0    0 -0.45104731016E+02 -0.16833454234E+02  0.24733813307E+02  0.54125441914E+02  0.51100000000E-03 0. -1.
         23    2    1    0    0    0 -0.53825969429E+01 -0.90962521391E+00  0.27541708735E+02  0.97012509230E+02  0.92860548454E+02 0.  0.
         11    1    3    3    0    0  0.39722134073E+02  0.15923829020E+02  0.28078954277E+01  0.42887067316E+02  0.51100000000E-03 0.  1.
         22    1    1    0    0    0  0.53825969429E+01  0.90962521391E+00 -0.27541708735E+02  0.28077490770E+02  0.00000000000E+00 0. -1.
</event>
<event>
 5    1  0.1059945E-009  0.9118800E+02  0.7815553E-02  0.1125453E+00
         25   -1    0    0    0    0  0.00000000000E+00  0.00000000000E+00  0.99999998245E-14  0.12509000000E+03  0.12509000000E+03 0.  0.
        -11    1    3    3    0    0  0.81946501217E+00  0.91957287609E+00  0.36428903841E+02  0.36449721158E+02  0.51100000000E-03 0. -1.
         23    2    1    0    0    0 -0.27227040009E+02 -0.20726423563E+02 -0.44940894532E+01  0.90577782144E+02  0.83745097986E+02 0.  0.
         11    1    3    3    0    0 -0.28046505021E+02 -0.21645996439E+02 -0.40922993294E+02  0.54128060986E+02  0.51100000000E-03 0.  1.
         22    1    1    0    0    0  0.27227040009E+02  0.20726423563E+02  0.44940894532E+01  0.34512217856E+02  0.00000000000E+00 0.  1.
</event>
<event>
 5    1  0.1059945E-009  0.9118800E+02  0.7815553E-02  0.1125453E+00
         25   -1    0    0    0    0  0.00000000000E+00  0.00000000000E+00  0.99999998245E-14  0.12509000000E+03  0.12509000000E+03 0.  0.
        -11    1    3    3    0    0 -0.18278015128E+02 -0.38978550025E+02  0.44290901026E+02  0.61766472402E+02  0.51100000000E-03 0. -1.
         23    2    1    0    0    0 -0.42115808001E+01 -0.16068461951E+02  0.25834560631E+02  0.94375876127E+02  0.89238156578E+02 0.  0.
         11    1    3    3    0    0  0.14066434328E+02  0.22910088074E+02 -0.18456340395E+02  0.32609403725E+02  0.51100000000E-03 0.  1.
         22    1    1    0    0    0  0.42115808001E+01  0.16068461951E+02 -0.25834560631E+02  0.30714123873E+02  0.00000000000E+00 0. -1.
</event>
<event>
 5    1  0.1059945E-009  0.9118800E+02  0.7815553E-02  0.1125453E+00
         25   -1    0    0    0    0  0.00000000000E+00  0.00000000000E+00  0.99999998245E-14  0.12509000000E+03  0.12509000000E+03 0.  0.
        -11    1    3    3    0    0 -0.26125884482E+02  0.31484724984E+02  0.11410098918E+01  0.40928616531E+02  0.51100000000E-03 0.  1.
         23    2    1    0    0    0  0.25530484516E+02  0.16043248274E+02 -0.14140964456E+01  0.94904057517E+02  0.89975491161E+02 0.  0.
         11    1    3    3    0    0  0.51656368998E+02 -0.15441476710E+02 -0.25551063374E+01  0.53975440987E+02  0.51100000000E-03 0. -1.
         22    1    1    0    0    0 -0.25530484516E+02 -0.16043248274E+02  0.14140964456E+01  0.30185942483E+02  0.00000000000E+00 0. -1.
</event>
<event>
 5    1  0.1059945E-009  0.9118800E+02  0.7815553E-02  0.1125453E+00
         25   -1    0    0    0    0  0.00000000000E+00  0.00000000000E+00  0.99999998245E-14  0.12509000000E+03  0.12509000000E+03 0.  0.
        -11    1    3    3    0    0  0.18935954411E+02 -0.93081752667E+01  0.47001068665E+02  0.51520024769E+02  0.51100000000E-03 0.  1.
         23    2    1    0    0    0  0.28734286464E+02 -0.61857089014E+01  0.43694774653E+01  0.95374439320E+02  0.90627088275E+02 0.  0.
         11    1    3    3    0    0  0.97983320526E+01  0.31224663653E+01 -0.42631591199E+02  0.43854414552E+02  0.51100000000E-03 0. -1.
         22    1    1    0    0    0 -0.28734286464E+02  0.61857089014E+01 -0.43694774653E+01  0.29715560680E+02  0.00000000000E+00 0. -1.
</event>
<event>
 5    1  0.1059945E-009  0.9118800E+02  0.7815553E-02  0.1125453E+00
         25   -1    0    0    0    0  0.00000000000E+00  0.00000000000E+00  0.99999998245E-14  0.12509000000E+03  0.12509000000E+03 0.  0.
        -11    1    3    3    0    0  0.41663874785E+02 -0.43189899997E+02 -0.43464448690E+01  0.60167578538E+02  0.51100000000E-03 0. -1.
         23    2    1    0    0    0  0.74739157002E+01 -0.24905031460E+02 -0.20056905483E+01  0.99010452410E+02  0.95514014071E+02 0.  0.
         11    1    3    3    0    0 -0.34189959085E+02  0.18284868537E+02  0.23407543208E+01  0.38842873873E+02  0.51100000000E-03 0.  1.
         22    1    1    0    0    0 -0.74739157002E+01  0.24905031460E+02  0.20056905483E+01  0.26079547590E+02  0.00000000000E+00 0. -1.
</event>
<event>
 5    1  0.1059945E-009  0.9118800E+02  0.7815553E-02  0.1125453E+00
         25   -1    0    0    0    0  0.00000000000E+00  0.00000000000E+00  0.99999998245E-14  0.12509000000E+03  0.12509000000E+03 0.  0.
        -11    1    3    3    0    0 -0.23900829898E+02  0.40730119633E+02 -0.30176265342E+02  0.56042834559E+02  0.51100000000E-03 0.  1.
         23    2    1    0    0    0 -0.19106767805E+02 -0.41393574560E+00 -0.17004076149E+02  0.99509176627E+02  0.96164950520E+02 0.  0.
         11    1    3    3    0    0  0.47940620925E+01 -0.41144055379E+02  0.13172189193E+02  0.43466342068E+02  0.51100000000E-03 0. -1.
         22    1    1    0    0    0  0.19106767805E+02  0.41393574560E+00  0.17004076149E+02  0.25580823373E+02  0.00000000000E+00 0.  1.
</event>
<event>
 5    1  0.1059945E-009  0.9118800E+02  0.7815553E-02  0.1125453E+00
         25   -1    0    0    0    0  0.00000000000E+00  0.00000000000E+00  0.99999998245E-14  0.12509000000E+03  0.12509000000E+03 0.  0.
        -11    1    3    3    0    0 -0.32657905158E+02 -0.36207441364E+02  0.31176725699E+02  0.57874915162E+02  0.51100000000E-03 0. -1.
         23    2    1    0    0    0 -0.26738926673E+02 -0.16053897282E+02  0.19841843597E+01  0.93838843139E+02  0.88482165867E+02 0.  0.
         11    1    3    3    0    0  0.59189784844E+01  0.20153544082E+02 -0.29192541340E+02  0.35963927977E+02  0.51100000000E-03 0.  1.
         22    1    1    0    0    0  0.26738926673E+02  0.16053897282E+02 -0.19841843597E+01  0.31251156861E+02  0.00000000000E+00 0. -1.
</event>
<event>
 5    1  0.1059945E-009  0.9118800E+02  0.7815553E-02  0.1125453E+00
         25   -1    0    0    0    0  0.00000000000E+00  0.00000000000E+00  0.99999998245E-14  0.12509000000E+03  0.12509000000E+03 0.  0.
        -11    1    3    3    0    0 -0.47895651605E+02 -0.34078339199E+02 -0.10139163871E+02  0.59650056911E+02  0.51100000000E-03 0. -1.
         23    2    1    0    0    0 -0.16676690558E+02 -0.16677412621E+02 -0.16965422307E+02  0.96037054302E+02  0.91537108023E+02 0.  0.
         11    1    3    3    0    0  0.31218961047E+02  0.17400926578E+02 -0.68262584366E+01  0.36386997391E+02  0.51100000000E-03 0.  1.
         22    1    1    0    0    0  0.16676690558E+02  0.16677412621E+02  0.16965422307E+02  0.29052945698E+02  0.00000000000E+00 0. -1.
</event>
<event>
 5    1  0.1059945E-009  0.9118800E+02  0.7815553E-02  0.1125453E+00
         25   -1    0    0    0    0  0.00000000000E+00  0.00000000000E+00  0.99999998245E-14  0.12509000000E+03  0.12509000000E+03 0.  0.
        -11    1    3    3    0    0  0.18176971470E+02  0.31016945928E+02  0.29809385530E+02  0.46701741857E+02  0.51100000000E-03 0. -1.
         23    2    1    0    0    0 -0.23144647107E+02  0.17257954543E+02  0.10128077492E+02  0.94494417992E+02  0.89404168769E+02 0.  0.
         11    1    3    3    0    0 -0.41321618577E+02 -0.13758991385E+02 -0.19681308038E+02  0.47792676135E+02  0.51100000000E-03 0.  1.
         22    1    1    0    0    0  0.23144647107E+02 -0.17257954543E+02 -0.10128077492E+02  0.30595582008E+02  0.00000000000E+00 0.  1.
</event>
<event>
 5    1  0.1059945E-009  0.9118800E+02  0.7815553E-02  0.1125453E+00
         25   -1    0    0    0    0  0.00000000000E+00  0.00000000000E+00  0.99999998245E-14  0.12509000000E+03  0.12509000000E+03 0.  0.
        -11    1    3    3    0    0 -0.27973096856E+02  0.27868738239E+02 -0.26715444438E+01  0.39576481258E+02  0.51100000000E-03 0. -1.
         23    2    1    0    0    0 -0.54718711746E+00 -0.11785409640E+02  0.26607025177E+02  0.95984517993E+02  0.91465286374E+02 0.  0.
         11    1    3    3    0    0  0.27425909738E+02 -0.39654147879E+02  0.29278569620E+02  0.56408036735E+02  0.51100000000E-03 0.  1.
         22    1    1    0    0    0  0.54718711746E+00  0.11785409640E+02 -0.26607025177E+02  0.29105482007E+02  0.00000000000E+00 0.  1.
</event>
<event>
 5    1  0.1059945E-009  0.9118800E+02  0.7815553E-02  0.1125453E+00
         25   -1    0    0    0    0  0.00000000000E+00  0.00000000000E+00  0.99999998245E-14  0.12509000000E+03  0.12509000000E+03 0.  0.
        -11    1    3    3    0    0 -0.27418626982E+02  0.43109998111E+02 -0.30579090373E+02  0.59542705775E+02  0.51100000000E-03 0. -1.
         23    2    1    0    0    0 -0.50204202461E+00  0.26150724535E+02 -0.14336971444E+02  0.95262811227E+02  0.90472879985E+02 0.  0.
         11    1    3    3    0    0  0.26916584957E+02 -0.16959273575E+02  0.16242118929E+02  0.35720105452E+02  0.51100000000E-03 0.  1.
         22    1    1    0    0    0  0.50204202461E+00 -0.26150724535E+02  0.14336971444E+02  0.29827188773E+02  0.00000000000E+00 0. -1.
</event>
<event>
 5    1  0.1059945E-009  0.9118800E+02  0.7815553E-02  0.1125453E+00
         25   -1    0    0    0    0  0.00000000000E+00  0.00000000000E+00  0.99999998245E-14  0.12509000000E+03  0.12509000000E+03 0.  0.
        -11    1    3    3    0    0 -0.21126866207E+02 -0.20472189599E+02  0.17362216225E+02  0.34159941089E+02  0.51100000000E-03 0. -1.
         23    2    1    0    0    0  0.22798196854E+02  0.88580809304E+01 -0.15280606865E+02  0.96250438219E+02  0.91828244748E+02 0.  0.
         11    1    3    3    0    0  0.43925063061E+02  0.29330270529E+02 -0.32642823090E+02  0.62090497130E+02  0.51100000000E-03 0.  1.
         22    1    1    0    0    0 -0.22798196854E+02 -0.88580809304E+01  0.15280606865E+02  0.28839561781E+02  0.00000000000E+00 0.  1.
</event>
<event>
 5    1  0.1059945E-009  0.9118800E+02  0.7815553E-02  0.1125453E+00
         25   -1    0    0    0    0  0.00000000000E+00  0.00000000000E+00  0.99999998245E-14  0.12509000000E+03  0.12509000000E+03 0.  0.
        -11    1    3    3    0    0 -0.14766701252E+02 -0.30719632439E+02 -0.46654175347E+02  0.57778571812E+02  0.51100000000E-03 0.  1.
         23    2    1    0    0    0 -0.33534641428E+00 -0.27861889028E+02 -0.13338128087E+02  0.94198205324E+02  0.88988757200E+02 0.  0.
         11    1    3    3    0    0  0.14431354838E+02  0.28577434106E+01  0.33316047260E+02  0.36419633512E+02  0.51100000000E-03 0. -1.
         22    1    1    0    0    0  0.33534641428E+00  0.27861889028E+02  0.13338128087E+02  0.30891794676E+02  0.00000000000E+00 0.  1.
</event>
<event>
 5    1  0.1059945E-009  0.9118800E+02  0.7815553E-02  0.1125453E+00
         25   -1    0    0    0    0  0.00000000000E+00  0.00000000000E+00  0.99999998245E-14  0.12509000000E+03  0.12509000000E+03 0.  0.
        -11    1    3    3    0    0  0.46848043247E+02 -0.31279913797E+02  0.14287113201E+01  0.56349031753E+02  0.51100000000E-03 0. -1.
         23    2    1    0    0    0  0.27085786362E+02 -0.14179836416E+01  0.14333889263E+02  0.94412469430E+02  0.89289436677E+02 0.  0.
         11    1    3    3    0    0 -0.19762256885E+02  0.29861930155E+02  0.12905177942E+02  0.38063437677E+02  0.51100000000E-03 0.  1.
         22    1    1    0    0    0 -0.27085786362E+02  0.14179836416E+01 -0.14333889263E+02  0.30677530570E+02  0.00000000000E+00 0. -1.
</event>
<event>
 5    1  0.1059945E-009  0.9118800E+02  0.7815553E-02  0.1125453E+00
         25   -1    0    0    0    0  0.00000000000E+00  0.00000000000E+00  0.99999998245E-14  0.12509000000E+03  0.12509000000E+03 0.  0.
        -11    1    3    3    0    0 -0.26661198140E+02 -0.39794664608E+02  0.32960876407E+02  0.58145113219E+02  0.51100000000E-03 0.  1.
         23    2    1    0    0    0 -0.15619730637E+02 -0.10945155434E+02  0.30479474462E+02  0.89134878305E+02  0.81561361895E+02 0.  0.
         11    1    3    3    0    0  0.11041467503E+02  0.28849509174E+02 -0.24814019446E+01  0.30989765085E+02  0.51100000000E-03 0. -1.
         22    1    1    0    0    0  0.15619730637E+02  0.10945155434E+02 -0.30479474462E+02  0.35955121695E+02  0.00000000000E+00 0.  1.
</event>
<event>
 5    1  0.1059945E-009  0.9118800E+02  0.7815553E-02  0.1125453E+00
         25   -1    0    0    0    0  0.00000000000E+00  0.00000000000E+00  0.99999998245E-14  0.12509000000E+03  0.12509000000E+03 0.  0.
        -11    1    3    3    0    0 -0.36309871438E+02 -0.21449881517E+02 -0.43976863278E+02  0.60930031060E+02  0.51100000000E-03 0.  1.
         23    2    1    0    0    0 -0.14026688959E+02 -0.78692486163E+01 -0.31206680874E+02  0.89982593258E+02  0.82851294989E+02 0.  0.
         11    1    3    3    0    0  0.22283182479E+02  0.13580632901E+02  0.12770182404E+02  0.29052562198E+02  0.51100000000E-03 0. -1.
         22    1    1    0    0    0  0.14026688959E+02  0.78692486163E+01  0.31206680874E+02  0.35107406742E+02  0.00000000000E+00 0.  1.
</event>
<event>
 5    1  0.1059945E-009  0.9118800E+02  0.7815553E-02  0.1125453E+00
         25   -1    0    0    0    0  0.00000000000E+00  0.00000000000E+00  0.99999998245E-14  0.12509000000E+03  0.12509000000E+03 0.  0.
        -11    1    3    3    0    0  0.13851674721E+02  0.22195963748E+02 -0.26424994891E+02  0.37186154071E+02  0.51100000000E-03 0.  1.
         23    2    1    0    0    0  0.11259714935E+02 -0.21979456121E+02  0.13637858645E+02  0.96878852200E+02  0.92680327704E+02 0.  0.
         11    1    3    3    0    0 -0.25919597869E+01 -0.44175419869E+02  0.40062853537E+02  0.59692698129E+02  0.51100000000E-03 0. -1.
         22    1    1    0    0    0 -0.11259714935E+02  0.21979456121E+02 -0.13637858645E+02  0.28211147800E+02  0.00000000000E+00 0. -1.
</event>
<event>
 5    1  0.1059945E-009  0.9118800E+02  0.7815553E-02  0.1125453E+00
         25   -1    0    0    0    0  0.00000000000E+00  0.00000000000E+00  0.99999998245E-14  0.12509000000E+03  0.12509000000E+03 0.  0.
        -11    1    3    3    0    0  0.48064315491E+02 -0.15751603722E+02  0.30865101914E+02  0.59253235860E+02  0.51100000000E-03 0.  1.
         23    2    1    0    0    0  0.23164505830E+02  0.65378729588E+01  0.17879749302E+02  0.95106278612E+02  0.90256194708E+02 0.  0.
         11    1    3    3    0    0 -0.24899809661E+02  0.22289476681E+02 -0.12985352612E+02  0.35853042752E+02  0.51100000000E-03 0. -1.
         22    1    1    0    0    0 -0.23164505830E+02 -0.65378729588E+01 -0.17879749302E+02  0.29983721388E+02  0.00000000000E+00 0.  1.
</event>
<event>
 5    1  0.1059945E-009  0.9118800E+02  0.7815553E-02  0.1125453E+00
         25   -1    0    0    0    0  0.00000000000E+00  0.00000000000E+00  0.99999998245E-14  0.12509000000E+03  0.12509000000E+03 0.  0.
        -11    1    3    3    0    0 -0.41255222359E+02  0.17616788953E+02  0.20932916667E+02  0.49502844619E+02  0.51100000000E-03 0. -1.
         23    2    1    0    0    0 -0.23491902360E+02 -0.70979658477E+01 -0.14792777677E+02  0.96435561128E+02  0.92080077015E+02 0.  0.
         11    1    3    3    0    0  0.17763319999E+02 -0.24714754801E+02 -0.35725694344E+02  0.46932716509E+02  0.51100000000E-03 0.  1.
         22    1    1    0    0    0  0.23491902360E+02  0.70979658477E+01  0.14792777677E+02  0.28654438872E+02  0.00000000000E+00 0. -1.
</event>
<event>
 5    1  0.1059945E-009  0.9118800E+02  0.7815553E-02  0.1125453E+00
         25   -1    0    0    0    0  0.00000000000E+00  0.00000000000E+00  0.99999998245E-14  0.12509000000E+03  0.12509000000E+03 0.  0.
        -11    1    3    3    0    0  0.15335296114E+02  0.27246161487E+02 -0.41824091306E+02  0.52218571759E+02  0.51100000000E-03 0. -1.
         23    2    1    0    0    0  0.19656953947E+02 -0.10007224312E+02 -0.17675919898E+02  0.96823791886E+02  0.92605983360E+02 0.  0.
         11    1    3    3    0    0  0.43216578331E+01 -0.37253385799E+02  0.24148171409E+02  0.44605220127E+02  0.51100000000E-03 0.  1.
         22    1    1    0    0    0 -0.19656953947E+02  0.10007224312E+02  0.17675919898E+02  0.28266208114E+02  0.00000000000E+00 0. -1.
</event>
<event>
 5    1  0.1059945E-009  0.9118800E+02  0.7815553E-02  0.1125453E+00
         25   -1    0    0    0    0  0.00000000000E+00  0.00000000000E+00  0.99999998245E-14  0.12509000000E+03  0.12509000000E+03 0.  0.
        -11    1    3    3    0    0 -0.36777446069E+02  0.77054222988E+00  0.38057595589E+02  0.52929716200E+02  0.51100000000E-03 0.  1.
         23    2    1    0    0    0 -0.66772790436E+01 -0.21355692306E+02  0.22378845611E+02  0.93444077985E+02  0.87922302804E+02 0.  0.
         11    1    3    3    0    0  0.30100167026E+02 -0.22126234536E+02 -0.15678749978E+02  0.40514361785E+02  0.51100000000E-03 0. -1.
         22    1    1    0    0    0  0.66772790436E+01  0.21355692306E+02 -0.22378845611E+02  0.31645922015E+02  0.00000000000E+00 0.  1.
</event>
<event>
 5    1  0.1059945E-009  0.9118800E+02  0.7815553E-02  0.1125453E+00
         25   -1    0    0    0    0  0.00000000000E+00  0.00000000000E+00  0.99999998245E-14  0.12509000000E+03  0.12509000000E+03 0.  0.
        -11    1    3    3    0    0 -0.99099294061E+01 -0.71007847105E+01  0.44004627417E+02  0.45662184340E+02  0.51100000000E-03 0. -1.
         23    2    1    0    0    0 -0.26311960382E+02  0.16316096451E+02  0.54606589837E+01  0.93651917058E+02  0.88217506820E+02 0.  0.
         11    1    3    3    0    0 -0.16402030976E+02  0.23416881162E+02 -0.38543968433E+02  0.47989732718E+02  0.51100000000E-03 0.  1.
         22    1    1    0    0    0  0.26311960382E+02 -0.16316096451E+02 -0.54606589837E+01  0.31438082942E+02  0.00000000000E+00 0. -1.
</event>
<event>
 5    1  0.1059945E-009  0.9118800E+02  0.7815553E-02  0.1125453E+00
         25   -1    0    0    0    0  0.00000000000E+00  0.00000000000E+00  0.99999998245E-14  0.12509000000E+03  0.12509000000E+03 0.  0.
        -11    1    3    3    0    0 -0.81068116939E+01  0.47530340982E+02  0.32981740450E+02  0.58417881792E+02  0.51100000000E-03 0. -1.
         23    2    1    0    0    0  0.62682958265E+01  0.14453236836E+02  0.25289655384E+02  0.95294794731E+02  0.90517090352E+02 0.  0.
         11    1    3    3    0    0  0.14375107520E+02 -0.33077104146E+02 -0.76920850665E+01  0.36876912938E+02  0.51100000000E-03 0.  1.
         22    1    1    0    0    0 -0.62682958265E+01 -0.14453236836E+02 -0.25289655384E+02  0.29795205269E+02  0.00000000000E+00 0. -1.
</event>
<event>
 5    1  0.1059945E-009  0.9118800E+02  0.7815553E-02  0.1125453E+00
         25   -1    0    0    0    0  0.00000000000E+00  0.00000000000E+00  0.99999998245E-14  0.12509000000E+03  0.12509000000E+03 0.  0.
        -11    1    3    3    0    0  0.72828027774E+01  0.41835168559E+02  0.13400401606E+02  0.44528544869E+02  0.51100000000E-03 0. -1.
         23    2    1    0    0    0 -0.44291195138E+01  0.13226166462E+02 -0.26583680383E+02  0.95069329760E+02  0.90204971146E+02 0.  0.
         11    1    3    3    0    0 -0.11711922291E+02 -0.28609002097E+02 -0.39984081989E+02  0.50540784892E+02  0.51100000000E-03 0.  1.
         22    1    1    0    0    0  0.44291195138E+01 -0.13226166462E+02  0.26583680383E+02  0.30020670240E+02  0.00000000000E+00 0. -1.
</event>
<event>
 4    1  0.1059945E-009  0.9118800E+02  0.7815553E-02  0.1125453E+00
         25   -1    0    0    0    0  0.00000000000E+00  0.00000000000E+00  0.99999998245E-14  0.12509000000E+03  0.12509000000E+03 0.  0.
        -11    1    1    0    0    0  0.70757562462E+01 -0.83907661371E+01  0.25100547605E+02  0.27395415185E+02  0.51100000000E-03 0.  1.
         11    1    1    0    0    0  0.43208912604E+02  0.89489704588E+01 -0.11470145468E+02  0.45592306785E+02  0.51100000000E-03 0. -1.
         22    1    1    0    0    0 -0.50284668850E+02 -0.55820432174E+00 -0.13630402137E+02  0.52102278030E+02  0.00000000000E+00 0. -1.
</event>
<event>
 5    1  0.1059945E-009  0.9118800E+02  0.7815553E-02  0.1125453E+00
         25   -1    0    0    0    0  0.00000000000E+00  0.00000000000E+00  0.99999998245E-14  0.12509000000E+03  0.12509000000E+03 0.  0.
        -11    1    3    3    0    0 -0.28113179813E+02 -0.43394988214E+02 -0.14523632078E+02  0.53706719973E+02  0.51100000000E-03 0. -1.
         23    2    1    0    0    0  0.90296280462E+01 -0.27879551326E+02 -0.26995522558E+01  0.95660573448E+02  0.91021174268E+02 0.  0.
         11    1    3    3    0    0  0.37142807859E+02  0.15515436887E+02  0.11824079822E+02  0.41953853475E+02  0.51100000000E-03 0.  1.
         22    1    1    0    0    0 -0.90296280462E+01  0.27879551326E+02  0.26995522558E+01  0.29429426552E+02  0.00000000000E+00 0. -1.
</event>
<event>
 5    1  0.1059945E-009  0.9118800E+02  0.7815553E-02  0.1125453E+00
         25   -1    0    0    0    0  0.00000000000E+00  0.00000000000E+00  0.99999998245E-14  0.12509000000E+03  0.12509000000E+03 0.  0.
        -11    1    3    3    0    0 -0.15455539019E+02  0.12360757350E+02 -0.51764480175E+02  0.55418619765E+02  0.51100000000E-03 0. -1.
         23    2    1    0    0    0 -0.12711455119E+02 -0.14638235650E+02 -0.19266573319E+02  0.97757603807E+02  0.93858879284E+02 0.  0.
         11    1    3    3    0    0  0.27440838996E+01 -0.26998993000E+02  0.32497906855E+02  0.42338984042E+02  0.51100000000E-03 0.  1.
         22    1    1    0    0    0  0.12711455119E+02  0.14638235650E+02  0.19266573319E+02  0.27332396193E+02  0.00000000000E+00 0. -1.
</event>
<event>
 5    1  0.1059945E-009  0.9118800E+02  0.7815553E-02  0.1125453E+00
         25   -1    0    0    0    0  0.00000000000E+00  0.00000000000E+00  0.99999998245E-14  0.12509000000E+03  0.12509000000E+03 0.  0.
        -11    1    3    3    0    0 -0.33510579391E+02  0.18073771686E+02  0.25337099976E+02  0.45733891039E+02  0.51100000000E-03 0.  1.
         23    2    1    0    0    0 -0.13512666156E+01  0.25295769702E+02 -0.13266693879E+02  0.96494422496E+02  0.92160004992E+02 0.  0.
         11    1    3    3    0    0  0.32159312776E+02  0.72219980159E+01 -0.38603793855E+02  0.50760531457E+02  0.51100000000E-03 0. -1.
         22    1    1    0    0    0  0.13512666156E+01 -0.25295769702E+02  0.13266693879E+02  0.28595577504E+02  0.00000000000E+00 0.  1.
</event>
<event>
 5    1  0.1059945E-009  0.9118800E+02  0.7815553E-02  0.1125453E+00
         25   -1    0    0    0    0  0.00000000000E+00  0.00000000000E+00  0.99999998245E-14  0.12509000000E+03  0.12509000000E+03 0.  0.
        -11    1    3    3    0    0  0.29583347842E+02  0.27678347666E+02  0.45013280038E+01  0.40761836969E+02  0.51100000000E-03 0. -1.
         23    2    1    0    0    0 -0.35934798761E+01 -0.15443967902E+02  0.22050611646E+02  0.97930126728E+02  0.94088527488E+02 0.  0.
         11    1    3    3    0    0 -0.33176827718E+02 -0.43122315567E+02  0.17549283642E+02  0.57168289759E+02  0.51100000000E-03 0.  1.
         22    1    1    0    0    0  0.35934798761E+01  0.15443967902E+02 -0.22050611646E+02  0.27159873272E+02  0.00000000000E+00 0.  1.
</event>
<event>
 5    1  0.1059945E-009  0.9118800E+02  0.7815553E-02  0.1125453E+00
         25   -1    0    0    0    0  0.00000000000E+00  0.00000000000E+00  0.99999998245E-14  0.12509000000E+03  0.12509000000E+03 0.  0.
        -11    1    3    3    0    0  0.33878988315E+02  0.22980438553E+02 -0.23907198824E+02  0.47407178372E+02  0.51100000000E-03 0. -1.
         23    2    1    0    0    0 -0.12769526844E+02  0.73066400671E+01 -0.24373226401E+02  0.96620683709E+02  0.92331221969E+02 0.  0.
         11    1    3    3    0    0 -0.46648515159E+02 -0.15673798486E+02 -0.46602757738E+00  0.49213505336E+02  0.51100000000E-03 0.  1.
         22    1    1    0    0    0  0.12769526844E+02 -0.73066400671E+01  0.24373226401E+02  0.28469316291E+02  0.00000000000E+00 0. -1.
</event>
<event>
 5    1  0.1059945E-009  0.9118800E+02  0.7815553E-02  0.1125453E+00
         25   -1    0    0    0    0  0.00000000000E+00  0.00000000000E+00  0.99999998245E-14  0.12509000000E+03  0.12509000000E+03 0.  0.
        -11    1    3    3    0    0 -0.32133693566E+02  0.36008462972E+02  0.12033967529E+02  0.49739320889E+02  0.51100000000E-03 0.  1.
         23    2    1    0    0    0 -0.70144233780E+01  0.21136606264E+02 -0.21455743078E+02  0.94165783426E+02  0.88943170606E+02 0.  0.
         11    1    3    3    0    0  0.25119270188E+02 -0.14871856708E+02 -0.33489710607E+02  0.44426462536E+02  0.51100000000E-03 0. -1.
         22    1    1    0    0    0  0.70144233780E+01 -0.21136606264E+02  0.21455743078E+02  0.30924216574E+02  0.00000000000E+00 0.  1.
</event>
<event>
 5    1  0.1059945E-009  0.9118800E+02  0.7815553E-02  0.1125453E+00
         25   -1    0    0    0    0  0.00000000000E+00  0.00000000000E+00  0.99999998245E-14  0.12509000000E+03  0.12509000000E+03 0.  0.
        -11    1    3    3    0    0  0.14412704708E+02  0.22992912981E+02 -0.13838500429E+02  0.30461519968E+02  0.51100000000E-03 0.  1.
         23    2    1    0    0    0  0.77947360944E+01 -0.34059744939E+02  0.21591388956E+01  0.90083057591E+02  0.83002838795E+02 0.  0.
         11    1    3    3    0    0 -0.66179686135E+01 -0.57052657920E+02  0.15997639325E+02  0.59621537623E+02  0.51100000000E-03 0. -1.
         22    1    1    0    0    0 -0.77947360944E+01  0.34059744939E+02 -0.21591388956E+01  0.35006942409E+02  0.00000000000E+00 0. -1.
</event>
<event>
 5    1  0.1059945E-009  0.9118800E+02  0.7815553E-02  0.1125453E+00
         25   -1    0    0    0    0  0.00000000000E+00  0.00000000000E+00  0.99999998245E-14  0.12509000000E+03  0.12509000000E+03 0.  0.
        -11    1    3    3    0    0 -0.95685056577E+01  0.24877944008E+02 -0.15262508685E+02  0.30715021899E+02  0.51100000000E-03 0.  1.
         23    2    1    0    0    0  0.18158135454E+02 -0.24990764510E+02  0.92908688169E+01  0.92832032964E+02  0.87047170585E+02 0.  0.
         11    1    3    3    0    0  0.27726641111E+02 -0.49868708518E+02  0.24553377502E+02  0.62117011065E+02  0.51100000000E-03 0. -1.
         22    1    1    0    0    0 -0.18158135454E+02  0.24990764510E+02 -0.92908688169E+01  0.32257967036E+02  0.00000000000E+00 0. -1.
</event>
<event>
 5    1  0.1059945E-009  0.9118800E+02  0.7815553E-02  0.1125453E+00
         25   -1    0    0    0    0  0.00000000000E+00  0.00000000000E+00  0.99999998245E-14  0.12509000000E+03  0.12509000000E+03 0.  0.
        -11    1    3    3    0    0  0.22343975247E+02 -0.22471143955E+02  0.33718288552E+02  0.46272330000E+02  0.51100000000E-03 0. -1.
         23    2    1    0    0    0  0.19837515095E+02 -0.18997032002E+02 -0.14054235107E+02  0.94236543882E+02  0.89042632757E+02 0.  0.
         11    1    3    3    0    0 -0.25064601520E+01  0.34741119534E+01 -0.47772523659E+02  0.47964213882E+02  0.51100000000E-03 0.  1.
         22    1    1    0    0    0 -0.19837515095E+02  0.18997032002E+02  0.14054235107E+02  0.30853456118E+02  0.00000000000E+00 0.  1.
</event>
<event>
 5    1  0.1059945E-009  0.9118800E+02  0.7815553E-02  0.1125453E+00
         25   -1    0    0    0    0  0.00000000000E+00  0.00000000000E+00  0.99999998245E-14  0.12509000000E+03  0.12509000000E+03 0.  0.
        -11    1    3    3    0    0  0.19577008320E+02 -0.38407925852E+02 -0.18042365798E+02  0.46732804184E+02  0.51100000000E-03 0.  1.
         23    2    1    0    0    0 -0.16713663704E+02  0.94092836585E+00 -0.18334985621E+02  0.10026252332E+03  0.97139950505E+02 0.  0.
         11    1    3    3    0    0 -0.36290672023E+02  0.39348854218E+02 -0.29261982326E+00  0.53529719136E+02  0.51100000000E-03 0. -1.
         22    1    1    0    0    0  0.16713663704E+02 -0.94092836585E+00  0.18334985621E+02  0.24827476680E+02  0.00000000000E+00 0. -1.
</event>
<event>
 5    1  0.1059945E-009  0.9118800E+02  0.7815553E-02  0.1125453E+00
         25   -1    0    0    0    0  0.00000000000E+00  0.00000000000E+00  0.99999998245E-14  0.12509000000E+03  0.12509000000E+03 0.  0.
        -11    1    3    3    0    0 -0.47388639689E+02  0.86882022717E+01 -0.21687583324E+02  0.52834830378E+02  0.51100000000E-03 0.  1.
         23    2    1    0    0    0 -0.26609680769E+02  0.24235979444E+02  0.34088249498E+01  0.88936467700E+02  0.81256491366E+02 0.  0.
         11    1    3    3    0    0  0.20778958920E+02  0.15547777172E+02  0.25096408274E+02  0.36101637322E+02  0.51100000000E-03 0. -1.
         22    1    1    0    0    0  0.26609680769E+02 -0.24235979444E+02 -0.34088249498E+01  0.36153532300E+02  0.00000000000E+00 0.  1.
</event>
<event>
 5    1  0.1059945E-009  0.9118800E+02  0.7815553E-02  0.1125453E+00
         25   -1    0    0    0    0  0.00000000000E+00  0.00000000000E+00  0.99999998245E-14  0.12509000000E+03  0.12509000000E+03 0.  0.
        -11    1    3    3    0    0 -0.49971054616E+02  0.20343349354E+02 -0.28203328521E+02  0.60880094467E+02  0.51100000000E-03 0.  1.
         23    2    1    0    0    0 -0.16720615227E+02  0.10323889383E+02 -0.20967769525E+02  0.96353106911E+02  0.91967995450E+02 0.  0.
         11    1    3    3    0    0  0.33250439388E+02 -0.10019459971E+02  0.72355589967E+01  0.35473012445E+02  0.51100000000E-03 0. -1.
         22    1    1    0    0    0  0.16720615227E+02 -0.10323889383E+02  0.20967769525E+02  0.28736893089E+02  0.00000000000E+00 0.  1.
</event>
<event>
 5    1  0.1059945E-009  0.9118800E+02  0.7815553E-02  0.1125453E+00
         25   -1    0    0    0    0  0.00000000000E+00  0.00000000000E+00  0.99999998245E-14  0.12509000000E+03  0.12509000000E+03 0.  0.
        -11    1    3    3    0    0  0.42199507912E+02  0.99212998054E+01  0.86190796633E+01  0.44198633376E+02  0.51100000000E-03 0. -1.
         23    2    1    0    0    0  0.15165799263E+01  0.25896496882E+02 -0.16244239308E+02  0.94482747982E+02  0.89387839162E+02 0.  0.
         11    1    3    3    0    0 -0.40682927986E+02  0.15975197076E+02 -0.24863318971E+02  0.50284114605E+02  0.51100000000E-03 0.  1.
         22    1    1    0    0    0 -0.15165799263E+01 -0.25896496882E+02  0.16244239308E+02  0.30607252018E+02  0.00000000000E+00 0.  1.
</event>
<event>
 5    1  0.1059945E-009  0.9118800E+02  0.7815553E-02  0.1125453E+00
         25   -1    0    0    0    0  0.00000000000E+00  0.00000000000E+00  0.99999998245E-14  0.12509000000E+03  0.12509000000E+03 0.  0.
        -11    1    3    3    0    0  0.30387507211E+02 -0.15617524733E+02 -0.35309435060E+01  0.34347856346E+02  0.51100000000E-03 0. -1.
         23    2    1    0    0    0 -0.29355992078E+02 -0.21762114018E+01 -0.11370337366E+01  0.95631503558E+02  0.90981214874E+02 0.  0.
         11    1    3    3    0    0 -0.59743499289E+02  0.13441313331E+02  0.23939097694E+01  0.61283647211E+02  0.51100000000E-03 0.  1.
         22    1    1    0    0    0  0.29355992078E+02  0.21762114018E+01  0.11370337366E+01  0.29458496442E+02  0.00000000000E+00 0.  1.
</event>
<event>
 5    1  0.1059945E-009  0.9118800E+02  0.7815553E-02  0.1125453E+00
         25   -1    0    0    0    0  0.00000000000E+00  0.00000000000E+00  0.99999998245E-14  0.12509000000E+03  0.12509000000E+03 0.  0.
        -11    1    3    3    0    0  0.80726697042E+01  0.19825733236E+02 -0.28320972934E+02  0.35500777494E+02  0.51100000000E-03 0. -1.
         23    2    1    0    0    0 -0.10728926064E+02 -0.22268353134E+01  0.25892873299E+02  0.96973998547E+02  0.92808657229E+02 0.  0.
         11    1    3    3    0    0 -0.18801595768E+02 -0.22052568549E+02  0.54213846233E+02  0.61473221053E+02  0.51100000000E-03 0.  1.
         22    1    1    0    0    0  0.10728926064E+02  0.22268353134E+01 -0.25892873299E+02  0.28116001453E+02  0.00000000000E+00 0.  1.
</event>
<event>
 5    1  0.1059945E-009  0.9118800E+02  0.7815553E-02  0.1125453E+00
         25   -1    0    0    0    0  0.00000000000E+00  0.00000000000E+00  0.99999998245E-14  0.12509000000E+03  0.12509000000E+03 0.  0.
        -11    1    3    3    0    0 -0.27600520934E+02  0.14717845917E+02  0.44754298767E+02  0.54601749080E+02  0.51100000000E-03 0. -1.
         23    2    1    0    0    0 -0.23760613862E+02 -0.11035381266E+02  0.12476443149E+02  0.96072625129E+02  0.91585704423E+02 0.  0.
         11    1    3    3    0    0  0.38399070725E+01 -0.25753227183E+02 -0.32277855617E+02  0.41470876048E+02  0.51100000000E-03 0.  1.
         22    1    1    0    0    0  0.23760613862E+02  0.11035381266E+02 -0.12476443149E+02  0.29017374871E+02  0.00000000000E+00 0.  1.
</event>
<event>
 5    1  0.1059945E-009  0.9118800E+02  0.7815553E-02  0.1125453E+00
         25   -1    0    0    0    0  0.00000000000E+00  0.00000000000E+00  0.99999998245E-14  0.12509000000E+03  0.12509000000E+03 0.  0.
        -11    1    3    3    0    0  0.97558854572E+01  0.34075850096E+02  0.20816341843E+02  0.41105485629E+02  0.51100000000E-03 0. -1.
         23    2    1    0    0    0  0.26638924766E+02 -0.13685304796E+02  0.22538018397E+01  0.95056693443E+02  0.90187446274E+02 0.  0.
         11    1    3    3    0    0  0.16883039309E+02 -0.47761154892E+02 -0.18562540004E+02  0.53951207813E+02  0.51100000000E-03 0.  1.
         22    1    1    0    0    0 -0.26638924766E+02  0.13685304796E+02 -0.22538018397E+01  0.30033306557E+02  0.00000000000E+00 0.  1.
</event>
<event>
 5    1  0.1059945E-009  0.9118800E+02  0.7815553E-02  0.1125453E+00
         25   -1    0    0    0    0  0.00000000000E+00  0.00000000000E+00  0.99999998245E-14  0.12509000000E+03  0.12509000000E+03 0.  0.
        -11    1    3    3    0    0 -0.34770072904E+02  0.88461417537E+01 -0.67122659826E+01  0.36500228884E+02  0.51100000000E-03 0. -1.
         23    2    1    0    0    0  0.24808433090E+02  0.34811840717E+01 -0.13378300954E+02  0.96690071631E+02  0.92425180664E+02 0.  0.
         11    1    3    3    0    0  0.59578505994E+02 -0.53649576820E+01 -0.66660349715E+01  0.60189842747E+02  0.51100000000E-03 0.  1.
         22    1    1    0    0    0 -0.24808433090E+02 -0.34811840717E+01  0.13378300954E+02  0.28399928369E+02  0.00000000000E+00 0.  1.
</event>
<event>
 5    1  0.1059945E-009  0.9118800E+02  0.7815553E-02  0.1125453E+00
         25   -1    0    0    0    0  0.00000000000E+00  0.00000000000E+00  0.99999998245E-14  0.12509000000E+03  0.12509000000E+03 0.  0.
        -11    1    3    3    0    0 -0.21045438727E+02  0.37336622825E+01 -0.37530929278E+02  0.43190524169E+02  0.51100000000E-03 0.  1.
         23    2    1    0    0    0 -0.66022088483E+01 -0.26578066368E+02  0.48684041789E+01  0.97274821899E+02  0.93213233196E+02 0.  0.
         11    1    3    3    0    0  0.14443229879E+02 -0.30311728650E+02  0.42399333457E+02  0.54084297730E+02  0.51100000000E-03 0. -1.
         22    1    1    0    0    0  0.66022088483E+01  0.26578066368E+02 -0.48684041789E+01  0.27815178101E+02  0.00000000000E+00 0. -1.
</event>
<event>
 5    1  0.1059945E-009  0.9118800E+02  0.7815553E-02  0.1125453E+00
         25   -1    0    0    0    0  0.00000000000E+00  0.00000000000E+00  0.99999998245E-14  0.12509000000E+03  0.12509000000E+03 0.  0.
        -11    1    3    3    0    0  0.24113367080E+02 -0.24418251250E+02 -0.32120289625E+02  0.47004451618E+02  0.51100000000E-03 0. -1.
         23    2    1    0    0    0  0.26301971977E+02 -0.41495633113E+01  0.12209230053E+02  0.95797033199E+02  0.91208517506E+02 0.  0.
         11    1    3    3    0    0  0.21886048969E+01  0.20268687939E+02  0.44329519678E+02  0.48792581581E+02  0.51100000000E-03 0.  1.
         22    1    1    0    0    0 -0.26301971977E+02  0.41495633113E+01 -0.12209230053E+02  0.29292966801E+02  0.00000000000E+00 0. -1.
</event>
<event>
 5    1  0.1059945E-009  0.9118800E+02  0.7815553E-02  0.1125453E+00
         25   -1    0    0    0    0  0.00000000000E+00  0.00000000000E+00  0.99999998245E-14  0.12509000000E+03  0.12509000000E+03 0.  0.
        -11    1    3    3    0    0  0.50947697211E+01 -0.13870778620E+02 -0.19056472826E+02  0.24114400985E+02  0.51100000000E-03 0.  1.
         23    2    1    0    0    0 -0.41559619446E+02 -0.30582724128E+01  0.12638523512E+02  0.81543619264E+02  0.68942545409E+02 0.  0.
         11    1    3    3    0    0 -0.46654389167E+02  0.10812506207E+02  0.31694996339E+02  0.57429218279E+02  0.51100000000E-03 0. -1.
         22    1    1    0    0    0  0.41559619446E+02  0.30582724128E+01 -0.12638523512E+02  0.43546380736E+02  0.00000000000E+00 0. -1.
</event>
<event>
 5    1  0.1059945E-009  0.9118800E+02  0.7815553E-02  0.1125453E+00
         25   -1    0    0    0    0  0.00000000000E+00  0.00000000000E+00  0.99999998245E-14  0.12509000000E+03  0.12509000000E+03 0.  0.
        -11    1    3    3    0    0 -0.15540683807E+02  0.20932481818E+02 -0.27183193138E+02  0.37664408102E+02  0.51100000000E-03 0. -1.
         23    2    1    0    0    0  0.27280565754E+02  0.14458028731E+02  0.76947681918E+01  0.93270614082E+02  0.87675162567E+02 0.  0.
         11    1    3    3    0    0  0.42821249561E+02 -0.64744530867E+01  0.34877961330E+02  0.55606205980E+02  0.51100000000E-03 0.  1.
         22    1    1    0    0    0 -0.27280565754E+02 -0.14458028731E+02 -0.76947681918E+01  0.31819385918E+02  0.00000000000E+00 0.  1.
</event>
<event>
 5    1  0.1059945E-009  0.9118800E+02  0.7815553E-02  0.1125453E+00
         25   -1    0    0    0    0  0.00000000000E+00  0.00000000000E+00  0.99999998245E-14  0.12509000000E+03  0.12509000000E+03 0.  0.
        -11    1    3    3    0    0  0.22271796579E+02 -0.45186431041E+01 -0.55341720866E+02  0.59826057257E+02  0.51100000000E-03 0. -1.
         23    2    1    0    0    0  0.16854881255E+02 -0.12456356751E+02 -0.21261085110E+02  0.95235660522E+02  0.90435332970E+02 0.  0.
         11    1    3    3    0    0 -0.54169153241E+01 -0.79377136468E+01  0.34080635756E+02  0.35409603265E+02  0.51100000000E-03 0.  1.
         22    1    1    0    0    0 -0.16854881255E+02  0.12456356751E+02  0.21261085110E+02  0.29854339478E+02  0.00000000000E+00 0. -1.
</event>
<event>
 5    1  0.1059945E-009  0.9118800E+02  0.7815553E-02  0.1125453E+00
         25   -1    0    0    0    0  0.00000000000E+00  0.00000000000E+00  0.99999998245E-14  0.12509000000E+03  0.12509000000E+03 0.  0.
        -11    1    3    3    0    0 -0.38220989566E+01  0.51701837542E+02  0.19541389439E+00  0.51843289175E+02  0.51100000000E-03 0.  1.
         23    2    1    0    0    0 -0.46408412768E+01  0.14742957072E+02  0.24526443428E+02  0.96099680612E+02  0.91622650013E+02 0.  0.
         11    1    3    3    0    0 -0.81874232020E+00 -0.36958880470E+02  0.24331029534E+02  0.44256391437E+02  0.51100000000E-03 0. -1.
         22    1    1    0    0    0  0.46408412768E+01 -0.14742957072E+02 -0.24526443428E+02  0.28990319388E+02  0.00000000000E+00 0.  1.
</event>
<event>
 5    1  0.1059945E-009  0.9118800E+02  0.7815553E-02  0.1125453E+00
         25   -1    0    0    0    0  0.00000000000E+00  0.00000000000E+00  0.99999998245E-14  0.12509000000E+03  0.12509000000E+03 0.  0.
        -11    1    3    3    0    0 -0.17873270315E+02  0.21452851148E+02  0.49610558205E+02  0.56928780944E+02  0.51100000000E-03 0. -1.
         23    2    1    0    0    0  0.37936596213E+01  0.23384437139E+02  0.17835218687E+02  0.95436690249E+02  0.90712970773E+02 0.  0.
         11    1    3    3    0    0  0.21666929936E+02  0.19315859906E+01 -0.31775339518E+02  0.38507909305E+02  0.51100000000E-03 0.  1.
         22    1    1    0    0    0 -0.37936596213E+01 -0.23384437139E+02 -0.17835218687E+02  0.29653309751E+02  0.00000000000E+00 0.  1.
</event>
<event>
 5    1  0.1059945E-009  0.9118800E+02  0.7815553E-02  0.1125453E+00
         25   -1    0    0    0    0  0.00000000000E+00  0.00000000000E+00  0.99999998245E-14  0.12509000000E+03  0.12509000000E+03 0.  0.
        -11    1    3    3    0    0  0.13326530039E+02  0.11787594303E+02 -0.28928976886E+02  0.33962177290E+02  0.51100000000E-03 0. -1.
         23    2    1    0    0    0 -0.17138924361E+02 -0.12830627704E+02  0.19419136644E+02  0.96185491640E+02  0.91739730752E+02 0.  0.
         11    1    3    3    0    0 -0.30465454400E+02 -0.24618222007E+02  0.48348113530E+02  0.62223314350E+02  0.51100000000E-03 0.  1.
         22    1    1    0    0    0  0.17138924361E+02  0.12830627704E+02 -0.19419136644E+02  0.28904508360E+02  0.00000000000E+00 0.  1.
</event>
<event>
 5    1  0.1059945E-009  0.9118800E+02  0.7815553E-02  0.1125453E+00
         25   -1    0    0    0    0  0.00000000000E+00  0.00000000000E+00  0.99999998245E-14  0.12509000000E+03  0.12509000000E+03 0.  0.
        -11    1    3    3    0    0  0.15391587102E+02 -0.21826283446E+01  0.29026039774E+02  0.32926825010E+02  0.51100000000E-03 0.  1.
         23    2    1    0    0    0 -0.98088895083E+00 -0.34691055965E+01 -0.30347135450E+02  0.94529478624E+02  0.89453210463E+02 0.  0.
         11    1    3    3    0    0 -0.16372476053E+02 -0.12864772519E+01 -0.59373175224E+02  0.61602653614E+02  0.51100000000E-03 0. -1.
         22    1    1    0    0    0  0.98088895083E+00  0.34691055965E+01  0.30347135450E+02  0.30560521376E+02  0.00000000000E+00 0. -1.
</event>
<event>
 5    1  0.1059945E-009  0.9118800E+02  0.7815553E-02  0.1125453E+00
         25   -1    0    0    0    0  0.00000000000E+00  0.00000000000E+00  0.99999998245E-14  0.12509000000E+03  0.12509000000E+03 0.  0.
        -11    1    3    3    0    0 -0.81723098654E+01  0.29193237934E+02 -0.29545282745E+02  0.42331495631E+02  0.51100000000E-03 0.  1.
         23    2    1    0    0    0  0.12649487440E+02  0.17622704380E+02  0.18901574298E+02  0.96317812855E+02  0.91919977807E+02 0.  0.
         11    1    3    3    0    0  0.20821797306E+02 -0.11570533554E+02  0.48446857043E+02  0.53986317224E+02  0.51100000000E-03 0. -1.
         22    1    1    0    0    0 -0.12649487440E+02 -0.17622704380E+02 -0.18901574298E+02  0.28772187145E+02  0.00000000000E+00 0.  1.
</event>
<event>
 5    1  0.1059945E-009  0.9118800E+02  0.7815553E-02  0.1125453E+00
         25   -1    0    0    0    0  0.00000000000E+00  0.00000000000E+00  0.99999998245E-14  0.12509000000E+03  0.12509000000E+03 0.  0.
        -11    1    3    3    0    0 -0.42557213793E+02 -0.13855925855E+02 -0.39994168009E+02  0.60021967663E+02  0.51100000000E-03 0.  1.
         23    2    1    0    0    0 -0.27640598421E+02 -0.13968074698E+02 -0.11744198192E+02  0.91968466475E+02  0.85797219319E+02 0.  0.
         11    1    3    3    0    0  0.14916615372E+02 -0.11214884280E+00  0.28249969816E+02  0.31946498813E+02  0.51100000000E-03 0. -1.
         22    1    1    0    0    0  0.27640598421E+02  0.13968074698E+02  0.11744198192E+02  0.33121533525E+02  0.00000000000E+00 0.  1.
</event>
<event>
 5    1  0.1059945E-009  0.9118800E+02  0.7815553E-02  0.1125453E+00
         25   -1    0    0    0    0  0.00000000000E+00  0.00000000000E+00  0.99999998245E-14  0.12509000000E+03  0.12509000000E+03 0.  0.
        -11    1    3    3    0    0 -0.36702989135E+02  0.43914368072E+02 -0.24277342861E+02  0.62168887004E+02  0.51100000000E-03 0.  1.
         23    2    1    0    0    0 -0.12959137939E+02  0.19249572103E+02 -0.14312472118E+02  0.97825881815E+02  0.93949832424E+02 0.  0.
         11    1    3    3    0    0  0.23743851195E+02 -0.24664795970E+02  0.99648707433E+01  0.35656994812E+02  0.51100000000E-03 0. -1.
         22    1    1    0    0    0  0.12959137939E+02 -0.19249572103E+02  0.14312472118E+02  0.27264118185E+02  0.00000000000E+00 0.  1.
</event>
<event>
 5    1  0.1059945E-009  0.9118800E+02  0.7815553E-02  0.1125453E+00
         25   -1    0    0    0    0  0.00000000000E+00  0.00000000000E+00  0.99999998245E-14  0.12509000000E+03  0.12509000000E+03 0.  0.
        -11    1    3    3    0    0 -0.34083258582E+00  0.42654292459E+02  0.57081832653E+01  0.43035894187E+02  0.51100000000E-03 0.  1.
         23    2    1    0    0    0 -0.17602442301E+02 -0.47602310945E+01  0.22420534047E+02  0.96190413117E+02  0.91746441095E+02 0.  0.
         11    1    3    3    0    0 -0.17261609715E+02 -0.47414523553E+02  0.16712350782E+02  0.53154518930E+02  0.51100000000E-03 0. -1.
         22    1    1    0    0    0  0.17602442301E+02  0.47602310945E+01 -0.22420534047E+02  0.28899586883E+02  0.00000000000E+00 0. -1.
</event>
<event>
 5    1  0.1059945E-009  0.9118800E+02  0.7815553E-02  0.1125453E+00
         25   -1    0    0    0    0  0.00000000000E+00  0.00000000000E+00  0.99999998245E-14  0.12509000000E+03  0.12509000000E+03 0.  0.
        -11    1    3    3    0    0 -0.21487197506E+02  0.86498661674E+01 -0.34989326423E+02  0.41961563426E+02  0.51100000000E-03 0.  1.
         23    2    1    0    0    0 -0.25012248959E+02 -0.10305660973E+02  0.14015426795E+02  0.94622780988E+02  0.89583588048E+02 0.  0.
         11    1    3    3    0    0 -0.35250514531E+01 -0.18955527140E+02  0.49004753218E+02  0.52661217562E+02  0.51100000000E-03 0. -1.
         22    1    1    0    0    0  0.25012248959E+02  0.10305660973E+02 -0.14015426795E+02  0.30467219012E+02  0.00000000000E+00 0.  1.
</event>
<event>
 5    1  0.1059945E-009  0.9118800E+02  0.7815553E-02  0.1125453E+00
         25   -1    0    0    0    0  0.00000000000E+00  0.00000000000E+00  0.99999998245E-14  0.12509000000E+03  0.12509000000E+03 0.  0.
        -11    1    3    3    0    0 -0.47532378244E+00  0.13028009314E+02  0.54052642819E+02  0.55602546303E+02  0.51100000000E-03 0.  1.
         23    2    1    0    0    0  0.10484808828E+02  0.22109521206E+02  0.17001132482E+02  0.95294016213E+02  0.90516014474E+02 0.  0.
         11    1    3    3    0    0  0.10960132611E+02  0.90815118926E+01 -0.37051510337E+02  0.39691469910E+02  0.51100000000E-03 0. -1.
         22    1    1    0    0    0 -0.10484808828E+02 -0.22109521206E+02 -0.17001132482E+02  0.29795983787E+02  0.00000000000E+00 0.  1.
</event>
<event>
 5    1  0.1059945E-009  0.9118800E+02  0.7815553E-02  0.1125453E+00
         25   -1    0    0    0    0  0.00000000000E+00  0.00000000000E+00  0.99999998245E-14  0.12509000000E+03  0.12509000000E+03 0.  0.
        -11    1    3    3    0    0  0.11325473367E+02  0.33254156203E+02 -0.85369926593E+01  0.36152254365E+02  0.51100000000E-03 0.  1.
         23    2    1    0    0    0  0.88139593565E+01 -0.26527120793E+02 -0.80968620993E+01  0.95987883359E+02  0.91469888810E+02 0.  0.
         11    1    3    3    0    0 -0.25115140110E+01 -0.59781276996E+02  0.44013055997E+00  0.59835628994E+02  0.51100000000E-03 0. -1.
         22    1    1    0    0    0 -0.88139593565E+01  0.26527120793E+02  0.80968620993E+01  0.29102116641E+02  0.00000000000E+00 0. -1.
</event>
<event>
 5    1  0.1059945E-009  0.9118800E+02  0.7815553E-02  0.1125453E+00
         25   -1    0    0    0    0  0.00000000000E+00  0.00000000000E+00  0.99999998245E-14  0.12509000000E+03  0.12509000000E+03 0.  0.
        -11    1    3    3    0    0 -0.11441457782E+02 -0.13167570406E+02 -0.32419700872E+02  0.36814791476E+02  0.51100000000E-03 0.  1.
         23    2    1    0    0    0 -0.12014881489E+02  0.11421599245E+02  0.22588412797E+02  0.97071315177E+02  0.92939730638E+02 0.  0.
         11    1    3    3    0    0 -0.57342370684E+00  0.24589169651E+02  0.55008113669E+02  0.60256523701E+02  0.51100000000E-03 0. -1.
         22    1    1    0    0    0  0.12014881489E+02 -0.11421599245E+02 -0.22588412797E+02  0.28018684823E+02  0.00000000000E+00 0. -1.
</event>
<event>
 5    1  0.1059945E-009  0.9118800E+02  0.7815553E-02  0.1125453E+00
         25   -1    0    0    0    0  0.00000000000E+00  0.00000000000E+00  0.99999998245E-14  0.12509000000E+03  0.12509000000E+03 0.  0.
        -11    1    3    3    0    0 -0.55618158704E+01 -0.28293736537E+02  0.46406053316E+02  0.54635072139E+02  0.51100000000E-03 0. -1.
         23    2    1    0    0    0 -0.10992129016E+02  0.73343983215E+01  0.25680378911E+02  0.96209173141E+02  0.91772015541E+02 0.  0.
         11    1    3    3    0    0 -0.54303131457E+01  0.35628134858E+02 -0.20725674405E+02  0.41574101002E+02  0.51100000000E-03 0.  1.
         22    1    1    0    0    0  0.10992129016E+02 -0.73343983215E+01 -0.25680378911E+02  0.28880826859E+02  0.00000000000E+00 0. -1.
</event>
<event>
 5    1  0.1059945E-009  0.9118800E+02  0.7815553E-02  0.1125453E+00
         25   -1    0    0    0    0  0.00000000000E+00  0.00000000000E+00  0.99999998245E-14  0.12509000000E+03  0.12509000000E+03 0.  0.
        -11    1    3    3    0    0  0.10199405160E+02  0.32016393808E+02 -0.31774681055E+02  0.46246164106E+02  0.51100000000E-03 0. -1.
         23    2    1    0    0    0 -0.37974622814E+01  0.30520069197E+02  0.11884270335E+02  0.92118326931E+02  0.86015434265E+02 0.  0.
         11    1    3    3    0    0 -0.13996867441E+02 -0.14963246117E+01  0.43658951390E+02  0.45872162825E+02  0.51100000000E-03 0.  1.
         22    1    1    0    0    0  0.37974622814E+01 -0.30520069197E+02 -0.11884270335E+02  0.32971673069E+02  0.00000000000E+00 0.  1.
</event>
<event>
 5    1  0.1059945E-009  0.9118800E+02  0.7815553E-02  0.1125453E+00
         25   -1    0    0    0    0  0.00000000000E+00  0.00000000000E+00  0.99999998245E-14  0.12509000000E+03  0.12509000000E+03 0.  0.
        -11    1    3    3    0    0  0.17264752842E+02  0.21662907498E+01 -0.32169190203E+02  0.36573505505E+02  0.51100000000E-03 0.  1.
         23    2    1    0    0    0 -0.11663927176E+02  0.23559229735E+02  0.14158125657E+02  0.95231382735E+02  0.90429415748E+02 0.  0.
         11    1    3    3    0    0 -0.28928680018E+02  0.21392938985E+02  0.46327315860E+02  0.58657877230E+02  0.51100000000E-03 0. -1.
         22    1    1    0    0    0  0.11663927176E+02 -0.23559229735E+02 -0.14158125657E+02  0.29858617265E+02  0.00000000000E+00 0. -1.
</event>
<event>
 5    1  0.1059945E-009  0.9118800E+02  0.7815553E-02  0.1125453E+00
         25   -1    0    0    0    0  0.00000000000E+00  0.00000000000E+00  0.99999998245E-14  0.12509000000E+03  0.12509000000E+03 0.  0.
        -11    1    3    3    0    0 -0.14792584043E+02 -0.62354089382E+01  0.57196322705E+02  0.59406398633E+02  0.51100000000E-03 0. -1.
         23    2    1    0    0    0  0.39972991480E+01  0.51049705086E+01  0.30218263990E+02  0.94183971415E+02  0.88968746583E+02 0.  0.
         11    1    3    3    0    0  0.18789883191E+02  0.11340379447E+02 -0.26978058715E+02  0.34777572782E+02  0.51100000000E-03 0.  1.
         22    1    1    0    0    0 -0.39972991480E+01 -0.51049705086E+01 -0.30218263990E+02  0.30906028585E+02  0.00000000000E+00 0. -1.
</event>
<event>
 5    1  0.1059945E-009  0.9118800E+02  0.7815553E-02  0.1125453E+00
         25   -1    0    0    0    0  0.00000000000E+00  0.00000000000E+00  0.99999998245E-14  0.12509000000E+03  0.12509000000E+03 0.  0.
        -11    1    3    3    0    0  0.58608901640E+02 -0.14854754268E+02  0.29082903259E+01  0.60532018211E+02  0.51100000000E-03 0. -1.
         23    2    1    0    0    0  0.28874552257E+02  0.38084038394E+01 -0.15721854810E+01  0.95922972811E+02  0.91381077023E+02 0.  0.
         11    1    3    3    0    0 -0.29734349383E+02  0.18663158107E+02 -0.44804758070E+01  0.35390954600E+02  0.51100000000E-03 0.  1.
         22    1    1    0    0    0 -0.28874552257E+02 -0.38084038394E+01  0.15721854810E+01  0.29167027189E+02  0.00000000000E+00 0. -1.
</event>
<event>
 5    1  0.1059945E-009  0.9118800E+02  0.7815553E-02  0.1125453E+00
         25   -1    0    0    0    0  0.00000000000E+00  0.00000000000E+00  0.99999998245E-14  0.12509000000E+03  0.12509000000E+03 0.  0.
        -11    1    3    3    0    0  0.97920120005E+00 -0.50302901382E+02  0.17712829162E+02  0.53339338575E+02  0.51100000000E-03 0. -1.
         23    2    1    0    0    0 -0.20180414752E+02 -0.13439821808E+02  0.16313325937E+02  0.95866677928E+02  0.91303983396E+02 0.  0.
         11    1    3    3    0    0 -0.21159615952E+02  0.36863079574E+02 -0.13995032253E+01  0.42527339353E+02  0.51100000000E-03 0.  1.
         22    1    1    0    0    0  0.20180414752E+02  0.13439821808E+02 -0.16313325937E+02  0.29223322072E+02  0.00000000000E+00 0.  1.
</event>
<event>
 5    1  0.1059945E-009  0.9118800E+02  0.7815553E-02  0.1125453E+00
         25   -1    0    0    0    0  0.00000000000E+00  0.00000000000E+00  0.99999998245E-14  0.12509000000E+03  0.12509000000E+03 0.  0.
        -11    1    3    3    0    0 -0.14665180519E+02 -0.23759904732E+02  0.30803649785E+02  0.41574817292E+02  0.51100000000E-03 0.  1.
         23    2    1    0    0    0 -0.21411401900E+02 -0.40884539256E+01 -0.19396135660E+02  0.95911691869E+02  0.91365633429E+02 0.  0.
         11    1    3    3    0    0 -0.67462213813E+01  0.19671450806E+02 -0.50199785446E+02  0.54336874577E+02  0.51100000000E-03 0. -1.
         22    1    1    0    0    0  0.21411401900E+02  0.40884539256E+01  0.19396135660E+02  0.29178308131E+02  0.00000000000E+00 0.  1.
</event>
<event>
 5    1  0.1059945E-009  0.9118800E+02  0.7815553E-02  0.1125453E+00
         25   -1    0    0    0    0  0.00000000000E+00  0.00000000000E+00  0.99999998245E-14  0.12509000000E+03  0.12509000000E+03 0.  0.
        -11    1    3    3    0    0 -0.29152534933E+02  0.33556656639E+02 -0.21032157102E+02  0.49175920230E+02  0.51100000000E-03 0.  1.
         23    2    1    0    0    0  0.15505550065E+02  0.21760007568E+02 -0.88146209885E+01  0.96954301051E+02  0.92782104616E+02 0.  0.
         11    1    3    3    0    0  0.44658084998E+02 -0.11796649071E+02  0.12217536113E+02  0.47778380822E+02  0.51100000000E-03 0. -1.
         22    1    1    0    0    0 -0.15505550065E+02 -0.21760007568E+02  0.88146209885E+01  0.28135698949E+02  0.00000000000E+00 0. -1.
</event>
<event>
 5    1  0.1059945E-009  0.9118800E+02  0.7815553E-02  0.1125453E+00
         25   -1    0    0    0    0  0.00000000000E+00  0.00000000000E+00  0.99999998245E-14  0.12509000000E+03  0.12509000000E+03 0.  0.
        -11    1    3    3    0    0  0.57696368746E+02 -0.37095253916E+01  0.90433781191E+01  0.58518494796E+02  0.51100000000E-03 0.  1.
         23    2    1    0    0    0  0.23813517415E+02 -0.14506195525E+02 -0.50163987211E+01  0.96758434982E+02  0.92517658659E+02 0.  0.
         11    1    3    3    0    0 -0.33882851332E+02 -0.10796670133E+02 -0.14059776840E+02  0.38239940185E+02  0.51100000000E-03 0. -1.
         22    1    1    0    0    0 -0.23813517415E+02  0.14506195525E+02  0.50163987211E+01  0.28331565018E+02  0.00000000000E+00 0.  1.
</event>
<event>
 5    1  0.1059945E-009  0.9118800E+02  0.7815553E-02  0.1125453E+00
         25   -1    0    0    0    0  0.00000000000E+00  0.00000000000E+00  0.99999998245E-14  0.12509000000E+03  0.12509000000E+03 0.  0.
        -11    1    3    3    0    0  0.33449822671E+02 -0.31269464668E+02  0.43216456736E+01  0.45992898136E+02  0.51100000000E-03 0.  1.
         23    2    1    0    0    0  0.19679619031E+02  0.15884637664E+02  0.14179342910E+02  0.96095812923E+02  0.91617369407E+02 0.  0.
         11    1    3    3    0    0 -0.13770203640E+02  0.47154102332E+02  0.98576972367E+01  0.50102914787E+02  0.51100000000E-03 0. -1.
         22    1    1    0    0    0 -0.19679619031E+02 -0.15884637664E+02 -0.14179342910E+02  0.28994187077E+02  0.00000000000E+00 0. -1.
</event>
<event>
 5    1  0.1059945E-009  0.9118800E+02  0.7815553E-02  0.1125453E+00
         25   -1    0    0    0    0  0.00000000000E+00  0.00000000000E+00  0.99999998245E-14  0.12509000000E+03  0.12509000000E+03 0.  0.
        -11    1    3    3    0    0  0.25929054284E+02 -0.54040040741E+01 -0.22601926606E+02  0.34819049422E+02  0.51100000000E-03 0.  1.
         23    2    1    0    0    0 -0.19621365561E+01  0.16279555233E+02  0.25665204705E+02  0.94633857254E+02  0.89599053052E+02 0.  0.
         11    1    3    3    0    0 -0.27891190840E+02  0.21683559307E+02  0.48267131311E+02  0.59814807832E+02  0.51100000000E-03 0. -1.
         22    1    1    0    0    0  0.19621365561E+01 -0.16279555233E+02 -0.25665204705E+02  0.30456142746E+02  0.00000000000E+00 0. -1.
</event>
<event>
 5    1  0.1059945E-009  0.9118800E+02  0.7815553E-02  0.1125453E+00
         25   -1    0    0    0    0  0.00000000000E+00  0.00000000000E+00  0.99999998245E-14  0.12509000000E+03  0.12509000000E+03 0.  0.
        -11    1    3    3    0    0  0.85567740052E+01 -0.48032720439E+02  0.36265602724E+02  0.60791072991E+02  0.51100000000E-03 0. -1.
         23    2    1    0    0    0  0.14013740438E+02 -0.19487675278E+02  0.17491796148E+02  0.95389539712E+02  0.90647928521E+02 0.  0.
         11    1    3    3    0    0  0.54569664330E+01  0.28545045161E+02 -0.18773806576E+02  0.34598466722E+02  0.51100000000E-03 0.  1.
         22    1    1    0    0    0 -0.14013740438E+02  0.19487675278E+02 -0.17491796148E+02  0.29700460288E+02  0.00000000000E+00 0. -1.
</event>
<event>
 5    1  0.1059945E-009  0.9118800E+02  0.7815553E-02  0.1125453E+00
         25   -1    0    0    0    0  0.00000000000E+00  0.00000000000E+00  0.99999998245E-14  0.12509000000E+03  0.12509000000E+03 0.  0.
        -11    1    3    3    0    0 -0.58204020943E+01  0.61923748278E+02  0.26163806077E+01  0.62251691777E+02  0.51100000000E-03 0.  1.
         23    2    1    0    0    0  0.15660172322E+01  0.28317634600E+02  0.50718354244E+00  0.96724561974E+02  0.92471848768E+02 0.  0.
         11    1    3    3    0    0  0.73864193265E+01 -0.33606113679E+02 -0.21091970653E+01  0.34472870196E+02  0.51100000000E-03 0. -1.
         22    1    1    0    0    0 -0.15660172322E+01 -0.28317634600E+02 -0.50718354244E+00  0.28365438026E+02  0.00000000000E+00 0.  1.
</event>
<event>
 5    1  0.1059945E-009  0.9118800E+02  0.7815553E-02  0.1125453E+00
         25   -1    0    0    0    0  0.00000000000E+00  0.00000000000E+00  0.99999998245E-14  0.12509000000E+03  0.12509000000E+03 0.  0.
        -11    1    3    3    0    0 -0.11400504703E+02 -0.36313218967E+02 -0.24220975361E+01  0.38137749487E+02  0.51100000000E-03 0.  1.
         23    2    1    0    0    0 -0.26227332795E+02  0.17204801868E+02 -0.17191228719E+01  0.93676092629E+02  0.88251780458E+02 0.  0.
         11    1    3    3    0    0 -0.14826828092E+02  0.53518020835E+02  0.70297466420E+00  0.55538343142E+02  0.51100000000E-03 0. -1.
         22    1    1    0    0    0  0.26227332795E+02 -0.17204801868E+02  0.17191228719E+01  0.31413907371E+02  0.00000000000E+00 0. -1.
</event>
<event>
 5    1  0.1059945E-009  0.9118800E+02  0.7815553E-02  0.1125453E+00
         25   -1    0    0    0    0  0.00000000000E+00  0.00000000000E+00  0.99999998245E-14  0.12509000000E+03  0.12509000000E+03 0.  0.
        -11    1    3    3    0    0  0.36120929013E+02 -0.45693527577E+01 -0.86626974241E+01  0.37425162983E+02  0.51100000000E-03 0.  1.
         23    2    1    0    0    0 -0.14986655305E+02  0.27314260533E+01  0.22641398692E+02  0.97800927824E+02  0.93916601423E+02 0.  0.
         11    1    3    3    0    0 -0.51107584319E+02  0.73007788109E+01  0.31304096116E+02  0.60375764840E+02  0.51100000000E-03 0. -1.
         22    1    1    0    0    0  0.14986655305E+02 -0.27314260533E+01 -0.22641398692E+02  0.27289072176E+02  0.00000000000E+00 0. -1.
</event>
<event>
 5    1  0.1059945E-009  0.9118800E+02  0.7815553E-02  0.1125453E+00
         25   -1    0    0    0    0  0.00000000000E+00  0.00000000000E+00  0.99999998245E-14  0.12509000000E+03  0.12509000000E+03 0.  0.
        -11    1    3    3    0    0  0.24424366502E+01 -0.31100785157E+02  0.33919730024E+02  0.46084405381E+02  0.51100000000E-03 0.  1.
         23    2    1    0    0    0 -0.22787273865E+02  0.83334004616E+01  0.14912986326E+02  0.96610137384E+02  0.92316932741E+02 0.  0.
         11    1    3    3    0    0 -0.25229710516E+02  0.39434185619E+02 -0.19006743698E+02  0.50525732003E+02  0.51100000000E-03 0. -1.
         22    1    1    0    0    0  0.22787273865E+02 -0.83334004616E+01 -0.14912986326E+02  0.28479862616E+02  0.00000000000E+00 0. -1.
</event>
<event>
 5    1  0.1059945E-009  0.9118800E+02  0.7815553E-02  0.1125453E+00
         25   -1    0    0    0    0  0.00000000000E+00  0.00000000000E+00  0.99999998245E-14  0.12509000000E+03  0.12509000000E+03 0.  0.
        -11    1    3    3    0    0 -0.83630705733E+01 -0.54390779011E+02 -0.89232981501E-01  0.55030044099E+02  0.51100000000E-03 0. -1.
         23    2    1    0    0    0  0.24741447242E+01 -0.21018334269E+02  0.20427544674E+02  0.95676119791E+02  0.91042537032E+02 0.  0.
         11    1    3    3    0    0  0.10837215297E+02  0.33372444742E+02  0.20516777656E+02  0.40646075691E+02  0.51100000000E-03 0.  1.
         22    1    1    0    0    0 -0.24741447242E+01  0.21018334269E+02 -0.20427544674E+02  0.29413880209E+02  0.00000000000E+00 0. -1.
</event>
<event>
 5    1  0.1059945E-009  0.9118800E+02  0.7815553E-02  0.1125453E+00
         25   -1    0    0    0    0  0.00000000000E+00  0.00000000000E+00  0.99999998245E-14  0.12509000000E+03  0.12509000000E+03 0.  0.
        -11    1    3    3    0    0  0.14945860686E+02  0.31142123719E+02  0.23499867278E+02  0.41778635494E+02  0.51100000000E-03 0.  1.
         23    2    1    0    0    0  0.15000976631E+02 -0.19529788359E+00 -0.22866271139E+02  0.97741621676E+02  0.93837576753E+02 0.  0.
         11    1    3    3    0    0  0.55115944855E-01 -0.31337421603E+02 -0.46366138417E+02  0.55962986182E+02  0.51100000000E-03 0. -1.
         22    1    1    0    0    0 -0.15000976631E+02  0.19529788359E+00  0.22866271139E+02  0.27348378324E+02  0.00000000000E+00 0. -1.
</event>
<event>
 5    1  0.1059945E-009  0.9118800E+02  0.7815553E-02  0.1125453E+00
         25   -1    0    0    0    0  0.00000000000E+00  0.00000000000E+00  0.99999998245E-14  0.12509000000E+03  0.12509000000E+03 0.  0.
        -11    1    3    3    0    0  0.29668648751E+02  0.14917461102E+01  0.54426889403E+01  0.30200610727E+02  0.51100000000E-03 0.  1.
         23    2    1    0    0    0 -0.21088137506E+02 -0.19273148769E+02 -0.19555442690E+02  0.90469498188E+02  0.83583197813E+02 0.  0.
         11    1    3    3    0    0 -0.50756786257E+02 -0.20764894879E+02 -0.24998131630E+02  0.60268887460E+02  0.51100000000E-03 0. -1.
         22    1    1    0    0    0  0.21088137506E+02  0.19273148769E+02  0.19555442690E+02  0.34620501812E+02  0.00000000000E+00 0. -1.
</event>
<event>
 5    1  0.1059945E-009  0.9118800E+02  0.7815553E-02  0.1125453E+00
         25   -1    0    0    0    0  0.00000000000E+00  0.00000000000E+00  0.99999998245E-14  0.12509000000E+03  0.12509000000E+03 0.  0.
        -11    1    3    3    0    0 -0.29283569180E+02  0.10678069576E+02  0.24601900154E+02  0.39708967315E+02  0.51100000000E-03 0.  1.
         23    2    1    0    0    0  0.21521126204E+02 -0.98722315482E+01  0.18872931953E+02  0.94811172590E+02  0.89846263465E+02 0.  0.
         11    1    3    3    0    0  0.50804695383E+02 -0.20550301124E+02 -0.57289682012E+01  0.55102205275E+02  0.51100000000E-03 0. -1.
         22    1    1    0    0    0 -0.21521126204E+02  0.98722315482E+01 -0.18872931953E+02  0.30278827410E+02  0.00000000000E+00 0. -1.
</event>
<event>
 5    1  0.1059945E-009  0.9118800E+02  0.7815553E-02  0.1125453E+00
         25   -1    0    0    0    0  0.00000000000E+00  0.00000000000E+00  0.99999998245E-14  0.12509000000E+03  0.12509000000E+03 0.  0.
        -11    1    3    3    0    0 -0.28465868360E+02  0.50751738281E+02  0.22421431834E+02  0.62359964767E+02  0.51100000000E-03 0.  1.
         23    2    1    0    0    0 -0.13976421532E+02  0.21034560921E+02  0.67416731744E+01  0.98951077506E+02  0.95436222004E+02 0.  0.
         11    1    3    3    0    0  0.14489446828E+02 -0.29717177360E+02 -0.15679758659E+02  0.36591112739E+02  0.51100000000E-03 0. -1.
         22    1    1    0    0    0  0.13976421532E+02 -0.21034560921E+02 -0.67416731744E+01  0.26138922494E+02  0.00000000000E+00 0.  1.
</event>
<event>
 5    1  0.1059945E-009  0.9118800E+02  0.7815553E-02  0.1125453E+00
         25   -1    0    0    0    0  0.00000000000E+00  0.00000000000E+00  0.99999998245E-14  0.12509000000E+03  0.12509000000E+03 0.  0.
        -11    1    3    3    0    0 -0.76712131693E+01 -0.25303854781E+02  0.54617386957E+02  0.60681064069E+02  0.51100000000E-03 0. -1.
         23    2    1    0    0    0 -0.13488290873E+02 -0.14085222506E+02  0.21840356019E+02  0.95809825226E+02  0.91226059736E+02 0.  0.
         11    1    3    3    0    0 -0.58170777042E+01  0.11218632274E+02 -0.32777030937E+02  0.35128761157E+02  0.51100000000E-03 0.  1.
         22    1    1    0    0    0  0.13488290873E+02  0.14085222506E+02 -0.21840356019E+02  0.29280174774E+02  0.00000000000E+00 0. -1.
</event>
<event>
 5    1  0.1059945E-009  0.9118800E+02  0.7815553E-02  0.1125453E+00
         25   -1    0    0    0    0  0.00000000000E+00  0.00000000000E+00  0.99999998245E-14  0.12509000000E+03  0.12509000000E+03 0.  0.
        -11    1    3    3    0    0  0.31015417467E+02 -0.17642368915E+02 -0.12411480511E+02  0.37779017329E+02  0.51100000000E-03 0. -1.
         23    2    1    0    0    0 -0.20305840037E+02 -0.15099450549E+02  0.14646848125E+02  0.95852169942E+02  0.91284104729E+02 0.  0.
         11    1    3    3    0    0 -0.51321257504E+02  0.25429183668E+01  0.27058328637E+02  0.58073152613E+02  0.51100000000E-03 0.  1.
         22    1    1    0    0    0  0.20305840037E+02  0.15099450549E+02 -0.14646848125E+02  0.29237830058E+02  0.00000000000E+00 0.  1.
</event>
<event>
 5    1  0.1059945E-009  0.9118800E+02  0.7815553E-02  0.1125453E+00
         25   -1    0    0    0    0  0.00000000000E+00  0.00000000000E+00  0.99999998245E-14  0.12509000000E+03  0.12509000000E+03 0.  0.
        -11    1    3    3    0    0 -0.49626333092E+02 -0.64847436050E+01  0.12449882894E+02  0.51573485631E+02  0.51100000000E-03 0.  1.
         23    2    1    0    0    0 -0.13581474510E+02 -0.24767779581E+02 -0.63334286949E+01  0.96141568708E+02  0.91679820895E+02 0.  0.
         11    1    3    3    0    0  0.36044858582E+02 -0.18283035976E+02 -0.18783311588E+02  0.44568083077E+02  0.51100000000E-03 0. -1.
         22    1    1    0    0    0  0.13581474510E+02  0.24767779581E+02  0.63334286949E+01  0.28948431292E+02  0.00000000000E+00 0.  1.
</event>
<event>
 5    1  0.1059945E-009  0.9118800E+02  0.7815553E-02  0.1125453E+00
         25   -1    0    0    0    0  0.00000000000E+00  0.00000000000E+00  0.99999998245E-14  0.12509000000E+03  0.12509000000E+03 0.  0.
        -11    1    3    3    0    0 -0.11012267480E+02  0.30399460623E+02  0.33782629410E+02  0.46761771687E+02  0.51100000000E-03 0.  1.
         23    2    1    0    0    0  0.26119510771E+02  0.80645845305E+01  0.13263191606E+02  0.94706145437E+02  0.89699918424E+02 0.  0.
         11    1    3    3    0    0  0.37131778251E+02 -0.22334876093E+02 -0.20519437804E+02  0.47944373749E+02  0.51100000000E-03 0. -1.
         22    1    1    0    0    0 -0.26119510771E+02 -0.80645845305E+01 -0.13263191606E+02  0.30383854563E+02  0.00000000000E+00 0.  1.
</event>
<event>
 5    1  0.1059945E-009  0.9118800E+02  0.7815553E-02  0.1125453E+00
         25   -1    0    0    0    0  0.00000000000E+00  0.00000000000E+00  0.99999998245E-14  0.12509000000E+03  0.12509000000E+03 0.  0.
        -11    1    3    3    0    0 -0.17638806249E+02  0.26259167521E+02  0.20426258347E+02  0.37655058029E+02  0.51100000000E-03 0.  1.
         23    2    1    0    0    0 -0.62077557319E+00  0.44960115076E+01 -0.29783002073E+02  0.94963156583E+02  0.90057617190E+02 0.  0.
         11    1    3    3    0    0  0.17018030676E+02 -0.21763156014E+02 -0.50209260420E+02  0.57308098555E+02  0.51100000000E-03 0. -1.
         22    1    1    0    0    0  0.62077557319E+00 -0.44960115076E+01  0.29783002073E+02  0.30126843417E+02  0.00000000000E+00 0. -1.
</event>
<event>
 5    1  0.1059945E-009  0.9118800E+02  0.7815553E-02  0.1125453E+00
         25   -1    0    0    0    0  0.00000000000E+00  0.00000000000E+00  0.99999998245E-14  0.12509000000E+03  0.12509000000E+03 0.  0.
        -11    1    3    3    0    0  0.10644059204E+02  0.15581900719E+02 -0.55122747169E+02  0.58263272154E+02  0.51100000000E-03 0. -1.
         23    2    1    0    0    0  0.20227841955E+02  0.50739440229E+01 -0.19835157110E+02  0.96309034837E+02  0.91908031399E+02 0.  0.
         11    1    3    3    0    0  0.95837827510E+01 -0.10507956696E+02  0.35287590059E+02  0.38045762683E+02  0.51100000000E-03 0.  1.
         22    1    1    0    0    0 -0.20227841955E+02 -0.50739440229E+01  0.19835157110E+02  0.28780965163E+02  0.00000000000E+00 0. -1.
</event>
<event>
 5    1  0.1059945E-009  0.9118800E+02  0.7815553E-02  0.1125453E+00
         25   -1    0    0    0    0  0.00000000000E+00  0.00000000000E+00  0.99999998245E-14  0.12509000000E+03  0.12509000000E+03 0.  0.
        -11    1    3    3    0    0 -0.39435395694E+02 -0.13341132305E+02  0.13903696463E+01  0.41654163930E+02  0.51100000000E-03 0.  1.
         23    2    1    0    0    0  0.59009077848E+01  0.13953728023E+01  0.28130826354E+02  0.96313079224E+02  0.91913535784E+02 0.  0.
         11    1    3    3    0    0  0.45336303479E+02  0.14736505107E+02  0.26740456708E+02  0.54658915294E+02  0.51100000000E-03 0. -1.
         22    1    1    0    0    0 -0.59009077848E+01 -0.13953728023E+01 -0.28130826354E+02  0.28776920776E+02  0.00000000000E+00 0. -1.
</event>
<event>
 5    1  0.1059945E-009  0.9118800E+02  0.7815553E-02  0.1125453E+00
         25   -1    0    0    0    0  0.00000000000E+00  0.00000000000E+00  0.99999998245E-14  0.12509000000E+03  0.12509000000E+03 0.  0.
        -11    1    3    3    0    0 -0.47335542486E+02  0.14239294718E+02 -0.52594861168E+01  0.49709891280E+02  0.51100000000E-03 0.  1.
         23    2    1    0    0    0 -0.11859785107E+02 -0.17075228259E+02 -0.16735628092E+02  0.98401066516E+02  0.94712568970E+02 0.  0.
         11    1    3    3    0    0  0.35475757380E+02 -0.31314522977E+02 -0.11476141976E+02  0.48691175236E+02  0.51100000000E-03 0. -1.
         22    1    1    0    0    0  0.11859785107E+02  0.17075228259E+02  0.16735628092E+02  0.26688933484E+02  0.00000000000E+00 0.  1.
</event>
<event>
 5    1  0.1059945E-009  0.9118800E+02  0.7815553E-02  0.1125453E+00
         25   -1    0    0    0    0  0.00000000000E+00  0.00000000000E+00  0.99999998245E-14  0.12509000000E+03  0.12509000000E+03 0.  0.
        -11    1    3    3    0    0  0.19664721732E+02  0.13577287128E+02  0.53154104520E+02  0.58278665343E+02  0.51100000000E-03 0.  1.
         23    2    1    0    0    0 -0.59134548043E+01  0.12215730140E+02  0.26912485432E+02  0.94949082915E+02  0.90038066748E+02 0.  0.
         11    1    3    3    0    0 -0.25578176536E+02 -0.13615569879E+01 -0.26241619088E+02  0.36670417573E+02  0.51100000000E-03 0. -1.
         22    1    1    0    0    0  0.59134548043E+01 -0.12215730140E+02 -0.26912485432E+02  0.30140917085E+02  0.00000000000E+00 0.  1.
</event>
<event>
 5    1  0.1059945E-009  0.9118800E+02  0.7815553E-02  0.1125453E+00
         25   -1    0    0    0    0  0.00000000000E+00  0.00000000000E+00  0.99999998245E-14  0.12509000000E+03  0.12509000000E+03 0.  0.
        -11    1    3    3    0    0  0.15100528246E+02 -0.31561415733E+02 -0.14179227344E+02  0.37751813264E+02  0.51100000000E-03 0. -1.
         23    2    1    0    0    0 -0.17470398556E+02  0.14526484930E+02 -0.20433152747E+02  0.94532720649E+02  0.89457743947E+02 0.  0.
         11    1    3    3    0    0 -0.32570926802E+02  0.46087900663E+02 -0.62539254029E+01  0.56780907385E+02  0.51100000000E-03 0.  1.
         22    1    1    0    0    0  0.17470398556E+02 -0.14526484930E+02  0.20433152747E+02  0.30557279351E+02  0.00000000000E+00 0.  1.
</event>
<event>
 5    1  0.1059945E-009  0.9118800E+02  0.7815553E-02  0.1125453E+00
         25   -1    0    0    0    0  0.00000000000E+00  0.00000000000E+00  0.99999998245E-14  0.12509000000E+03  0.12509000000E+03 0.  0.
        -11    1    3    3    0    0 -0.29368185056E+02 -0.27522774518E+02 -0.18627700847E+02  0.44350700669E+02  0.51100000000E-03 0.  1.
         23    2    1    0    0    0  0.49051515091E+01 -0.24243563990E+02  0.17908001837E+02  0.94553015276E+02  0.89486117704E+02 0.  0.
         11    1    3    3    0    0  0.34273336566E+02  0.32792105286E+01  0.36535702684E+02  0.50202314607E+02  0.51100000000E-03 0. -1.
         22    1    1    0    0    0 -0.49051515091E+01  0.24243563990E+02 -0.17908001837E+02  0.30536984724E+02  0.00000000000E+00 0. -1.
</event>
<event>
 5    1  0.1059945E-009  0.9118800E+02  0.7815553E-02  0.1125453E+00
         25   -1    0    0    0    0  0.00000000000E+00  0.00000000000E+00  0.99999998245E-14  0.12509000000E+03  0.12509000000E+03 0.  0.
        -11    1    3    3    0    0  0.23608822977E+02 -0.32690047640E+02  0.39337437203E+02  0.56333380007E+02  0.51100000000E-03 0. -1.
         23    2    1    0    0    0  0.23258040585E+02  0.38431435467E+00  0.17735254812E+02  0.95838958777E+02  0.91265999183E+02 0.  0.
         11    1    3    3    0    0 -0.35078239218E+00  0.33074361994E+02 -0.21602182392E+02  0.39505578770E+02  0.51100000000E-03 0.  1.
         22    1    1    0    0    0 -0.23258040585E+02 -0.38431435467E+00 -0.17735254812E+02  0.29251041223E+02  0.00000000000E+00 0. -1.
</event>
<event>
 5    1  0.1059945E-009  0.9118800E+02  0.7815553E-02  0.1125453E+00
         25   -1    0    0    0    0  0.00000000000E+00  0.00000000000E+00  0.99999998245E-14  0.12509000000E+03  0.12509000000E+03 0.  0.
        -11    1    3    3    0    0 -0.23252372505E+02  0.34423814051E+02 -0.19976533427E+02  0.46094833647E+02  0.51100000000E-03 0.  1.
         23    2    1    0    0    0 -0.27378641898E+02 -0.64580555508E+01  0.80479550792E+01  0.95831392811E+02  0.91255628613E+02 0.  0.
         11    1    3    3    0    0 -0.41262693929E+01 -0.40881869601E+02  0.28024488507E+02  0.49736559164E+02  0.51100000000E-03 0. -1.
         22    1    1    0    0    0  0.27378641898E+02  0.64580555508E+01 -0.80479550792E+01  0.29258607189E+02  0.00000000000E+00 0. -1.
</event>
<event>
 5    1  0.1059945E-009  0.9118800E+02  0.7815553E-02  0.1125453E+00
         25   -1    0    0    0    0  0.00000000000E+00  0.00000000000E+00  0.99999998245E-14  0.12509000000E+03  0.12509000000E+03 0.  0.
        -11    1    3    3    0    0 -0.28528180941E+02  0.91049750367E+01 -0.11148564803E+02  0.31953844458E+02  0.51100000000E-03 0.  1.
         23    2    1    0    0    0  0.21681266097E+02 -0.20382935271E+01  0.22785903148E+02  0.93571286157E+02  0.88103100234E+02 0.  0.
         11    1    3    3    0    0  0.50209447038E+02 -0.11143268564E+02  0.33934467951E+02  0.61617441699E+02  0.51100000000E-03 0. -1.
         22    1    1    0    0    0 -0.21681266097E+02  0.20382935271E+01 -0.22785903148E+02  0.31518713843E+02  0.00000000000E+00 0. -1.
</event>
<event>
 5    1  0.1059945E-009  0.9118800E+02  0.7815553E-02  0.1125453E+00
         25   -1    0    0    0    0  0.00000000000E+00  0.00000000000E+00  0.99999998245E-14  0.12509000000E+03  0.12509000000E+03 0.  0.
        -11    1    3    3    0    0  0.19576956956E+02  0.28230309386E+02  0.14097200715E+02  0.37134063607E+02  0.51100000000E-03 0. -1.
         23    2    1    0    0    0 -0.20268128130E+02  0.33041574495E+01 -0.20943593897E+02  0.95758300430E+02  0.91155381090E+02 0.  0.
         11    1    3    3    0    0 -0.39845085086E+02 -0.24926151936E+02 -0.35040794612E+02  0.58624236824E+02  0.51100000000E-03 0.  1.
         22    1    1    0    0    0  0.20268128130E+02 -0.33041574495E+01  0.20943593897E+02  0.29331699570E+02  0.00000000000E+00 0.  1.
</event>
<event>
 5    1  0.1059945E-009  0.9118800E+02  0.7815553E-02  0.1125453E+00
         25   -1    0    0    0    0  0.00000000000E+00  0.00000000000E+00  0.99999998245E-14  0.12509000000E+03  0.12509000000E+03 0.  0.
        -11    1    3    3    0    0 -0.10554876155E+02 -0.25292353398E+02  0.39621456114E+02  0.48176429257E+02  0.51100000000E-03 0.  1.
         23    2    1    0    0    0 -0.10746184353E+02 -0.10792746439E+02 -0.14411912184E+02  0.10412176053E+03  0.10198859715E+03 0.  0.
         11    1    3    3    0    0 -0.19130819811E+00  0.14499606959E+02 -0.54033368299E+02  0.55945331269E+02  0.51100000000E-03 0. -1.
         22    1    1    0    0    0  0.10746184353E+02  0.10792746439E+02  0.14411912184E+02  0.20968239475E+02  0.00000000000E+00 0. -1.
</event>
<event>
 5    1  0.1059945E-009  0.9118800E+02  0.7815553E-02  0.1125453E+00
         25   -1    0    0    0    0  0.00000000000E+00  0.00000000000E+00  0.99999998245E-14  0.12509000000E+03  0.12509000000E+03 0.  0.
        -11    1    3    3    0    0 -0.37013971939E+02  0.13587021092E+02  0.47132509576E+02  0.61450099431E+02  0.51100000000E-03 0.  1.
         23    2    1    0    0    0 -0.23417470725E+02  0.71104462832E+01  0.16530858385E+02  0.95556871814E+02  0.90878545821E+02 0.  0.
         11    1    3    3    0    0  0.13596501215E+02 -0.64765748087E+01 -0.30601651191E+02  0.34106772384E+02  0.51100000000E-03 0. -1.
         22    1    1    0    0    0  0.23417470725E+02 -0.71104462832E+01 -0.16530858385E+02  0.29533128186E+02  0.00000000000E+00 0.  1.
</event>
<event>
 5    1  0.1059945E-009  0.9118800E+02  0.7815553E-02  0.1125453E+00
         25   -1    0    0    0    0  0.00000000000E+00  0.00000000000E+00  0.99999998245E-14  0.12509000000E+03  0.12509000000E+03 0.  0.
        -11    1    3    3    0    0 -0.94192287257E+01  0.24718073799E+02  0.24080058110E+02  0.35770857426E+02  0.51100000000E-03 0.  1.
         23    2    1    0    0    0  0.26457215644E+02  0.96506536283E+01 -0.16870921252E+02  0.92260937282E+02  0.86222579347E+02 0.  0.
         11    1    3    3    0    0  0.35876444369E+02 -0.15067420170E+02 -0.40950979362E+02  0.56490079856E+02  0.51100000000E-03 0. -1.
         22    1    1    0    0    0 -0.26457215644E+02 -0.96506536283E+01  0.16870921252E+02  0.32829062718E+02  0.00000000000E+00 0. -1.
</event>
<event>
 5    1  0.1059945E-009  0.9118800E+02  0.7815553E-02  0.1125453E+00
         25   -1    0    0    0    0  0.00000000000E+00  0.00000000000E+00  0.99999998245E-14  0.12509000000E+03  0.12509000000E+03 0.  0.
        -11    1    3    3    0    0  0.11107158751E+01  0.37884797392E+02 -0.75203766388E+01  0.38639974486E+02  0.51100000000E-03 0.  1.
         23    2    1    0    0    0  0.14058061936E+02 -0.63207045166E+01  0.25484775340E+02  0.95306545111E+02  0.90533327322E+02 0.  0.
         11    1    3    3    0    0  0.12947346061E+02 -0.44205501909E+02  0.33005151979E+02  0.56666570625E+02  0.51100000000E-03 0. -1.
         22    1    1    0    0    0 -0.14058061936E+02  0.63207045166E+01 -0.25484775340E+02  0.29783454889E+02  0.00000000000E+00 0. -1.
</event>
<event>
 5    1  0.1059945E-009  0.9118800E+02  0.7815553E-02  0.1125453E+00
         25   -1    0    0    0    0  0.00000000000E+00  0.00000000000E+00  0.99999998245E-14  0.12509000000E+03  0.12509000000E+03 0.  0.
        -11    1    3    3    0    0 -0.27551376043E+02  0.30184761094E-01  0.27402731332E+02  0.38858575858E+02  0.51100000000E-03 0.  1.
         23    2    1    0    0    0  0.23699431748E+02  0.14680582979E+02  0.14342651054E+02  0.93738856144E+02  0.88340698040E+02 0.  0.
         11    1    3    3    0    0  0.51250807791E+02  0.14650398218E+02 -0.13060080278E+02  0.54880280287E+02  0.51100000000E-03 0. -1.
         22    1    1    0    0    0 -0.23699431748E+02 -0.14680582979E+02 -0.14342651054E+02  0.31351143856E+02  0.00000000000E+00 0.  1.
</event>
<event>
 5    1  0.1059945E-009  0.9118800E+02  0.7815553E-02  0.1125453E+00
         25   -1    0    0    0    0  0.00000000000E+00  0.00000000000E+00  0.99999998245E-14  0.12509000000E+03  0.12509000000E+03 0.  0.
        -11    1    3    3    0    0  0.16449246395E+02  0.40984565781E+02 -0.75741803071E+01  0.44807148389E+02  0.51100000000E-03 0. -1.
         23    2    1    0    0    0 -0.22799410040E+02  0.10179769456E+02 -0.16038504688E+02  0.95413840596E+02  0.90681456430E+02 0.  0.
         11    1    3    3    0    0 -0.39248656435E+02 -0.30804796325E+02 -0.84643243808E+01  0.50606692206E+02  0.51100000000E-03 0.  1.
         22    1    1    0    0    0  0.22799410040E+02 -0.10179769456E+02  0.16038504688E+02  0.29676159404E+02  0.00000000000E+00 0.  1.
</event>
<event>
 5    1  0.1059945E-009  0.9118800E+02  0.7815553E-02  0.1125453E+00
         25   -1    0    0    0    0  0.00000000000E+00  0.00000000000E+00  0.99999998245E-14  0.12509000000E+03  0.12509000000E+03 0.  0.
        -11    1    3    3    0    0  0.22732505070E+02  0.28790788084E+02  0.25946634442E+02  0.44932216775E+02  0.51100000000E-03 0.  1.
         23    2    1    0    0    0  0.14723874268E+02 -0.20640465302E+02  0.12713831246E+02  0.96726946809E+02  0.92475074765E+02 0.  0.
         11    1    3    3    0    0 -0.80086308022E+01 -0.49431253386E+02 -0.13232803196E+02  0.51794730034E+02  0.51100000000E-03 0. -1.
         22    1    1    0    0    0 -0.14723874268E+02  0.20640465302E+02 -0.12713831246E+02  0.28363053191E+02  0.00000000000E+00 0. -1.
</event>
<event>
 5    1  0.1059945E-009  0.9118800E+02  0.7815553E-02  0.1125453E+00
         25   -1    0    0    0    0  0.00000000000E+00  0.00000000000E+00  0.99999998245E-14  0.12509000000E+03  0.12509000000E+03 0.  0.
        -11    1    3    3    0    0 -0.30418653979E+02 -0.27842360524E+02 -0.43930630738E+02  0.60252733272E+02  0.51100000000E-03 0.  1.
         23    2    1    0    0    0 -0.21029314048E+02 -0.17738872838E+02 -0.11922959728E+02  0.95105726996E+02  0.90255430196E+02 0.  0.
         11    1    3    3    0    0  0.93893399306E+01  0.10103487686E+02  0.32007671010E+02  0.34852993724E+02  0.51100000000E-03 0. -1.
         22    1    1    0    0    0  0.21029314048E+02  0.17738872838E+02  0.11922959728E+02  0.29984273004E+02  0.00000000000E+00 0.  1.
</event>
<event>
 5    1  0.1059945E-009  0.9118800E+02  0.7815553E-02  0.1125453E+00
         25   -1    0    0    0    0  0.00000000000E+00  0.00000000000E+00  0.99999998245E-14  0.12509000000E+03  0.12509000000E+03 0.  0.
        -11    1    3    3    0    0 -0.14014397843E+02 -0.29404832566E+02  0.12727549775E+02  0.34971960893E+02  0.51100000000E-03 0.  1.
         23    2    1    0    0    0  0.16137309771E+02  0.23340743544E+02  0.58693875574E+01  0.96113237135E+02  0.91641156509E+02 0.  0.
         11    1    3    3    0    0  0.30151707614E+02  0.52745576110E+02 -0.68581622177E+01  0.61141276242E+02  0.51100000000E-03 0. -1.
         22    1    1    0    0    0 -0.16137309771E+02 -0.23340743544E+02 -0.58693875574E+01  0.28976762865E+02  0.00000000000E+00 0. -1.
</event>
<event>
 5    1  0.1059945E-009  0.9118800E+02  0.7815553E-02  0.1125453E+00
         25   -1    0    0    0    0  0.00000000000E+00  0.00000000000E+00  0.99999998245E-14  0.12509000000E+03  0.12509000000E+03 0.  0.
        -11    1    3    3    0    0 -0.12676091469E+02  0.32165141176E+01 -0.31619453597E+02  0.34217234021E+02  0.51100000000E-03 0. -1.
         23    2    1    0    0    0  0.75497208838E+01 -0.17086239115E+02  0.22735796633E+02  0.95664597691E+02  0.91026704599E+02 0.  0.
         11    1    3    3    0    0  0.20225812353E+02 -0.20302753233E+02  0.54355250230E+02  0.61447363670E+02  0.51100000000E-03 0.  1.
         22    1    1    0    0    0 -0.75497208838E+01  0.17086239115E+02 -0.22735796633E+02  0.29425402309E+02  0.00000000000E+00 0.  1.
</event>
<event>
 5    1  0.1059945E-009  0.9118800E+02  0.7815553E-02  0.1125453E+00
         25   -1    0    0    0    0  0.00000000000E+00  0.00000000000E+00  0.99999998245E-14  0.12509000000E+03  0.12509000000E+03 0.  0.
        -11    1    3    3    0    0  0.15441025770E+02 -0.57729704734E+01 -0.31121113105E+02  0.35217554516E+02  0.51100000000E-03 0.  1.
         23    2    1    0    0    0 -0.72637510058E+01 -0.17319069816E+02  0.23216005411E+02  0.95228734702E+02  0.90425752680E+02 0.  0.
         11    1    3    3    0    0 -0.22704776776E+02 -0.11546099342E+02  0.54337118516E+02  0.60011180186E+02  0.51100000000E-03 0. -1.
         22    1    1    0    0    0  0.72637510058E+01  0.17319069816E+02 -0.23216005411E+02  0.29861265298E+02  0.00000000000E+00 0. -1.
</event>
<event>
 5    1  0.1059945E-009  0.9118800E+02  0.7815553E-02  0.1125453E+00
         25   -1    0    0    0    0  0.00000000000E+00  0.00000000000E+00  0.99999998245E-14  0.12509000000E+03  0.12509000000E+03 0.  0.
        -11    1    3    3    0    0 -0.37996503900E+02  0.23749547857E+02  0.17923092747E+02  0.48259844445E+02  0.51100000000E-03 0.  1.
         23    2    1    0    0    0 -0.19139423761E+02 -0.19349043615E+02  0.10661614609E+02  0.95860339434E+02  0.91295299001E+02 0.  0.
         11    1    3    3    0    0  0.18857080139E+02 -0.43098591472E+02 -0.72614781375E+01  0.47600494989E+02  0.51100000000E-03 0. -1.
         22    1    1    0    0    0  0.19139423761E+02  0.19349043615E+02 -0.10661614609E+02  0.29229660566E+02  0.00000000000E+00 0. -1.
</event>
<event>
 5    1  0.1059945E-009  0.9118800E+02  0.7815553E-02  0.1125453E+00
         25   -1    0    0    0    0  0.00000000000E+00  0.00000000000E+00  0.99999998245E-14  0.12509000000E+03  0.12509000000E+03 0.  0.
        -11    1    3    3    0    0 -0.58368097812E+02  0.49409332311E+00  0.92947626746E+01  0.59105596891E+02  0.51100000000E-03 0.  1.
         23    2    1    0    0    0 -0.24528948578E+02 -0.13981250643E+02  0.71055179426E+01  0.95975861285E+02  0.91453446497E+02 0.  0.
         11    1    3    3    0    0  0.33839149233E+02 -0.14475343966E+02 -0.21892447320E+01  0.36870264394E+02  0.51100000000E-03 0. -1.
         22    1    1    0    0    0  0.24528948578E+02  0.13981250643E+02 -0.71055179426E+01  0.29114138715E+02  0.00000000000E+00 0.  1.
</event>
<event>
 5    1  0.1059945E-009  0.9118800E+02  0.7815553E-02  0.1125453E+00
         25   -1    0    0    0    0  0.00000000000E+00  0.00000000000E+00  0.99999998245E-14  0.12509000000E+03  0.12509000000E+03 0.  0.
        -11    1    3    3    0    0  0.14843290541E+02  0.83300014321E-01  0.51403605757E+02  0.53503840031E+02  0.51100000000E-03 0.  1.
         23    2    1    0    0    0  0.26258102509E+02  0.11645276847E+02  0.16598184014E+02  0.91914705988E+02  0.85718802162E+02 0.  0.
         11    1    3    3    0    0  0.11414811969E+02  0.11561976832E+02 -0.34805421743E+02  0.38410865957E+02  0.51100000000E-03 0. -1.
         22    1    1    0    0    0 -0.26258102509E+02 -0.11645276847E+02 -0.16598184014E+02  0.33175294012E+02  0.00000000000E+00 0.  1.
</event>
<event>
 5    1  0.1059945E-009  0.9118800E+02  0.7815553E-02  0.1125453E+00
         25   -1    0    0    0    0  0.00000000000E+00  0.00000000000E+00  0.99999998245E-14  0.12509000000E+03  0.12509000000E+03 0.  0.
        -11    1    3    3    0    0  0.16618313300E+01 -0.15062394805E+02 -0.23486105916E+02  0.27950574090E+02  0.51100000000E-03 0. -1.
         23    2    1    0    0    0 -0.21592280691E+02  0.99385499577E+01  0.27138776779E+02  0.89013490112E+02  0.81374976842E+02 0.  0.
         11    1    3    3    0    0 -0.23254112021E+02  0.25000944763E+02  0.50624882695E+02  0.61062916021E+02  0.51100000000E-03 0.  1.
         22    1    1    0    0    0  0.21592280691E+02 -0.99385499577E+01 -0.27138776779E+02  0.36076509888E+02  0.00000000000E+00 0.  1.
</event>
<event>
 5    1  0.1059945E-009  0.9118800E+02  0.7815553E-02  0.1125453E+00
         25   -1    0    0    0    0  0.00000000000E+00  0.00000000000E+00  0.99999998245E-14  0.12509000000E+03  0.12509000000E+03 0.  0.
        -11    1    3    3    0    0 -0.25910636073E+02  0.21241153993E+02  0.41846863120E+01  0.33764763947E+02  0.51100000000E-03 0. -1.
         23    2    1    0    0    0  0.14741903401E+02 -0.24481148959E+02  0.89837921615E+01  0.95134050810E+02  0.90294677206E+02 0.  0.
         11    1    3    3    0    0  0.40652539473E+02 -0.45722302952E+02  0.47991058495E+01  0.61369286863E+02  0.51100000000E-03 0.  1.
         22    1    1    0    0    0 -0.14741903401E+02  0.24481148959E+02 -0.89837921615E+01  0.29955949190E+02  0.00000000000E+00 0.  1.
</event>
<event>
 5    1  0.1059945E-009  0.9118800E+02  0.7815553E-02  0.1125453E+00
         25   -1    0    0    0    0  0.00000000000E+00  0.00000000000E+00  0.99999998245E-14  0.12509000000E+03  0.12509000000E+03 0.  0.
        -11    1    3    3    0    0  0.46489742723E+02  0.22548106300E+02  0.12086041826E+02  0.53063977267E+02  0.51100000000E-03 0.  1.
         23    2    1    0    0    0  0.18425685346E+02  0.14130892433E+02 -0.18486611987E+02  0.95409319008E+02  0.90675218938E+02 0.  0.
         11    1    3    3    0    0 -0.28064057377E+02 -0.84172138671E+01 -0.30572653812E+02  0.42345341741E+02  0.51100000000E-03 0. -1.
         22    1    1    0    0    0 -0.18425685346E+02 -0.14130892433E+02  0.18486611987E+02  0.29680680992E+02  0.00000000000E+00 0.  1.
</event>
<event>
 5    1  0.1059945E-009  0.9118800E+02  0.7815553E-02  0.1125453E+00
         25   -1    0    0    0    0  0.00000000000E+00  0.00000000000E+00  0.99999998245E-14  0.12509000000E+03  0.12509000000E+03 0.  0.
        -11    1    3    3    0    0 -0.17179424395E+02 -0.15133293767E+02  0.29108299376E+02  0.37032989289E+02  0.51100000000E-03 0.  1.
         23    2    1    0    0    0 -0.74725812469E+01  0.23618014935E+02 -0.14671100517E+02  0.96299527785E+02  0.91895091062E+02 0.  0.
         11    1    3    3    0    0  0.97068431486E+01  0.38751308702E+02 -0.43779399894E+02  0.59266538497E+02  0.51100000000E-03 0. -1.
         22    1    1    0    0    0  0.74725812469E+01 -0.23618014935E+02  0.14671100517E+02  0.28790472215E+02  0.00000000000E+00 0. -1.
</event>
<event>
 5    1  0.1059945E-009  0.9118800E+02  0.7815553E-02  0.1125453E+00
         25   -1    0    0    0    0  0.00000000000E+00  0.00000000000E+00  0.99999998245E-14  0.12509000000E+03  0.12509000000E+03 0.  0.
        -11    1    3    3    0    0  0.31736951650E+02 -0.20883182764E+02  0.17810435738E+02  0.41958944742E+02  0.51100000000E-03 0. -1.
         23    2    1    0    0    0  0.46410039053E+01 -0.96061612647E+01 -0.27301762801E+02  0.95777826701E+02  0.91182172512E+02 0.  0.
         11    1    3    3    0    0 -0.27095947744E+02  0.11277021500E+02 -0.45112198539E+02  0.53818881959E+02  0.51100000000E-03 0.  1.
         22    1    1    0    0    0 -0.46410039053E+01  0.96061612647E+01  0.27301762801E+02  0.29312173299E+02  0.00000000000E+00 0.  1.
</event>
<event>
 5    1  0.1059945E-009  0.9118800E+02  0.7815553E-02  0.1125453E+00
         25   -1    0    0    0    0  0.00000000000E+00  0.00000000000E+00  0.99999998245E-14  0.12509000000E+03  0.12509000000E+03 0.  0.
        -11    1    3    3    0    0  0.35716448313E+02  0.96338480641E+01 -0.45189376436E+00  0.36995674299E+02  0.51100000000E-03 0.  1.
         23    2    1    0    0    0 -0.21068150617E+02  0.17966332853E+02  0.10598178734E+02  0.95442445647E+02  0.90720906918E+02 0.  0.
         11    1    3    3    0    0 -0.56784598931E+02  0.83324847889E+01  0.11050072499E+02  0.58446771348E+02  0.51100000000E-03 0. -1.
         22    1    1    0    0    0  0.21068150617E+02 -0.17966332853E+02 -0.10598178734E+02  0.29647554353E+02  0.00000000000E+00 0. -1.
</event>
<event>
 5    1  0.1059945E-009  0.9118800E+02  0.7815553E-02  0.1125453E+00
         25   -1    0    0    0    0  0.00000000000E+00  0.00000000000E+00  0.99999998245E-14  0.12509000000E+03  0.12509000000E+03 0.  0.
        -11    1    3    3    0    0  0.24793037306E+01 -0.38412589969E+02 -0.36423299174E+02  0.52993685832E+02  0.51100000000E-03 0.  1.
         23    2    1    0    0    0 -0.18884135788E+02 -0.23331243008E+02 -0.37539159764E+01  0.94840217027E+02  0.89886691984E+02 0.  0.
         11    1    3    3    0    0 -0.21363439519E+02  0.15081346961E+02  0.32669383198E+02  0.41846531195E+02  0.51100000000E-03 0. -1.
         22    1    1    0    0    0  0.18884135788E+02  0.23331243008E+02  0.37539159764E+01  0.30249782973E+02  0.00000000000E+00 0.  1.
</event>
<event>
 5    1  0.1059945E-009  0.9118800E+02  0.7815553E-02  0.1125453E+00
         25   -1    0    0    0    0  0.00000000000E+00  0.00000000000E+00  0.99999998245E-14  0.12509000000E+03  0.12509000000E+03 0.  0.
        -11    1    3    3    0    0  0.14352155190E+02  0.12626972501E+02 -0.26755303976E+02  0.32882686695E+02  0.51100000000E-03 0.  1.
         23    2    1    0    0    0 -0.13817190057E+02 -0.27236589405E+02  0.88406024779E+01  0.93295302397E+02  0.87710379396E+02 0.  0.
         11    1    3    3    0    0 -0.28169345248E+02 -0.39863561905E+02  0.35595906454E+02  0.60412615702E+02  0.51100000000E-03 0. -1.
         22    1    1    0    0    0  0.13817190057E+02  0.27236589405E+02 -0.88406024779E+01  0.31794697603E+02  0.00000000000E+00 0. -1.
</event>
<event>
 5    1  0.1059945E-009  0.9118800E+02  0.7815553E-02  0.1125453E+00
         25   -1    0    0    0    0  0.00000000000E+00  0.00000000000E+00  0.99999998245E-14  0.12509000000E+03  0.12509000000E+03 0.  0.
        -11    1    3    3    0    0  0.21274979771E+02 -0.38935902619E+02 -0.42091245014E+02  0.61158009975E+02  0.51100000000E-03 0.  1.
         23    2    1    0    0    0  0.12153424151E+01 -0.21443232236E+02 -0.19881149674E+02  0.95823135148E+02  0.91244308597E+02 0.  0.
         11    1    3    3    0    0 -0.20059637356E+02  0.17492670384E+02  0.22210095340E+02  0.34665125173E+02  0.51100000000E-03 0. -1.
         22    1    1    0    0    0 -0.12153424151E+01  0.21443232236E+02  0.19881149674E+02  0.29266864852E+02  0.00000000000E+00 0.  1.
</event>
<event>
 5    1  0.1059945E-009  0.9118800E+02  0.7815553E-02  0.1125453E+00
         25   -1    0    0    0    0  0.00000000000E+00  0.00000000000E+00  0.99999998245E-14  0.12509000000E+03  0.12509000000E+03 0.  0.
        -11    1    3    3    0    0  0.10960332653E+02 -0.21168065426E+01 -0.59069191823E+02  0.60114716872E+02  0.51100000000E-03 0. -1.
         23    2    1    0    0    0  0.14364352093E+02  0.66883447583E+01 -0.24801004158E+02  0.95659431302E+02  0.91019604609E+02 0.  0.
         11    1    3    3    0    0  0.34040194401E+01  0.88051513009E+01  0.34268187665E+02  0.35544714430E+02  0.51100000000E-03 0.  1.
         22    1    1    0    0    0 -0.14364352093E+02 -0.66883447583E+01  0.24801004158E+02  0.29430568698E+02  0.00000000000E+00 0. -1.
</event>
<event>
 5    1  0.1059945E-009  0.9118800E+02  0.7815553E-02  0.1125453E+00
         25   -1    0    0    0    0  0.00000000000E+00  0.00000000000E+00  0.99999998245E-14  0.12509000000E+03  0.12509000000E+03 0.  0.
        -11    1    3    3    0    0  0.58314959111E+01 -0.38951855265E+02  0.84730776925E+01  0.40287050264E+02  0.51100000000E-03 0.  1.
         23    2    1    0    0    0  0.71683045624E+01  0.17658464997E+02 -0.14241103842E+02  0.10129892993E+03  0.98465517774E+02 0.  0.
         11    1    3    3    0    0  0.13368086514E+01  0.56610320262E+02 -0.22714181534E+02  0.61011879668E+02  0.51100000000E-03 0. -1.
         22    1    1    0    0    0 -0.71683045624E+01 -0.17658464997E+02  0.14241103842E+02  0.23791070068E+02  0.00000000000E+00 0. -1.
</event>
<event>
 5    1  0.1059945E-009  0.9118800E+02  0.7815553E-02  0.1125453E+00
         25   -1    0    0    0    0  0.00000000000E+00  0.00000000000E+00  0.99999998245E-14  0.12509000000E+03  0.12509000000E+03 0.  0.
        -11    1    3    3    0    0 -0.31832400506E+02 -0.39645687167E+02 -0.46557680605E+01  0.51056423782E+02  0.51100000000E-03 0. -1.
         23    2    1    0    0    0 -0.32112298538E+02  0.16051586785E+01  0.21497520545E+01  0.92865821412E+02  0.87095712299E+02 0.  0.
         11    1    3    3    0    0 -0.27989803217E+00  0.41250845846E+02  0.68055201150E+01  0.41809397630E+02  0.51100000000E-03 0.  1.
         22    1    1    0    0    0  0.32112298538E+02 -0.16051586785E+01 -0.21497520545E+01  0.32224178588E+02  0.00000000000E+00 0.  1.
</event>
<event>
 5    1  0.1059945E-009  0.9118800E+02  0.7815553E-02  0.1125453E+00
         25   -1    0    0    0    0  0.00000000000E+00  0.00000000000E+00  0.99999998245E-14  0.12509000000E+03  0.12509000000E+03 0.  0.
        -11    1    3    3    0    0  0.24521969624E+02 -0.34293568664E+02  0.43414492013E+02  0.60516063677E+02  0.51100000000E-03 0.  1.
         23    2    1    0    0    0  0.82381316443E+01 -0.71735509904E+01  0.26586660856E+02  0.96346701959E+02  0.91959283360E+02 0.  0.
         11    1    3    3    0    0 -0.16283837980E+02  0.27120017673E+02 -0.16827831157E+02  0.35830638282E+02  0.51100000000E-03 0. -1.
         22    1    1    0    0    0 -0.82381316443E+01  0.71735509904E+01 -0.26586660856E+02  0.28743298041E+02  0.00000000000E+00 0.  1.
</event>
<event>
 5    1  0.1059945E-009  0.9118800E+02  0.7815553E-02  0.1125453E+00
         25   -1    0    0    0    0  0.00000000000E+00  0.00000000000E+00  0.99999998245E-14  0.12509000000E+03  0.12509000000E+03 0.  0.
        -11    1    3    3    0    0 -0.15145242578E+02 -0.32394096506E+02  0.10983886162E+02  0.37408576779E+02  0.51100000000E-03 0. -1.
         23    2    1    0    0    0 -0.17890681635E+02  0.22790427710E+02 -0.65659524746E+01  0.95381553113E+02  0.90636906709E+02 0.  0.
         11    1    3    3    0    0 -0.27454390571E+01  0.55184524216E+02 -0.17549838637E+02  0.57972976334E+02  0.51100000000E-03 0.  1.
         22    1    1    0    0    0  0.17890681635E+02 -0.22790427710E+02  0.65659524746E+01  0.29708446887E+02  0.00000000000E+00 0.  1.
</event>
<event>
 5    1  0.1059945E-009  0.9118800E+02  0.7815553E-02  0.1125453E+00
         25   -1    0    0    0    0  0.00000000000E+00  0.00000000000E+00  0.99999998245E-14  0.12509000000E+03  0.12509000000E+03 0.  0.
        -11    1    3    3    0    0  0.16566278369E+00 -0.34377536943E+02 -0.34456378442E+02  0.48673242197E+02  0.51100000000E-03 0. -1.
         23    2    1    0    0    0  0.81926124568E+01 -0.27959718558E+02  0.99878975344E+01  0.94290278282E+02  0.89118088628E+02 0.  0.
         11    1    3    3    0    0  0.80269496732E+01  0.64178183845E+01  0.44444275976E+02  0.45617036085E+02  0.51100000000E-03 0.  1.
         22    1    1    0    0    0 -0.81926124568E+01  0.27959718558E+02 -0.99878975344E+01  0.30799721718E+02  0.00000000000E+00 0. -1.
</event>
<event>
 5    1  0.1059945E-009  0.9118800E+02  0.7815553E-02  0.1125453E+00
         25   -1    0    0    0    0  0.00000000000E+00  0.00000000000E+00  0.99999998245E-14  0.12509000000E+03  0.12509000000E+03 0.  0.
        -11    1    3    3    0    0  0.22470084720E+02  0.43573301599E+02  0.16817419882E+02  0.51830135358E+02  0.51100000000E-03 0. -1.
         23    2    1    0    0    0  0.30340321323E+02  0.51079670596E+01  0.58072631144E+00  0.94317225206E+02  0.89155904472E+02 0.  0.
         11    1    3    3    0    0  0.78702366030E+01 -0.38465334539E+02 -0.16236693570E+02  0.42487089848E+02  0.51100000000E-03 0.  1.
         22    1    1    0    0    0 -0.30340321323E+02 -0.51079670596E+01 -0.58072631144E+00  0.30772774794E+02  0.00000000000E+00 0.  1.
</event>
<event>
 5    1  0.1059945E-009  0.9118800E+02  0.7815553E-02  0.1125453E+00
         25   -1    0    0    0    0  0.00000000000E+00  0.00000000000E+00  0.99999998245E-14  0.12509000000E+03  0.12509000000E+03 0.  0.
        -11    1    3    3    0    0 -0.68647893873E+00 -0.12324426975E+02 -0.41564006215E+02  0.43358152250E+02  0.51100000000E-03 0.  1.
         23    2    1    0    0    0 -0.90265613522E+01 -0.26349096006E+02  0.84640579583E+01  0.95979968271E+02  0.91459063859E+02 0.  0.
         11    1    3    3    0    0 -0.83400824134E+01 -0.14024669030E+02  0.50028064174E+02  0.52621816021E+02  0.51100000000E-03 0. -1.
         22    1    1    0    0    0  0.90265613522E+01  0.26349096006E+02 -0.84640579583E+01  0.29110031729E+02  0.00000000000E+00 0. -1.
</event>
<event>
 5    1  0.1059945E-009  0.9118800E+02  0.7815553E-02  0.1125453E+00
         25   -1    0    0    0    0  0.00000000000E+00  0.00000000000E+00  0.99999998245E-14  0.12509000000E+03  0.12509000000E+03 0.  0.
        -11    1    3    3    0    0 -0.26676480108E+02  0.37089371013E+02 -0.16345721872E+02  0.48522558227E+02  0.51100000000E-03 0.  1.
         23    2    1    0    0    0 -0.43752883823E+01  0.44696653567E+01 -0.33072351837E+02  0.91431397639E+02  0.85010581467E+02 0.  0.
         11    1    3    3    0    0  0.22301191726E+02 -0.32619705656E+02 -0.16726629966E+02  0.42908839413E+02  0.51100000000E-03 0. -1.
         22    1    1    0    0    0  0.43752883823E+01 -0.44696653567E+01  0.33072351837E+02  0.33658602361E+02  0.00000000000E+00 0.  1.
</event>
<event>
 5    1  0.1059945E-009  0.9118800E+02  0.7815553E-02  0.1125453E+00
         25   -1    0    0    0    0  0.00000000000E+00  0.00000000000E+00  0.99999998245E-14  0.12509000000E+03  0.12509000000E+03 0.  0.
        -11    1    3    3    0    0 -0.25634227899E+02  0.36737813515E+02  0.30606486562E+02  0.54254378642E+02  0.51100000000E-03 0.  1.
         23    2    1    0    0    0  0.58646525190E+01  0.27183614599E+02  0.31789047057E+01  0.97099850179E+02  0.92978128707E+02 0.  0.
         11    1    3    3    0    0  0.31498880419E+02 -0.95541989161E+01 -0.27427581856E+02  0.42845471538E+02  0.51100000000E-03 0. -1.
         22    1    1    0    0    0 -0.58646525190E+01 -0.27183614599E+02 -0.31789047057E+01  0.27990149821E+02  0.00000000000E+00 0.  1.
</event>
<event>
 5    1  0.1059945E-009  0.9118800E+02  0.7815553E-02  0.1125453E+00
         25   -1    0    0    0    0  0.00000000000E+00  0.00000000000E+00  0.99999998245E-14  0.12509000000E+03  0.12509000000E+03 0.  0.
        -11    1    3    3    0    0 -0.33995157831E+02 -0.59769319058E+01  0.51849830341E+02  0.62288035589E+02  0.51100000000E-03 0.  1.
         23    2    1    0    0    0 -0.14646782369E+02 -0.66217401126E+01  0.23886788194E+02  0.96298433073E+02  0.91893600899E+02 0.  0.
         11    1    3    3    0    0  0.19348375462E+02 -0.64480820682E+00 -0.27963042146E+02  0.34010397483E+02  0.51100000000E-03 0. -1.
         22    1    1    0    0    0  0.14646782369E+02  0.66217401126E+01 -0.23886788194E+02  0.28791566927E+02  0.00000000000E+00 0.  1.
</event>
<event>
 5    1  0.1059945E-009  0.9118800E+02  0.7815553E-02  0.1125453E+00
         25   -1    0    0    0    0  0.00000000000E+00  0.00000000000E+00  0.99999998245E-14  0.12509000000E+03  0.12509000000E+03 0.  0.
        -11    1    3    3    0    0  0.38515072501E+02 -0.10028033010E+02 -0.24993798732E+02  0.46996406576E+02  0.51100000000E-03 0. -1.
         23    2    1    0    0    0 -0.13198794544E+01 -0.29559157582E+02 -0.88780225260E+01  0.94198169968E+02  0.88988707501E+02 0.  0.
         11    1    3    3    0    0 -0.39834951955E+02 -0.19531124572E+02  0.16115776206E+02  0.47201763392E+02  0.51100000000E-03 0.  1.
         22    1    1    0    0    0  0.13198794544E+01  0.29559157582E+02  0.88780225260E+01  0.30891830032E+02  0.00000000000E+00 0.  1.
</event>
<event>
 5    1  0.1059945E-009  0.9118800E+02  0.7815553E-02  0.1125453E+00
         25   -1    0    0    0    0  0.00000000000E+00  0.00000000000E+00  0.99999998245E-14  0.12509000000E+03  0.12509000000E+03 0.  0.
        -11    1    3    3    0    0 -0.21856696744E+02  0.14015774983E+02  0.33199458794E+02  0.42146900306E+02  0.51100000000E-03 0.  1.
         23    2    1    0    0    0  0.33078256447E+00 -0.28261131473E+02  0.12484585616E+02  0.94192332657E+02  0.88980501708E+02 0.  0.
         11    1    3    3    0    0  0.22187479308E+02 -0.42276906456E+02 -0.20714873178E+02  0.52045432351E+02  0.51100000000E-03 0. -1.
         22    1    1    0    0    0 -0.33078256447E+00  0.28261131473E+02 -0.12484585616E+02  0.30897667343E+02  0.00000000000E+00 0. -1.
</event>
<event>
 5    1  0.1059945E-009  0.9118800E+02  0.7815553E-02  0.1125453E+00
         25   -1    0    0    0    0  0.00000000000E+00  0.00000000000E+00  0.99999998245E-14  0.12509000000E+03  0.12509000000E+03 0.  0.
        -11    1    3    3    0    0  0.36894312344E+02  0.27087708121E+02 -0.21132344787E+02  0.50413393171E+02  0.51100000000E-03 0.  1.
         23    2    1    0    0    0  0.89263595994E+01 -0.69946747362E+01 -0.27858048915E+02  0.95012163314E+02  0.90125661816E+02 0.  0.
         11    1    3    3    0    0 -0.27967952744E+02 -0.34082382857E+02 -0.67257041287E+01  0.44598770143E+02  0.51100000000E-03 0. -1.
         22    1    1    0    0    0 -0.89263595994E+01  0.69946747362E+01  0.27858048915E+02  0.30077836686E+02  0.00000000000E+00 0.  1.
</event>
<event>
 5    1  0.1059945E-009  0.9118800E+02  0.7815553E-02  0.1125453E+00
         25   -1    0    0    0    0  0.00000000000E+00  0.00000000000E+00  0.99999998245E-14  0.12509000000E+03  0.12509000000E+03 0.  0.
        -11    1    3    3    0    0  0.44219193492E+01  0.61147447494E+01 -0.34164091980E+02  0.34987550002E+02  0.51100000000E-03 0. -1.
         23    2    1    0    0    0 -0.19560979317E+02 -0.42770402142E+01  0.21026739846E+02  0.96054697808E+02  0.91561215575E+02 0.  0.
         11    1    3    3    0    0 -0.23982898666E+02 -0.10391784964E+02  0.55190831826E+02  0.61067147805E+02  0.51100000000E-03 0.  1.
         22    1    1    0    0    0  0.19560979317E+02  0.42770402142E+01 -0.21026739846E+02  0.29035302192E+02  0.00000000000E+00 0.  1.
</event>
<event>
 5    1  0.1059945E-009  0.9118800E+02  0.7815553E-02  0.1125453E+00
         25   -1    0    0    0    0  0.00000000000E+00  0.00000000000E+00  0.99999998245E-14  0.12509000000E+03  0.12509000000E+03 0.  0.
        -11    1    3    3    0    0  0.23614579021E+02  0.11733014525E+02  0.26602252737E+02  0.37456532449E+02  0.51100000000E-03 0. -1.
         23    2    1    0    0    0  0.65458772141E+01 -0.16186979282E+02 -0.22589801611E+02  0.96538888925E+02  0.92220340117E+02 0.  0.
         11    1    3    3    0    0 -0.17068701807E+02 -0.27919993807E+02 -0.49192054348E+02  0.59082356476E+02  0.51100000000E-03 0.  1.
         22    1    1    0    0    0 -0.65458772141E+01  0.16186979282E+02  0.22589801611E+02  0.28551111075E+02  0.00000000000E+00 0.  1.
</event>
<event>
 5    1  0.1059945E-009  0.9118800E+02  0.7815553E-02  0.1125453E+00
         25   -1    0    0    0    0  0.00000000000E+00  0.00000000000E+00  0.99999998245E-14  0.12509000000E+03  0.12509000000E+03 0.  0.
        -11    1    3    3    0    0 -0.16816977539E+02 -0.85177901916E+01  0.32053056869E+02  0.37185507099E+02  0.51100000000E-03 0.  1.
         23    2    1    0    0    0  0.56171673894E+01 -0.19139050799E+02 -0.21225999323E+02  0.95962712412E+02  0.91435459704E+02 0.  0.
         11    1    3    3    0    0  0.22434144928E+02 -0.10621260607E+02 -0.53279056192E+02  0.58777205314E+02  0.51100000000E-03 0. -1.
         22    1    1    0    0    0 -0.56171673894E+01  0.19139050799E+02  0.21225999323E+02  0.29127287588E+02  0.00000000000E+00 0. -1.
</event>
<event>
 5    1  0.1059945E-009  0.9118800E+02  0.7815553E-02  0.1125453E+00
         25   -1    0    0    0    0  0.00000000000E+00  0.00000000000E+00  0.99999998245E-14  0.12509000000E+03  0.12509000000E+03 0.  0.
        -11    1    3    3    0    0  0.19254614771E+02  0.11027071982E+02  0.49559344966E+02  0.54299771456E+02  0.51100000000E-03 0. -1.
         23    2    1    0    0    0  0.76322654159E+01 -0.17204256830E+02  0.26624439891E+02  0.92484805200E+02  0.86546753058E+02 0.  0.
         11    1    3    3    0    0 -0.11622349355E+02 -0.28231328811E+02 -0.22934905075E+02  0.38185033744E+02  0.51100000000E-03 0.  1.
         22    1    1    0    0    0 -0.76322654159E+01  0.17204256830E+02 -0.26624439891E+02  0.32605194800E+02  0.00000000000E+00 0. -1.
</event>
<event>
 5    1  0.1059945E-009  0.9118800E+02  0.7815553E-02  0.1125453E+00
         25   -1    0    0    0    0  0.00000000000E+00  0.00000000000E+00  0.99999998245E-14  0.12509000000E+03  0.12509000000E+03 0.  0.
        -11    1    3    3    0    0 -0.35312559955E+02  0.98143422285E+01  0.34705454237E+02  0.50475407457E+02  0.51100000000E-03 0. -1.
         23    2    1    0    0    0 -0.42454883875E+01  0.29021483767E+02  0.12608872304E+02  0.93164236853E+02  0.87523257915E+02 0.  0.
         11    1    3    3    0    0  0.31067071568E+02  0.19207141539E+02 -0.22096581932E+02  0.42688829396E+02  0.51100000000E-03 0.  1.
         22    1    1    0    0    0  0.42454883875E+01 -0.29021483767E+02 -0.12608872304E+02  0.31925763147E+02  0.00000000000E+00 0. -1.
</event>
<event>
 5    1  0.1059945E-009  0.9118800E+02  0.7815553E-02  0.1125453E+00
         25   -1    0    0    0    0  0.00000000000E+00  0.00000000000E+00  0.99999998245E-14  0.12509000000E+03  0.12509000000E+03 0.  0.
        -11    1    3    3    0    0  0.31231441380E+02 -0.26333452635E+02  0.26329504302E+02  0.48601403841E+02  0.51100000000E-03 0.  1.
         23    2    1    0    0    0  0.12780278793E+02 -0.19864291874E+02 -0.16899535158E+02  0.96046585837E+02  0.91550132412E+02 0.  0.
         11    1    3    3    0    0 -0.18451162587E+02  0.64691607609E+01 -0.43229039460E+02  0.47445181996E+02  0.51100000000E-03 0. -1.
         22    1    1    0    0    0 -0.12780278793E+02  0.19864291874E+02  0.16899535158E+02  0.29043414163E+02  0.00000000000E+00 0.  1.
</event>
<event>
 5    1  0.1059945E-009  0.9118800E+02  0.7815553E-02  0.1125453E+00
         25   -1    0    0    0    0  0.00000000000E+00  0.00000000000E+00  0.99999998245E-14  0.12509000000E+03  0.12509000000E+03 0.  0.
        -11    1    3    3    0    0  0.11882954920E+02 -0.31635006662E+02 -0.17680842409E+02  0.38139093496E+02  0.51100000000E-03 0. -1.
         23    2    1    0    0    0 -0.24528967109E+01  0.24264645574E+02 -0.16094916270E+02  0.95869526752E+02  0.91307886313E+02 0.  0.
         11    1    3    3    0    0 -0.14335851631E+02  0.55899652235E+02  0.15859261394E+01  0.57730433257E+02  0.51100000000E-03 0.  1.
         22    1    1    0    0    0  0.24528967109E+01 -0.24264645574E+02  0.16094916270E+02  0.29220473248E+02  0.00000000000E+00 0.  1.
</event>
<event>
 5    1  0.1059945E-009  0.9118800E+02  0.7815553E-02  0.1125453E+00
         25   -1    0    0    0    0  0.00000000000E+00  0.00000000000E+00  0.99999998245E-14  0.12509000000E+03  0.12509000000E+03 0.  0.
        -11    1    3    3    0    0 -0.29085498730E+02  0.43672378759E+02  0.22015182818E+02  0.56902646491E+02  0.51100000000E-03 0. -1.
         23    2    1    0    0    0 -0.33302747944E+01  0.15602665736E+02  0.25343519153E+02  0.95142915478E+02  0.90306957065E+02 0.  0.
         11    1    3    3    0    0  0.25755223936E+02 -0.28069713024E+02  0.33283363353E+01  0.38240268988E+02  0.51100000000E-03 0.  1.
         22    1    1    0    0    0  0.33302747944E+01 -0.15602665736E+02 -0.25343519153E+02  0.29947084522E+02  0.00000000000E+00 0. -1.
</event>
<event>
 5    1  0.1059945E-009  0.9118800E+02  0.7815553E-02  0.1125453E+00
         25   -1    0    0    0    0  0.00000000000E+00  0.00000000000E+00  0.99999998245E-14  0.12509000000E+03  0.12509000000E+03 0.  0.
        -11    1    3    3    0    0  0.37180788762E+02 -0.95873483781E+01 -0.39843104715E+02  0.55333545842E+02  0.51100000000E-03 0.  1.
         23    2    1    0    0    0  0.17539330518E+02  0.16810360500E+02 -0.15345410755E+02  0.96355039301E+02  0.91970623746E+02 0.  0.
         11    1    3    3    0    0 -0.19641458244E+02  0.26397708878E+02  0.24497693960E+02  0.41021493458E+02  0.51100000000E-03 0. -1.
         22    1    1    0    0    0 -0.17539330518E+02 -0.16810360500E+02  0.15345410755E+02  0.28734960699E+02  0.00000000000E+00 0.  1.
</event>
<event>
 5    1  0.1059945E-009  0.9118800E+02  0.7815553E-02  0.1125453E+00
         25   -1    0    0    0    0  0.00000000000E+00  0.00000000000E+00  0.99999998245E-14  0.12509000000E+03  0.12509000000E+03 0.  0.
        -11    1    3    3    0    0  0.50057279730E+02 -0.24268727936E+02  0.53680612149E+01  0.55888446848E+02  0.51100000000E-03 0. -1.
         23    2    1    0    0    0  0.13619619841E+02 -0.26594369673E+02  0.11805325627E+02  0.92963371542E+02  0.87235704803E+02 0.  0.
         11    1    3    3    0    0 -0.36437659889E+02 -0.23256417365E+01  0.64372644121E+01  0.37074924694E+02  0.51100000000E-03 0.  1.
         22    1    1    0    0    0 -0.13619619841E+02  0.26594369673E+02 -0.11805325627E+02  0.32126628458E+02  0.00000000000E+00 0. -1.
</event>
<event>
 5    1  0.1059945E-009  0.9118800E+02  0.7815553E-02  0.1125453E+00
         25   -1    0    0    0    0  0.00000000000E+00  0.00000000000E+00  0.99999998245E-14  0.12509000000E+03  0.12509000000E+03 0.  0.
        -11    1    3    3    0    0  0.12171100642E+02  0.52709373075E+02  0.50997140889E+01  0.54336183017E+02  0.51100000000E-03 0. -1.
         23    2    1    0    0    0  0.43181084721E+01  0.21465617122E+02 -0.20200911996E+02  0.95299135214E+02  0.90523088480E+02 0.  0.
         11    1    3    3    0    0 -0.78529921696E+01 -0.31243755954E+02 -0.25300626085E+02  0.40962952197E+02  0.51100000000E-03 0.  1.
         22    1    1    0    0    0 -0.43181084721E+01 -0.21465617122E+02  0.20200911996E+02  0.29790864786E+02  0.00000000000E+00 0.  1.
</event>
<event>
 5    1  0.1059945E-009  0.9118800E+02  0.7815553E-02  0.1125453E+00
         25   -1    0    0    0    0  0.00000000000E+00  0.00000000000E+00  0.99999998245E-14  0.12509000000E+03  0.12509000000E+03 0.  0.
        -11    1    3    3    0    0  0.73511593262E+01 -0.18264432551E+02  0.33445948636E+02  0.38810572274E+02  0.51100000000E-03 0. -1.
         23    2    1    0    0    0  0.12978874636E+02 -0.91933180146E+01 -0.23480774587E+02  0.96729551164E+02  0.92478597580E+02 0.  0.
         11    1    3    3    0    0  0.56277153101E+01  0.90711145359E+01 -0.56926723223E+02  0.57918978890E+02  0.51100000000E-03 0.  1.
         22    1    1    0    0    0 -0.12978874636E+02  0.91933180146E+01  0.23480774587E+02  0.28360448836E+02  0.00000000000E+00 0.  1.
</event>
<event>
 5    1  0.1059945E-009  0.9118800E+02  0.7815553E-02  0.1125453E+00
         25   -1    0    0    0    0  0.00000000000E+00  0.00000000000E+00  0.99999998245E-14  0.12509000000E+03  0.12509000000E+03 0.  0.
        -11    1    3    3    0    0  0.47325042258E+02  0.31793679896E+02 -0.21688317198E+02  0.60999023019E+02  0.51100000000E-03 0. -1.
         23    2    1    0    0    0  0.26941689442E+02  0.13366806352E+02 -0.17211591507E+01  0.94965449699E+02  0.90060802270E+02 0.  0.
         11    1    3    3    0    0 -0.20383352816E+02 -0.18426873544E+02  0.19967158048E+02  0.33966426680E+02  0.51100000000E-03 0.  1.
         22    1    1    0    0    0 -0.26941689442E+02 -0.13366806352E+02  0.17211591507E+01  0.30124550301E+02  0.00000000000E+00 0. -1.
</event>
<event>
 5    1  0.1059945E-009  0.9118800E+02  0.7815553E-02  0.1125453E+00
         25   -1    0    0    0    0  0.00000000000E+00  0.00000000000E+00  0.99999998245E-14  0.12509000000E+03  0.12509000000E+03 0.  0.
        -11    1    3    3    0    0 -0.56089662721E+02  0.12036516326E+02 -0.15242282967E+02  0.59357014579E+02  0.51100000000E-03 0.  1.
         23    2    1    0    0    0 -0.20764121428E+02  0.14990816618E+02 -0.16141981851E+02  0.94817291175E+02  0.89854781765E+02 0.  0.
         11    1    3    3    0    0  0.35325541293E+02  0.29543002912E+01 -0.89969888360E+00  0.35460276595E+02  0.51100000000E-03 0. -1.
         22    1    1    0    0    0  0.20764121428E+02 -0.14990816618E+02  0.16141981851E+02  0.30272708825E+02  0.00000000000E+00 0.  1.
</event>
<event>
 5    1  0.1059945E-009  0.9118800E+02  0.7815553E-02  0.1125453E+00
         25   -1    0    0    0    0  0.00000000000E+00  0.00000000000E+00  0.99999998245E-14  0.12509000000E+03  0.12509000000E+03 0.  0.
        -11    1    3    3    0    0  0.12605941687E+02 -0.30699347346E+02 -0.17368766952E+02  0.37457092239E+02  0.51100000000E-03 0.  1.
         23    2    1    0    0    0  0.21410337953E+01  0.75119316835E+01  0.27025157078E+02  0.96958660565E+02  0.92787981981E+02 0.  0.
         11    1    3    3    0    0 -0.10464907892E+02  0.38211279029E+02  0.44393924030E+02  0.59501568326E+02  0.51100000000E-03 0. -1.
         22    1    1    0    0    0 -0.21410337953E+01 -0.75119316835E+01 -0.27025157078E+02  0.28131339435E+02  0.00000000000E+00 0. -1.
</event>
<event>
 5    1  0.1059945E-009  0.9118800E+02  0.7815553E-02  0.1125453E+00
         25   -1    0    0    0    0  0.00000000000E+00  0.00000000000E+00  0.99999998245E-14  0.12509000000E+03  0.12509000000E+03 0.  0.
        -11    1    3    3    0    0 -0.17504346986E+02 -0.38709466243E+02 -0.28864495949E+01  0.42581175791E+02  0.51100000000E-03 0. -1.
         23    2    1    0    0    0 -0.21302637329E+02  0.88636692144E+01  0.19109815079E+02  0.95130827424E+02  0.90290211567E+02 0.  0.
         11    1    3    3    0    0 -0.37982903433E+01  0.47573135458E+02  0.21996264674E+02  0.52549651632E+02  0.51100000000E-03 0.  1.
         22    1    1    0    0    0  0.21302637329E+02 -0.88636692144E+01 -0.19109815079E+02  0.29959172576E+02  0.00000000000E+00 0.  1.
</event>
<event>
 5    1  0.1059945E-009  0.9118800E+02  0.7815553E-02  0.1125453E+00
         25   -1    0    0    0    0  0.00000000000E+00  0.00000000000E+00  0.99999998245E-14  0.12509000000E+03  0.12509000000E+03 0.  0.
        -11    1    3    3    0    0  0.46814340049E+02  0.70338513197E+01 -0.24115286897E+02  0.53128189890E+02  0.51100000000E-03 0. -1.
         23    2    1    0    0    0  0.24453356163E+02  0.19092120934E+01  0.13429121019E+02  0.97126577287E+02  0.93014079610E+02 0.  0.
         11    1    3    3    0    0 -0.22360983885E+02 -0.51246392263E+01  0.37544407916E+02  0.43998387397E+02  0.51100000000E-03 0.  1.
         22    1    1    0    0    0 -0.24453356163E+02 -0.19092120934E+01 -0.13429121019E+02  0.27963422713E+02  0.00000000000E+00 0. -1.
</event>
<event>
 5    1  0.1059945E-009  0.9118800E+02  0.7815553E-02  0.1125453E+00
         25   -1    0    0    0    0  0.00000000000E+00  0.00000000000E+00  0.99999998245E-14  0.12509000000E+03  0.12509000000E+03 0.  0.
        -11    1    3    3    0    0  0.27946726974E+02 -0.19370228728E+02  0.22035934054E+02  0.40519226293E+02  0.51100000000E-03 0. -1.
         23    2    1    0    0    0  0.13958362255E+02  0.21682347300E+02 -0.12942864484E+02  0.96237308577E+02  0.91810357585E+02 0.  0.
         11    1    3    3    0    0 -0.13988364719E+02  0.41052576028E+02 -0.34978798538E+02  0.55718082284E+02  0.51100000000E-03 0.  1.
         22    1    1    0    0    0 -0.13958362255E+02 -0.21682347300E+02  0.12942864484E+02  0.28852691423E+02  0.00000000000E+00 0.  1.
</event>
<event>
 5    1  0.1059945E-009  0.9118800E+02  0.7815553E-02  0.1125453E+00
         25   -1    0    0    0    0  0.00000000000E+00  0.00000000000E+00  0.99999998245E-14  0.12509000000E+03  0.12509000000E+03 0.  0.
        -11    1    3    3    0    0  0.32109550707E+02 -0.11964751446E+02  0.19195367879E+01  0.34320010862E+02  0.51100000000E-03 0.  1.
         23    2    1    0    0    0 -0.17293173793E+02  0.23815091945E+02  0.41951975148E+01  0.95361021774E+02  0.90608566523E+02 0.  0.
         11    1    3    3    0    0 -0.49402724501E+02  0.35779843391E+02  0.22756607269E+01  0.61041010912E+02  0.51100000000E-03 0. -1.
         22    1    1    0    0    0  0.17293173793E+02 -0.23815091945E+02 -0.41951975148E+01  0.29728978226E+02  0.00000000000E+00 0. -1.
</event>
<event>
 5    1  0.1059945E-009  0.9118800E+02  0.7815553E-02  0.1125453E+00
         25   -1    0    0    0    0  0.00000000000E+00  0.00000000000E+00  0.99999998245E-14  0.12509000000E+03  0.12509000000E+03 0.  0.
        -11    1    3    3    0    0  0.29427045224E+01  0.29516043792E+02 -0.52760169964E+02  0.60526786516E+02  0.51100000000E-03 0. -1.
         23    2    1    0    0    0  0.76207352959E+01  0.55398145311E+01 -0.28974246637E+02  0.94622441521E+02  0.89583114033E+02 0.  0.
         11    1    3    3    0    0  0.46780307735E+01 -0.23976229261E+02  0.23785923327E+02  0.34095655006E+02  0.51100000000E-03 0.  1.
         22    1    1    0    0    0 -0.76207352959E+01 -0.55398145311E+01  0.28974246637E+02  0.30467558479E+02  0.00000000000E+00 0. -1.
</event>
<event>
 5    1  0.1059945E-009  0.9118800E+02  0.7815553E-02  0.1125453E+00
         25   -1    0    0    0    0  0.00000000000E+00  0.00000000000E+00  0.99999998245E-14  0.12509000000E+03  0.12509000000E+03 0.  0.
        -11    1    3    3    0    0 -0.26447565709E+02 -0.99463271923E+01 -0.49365194818E+02  0.56879922787E+02  0.51100000000E-03 0. -1.
         23    2    1    0    0    0 -0.25080290546E+02  0.61168876762E+01 -0.14054485636E+02  0.95696703907E+02  0.91070814663E+02 0.  0.
         11    1    3    3    0    0  0.13672751626E+01  0.16063214868E+02  0.35310709182E+02  0.38816781120E+02  0.51100000000E-03 0.  1.
         22    1    1    0    0    0  0.25080290546E+02 -0.61168876762E+01  0.14054485636E+02  0.29393296093E+02  0.00000000000E+00 0. -1.
</event>
<event>
 5    1  0.1059945E-009  0.9118800E+02  0.7815553E-02  0.1125453E+00
         25   -1    0    0    0    0  0.00000000000E+00  0.00000000000E+00  0.99999998245E-14  0.12509000000E+03  0.12509000000E+03 0.  0.
        -11    1    3    3    0    0 -0.41700781754E+02 -0.13992100494E+02 -0.18170188205E+01  0.44023126113E+02  0.51100000000E-03 0.  1.
         23    2    1    0    0    0 -0.10783450616E+02  0.25321895305E+02  0.10667720030E+02  0.95572523149E+02  0.90900086586E+02 0.  0.
         11    1    3    3    0    0  0.30917331138E+02  0.39313995799E+02  0.12484738851E+02  0.51549397036E+02  0.51100000000E-03 0. -1.
         22    1    1    0    0    0  0.10783450616E+02 -0.25321895305E+02 -0.10667720030E+02  0.29517476851E+02  0.00000000000E+00 0. -1.
</event>
<event>
 5    1  0.1059945E-009  0.9118800E+02  0.7815553E-02  0.1125453E+00
         25   -1    0    0    0    0  0.00000000000E+00  0.00000000000E+00  0.99999998245E-14  0.12509000000E+03  0.12509000000E+03 0.  0.
        -11    1    3    3    0    0  0.30016404258E+01 -0.40169761060E+01 -0.31884829892E+02  0.32276745805E+02  0.51100000000E-03 0. -1.
         23    2    1    0    0    0  0.12668784422E+02 -0.88093143805E+01  0.27996678331E+02  0.93122577268E+02  0.87463696931E+02 0.  0.
         11    1    3    3    0    0  0.96671439963E+01 -0.47923382745E+01  0.59881508222E+02  0.60845831463E+02  0.51100000000E-03 0.  1.
         22    1    1    0    0    0 -0.12668784422E+02  0.88093143805E+01 -0.27996678331E+02  0.31967422732E+02  0.00000000000E+00 0.  1.
</event>
<event>
 5    1  0.1059945E-009  0.9118800E+02  0.7815553E-02  0.1125453E+00
         25   -1    0    0    0    0  0.00000000000E+00  0.00000000000E+00  0.99999998245E-14  0.12509000000E+03  0.12509000000E+03 0.  0.
        -11    1    3    3    0    0  0.61978361816E+02 -0.55631272434E+01  0.18123475948E+01  0.62253918128E+02  0.51100000000E-03 0. -1.
         23    2    1    0    0    0  0.27794472825E+02 -0.67507621165E+01  0.11251733152E+01  0.96465333648E+02  0.92120513850E+02 0.  0.
         11    1    3    3    0    0 -0.34183888991E+02 -0.11876348731E+01 -0.68717427961E+00  0.34211415520E+02  0.51100000000E-03 0.  1.
         22    1    1    0    0    0 -0.27794472825E+02  0.67507621165E+01 -0.11251733152E+01  0.28624666352E+02  0.00000000000E+00 0. -1.
</event>
<event>
 5    1  0.1059945E-009  0.9118800E+02  0.7815553E-02  0.1125453E+00
         25   -1    0    0    0    0  0.00000000000E+00  0.00000000000E+00  0.99999998245E-14  0.12509000000E+03  0.12509000000E+03 0.  0.
        -11    1    3    3    0    0 -0.32786875188E+02 -0.49508539896E+02  0.82433179567E+01  0.59950204323E+02  0.51100000000E-03 0.  1.
         23    2    1    0    0    0 -0.30242260314E+02 -0.23894397592E+02  0.81719998668E+01  0.85690531387E+02  0.76095657185E+02 0.  0.
         11    1    3    3    0    0  0.25446148743E+01  0.25614142304E+02 -0.71318089889E-01  0.25740327064E+02  0.51100000000E-03 0. -1.
         22    1    1    0    0    0  0.30242260314E+02  0.23894397592E+02 -0.81719998668E+01  0.39399468613E+02  0.00000000000E+00 0.  1.
</event>
<event>
 5    1  0.1059945E-009  0.9118800E+02  0.7815553E-02  0.1125453E+00
         25   -1    0    0    0    0  0.00000000000E+00  0.00000000000E+00  0.99999998245E-14  0.12509000000E+03  0.12509000000E+03 0.  0.
        -11    1    3    3    0    0  0.40187206247E+02  0.39875845955E+02 -0.78639751453E+01  0.57157123282E+02  0.51100000000E-03 0. -1.
         23    2    1    0    0    0  0.24474550175E+02  0.11169141901E+02  0.12207114394E+02  0.95547370143E+02  0.90865466280E+02 0.  0.
         11    1    3    3    0    0 -0.15712656072E+02 -0.28706704054E+02  0.20071089539E+02  0.38390246861E+02  0.51100000000E-03 0.  1.
         22    1    1    0    0    0 -0.24474550175E+02 -0.11169141901E+02 -0.12207114394E+02  0.29542629857E+02  0.00000000000E+00 0. -1.
</event>
<event>
 5    1  0.1059945E-009  0.9118800E+02  0.7815553E-02  0.1125453E+00
         25   -1    0    0    0    0  0.00000000000E+00  0.00000000000E+00  0.99999998245E-14  0.12509000000E+03  0.12509000000E+03 0.  0.
        -11    1    3    3    0    0 -0.20924859798E+02 -0.16563005679E+02 -0.20739029182E+02  0.33797784637E+02  0.51100000000E-03 0.  1.
         23    2    1    0    0    0  0.94730971044E+01  0.19082795479E+02  0.19990707891E+02  0.95874917354E+02  0.91315271031E+02 0.  0.
         11    1    3    3    0    0  0.30397956902E+02  0.35645801158E+02  0.40729737073E+02  0.62077132717E+02  0.51100000000E-03 0. -1.
         22    1    1    0    0    0 -0.94730971044E+01 -0.19082795479E+02 -0.19990707891E+02  0.29215082646E+02  0.00000000000E+00 0. -1.
</event>
<event>
 5    1  0.1059945E-009  0.9118800E+02  0.7815553E-02  0.1125453E+00
         25   -1    0    0    0    0  0.00000000000E+00  0.00000000000E+00  0.99999998245E-14  0.12509000000E+03  0.12509000000E+03 0.  0.
        -11    1    3    3    0    0  0.32905448013E+02 -0.63413366878E+01  0.45350158924E+01  0.33816378122E+02  0.51100000000E-03 0.  1.
         23    2    1    0    0    0 -0.13696277730E+02 -0.33692960873E+02 -0.39186969559E+01  0.88509133117E+02  0.80595947934E+02 0.  0.
         11    1    3    3    0    0 -0.46601725743E+02 -0.27351624185E+02 -0.84537128483E+01  0.54692754995E+02  0.51100000000E-03 0. -1.
         22    1    1    0    0    0  0.13696277730E+02  0.33692960873E+02  0.39186969559E+01  0.36580866883E+02  0.00000000000E+00 0. -1.
</event>
<event>
 5    1  0.1059945E-009  0.9118800E+02  0.7815553E-02  0.1125453E+00
         25   -1    0    0    0    0  0.00000000000E+00  0.00000000000E+00  0.99999998245E-14  0.12509000000E+03  0.12509000000E+03 0.  0.
        -11    1    3    3    0    0 -0.17452095923E+02 -0.29181487395E+02 -0.10325694456E+02  0.35535261712E+02  0.51100000000E-03 0.  1.
         23    2    1    0    0    0 -0.82941811097E+01  0.22238437016E+02  0.18322864669E+02  0.95105522501E+02  0.90255146775E+02 0.  0.
         11    1    3    3    0    0  0.91579148132E+01  0.51419924412E+02  0.28648559125E+02  0.59570260789E+02  0.51100000000E-03 0. -1.
         22    1    1    0    0    0  0.82941811097E+01 -0.22238437016E+02 -0.18322864669E+02  0.29984477499E+02  0.00000000000E+00 0. -1.
</event>
<event>
 5    1  0.1059945E-009  0.9118800E+02  0.7815553E-02  0.1125453E+00
         25   -1    0    0    0    0  0.00000000000E+00  0.00000000000E+00  0.99999998245E-14  0.12509000000E+03  0.12509000000E+03 0.  0.
        -11    1    3    3    0    0 -0.15896763541E+02  0.41906141606E+02 -0.18180091413E+02  0.48366801831E+02  0.51100000000E-03 0. -1.
         23    2    1    0    0    0  0.92044854745E+00  0.19979799249E+02  0.20855903843E+02  0.96193489334E+02  0.91750635210E+02 0.  0.
         11    1    3    3    0    0  0.16817212088E+02 -0.21926342356E+02  0.39035995256E+02  0.47826687502E+02  0.51100000000E-03 0.  1.
         22    1    1    0    0    0 -0.92044854745E+00 -0.19979799249E+02 -0.20855903843E+02  0.28896510666E+02  0.00000000000E+00 0.  1.
</event>
<event>
 5    1  0.1059945E-009  0.9118800E+02  0.7815553E-02  0.1125453E+00
         25   -1    0    0    0    0  0.00000000000E+00  0.00000000000E+00  0.99999998245E-14  0.12509000000E+03  0.12509000000E+03 0.  0.
        -11    1    3    3    0    0  0.31250940819E+02 -0.12404759073E+02 -0.23713804375E+02  0.41144183889E+02  0.51100000000E-03 0. -1.
         23    2    1    0    0    0  0.12528470010E+02  0.16168759360E+02  0.19905571382E+02  0.96548396820E+02  0.92233235964E+02 0.  0.
         11    1    3    3    0    0 -0.18722470808E+02  0.28573518434E+02  0.43619375757E+02  0.55404212931E+02  0.51100000000E-03 0.  1.
         22    1    1    0    0    0 -0.12528470010E+02 -0.16168759360E+02 -0.19905571382E+02  0.28541603180E+02  0.00000000000E+00 0.  1.
</event>
<event>
 5    1  0.1059945E-009  0.9118800E+02  0.7815553E-02  0.1125453E+00
         25   -1    0    0    0    0  0.00000000000E+00  0.00000000000E+00  0.99999998245E-14  0.12509000000E+03  0.12509000000E+03 0.  0.
        -11    1    3    3    0    0 -0.42121865023E+02 -0.23348530055E+01  0.25264994839E+02  0.49173397443E+02  0.51100000000E-03 0. -1.
         23    2    1    0    0    0 -0.21636015466E+02 -0.19710374420E+02 -0.10581488693E+02  0.93967918964E+02  0.88664456613E+02 0.  0.
         11    1    3    3    0    0  0.20485849557E+02 -0.17375521415E+02 -0.35846483531E+02  0.44794521521E+02  0.51100000000E-03 0.  1.
         22    1    1    0    0    0  0.21636015466E+02  0.19710374420E+02  0.10581488693E+02  0.31122081036E+02  0.00000000000E+00 0.  1.
</event>
<event>
 5    1  0.1059945E-009  0.9118800E+02  0.7815553E-02  0.1125453E+00
         25   -1    0    0    0    0  0.00000000000E+00  0.00000000000E+00  0.99999998245E-14  0.12509000000E+03  0.12509000000E+03 0.  0.
        -11    1    3    3    0    0  0.32013511216E+02  0.15400804852E+02 -0.51778423799E+01  0.35900692785E+02  0.51100000000E-03 0.  1.
         23    2    1    0    0    0 -0.27301999727E+02  0.11210182238E+02 -0.32814986704E+01  0.95394282995E+02  0.90654473799E+02 0.  0.
         11    1    3    3    0    0 -0.59315510943E+02 -0.41906226138E+01  0.18963437095E+01  0.59493590210E+02  0.51100000000E-03 0. -1.
         22    1    1    0    0    0  0.27301999727E+02 -0.11210182238E+02  0.32814986704E+01  0.29695717005E+02  0.00000000000E+00 0. -1.
</event>
<event>
 5    1  0.1059945E-009  0.9118800E+02  0.7815553E-02  0.1125453E+00
         25   -1    0    0    0    0  0.00000000000E+00  0.00000000000E+00  0.99999998245E-14  0.12509000000E+03  0.12509000000E+03 0.  0.
        -11    1    3    3    0    0 -0.75060527267E+01  0.10990576145E+02 -0.57728649977E+02  0.59242979499E+02  0.51100000000E-03 0. -1.
         23    2    1    0    0    0 -0.17726238700E+01 -0.92277828792E+01 -0.27256458615E+02  0.96259309608E+02  0.91840328711E+02 0.  0.
         11    1    3    3    0    0  0.57334288566E+01 -0.20218359024E+02  0.30472191362E+02  0.37016330109E+02  0.51100000000E-03 0.  1.
         22    1    1    0    0    0  0.17726238700E+01  0.92277828792E+01  0.27256458615E+02  0.28830690392E+02  0.00000000000E+00 0. -1.
</event>
<event>
 5    1  0.1059945E-009  0.9118800E+02  0.7815553E-02  0.1125453E+00
         25   -1    0    0    0    0  0.00000000000E+00  0.00000000000E+00  0.99999998245E-14  0.12509000000E+03  0.12509000000E+03 0.  0.
        -11    1    3    3    0    0 -0.38760365510E+02 -0.21732019485E+02 -0.37247159684E+02  0.57982734587E+02  0.51100000000E-03 0.  1.
         23    2    1    0    0    0 -0.68206985137E+01 -0.22591847478E+02 -0.12584324600E+02  0.98345304707E+02  0.94638893863E+02 0.  0.
         11    1    3    3    0    0  0.31939666997E+02 -0.85982799272E+00  0.24662835084E+02  0.40362570120E+02  0.51100000000E-03 0. -1.
         22    1    1    0    0    0  0.68206985137E+01  0.22591847478E+02  0.12584324600E+02  0.26744695293E+02  0.00000000000E+00 0.  1.
</event>
<event>
 5    1  0.1059945E-009  0.9118800E+02  0.7815553E-02  0.1125453E+00
         25   -1    0    0    0    0  0.00000000000E+00  0.00000000000E+00  0.99999998245E-14  0.12509000000E+03  0.12509000000E+03 0.  0.
        -11    1    3    3    0    0  0.21208737359E+02 -0.24690268981E+02  0.17334704413E+02  0.36876983337E+02  0.51100000000E-03 0. -1.
         23    2    1    0    0    0 -0.23691142016E+02 -0.57464969996E+01 -0.16009257059E+02  0.95925145305E+02  0.91384050864E+02 0.  0.
         11    1    3    3    0    0 -0.44899879376E+02  0.18943771982E+02 -0.33343961472E+02  0.59048161967E+02  0.51100000000E-03 0.  1.
         22    1    1    0    0    0  0.23691142016E+02  0.57464969996E+01  0.16009257059E+02  0.29164854695E+02  0.00000000000E+00 0.  1.
</event>
<event>
 5    1  0.1059945E-009  0.9118800E+02  0.7815553E-02  0.1125453E+00
         25   -1    0    0    0    0  0.00000000000E+00  0.00000000000E+00  0.99999998245E-14  0.12509000000E+03  0.12509000000E+03 0.  0.
        -11    1    3    3    0    0  0.33561896918E+02 -0.99474380346E+01  0.24824427111E+02  0.42913921166E+02  0.51100000000E-03 0. -1.
         23    2    1    0    0    0  0.29315465744E+01 -0.25204551152E+02 -0.15151679980E+02  0.95536036301E+02  0.90849862200E+02 0.  0.
         11    1    3    3    0    0 -0.30630350344E+02 -0.15257113118E+02 -0.39976107091E+02  0.52622115135E+02  0.51100000000E-03 0.  1.
         22    1    1    0    0    0 -0.29315465744E+01  0.25204551152E+02  0.15151679980E+02  0.29553963699E+02  0.00000000000E+00 0.  1.
</event>
<event>
 5    1  0.1059945E-009  0.9118800E+02  0.7815553E-02  0.1125453E+00
         25   -1    0    0    0    0  0.00000000000E+00  0.00000000000E+00  0.99999998245E-14  0.12509000000E+03  0.12509000000E+03 0.  0.
        -11    1    3    3    0    0 -0.40530719313E+02  0.16900917754E+02 -0.82689100665E+01  0.44685065770E+02  0.51100000000E-03 0.  1.
         23    2    1    0    0    0 -0.11324811254E+02 -0.28005824756E+01  0.27700500992E+02  0.95033181017E+02  0.90154828639E+02 0.  0.
         11    1    3    3    0    0  0.29205908059E+02 -0.19701500229E+02  0.35969411058E+02  0.50348115247E+02  0.51100000000E-03 0. -1.
         22    1    1    0    0    0  0.11324811254E+02  0.28005824756E+01 -0.27700500992E+02  0.30056818983E+02  0.00000000000E+00 0. -1.
</event>
<event>
 5    1  0.1059945E-009  0.9118800E+02  0.7815553E-02  0.1125453E+00
         25   -1    0    0    0    0  0.00000000000E+00  0.00000000000E+00  0.99999998245E-14  0.12509000000E+03  0.12509000000E+03 0.  0.
        -11    1    3    3    0    0  0.51034040441E+02 -0.30014279269E+02  0.13220867141E+02  0.60664005571E+02  0.51100000000E-03 0.  1.
         23    2    1    0    0    0  0.30667384983E+02 -0.65083032038E+01  0.21936412849E+01  0.93662964277E+02  0.88233170082E+02 0.  0.
         11    1    3    3    0    0 -0.20366655458E+02  0.23505976065E+02 -0.11027225856E+02  0.32998958706E+02  0.51100000000E-03 0. -1.
         22    1    1    0    0    0 -0.30667384983E+02  0.65083032038E+01 -0.21936412849E+01  0.31427035723E+02  0.00000000000E+00 0.  1.
</event>
<event>
 5    1  0.1059945E-009  0.9118800E+02  0.7815553E-02  0.1125453E+00
         25   -1    0    0    0    0  0.00000000000E+00  0.00000000000E+00  0.99999998245E-14  0.12509000000E+03  0.12509000000E+03 0.  0.
        -11    1    3    3    0    0 -0.24137958558E+02  0.53263256296E+02 -0.25564312226E+01  0.58533331150E+02  0.51100000000E-03 0. -1.
         23    2    1    0    0    0  0.10281750173E+01  0.27202637748E+02  0.87686743586E+01  0.96490519335E+02  0.92154707027E+02 0.  0.
         11    1    3    3    0    0  0.25166133575E+02 -0.26060618549E+02  0.11325105581E+02  0.37957188185E+02  0.51100000000E-03 0.  1.
         22    1    1    0    0    0 -0.10281750173E+01 -0.27202637748E+02 -0.87686743586E+01  0.28599480665E+02  0.00000000000E+00 0. -1.
</event>
<event>
 5    1  0.1059945E-009  0.9118800E+02  0.7815553E-02  0.1125453E+00
         25   -1    0    0    0    0  0.00000000000E+00  0.00000000000E+00  0.99999998245E-14  0.12509000000E+03  0.12509000000E+03 0.  0.
        -11    1    3    3    0    0  0.32067328571E+02  0.16249208151E+01 -0.12520759385E+02  0.34463362360E+02  0.51100000000E-03 0.  1.
         23    2    1    0    0    0 -0.27970779142E+02  0.57957439388E+01  0.22636340682E+01  0.96435520894E+02  0.92080022357E+02 0.  0.
         11    1    3    3    0    0 -0.60038107713E+02  0.41708231237E+01  0.14784393453E+02  0.61972158534E+02  0.51100000000E-03 0. -1.
         22    1    1    0    0    0  0.27970779142E+02 -0.57957439388E+01 -0.22636340682E+01  0.28654479106E+02  0.00000000000E+00 0. -1.
</event>
<event>
 5    1  0.1059945E-009  0.9118800E+02  0.7815553E-02  0.1125453E+00
         25   -1    0    0    0    0  0.00000000000E+00  0.00000000000E+00  0.99999998245E-14  0.12509000000E+03  0.12509000000E+03 0.  0.
        -11    1    3    3    0    0  0.21563535921E+02 -0.36130870997E+02  0.37665577015E+01  0.42244678689E+02  0.51100000000E-03 0.  1.
         23    2    1    0    0    0 -0.22554788532E+02 -0.91420355824E+01  0.16722432634E+02  0.95561453583E+02  0.90884852189E+02 0.  0.
         11    1    3    3    0    0 -0.44118324453E+02  0.26988835414E+02  0.12955874932E+02  0.53316774894E+02  0.51100000000E-03 0. -1.
         22    1    1    0    0    0  0.22554788532E+02  0.91420355824E+01 -0.16722432634E+02  0.29528546417E+02  0.00000000000E+00 0. -1.
</event>
<event>
 5    1  0.1059945E-009  0.9118800E+02  0.7815553E-02  0.1125453E+00
         25   -1    0    0    0    0  0.00000000000E+00  0.00000000000E+00  0.99999998245E-14  0.12509000000E+03  0.12509000000E+03 0.  0.
        -11    1    3    3    0    0  0.47413345035E+02 -0.31072415541E+02  0.60198568493E+01  0.57006657257E+02  0.51100000000E-03 0. -1.
         23    2    1    0    0    0  0.16270563338E+02 -0.18854335711E+02 -0.14519380168E+02  0.96262415868E+02  0.91844559456E+02 0.  0.
         11    1    3    3    0    0 -0.31142781697E+02  0.12218079829E+02 -0.20539237017E+02  0.39255758610E+02  0.51100000000E-03 0.  1.
         22    1    1    0    0    0 -0.16270563338E+02  0.18854335711E+02  0.14519380168E+02  0.28827584132E+02  0.00000000000E+00 0. -1.
</event>
<event>
 5    1  0.1059945E-009  0.9118800E+02  0.7815553E-02  0.1125453E+00
         25   -1    0    0    0    0  0.00000000000E+00  0.00000000000E+00  0.99999998245E-14  0.12509000000E+03  0.12509000000E+03 0.  0.
        -11    1    3    3    0    0  0.27898526317E+02  0.43466339750E+02 -0.27898221496E+02  0.58702310217E+02  0.51100000000E-03 0.  1.
         23    2    1    0    0    0 -0.90384410371E+00  0.26181283162E+02 -0.82152708173E+01  0.97635178988E+02  0.93695576092E+02 0.  0.
         11    1    3    3    0    0 -0.28802370421E+02 -0.17285056588E+02  0.19682950678E+02  0.38932868771E+02  0.51100000000E-03 0. -1.
         22    1    1    0    0    0  0.90384410371E+00 -0.26181283162E+02  0.82152708173E+01  0.27454821012E+02  0.00000000000E+00 0.  1.
</event>
<event>
 5    1  0.1059945E-009  0.9118800E+02  0.7815553E-02  0.1125453E+00
         25   -1    0    0    0    0  0.00000000000E+00  0.00000000000E+00  0.99999998245E-14  0.12509000000E+03  0.12509000000E+03 0.  0.
        -11    1    3    3    0    0  0.24685744276E+02  0.53037487561E+02  0.96709598665E+01  0.59294928301E+02  0.51100000000E-03 0. -1.
         23    2    1    0    0    0  0.16609740146E+02  0.23807469123E+02 -0.87430952148E+01  0.94772995404E+02  0.89793094891E+02 0.  0.
         11    1    3    3    0    0 -0.80760041295E+01 -0.29230018437E+02 -0.18414055081E+02  0.35478067103E+02  0.51100000000E-03 0.  1.
         22    1    1    0    0    0 -0.16609740146E+02 -0.23807469123E+02  0.87430952148E+01  0.30317004596E+02  0.00000000000E+00 0. -1.
</event>
<event>
 5    1  0.1059945E-009  0.9118800E+02  0.7815553E-02  0.1125453E+00
         25   -1    0    0    0    0  0.00000000000E+00  0.00000000000E+00  0.99999998245E-14  0.12509000000E+03  0.12509000000E+03 0.  0.
        -11    1    3    3    0    0 -0.44952459650E+02  0.29940220183E+02 -0.29050504832E+02  0.61327581433E+02  0.51100000000E-03 0. -1.
         23    2    1    0    0    0 -0.26431495427E+02  0.85425867862E+01 -0.94641108561E+01  0.95744316607E+02  0.91136189456E+02 0.  0.
         11    1    3    3    0    0  0.18520964223E+02 -0.21397633397E+02  0.19586393976E+02  0.34416735173E+02  0.51100000000E-03 0.  1.
         22    1    1    0    0    0  0.26431495427E+02 -0.85425867862E+01  0.94641108561E+01  0.29345683393E+02  0.00000000000E+00 0. -1.
</event>
<event>
 5    1  0.1059945E-009  0.9118800E+02  0.7815553E-02  0.1125453E+00
         25   -1    0    0    0    0  0.00000000000E+00  0.00000000000E+00  0.99999998245E-14  0.12509000000E+03  0.12509000000E+03 0.  0.
        -11    1    3    3    0    0 -0.34966883300E+02  0.77419627068E+01  0.87496180172E+01  0.36867014118E+02  0.51100000000E-03 0. -1.
         23    2    1    0    0    0  0.24623905914E+02 -0.51563029876E+01  0.10417294284E+02  0.97860526571E+02  0.93995949049E+02 0.  0.
         11    1    3    3    0    0  0.59590789214E+02 -0.12898265694E+02  0.16676762673E+01  0.60993512454E+02  0.51100000000E-03 0.  1.
         22    1    1    0    0    0 -0.24623905914E+02  0.51563029876E+01 -0.10417294284E+02  0.27229473429E+02  0.00000000000E+00 0.  1.
</event>
<event>
 5    1  0.1059945E-009  0.9118800E+02  0.7815553E-02  0.1125453E+00
         25   -1    0    0    0    0  0.00000000000E+00  0.00000000000E+00  0.99999998245E-14  0.12509000000E+03  0.12509000000E+03 0.  0.
        -11    1    3    3    0    0  0.15423690567E+02 -0.11391858622E+02  0.28570555179E+02  0.34408448048E+02  0.51100000000E-03 0. -1.
         23    2    1    0    0    0 -0.12330968389E+02  0.17747928109E+02 -0.18716111426E+02  0.96500936348E+02  0.92168845906E+02 0.  0.
         11    1    3    3    0    0 -0.27754658956E+02  0.29139786731E+02 -0.47286666605E+02  0.62092488300E+02  0.51100000000E-03 0.  1.
         22    1    1    0    0    0  0.12330968389E+02 -0.17747928109E+02  0.18716111426E+02  0.28589063652E+02  0.00000000000E+00 0.  1.
</event>
<event>
 5    1  0.1059945E-009  0.9118800E+02  0.7815553E-02  0.1125453E+00
         25   -1    0    0    0    0  0.00000000000E+00  0.00000000000E+00  0.99999998245E-14  0.12509000000E+03  0.12509000000E+03 0.  0.
        -11    1    3    3    0    0 -0.30449252251E+02  0.13265154731E+02  0.59369116843E+01  0.33739712703E+02  0.51100000000E-03 0.  1.
         23    2    1    0    0    0  0.27531664721E+02 -0.90923514379E+01  0.97970387231E+00  0.96079256531E+02  0.91594761307E+02 0.  0.
         11    1    3    3    0    0  0.57980916972E+02 -0.22357506169E+02 -0.49572078120E+01  0.62339543827E+02  0.51100000000E-03 0. -1.
         22    1    1    0    0    0 -0.27531664721E+02  0.90923514379E+01 -0.97970387231E+00  0.29010743469E+02  0.00000000000E+00 0. -1.
</event>
<event>
 5    1  0.1059945E-009  0.9118800E+02  0.7815553E-02  0.1125453E+00
         25   -1    0    0    0    0  0.00000000000E+00  0.00000000000E+00  0.99999998245E-14  0.12509000000E+03  0.12509000000E+03 0.  0.
        -11    1    3    3    0    0  0.45157875085E+02 -0.69293913234E+01 -0.11589765993E+01  0.45701130985E+02  0.51100000000E-03 0.  1.
         23    2    1    0    0    0  0.31737002925E+01 -0.30523493396E+02 -0.49311678307E+01  0.94008294145E+02  0.88721400627E+02 0.  0.
         11    1    3    3    0    0 -0.41984174792E+02 -0.23594102073E+02 -0.37721912315E+01  0.48307163160E+02  0.51100000000E-03 0. -1.
         22    1    1    0    0    0 -0.31737002925E+01  0.30523493396E+02  0.49311678307E+01  0.31081705855E+02  0.00000000000E+00 0.  1.
</event>
<event>
 5    1  0.1059945E-009  0.9118800E+02  0.7815553E-02  0.1125453E+00
         25   -1    0    0    0    0  0.00000000000E+00  0.00000000000E+00  0.99999998245E-14  0.12509000000E+03  0.12509000000E+03 0.  0.
        -11    1    3    3    0    0 -0.17933657743E+02  0.43848245498E+02 -0.44361026560E+01  0.47581127775E+02  0.51100000000E-03 0.  1.
         23    2    1    0    0    0 -0.28249395967E+02 -0.30979733427E+01  0.40289781159E+01  0.96387065028E+02  0.92014171891E+02 0.  0.
         11    1    3    3    0    0 -0.10315738224E+02 -0.46946218840E+02  0.84650807719E+01  0.48805937254E+02  0.51100000000E-03 0. -1.
         22    1    1    0    0    0  0.28249395967E+02  0.30979733427E+01 -0.40289781159E+01  0.28702934972E+02  0.00000000000E+00 0.  1.
</event>
<event>
 5    1  0.1059945E-009  0.9118800E+02  0.7815553E-02  0.1125453E+00
         25   -1    0    0    0    0  0.00000000000E+00  0.00000000000E+00  0.99999998245E-14  0.12509000000E+03  0.12509000000E+03 0.  0.
        -11    1    3    3    0    0 -0.41141119927E+02  0.41041848715E+02 -0.11484829347E+02  0.59236191642E+02  0.51100000000E-03 0.  1.
         23    2    1    0    0    0 -0.11047997280E+02  0.20654777767E+02 -0.17197249873E+02  0.96031034229E+02  0.91528880925E+02 0.  0.
         11    1    3    3    0    0  0.30093122647E+02 -0.20387070949E+02 -0.57124205256E+01  0.36794842588E+02  0.51100000000E-03 0. -1.
         22    1    1    0    0    0  0.11047997280E+02 -0.20654777767E+02  0.17197249873E+02  0.29058965771E+02  0.00000000000E+00 0.  1.
</event>
<event>
 5    1  0.1059945E-009  0.9118800E+02  0.7815553E-02  0.1125453E+00
         25   -1    0    0    0    0  0.00000000000E+00  0.00000000000E+00  0.99999998245E-14  0.12509000000E+03  0.12509000000E+03 0.  0.
        -11    1    3    3    0    0 -0.17781285933E+01  0.27775131720E+02 -0.25196890832E+02  0.37543348162E+02  0.51100000000E-03 0. -1.
         23    2    1    0    0    0 -0.13828152668E+02 -0.25519174409E+02 -0.60447487703E+01  0.95442317857E+02  0.90720730715E+02 0.  0.
         11    1    3    3    0    0 -0.12050024075E+02 -0.53294306129E+02  0.19152142062E+02  0.57898969695E+02  0.51100000000E-03 0.  1.
         22    1    1    0    0    0  0.13828152668E+02  0.25519174409E+02  0.60447487703E+01  0.29647682143E+02  0.00000000000E+00 0.  1.
</event>
<event>
 5    1  0.1059945E-009  0.9118800E+02  0.7815553E-02  0.1125453E+00
         25   -1    0    0    0    0  0.00000000000E+00  0.00000000000E+00  0.99999998245E-14  0.12509000000E+03  0.12509000000E+03 0.  0.
        -11    1    3    3    0    0 -0.69462800126E+01 -0.27957327904E+02 -0.17666251168E+02  0.33792890083E+02  0.51100000000E-03 0.  1.
         23    2    1    0    0    0 -0.71933832694E+01  0.26970977656E+01  0.32012448874E+02  0.92168639425E+02  0.86088571316E+02 0.  0.
         11    1    3    3    0    0 -0.24710325685E+00  0.30654425670E+02  0.49678700042E+02  0.58375749342E+02  0.51100000000E-03 0. -1.
         22    1    1    0    0    0  0.71933832694E+01 -0.26970977656E+01 -0.32012448874E+02  0.32921360575E+02  0.00000000000E+00 0. -1.
</event>
<event>
 5    1  0.1059945E-009  0.9118800E+02  0.7815553E-02  0.1125453E+00
         25   -1    0    0    0    0  0.00000000000E+00  0.00000000000E+00  0.99999998245E-14  0.12509000000E+03  0.12509000000E+03 0.  0.
        -11    1    3    3    0    0 -0.61119320425E-01  0.40383974755E+02 -0.33309993416E+02  0.52349066985E+02  0.51100000000E-03 0.  1.
         23    2    1    0    0    0 -0.48193832397E+01  0.17747708748E+01 -0.33447385400E+02  0.91250616783E+02  0.84744151460E+02 0.  0.
         11    1    3    3    0    0 -0.47582639192E+01 -0.38609203880E+02 -0.13739198354E+00  0.38901549797E+02  0.51100000000E-03 0. -1.
         22    1    1    0    0    0  0.48193832397E+01 -0.17747708748E+01  0.33447385400E+02  0.33839383217E+02  0.00000000000E+00 0.  1.
</event>
<event>
 5    1  0.1059945E-009  0.9118800E+02  0.7815553E-02  0.1125453E+00
         25   -1    0    0    0    0  0.00000000000E+00  0.00000000000E+00  0.99999998245E-14  0.12509000000E+03  0.12509000000E+03 0.  0.
        -11    1    3    3    0    0  0.72764238709E+01 -0.75230709955E+01 -0.35976695185E+02  0.37468193688E+02  0.51100000000E-03 0.  1.
         23    2    1    0    0    0 -0.17556852458E+02 -0.18300694069E+02  0.15313840129E+02  0.95464467580E+02  0.90751266654E+02 0.  0.
         11    1    3    3    0    0 -0.24833276329E+02 -0.10777623073E+02  0.51290535314E+02  0.57996273893E+02  0.51100000000E-03 0. -1.
         22    1    1    0    0    0  0.17556852458E+02  0.18300694069E+02 -0.15313840129E+02  0.29625532420E+02  0.00000000000E+00 0. -1.
</event>
<event>
 5    1  0.1059945E-009  0.9118800E+02  0.7815553E-02  0.1125453E+00
         25   -1    0    0    0    0  0.00000000000E+00  0.00000000000E+00  0.99999998245E-14  0.12509000000E+03  0.12509000000E+03 0.  0.
        -11    1    3    3    0    0  0.13933231608E+02 -0.34072660896E+02  0.12016043426E+02  0.38722944923E+02  0.51100000000E-03 0.  1.
         23    2    1    0    0    0  0.21836497680E+02  0.18103198342E+02 -0.87098416530E+01  0.95418131795E+02  0.90687375706E+02 0.  0.
         11    1    3    3    0    0  0.79032660721E+01  0.52175859238E+02 -0.20725885080E+02  0.56695186872E+02  0.51100000000E-03 0. -1.
         22    1    1    0    0    0 -0.21836497680E+02 -0.18103198342E+02  0.87098416530E+01  0.29671868205E+02  0.00000000000E+00 0. -1.
</event>
<event>
 5    1  0.1059945E-009  0.9118800E+02  0.7815553E-02  0.1125453E+00
         25   -1    0    0    0    0  0.00000000000E+00  0.00000000000E+00  0.99999998245E-14  0.12509000000E+03  0.12509000000E+03 0.  0.
        -11    1    3    3    0    0  0.44773120003E+02 -0.28221793237E+02  0.21856560344E+02  0.57260903928E+02  0.51100000000E-03 0. -1.
         23    2    1    0    0    0  0.26091826007E+02  0.34633232413E+01  0.29886077487E+01  0.98600195008E+02  0.94975200379E+02 0.  0.
         11    1    3    3    0    0 -0.18681293996E+02  0.31685116478E+02 -0.18867952595E+02  0.41339291080E+02  0.51100000000E-03 0.  1.
         22    1    1    0    0    0 -0.26091826007E+02 -0.34633232413E+01 -0.29886077487E+01  0.26489804992E+02  0.00000000000E+00 0. -1.
</event>
<event>
 5    1  0.1059945E-009  0.9118800E+02  0.7815553E-02  0.1125453E+00
         25   -1    0    0    0    0  0.00000000000E+00  0.00000000000E+00  0.99999998245E-14  0.12509000000E+03  0.12509000000E+03 0.  0.
        -11    1    3    3    0    0  0.19191726406E+02  0.50910132301E+02 -0.25966639953E+02  0.60286236606E+02  0.51100000000E-03 0.  1.
         23    2    1    0    0    0 -0.21924926425E+01  0.25691137323E+02 -0.15670571651E+02  0.94917025721E+02  0.89993518628E+02 0.  0.
         11    1    3    3    0    0 -0.21384219049E+02 -0.25218994978E+02  0.10296068302E+02  0.34630789116E+02  0.51100000000E-03 0. -1.
         22    1    1    0    0    0  0.21924926425E+01 -0.25691137323E+02  0.15670571651E+02  0.30172974279E+02  0.00000000000E+00 0.  1.
</event>
<event>
 5    1  0.1059945E-009  0.9118800E+02  0.7815553E-02  0.1125453E+00
         25   -1    0    0    0    0  0.00000000000E+00  0.00000000000E+00  0.99999998245E-14  0.12509000000E+03  0.12509000000E+03 0.  0.
        -11    1    3    3    0    0  0.16458123195E+02 -0.28718145852E+02 -0.76798054941E+01  0.33979127902E+02  0.51100000000E-03 0. -1.
         23    2    1    0    0    0  0.17274224742E+01  0.26426400609E+02  0.14119412119E+02  0.95078394975E+02  0.90217541282E+02 0.  0.
         11    1    3    3    0    0 -0.14730700720E+02  0.55144546461E+02  0.21799217613E+02  0.61099267074E+02  0.51100000000E-03 0.  1.
         22    1    1    0    0    0 -0.17274224742E+01 -0.26426400609E+02 -0.14119412119E+02  0.30011605025E+02  0.00000000000E+00 0.  1.
</event>
<event>
 5    1  0.1059945E-009  0.9118800E+02  0.7815553E-02  0.1125453E+00
         25   -1    0    0    0    0  0.00000000000E+00  0.00000000000E+00  0.99999998245E-14  0.12509000000E+03  0.12509000000E+03 0.  0.
        -11    1    3    3    0    0  0.21039327901E+02  0.41894890271E+02 -0.21293146819E-01  0.46881079371E+02  0.51100000000E-03 0.  1.
         23    2    1    0    0    0  0.24504387753E+02 -0.96690093264E+01 -0.25551352241E+01  0.98623351619E+02  0.95005694609E+02 0.  0.
         11    1    3    3    0    0  0.34650598521E+01 -0.51563899598E+02 -0.25338420772E+01  0.51742272248E+02  0.51100000000E-03 0. -1.
         22    1    1    0    0    0 -0.24504387753E+02  0.96690093264E+01  0.25551352241E+01  0.26466648381E+02  0.00000000000E+00 0.  1.
</event>
<event>
 5    1  0.1059945E-009  0.9118800E+02  0.7815553E-02  0.1125453E+00
         25   -1    0    0    0    0  0.00000000000E+00  0.00000000000E+00  0.99999998245E-14  0.12509000000E+03  0.12509000000E+03 0.  0.
        -11    1    3    3    0    0 -0.58306327801E+02  0.34825378288E+01 -0.25983493080E+01  0.58468002794E+02  0.51100000000E-03 0.  1.
         23    2    1    0    0    0 -0.28715022186E+02  0.11017629449E+02 -0.14303920572E+02  0.91170347856E+02  0.84625584350E+02 0.  0.
         11    1    3    3    0    0  0.29591305614E+02  0.75350916199E+01 -0.11705571264E+02  0.32702345062E+02  0.51100000000E-03 0. -1.
         22    1    1    0    0    0  0.28715022186E+02 -0.11017629449E+02  0.14303920572E+02  0.33919652144E+02  0.00000000000E+00 0.  1.
</event>
<event>
 5    1  0.1059945E-009  0.9118800E+02  0.7815553E-02  0.1125453E+00
         25   -1    0    0    0    0  0.00000000000E+00  0.00000000000E+00  0.99999998245E-14  0.12509000000E+03  0.12509000000E+03 0.  0.
        -11    1    3    3    0    0 -0.44964223514E+02  0.15577571003E+01 -0.27917419507E+02  0.52948940647E+02  0.51100000000E-03 0.  1.
         23    2    1    0    0    0 -0.65343050845E+01 -0.15972136722E+02 -0.24221597900E+02  0.95349588113E+02  0.90592780364E+02 0.  0.
         11    1    3    3    0    0  0.38429918429E+02 -0.17529893823E+02  0.36958216076E+01  0.42400647466E+02  0.51100000000E-03 0. -1.
         22    1    1    0    0    0  0.65343050845E+01  0.15972136722E+02  0.24221597900E+02  0.29740411887E+02  0.00000000000E+00 0.  1.
</event>
<event>
 5    1  0.1059945E-009  0.9118800E+02  0.7815553E-02  0.1125453E+00
         25   -1    0    0    0    0  0.00000000000E+00  0.00000000000E+00  0.99999998245E-14  0.12509000000E+03  0.12509000000E+03 0.  0.
        -11    1    3    3    0    0 -0.85221514931E+01 -0.49511922762E+02  0.29022916830E+02  0.58020576206E+02  0.51100000000E-03 0.  1.
         23    2    1    0    0    0 -0.18693203248E+02 -0.22475272116E+02  0.23840045211E+02  0.87368368805E+02  0.78805522697E+02 0.  0.
         11    1    3    3    0    0 -0.10171051755E+02  0.27036650646E+02 -0.51828716191E+01  0.29347792599E+02  0.51100000000E-03 0. -1.
         22    1    1    0    0    0  0.18693203248E+02  0.22475272116E+02 -0.23840045211E+02  0.37721631195E+02  0.00000000000E+00 0.  1.
</event>
<event>
 5    1  0.1059945E-009  0.9118800E+02  0.7815553E-02  0.1125453E+00
         25   -1    0    0    0    0  0.00000000000E+00  0.00000000000E+00  0.99999998245E-14  0.12509000000E+03  0.12509000000E+03 0.  0.
        -11    1    3    3    0    0 -0.33549916817E+02 -0.41567014955E+02  0.30948630422E+02  0.61735171305E+02  0.51100000000E-03 0.  1.
         23    2    1    0    0    0 -0.20728118200E+02 -0.14756281055E+02  0.12215868922E+02  0.96865362390E+02  0.92662118812E+02 0.  0.
         11    1    3    3    0    0  0.12821798618E+02  0.26810733900E+02 -0.18732761500E+02  0.35130191086E+02  0.51100000000E-03 0. -1.
         22    1    1    0    0    0  0.20728118200E+02  0.14756281055E+02 -0.12215868922E+02  0.28224637610E+02  0.00000000000E+00 0.  1.
</event>
<event>
 5    1  0.1059945E-009  0.9118800E+02  0.7815553E-02  0.1125453E+00
         25   -1    0    0    0    0  0.00000000000E+00  0.00000000000E+00  0.99999998245E-14  0.12509000000E+03  0.12509000000E+03 0.  0.
        -11    1    3    3    0    0 -0.40722091453E+02 -0.57308610626E+01 -0.15882781024E+01  0.41154029309E+02  0.51100000000E-03 0. -1.
         23    2    1    0    0    0  0.55961080222E+01 -0.58505768813E+00 -0.29220096735E+02  0.95333105493E+02  0.90570018396E+02 0.  0.
         11    1    3    3    0    0  0.46318199475E+02  0.51458033745E+01 -0.27631818632E+02  0.54179076184E+02  0.51100000000E-03 0.  1.
         22    1    1    0    0    0 -0.55961080222E+01  0.58505768813E+00  0.29220096735E+02  0.29756894507E+02  0.00000000000E+00 0.  1.
</event>
<event>
 5    1  0.1059945E-009  0.9118800E+02  0.7815553E-02  0.1125453E+00
         25   -1    0    0    0    0  0.00000000000E+00  0.00000000000E+00  0.99999998245E-14  0.12509000000E+03  0.12509000000E+03 0.  0.
        -11    1    3    3    0    0  0.22402846197E+02  0.25740004202E+02  0.22608796373E+02  0.40934007961E+02  0.51100000000E-03 0.  1.
         23    2    1    0    0    0  0.18496195180E+02 -0.23054123536E+02 -0.14918365175E+01  0.95495618365E+02  0.90794194212E+02 0.  0.
         11    1    3    3    0    0 -0.39066510169E+01 -0.48794127738E+02 -0.24100632890E+02  0.54561610404E+02  0.51100000000E-03 0. -1.
         22    1    1    0    0    0 -0.18496195180E+02  0.23054123536E+02  0.14918365175E+01  0.29594381635E+02  0.00000000000E+00 0. -1.
</event>
<event>
 5    1  0.1059945E-009  0.9118800E+02  0.7815553E-02  0.1125453E+00
         25   -1    0    0    0    0  0.00000000000E+00  0.00000000000E+00  0.99999998245E-14  0.12509000000E+03  0.12509000000E+03 0.  0.
        -11    1    3    3    0    0 -0.37250377539E+02  0.35782899496E+02 -0.60569029146E+01  0.52006659154E+02  0.51100000000E-03 0.  1.
         23    2    1    0    0    0 -0.73475380596E+01  0.67896328591E+01 -0.25297004558E+02  0.97886620256E+02  0.94030668165E+02 0.  0.
         11    1    3    3    0    0  0.29902839479E+02 -0.28993266637E+02 -0.19240101644E+02  0.45879961102E+02  0.51100000000E-03 0. -1.
         22    1    1    0    0    0  0.73475380596E+01 -0.67896328591E+01  0.25297004558E+02  0.27203379744E+02  0.00000000000E+00 0.  1.
</event>
<event>
 5    1  0.1059945E-009  0.9118800E+02  0.7815553E-02  0.1125453E+00
         25   -1    0    0    0    0  0.00000000000E+00  0.00000000000E+00  0.99999998245E-14  0.12509000000E+03  0.12509000000E+03 0.  0.
        -11    1    3    3    0    0  0.14822618618E+02 -0.34362920429E+02  0.48516574650E+02  0.61272982130E+02  0.51100000000E-03 0.  1.
         23    2    1    0    0    0  0.60326654674E+01 -0.83832399560E+01  0.27156175817E+02  0.96036090628E+02  0.91535791105E+02 0.  0.
         11    1    3    3    0    0 -0.87899531503E+01  0.25979680473E+02 -0.21360398832E+02  0.34763108497E+02  0.51100000000E-03 0. -1.
         22    1    1    0    0    0 -0.60326654674E+01  0.83832399560E+01 -0.27156175817E+02  0.29053909372E+02  0.00000000000E+00 0.  1.
</event>
<event>
 5    1  0.1059945E-009  0.9118800E+02  0.7815553E-02  0.1125453E+00
         25   -1    0    0    0    0  0.00000000000E+00  0.00000000000E+00  0.99999998245E-14  0.12509000000E+03  0.12509000000E+03 0.  0.
        -11    1    3    3    0    0  0.27318681068E+02 -0.17548592923E+02  0.38427816435E+02  0.50308652586E+02  0.51100000000E-03 0.  1.
         23    2    1    0    0    0  0.82101389034E+01 -0.27944382227E+02 -0.16588348121E+01  0.95917296804E+02  0.91373306903E+02 0.  0.
         11    1    3    3    0    0 -0.19108542164E+02 -0.10395789304E+02 -0.40086651247E+02  0.45608644217E+02  0.51100000000E-03 0. -1.
         22    1    1    0    0    0 -0.82101389034E+01  0.27944382227E+02  0.16588348121E+01  0.29172703196E+02  0.00000000000E+00 0.  1.
</event>
<event>
 5    1  0.1059945E-009  0.9118800E+02  0.7815553E-02  0.1125453E+00
         25   -1    0    0    0    0  0.00000000000E+00  0.00000000000E+00  0.99999998245E-14  0.12509000000E+03  0.12509000000E+03 0.  0.
        -11    1    3    3    0    0  0.24273620812E+02 -0.80817852594E+01 -0.27193366481E+02  0.37336350934E+02  0.51100000000E-03 0. -1.
         23    2    1    0    0    0  0.57574103255E+01  0.22136315848E+02  0.18857860116E+02  0.95445723299E+02  0.90725426176E+02 0.  0.
         11    1    3    3    0    0 -0.18516210486E+02  0.30218101108E+02  0.46051226596E+02  0.58109372364E+02  0.51100000000E-03 0.  1.
         22    1    1    0    0    0 -0.57574103255E+01 -0.22136315848E+02 -0.18857860116E+02  0.29644276701E+02  0.00000000000E+00 0.  1.
</event>
<event>
 5    1  0.1059945E-009  0.9118800E+02  0.7815553E-02  0.1125453E+00
         25   -1    0    0    0    0  0.00000000000E+00  0.00000000000E+00  0.99999998245E-14  0.12509000000E+03  0.12509000000E+03 0.  0.
        -11    1    3    3    0    0  0.23204145801E+01 -0.39012455732E+02 -0.12864007991E+02  0.41144121426E+02  0.51100000000E-03 0.  1.
         23    2    1    0    0    0  0.12451986676E+02 -0.24560523767E+01  0.26435705270E+02  0.95765425347E+02  0.91165157891E+02 0.  0.
         11    1    3    3    0    0  0.10131572095E+02  0.36556403355E+02  0.39299713261E+02  0.54621303921E+02  0.51100000000E-03 0. -1.
         22    1    1    0    0    0 -0.12451986676E+02  0.24560523767E+01 -0.26435705270E+02  0.29324574653E+02  0.00000000000E+00 0.  1.
</event>
<event>
 5    1  0.1059945E-009  0.9118800E+02  0.7815553E-02  0.1125453E+00
         25   -1    0    0    0    0  0.00000000000E+00  0.00000000000E+00  0.99999998245E-14  0.12509000000E+03  0.12509000000E+03 0.  0.
        -11    1    3    3    0    0 -0.10608211078E+02 -0.31454032981E+02  0.22485714225E+02  0.40093611430E+02  0.51100000000E-03 0. -1.
         23    2    1    0    0    0  0.15213822873E+02 -0.11893700547E+02 -0.22442693707E+02  0.95482652602E+02  0.90776329117E+02 0.  0.
         11    1    3    3    0    0  0.25822033951E+02  0.19560332434E+02 -0.44928407932E+02  0.55389041171E+02  0.51100000000E-03 0.  1.
         22    1    1    0    0    0 -0.15213822873E+02  0.11893700547E+02  0.22442693707E+02  0.29607347398E+02  0.00000000000E+00 0.  1.
</event>
<event>
 5    1  0.1059945E-009  0.9118800E+02  0.7815553E-02  0.1125453E+00
         25   -1    0    0    0    0  0.00000000000E+00  0.00000000000E+00  0.99999998245E-14  0.12509000000E+03  0.12509000000E+03 0.  0.
        -11    1    3    3    0    0 -0.43680294470E+02 -0.10731198003E+02 -0.23218238708E+01  0.45039067507E+02  0.51100000000E-03 0.  1.
         23    2    1    0    0    0 -0.27113496211E+00 -0.19533158658E+01 -0.28524336814E+02  0.96497575343E+02  0.92164284294E+02 0.  0.
         11    1    3    3    0    0  0.43409159507E+02  0.87778821369E+01 -0.26202512944E+02  0.51458507837E+02  0.51100000000E-03 0. -1.
         22    1    1    0    0    0  0.27113496211E+00  0.19533158658E+01  0.28524336814E+02  0.28592424657E+02  0.00000000000E+00 0.  1.
</event>
<event>
 5    1  0.1059945E-009  0.9118800E+02  0.7815553E-02  0.1125453E+00
         25   -1    0    0    0    0  0.00000000000E+00  0.00000000000E+00  0.99999998245E-14  0.12509000000E+03  0.12509000000E+03 0.  0.
        -11    1    3    3    0    0 -0.51978003682E+02  0.87670643172E+01 -0.21663232761E+02  0.56990086308E+02  0.51100000000E-03 0.  1.
         23    2    1    0    0    0 -0.29891408335E+02 -0.61179126789E+01  0.44098819206E+01  0.94261892592E+02  0.89078236336E+02 0.  0.
         11    1    3    3    0    0  0.22086595347E+02 -0.14884976996E+02  0.26073114682E+02  0.37271806284E+02  0.51100000000E-03 0. -1.
         22    1    1    0    0    0  0.29891408335E+02  0.61179126789E+01 -0.44098819206E+01  0.30828107408E+02  0.00000000000E+00 0. -1.
</event>
<event>
 5    1  0.1059945E-009  0.9118800E+02  0.7815553E-02  0.1125453E+00
         25   -1    0    0    0    0  0.00000000000E+00  0.00000000000E+00  0.99999998245E-14  0.12509000000E+03  0.12509000000E+03 0.  0.
        -11    1    3    3    0    0  0.10556100409E+02 -0.58855579940E+02 -0.17673533691E+02  0.62351939339E+02  0.51100000000E-03 0. -1.
         23    2    1    0    0    0  0.69970499941E+01 -0.28709650104E+02 -0.11804633125E+02  0.93269376484E+02  0.87673396813E+02 0.  0.
         11    1    3    3    0    0 -0.35590504149E+01  0.30145929835E+02  0.58689005668E+01  0.30917437145E+02  0.51100000000E-03 0.  1.
         22    1    1    0    0    0 -0.69970499941E+01  0.28709650104E+02  0.11804633125E+02  0.31820623516E+02  0.00000000000E+00 0. -1.
</event>
<event>
 5    1  0.1059945E-009  0.9118800E+02  0.7815553E-02  0.1125453E+00
         25   -1    0    0    0    0  0.00000000000E+00  0.00000000000E+00  0.99999998245E-14  0.12509000000E+03  0.12509000000E+03 0.  0.
        -11    1    3    3    0    0 -0.38159672557E+02 -0.32526586314E+02  0.25928451367E+02  0.56448419087E+02  0.51100000000E-03 0.  1.
         23    2    1    0    0    0 -0.76855634371E+01 -0.77656374890E+01  0.27244962209E+02  0.95735937645E+02  0.91124688093E+02 0.  0.
         11    1    3    3    0    0  0.30474109120E+02  0.24760948825E+02  0.13165108430E+01  0.39287518558E+02  0.51100000000E-03 0. -1.
         22    1    1    0    0    0  0.76855634371E+01  0.77656374890E+01 -0.27244962209E+02  0.29354062355E+02  0.00000000000E+00 0.  1.
</event>
<event>
 5    1  0.1059945E-009  0.9118800E+02  0.7815553E-02  0.1125453E+00
         25   -1    0    0    0    0  0.00000000000E+00  0.00000000000E+00  0.99999998245E-14  0.12509000000E+03  0.12509000000E+03 0.  0.
        -11    1    3    3    0    0 -0.23041972990E+02  0.14289107001E+02 -0.26640799456E+02  0.38011094355E+02  0.51100000000E-03 0. -1.
         23    2    1    0    0    0  0.11622825773E+02  0.20527535058E+02  0.18389013664E+02  0.95179707490E+02  0.90357905686E+02 0.  0.
         11    1    3    3    0    0  0.34664798764E+02  0.62384280563E+01  0.45029813120E+02  0.57168613135E+02  0.51100000000E-03 0.  1.
         22    1    1    0    0    0 -0.11622825773E+02 -0.20527535058E+02 -0.18389013664E+02  0.29910292510E+02  0.00000000000E+00 0.  1.
</event>
<event>
 5    1  0.1059945E-009  0.9118800E+02  0.7815553E-02  0.1125453E+00
         25   -1    0    0    0    0  0.00000000000E+00  0.00000000000E+00  0.99999998245E-14  0.12509000000E+03  0.12509000000E+03 0.  0.
        -11    1    3    3    0    0 -0.29646716850E+02  0.11131176455E+02 -0.41427789551E+02  0.52144919758E+02  0.51100000000E-03 0.  1.
         23    2    1    0    0    0 -0.13518581020E+02  0.28335882049E+02 -0.86493876303E+01  0.92524893664E+02  0.86604675375E+02 0.  0.
         11    1    3    3    0    0  0.16128135830E+02  0.17204705594E+02  0.32778401920E+02  0.40379973906E+02  0.51100000000E-03 0. -1.
         22    1    1    0    0    0  0.13518581020E+02 -0.28335882049E+02  0.86493876303E+01  0.32565106336E+02  0.00000000000E+00 0. -1.
</event>
<event>
 5    1  0.1059945E-009  0.9118800E+02  0.7815553E-02  0.1125453E+00
         25   -1    0    0    0    0  0.00000000000E+00  0.00000000000E+00  0.99999998245E-14  0.12509000000E+03  0.12509000000E+03 0.  0.
        -11    1    3    3    0    0  0.31543373515E+02 -0.50070666633E+01 -0.16528055465E+02  0.35961531488E+02  0.51100000000E-03 0. -1.
         23    2    1    0    0    0 -0.39634029041E+01  0.24459564980E+02  0.18727691376E+02  0.94030294499E+02  0.88752413926E+02 0.  0.
         11    1    3    3    0    0 -0.35506776419E+02  0.29466631643E+02  0.35255746841E+02  0.58068763011E+02  0.51100000000E-03 0.  1.
         22    1    1    0    0    0  0.39634029041E+01 -0.24459564980E+02 -0.18727691376E+02  0.31059705501E+02  0.00000000000E+00 0.  1.
</event>
<event>
 5    1  0.1059945E-009  0.9118800E+02  0.7815553E-02  0.1125453E+00
         25   -1    0    0    0    0  0.00000000000E+00  0.00000000000E+00  0.99999998245E-14  0.12509000000E+03  0.12509000000E+03 0.  0.
        -11    1    3    3    0    0 -0.55015103206E+02 -0.14132909557E+02 -0.13690163682E+02  0.58427915376E+02  0.51100000000E-03 0.  1.
         23    2    1    0    0    0 -0.24252703471E+02  0.91664338005E+01 -0.10389176790E+02  0.97158796505E+02  0.93057399543E+02 0.  0.
         11    1    3    3    0    0  0.30762399735E+02  0.23299343358E+02  0.33009868918E+01  0.38730881129E+02  0.51100000000E-03 0. -1.
         22    1    1    0    0    0  0.24252703471E+02 -0.91664338005E+01  0.10389176790E+02  0.27931203495E+02  0.00000000000E+00 0.  1.
</event>
<event>
 5    1  0.1059945E-009  0.9118800E+02  0.7815553E-02  0.1125453E+00
         25   -1    0    0    0    0  0.00000000000E+00  0.00000000000E+00  0.99999998245E-14  0.12509000000E+03  0.12509000000E+03 0.  0.
        -11    1    3    3    0    0 -0.33922640366E+02  0.30720397281E+02 -0.30403128712E+01  0.45866456601E+02  0.51100000000E-03 0.  1.
         23    2    1    0    0    0 -0.11214866020E+02 -0.58540078752E+01 -0.27099150781E+02  0.95183368610E+02  0.90362973937E+02 0.  0.
         11    1    3    3    0    0  0.22707774346E+02 -0.36574405156E+02 -0.24058837910E+02  0.49316912009E+02  0.51100000000E-03 0. -1.
         22    1    1    0    0    0  0.11214866020E+02  0.58540078752E+01  0.27099150781E+02  0.29906631390E+02  0.00000000000E+00 0. -1.
</event>
<event>
 5    1  0.1059945E-009  0.9118800E+02  0.7815553E-02  0.1125453E+00
         25   -1    0    0    0    0  0.00000000000E+00  0.00000000000E+00  0.99999998245E-14  0.12509000000E+03  0.12509000000E+03 0.  0.
        -11    1    3    3    0    0  0.18611557446E+02 -0.15214621771E+02  0.25241770884E+02  0.34857162590E+02  0.51100000000E-03 0.  1.
         23    2    1    0    0    0  0.88166899060E+01  0.85476371676E+01 -0.28295768219E+02  0.94244471618E+02  0.89053769204E+02 0.  0.
         11    1    3    3    0    0 -0.97948675402E+01  0.23762258939E+02 -0.53537539104E+02  0.59387309028E+02  0.51100000000E-03 0. -1.
         22    1    1    0    0    0 -0.88166899060E+01 -0.85476371676E+01  0.28295768219E+02  0.30845528382E+02  0.00000000000E+00 0. -1.
</event>
<event>
 5    1  0.1059945E-009  0.9118800E+02  0.7815553E-02  0.1125453E+00
         25   -1    0    0    0    0  0.00000000000E+00  0.00000000000E+00  0.99999998245E-14  0.12509000000E+03  0.12509000000E+03 0.  0.
        -11    1    3    3    0    0 -0.18328459787E+02 -0.77333242979E+01  0.33815074698E+02  0.39232588749E+02  0.51100000000E-03 0.  1.
         23    2    1    0    0    0 -0.13250599817E+02  0.20175047048E+02 -0.15698856349E+02  0.96296510986E+02  0.91890984425E+02 0.  0.
         11    1    3    3    0    0  0.50778599697E+01  0.27908371346E+02 -0.49513931047E+02  0.57063922237E+02  0.51100000000E-03 0. -1.
         22    1    1    0    0    0  0.13250599817E+02 -0.20175047048E+02  0.15698856349E+02  0.28793489014E+02  0.00000000000E+00 0. -1.
</event>
<event>
 5    1  0.1059945E-009  0.9118800E+02  0.7815553E-02  0.1125453E+00
         25   -1    0    0    0    0  0.00000000000E+00  0.00000000000E+00  0.99999998245E-14  0.12509000000E+03  0.12509000000E+03 0.  0.
        -11    1    3    3    0    0  0.52122367690E+02 -0.12102694910E+02 -0.70156198662E+00  0.53513630293E+02  0.51100000000E-03 0. -1.
         23    2    1    0    0    0  0.24926027908E+02  0.11252160495E+02  0.16367607592E+02  0.93218122720E+02  0.87600238824E+02 0.  0.
         11    1    3    3    0    0 -0.27196339782E+02  0.23354855405E+02  0.17069169579E+02  0.39704492427E+02  0.51100000000E-03 0.  1.
         22    1    1    0    0    0 -0.24926027908E+02 -0.11252160495E+02 -0.16367607592E+02  0.31871877280E+02  0.00000000000E+00 0. -1.
</event>
<event>
 5    1  0.1059945E-009  0.9118800E+02  0.7815553E-02  0.1125453E+00
         25   -1    0    0    0    0  0.00000000000E+00  0.00000000000E+00  0.99999998245E-14  0.12509000000E+03  0.12509000000E+03 0.  0.
        -11    1    3    3    0    0  0.34076220526E+02  0.11467029956E+02  0.15200473968E+02  0.39035061041E+02  0.51100000000E-03 0.  1.
         23    2    1    0    0    0 -0.22169684591E+02  0.11921382394E+02  0.15954729304E+02  0.95287858127E+02  0.90507503812E+02 0.  0.
         11    1    3    3    0    0 -0.56245905118E+02  0.45435243741E+00  0.75425533581E+00  0.56252797086E+02  0.51100000000E-03 0. -1.
         22    1    1    0    0    0  0.22169684591E+02 -0.11921382394E+02 -0.15954729304E+02  0.29802141873E+02  0.00000000000E+00 0. -1.
</event>
<event>
 5    1  0.1059945E-009  0.9118800E+02  0.7815553E-02  0.1125453E+00
         25   -1    0    0    0    0  0.00000000000E+00  0.00000000000E+00  0.99999998245E-14  0.12509000000E+03  0.12509000000E+03 0.  0.
        -11    1    3    3    0    0  0.44294460131E+02  0.29608431886E+02 -0.15149578505E+01  0.53300596006E+02  0.51100000000E-03 0. -1.
         23    2    1    0    0    0  0.26044848512E+02 -0.76548614633E+01 -0.10893278913E+02  0.95839451911E+02  0.91266675074E+02 0.  0.
         11    1    3    3    0    0 -0.18249611619E+02 -0.37263293349E+02 -0.93783210625E+01  0.42538855905E+02  0.51100000000E-03 0.  1.
         22    1    1    0    0    0 -0.26044848512E+02  0.76548614633E+01  0.10893278913E+02  0.29250548089E+02  0.00000000000E+00 0. -1.
</event>
<event>
 5    1  0.1059945E-009  0.9118800E+02  0.7815553E-02  0.1125453E+00
         25   -1    0    0    0    0  0.00000000000E+00  0.00000000000E+00  0.99999998245E-14  0.12509000000E+03  0.12509000000E+03 0.  0.
        -11    1    3    3    0    0  0.20263682017E+02 -0.33226931525E+02 -0.99669747759E+01  0.40174449267E+02  0.51100000000E-03 0. -1.
         23    2    1    0    0    0  0.19240190077E+02  0.17042966178E+02  0.13941243985E+02  0.95849516177E+02  0.91280468103E+02 0.  0.
         11    1    3    3    0    0 -0.10234919406E+01  0.50269897703E+02  0.23908218761E+02  0.55675066910E+02  0.51100000000E-03 0.  1.
         22    1    1    0    0    0 -0.19240190077E+02 -0.17042966178E+02 -0.13941243985E+02  0.29240483823E+02  0.00000000000E+00 0.  1.
</event>
<event>
 5    1  0.1059945E-009  0.9118800E+02  0.7815553E-02  0.1125453E+00
         25   -1    0    0    0    0  0.00000000000E+00  0.00000000000E+00  0.99999998245E-14  0.12509000000E+03  0.12509000000E+03 0.  0.
        -11    1    3    3    0    0 -0.51832617799E+02  0.22378192477E+02 -0.25713021597E+02  0.62036789458E+02  0.51100000000E-03 0.  1.
         23    2    1    0    0    0 -0.16880489502E+02  0.11918681619E+02 -0.56760241886E+01  0.10366050752E+03  0.10142128806E+03 0.  0.
         11    1    3    3    0    0  0.34952128297E+02 -0.10459510857E+02  0.20036997409E+02  0.41623718061E+02  0.51100000000E-03 0. -1.
         22    1    1    0    0    0  0.16880489502E+02 -0.11918681619E+02  0.56760241886E+01  0.21429492480E+02  0.00000000000E+00 0.  1.
</event>
<event>
 5    1  0.1059945E-009  0.9118800E+02  0.7815553E-02  0.1125453E+00
         25   -1    0    0    0    0  0.00000000000E+00  0.00000000000E+00  0.99999998245E-14  0.12509000000E+03  0.12509000000E+03 0.  0.
        -11    1    3    3    0    0  0.16814994273E+00  0.11161462795E+02  0.36068819379E+02  0.37756671699E+02  0.51100000000E-03 0.  1.
         23    2    1    0    0    0  0.24514863479E+02  0.54758464370E+01 -0.15854607582E+02  0.95385926085E+02  0.90642941744E+02 0.  0.
         11    1    3    3    0    0  0.24346713536E+02 -0.56856163579E+01 -0.51923426961E+02  0.57629254386E+02  0.51100000000E-03 0. -1.
         22    1    1    0    0    0 -0.24514863479E+02 -0.54758464370E+01  0.15854607582E+02  0.29704073915E+02  0.00000000000E+00 0. -1.
</event>
<event>
 5    1  0.1059945E-009  0.9118800E+02  0.7815553E-02  0.1125453E+00
         25   -1    0    0    0    0  0.00000000000E+00  0.00000000000E+00  0.99999998245E-14  0.12509000000E+03  0.12509000000E+03 0.  0.
        -11    1    3    3    0    0  0.33108753723E+02  0.15855734685E+02 -0.13190771890E+02  0.39007567968E+02  0.51100000000E-03 0.  1.
         23    2    1    0    0    0 -0.77006872913E+01  0.30909093872E+01  0.26483087266E+02  0.97337374597E+02  0.93297139703E+02 0.  0.
         11    1    3    3    0    0 -0.40809441014E+02 -0.12764825298E+02  0.39673859156E+02  0.58329806629E+02  0.51100000000E-03 0. -1.
         22    1    1    0    0    0  0.77006872913E+01 -0.30909093872E+01 -0.26483087266E+02  0.27752625403E+02  0.00000000000E+00 0. -1.
</event>
<event>
 5    1  0.1059945E-009  0.9118800E+02  0.7815553E-02  0.1125453E+00
         25   -1    0    0    0    0  0.00000000000E+00  0.00000000000E+00  0.99999998245E-14  0.12509000000E+03  0.12509000000E+03 0.  0.
        -11    1    3    3    0    0  0.59343117901E+01 -0.58416391119E+02 -0.18883023359E+02  0.61678678482E+02  0.51100000000E-03 0.  1.
         23    2    1    0    0    0  0.12842250639E+01 -0.30302489329E+02 -0.22424371262E+01  0.94677525293E+02  0.89659997646E+02 0.  0.
         11    1    3    3    0    0 -0.46500867262E+01  0.28113901790E+02  0.16640586233E+02  0.32998846811E+02  0.51100000000E-03 0. -1.
         22    1    1    0    0    0 -0.12842250639E+01  0.30302489329E+02  0.22424371262E+01  0.30412474707E+02  0.00000000000E+00 0.  1.
</event>
<event>
 5    1  0.1059945E-009  0.9118800E+02  0.7815553E-02  0.1125453E+00
         25   -1    0    0    0    0  0.00000000000E+00  0.00000000000E+00  0.99999998245E-14  0.12509000000E+03  0.12509000000E+03 0.  0.
        -11    1    3    3    0    0 -0.21753356293E+02  0.27065576930E+02  0.31997216312E+02  0.47218384307E+02  0.51100000000E-03 0.  1.
         23    2    1    0    0    0 -0.28208991711E+02 -0.10940444920E+02  0.46619897299E+01  0.94476690858E+02  0.89379362377E+02 0.  0.
         11    1    3    3    0    0 -0.64556354178E+01 -0.38006021850E+02 -0.27335226583E+02  0.47258306551E+02  0.51100000000E-03 0. -1.
         22    1    1    0    0    0  0.28208991711E+02  0.10940444920E+02 -0.46619897299E+01  0.30613309142E+02  0.00000000000E+00 0.  1.
</event>
<event>
 5    1  0.1059945E-009  0.9118800E+02  0.7815553E-02  0.1125453E+00
         25   -1    0    0    0    0  0.00000000000E+00  0.00000000000E+00  0.99999998245E-14  0.12509000000E+03  0.12509000000E+03 0.  0.
        -11    1    3    3    0    0  0.25188215149E+02 -0.52674249430E+02 -0.16292078442E+02  0.60617279349E+02  0.51100000000E-03 0. -1.
         23    2    1    0    0    0  0.72264728051E+01 -0.23113027671E+02 -0.17473388275E+02  0.95227762054E+02  0.90424407163E+02 0.  0.
         11    1    3    3    0    0 -0.17961742343E+02  0.29561221760E+02 -0.11813098329E+01  0.34610482706E+02  0.51100000000E-03 0.  1.
         22    1    1    0    0    0 -0.72264728051E+01  0.23113027671E+02  0.17473388275E+02  0.29862237946E+02  0.00000000000E+00 0. -1.
</event>
<event>
 5    1  0.1059945E-009  0.9118800E+02  0.7815553E-02  0.1125453E+00
         25   -1    0    0    0    0  0.00000000000E+00  0.00000000000E+00  0.99999998245E-14  0.12509000000E+03  0.12509000000E+03 0.  0.
        -11    1    3    3    0    0 -0.12521039262E+02  0.21492198683E+02  0.26052206100E+02  0.36019556790E+02  0.51100000000E-03 0.  1.
         23    2    1    0    0    0  0.80745438847E+01 -0.71696555807E+01 -0.24869832103E+02  0.97977073767E+02  0.94150922540E+02 0.  0.
         11    1    3    3    0    0  0.20595583147E+02 -0.28661854264E+02 -0.50922038203E+02  0.61957516977E+02  0.51100000000E-03 0. -1.
         22    1    1    0    0    0 -0.80745438847E+01  0.71696555807E+01  0.24869832103E+02  0.27112926233E+02  0.00000000000E+00 0. -1.
</event>
<event>
 5    1  0.1059945E-009  0.9118800E+02  0.7815553E-02  0.1125453E+00
         25   -1    0    0    0    0  0.00000000000E+00  0.00000000000E+00  0.99999998245E-14  0.12509000000E+03  0.12509000000E+03 0.  0.
        -11    1    3    3    0    0 -0.27547095171E+02  0.49170311688E+02 -0.20435608853E+02  0.59951447967E+02  0.51100000000E-03 0. -1.
         23    2    1    0    0    0 -0.14145083929E+02  0.14966475301E+02 -0.19545517749E+02  0.96697993266E+02  0.92435901334E+02 0.  0.
         11    1    3    3    0    0  0.13402011243E+02 -0.34203836388E+02  0.89009110433E+00  0.36746545299E+02  0.51100000000E-03 0.  1.
         22    1    1    0    0    0  0.14145083929E+02 -0.14966475301E+02  0.19545517749E+02  0.28392006734E+02  0.00000000000E+00 0. -1.
</event>
<event>
 5    1  0.1059945E-009  0.9118800E+02  0.7815553E-02  0.1125453E+00
         25   -1    0    0    0    0  0.00000000000E+00  0.00000000000E+00  0.99999998245E-14  0.12509000000E+03  0.12509000000E+03 0.  0.
        -11    1    3    3    0    0  0.61109418667E-01 -0.24366243566E+02  0.43424276904E+02  0.49793427124E+02  0.51100000000E-03 0. -1.
         23    2    1    0    0    0  0.26592800330E+02 -0.66758601754E+01  0.10223181739E+02  0.95828120645E+02  0.91251143133E+02 0.  0.
         11    1    3    3    0    0  0.26531690912E+02  0.17690383391E+02 -0.33201095165E+02  0.46034693521E+02  0.51100000000E-03 0.  1.
         22    1    1    0    0    0 -0.26592800330E+02  0.66758601754E+01 -0.10223181739E+02  0.29261879355E+02  0.00000000000E+00 0. -1.
</event>
<event>
 5    1  0.1059945E-009  0.9118800E+02  0.7815553E-02  0.1125453E+00
         25   -1    0    0    0    0  0.00000000000E+00  0.00000000000E+00  0.99999998245E-14  0.12509000000E+03  0.12509000000E+03 0.  0.
        -11    1    3    3    0    0  0.32881750676E+02 -0.65849396489E+01  0.47688414571E+02  0.58298849408E+02  0.51100000000E-03 0. -1.
         23    2    1    0    0    0  0.17729854862E+02  0.12842074952E+02  0.19115665070E+02  0.96026701949E+02  0.91522959927E+02 0.  0.
         11    1    3    3    0    0 -0.15151895814E+02  0.19427014601E+02 -0.28572749501E+02  0.37727852542E+02  0.51100000000E-03 0.  1.
         22    1    1    0    0    0 -0.17729854862E+02 -0.12842074952E+02 -0.19115665070E+02  0.29063298051E+02  0.00000000000E+00 0. -1.
</event>
<event>
 5    1  0.1059945E-009  0.9118800E+02  0.7815553E-02  0.1125453E+00
         25   -1    0    0    0    0  0.00000000000E+00  0.00000000000E+00  0.99999998245E-14  0.12509000000E+03  0.12509000000E+03 0.  0.
        -11    1    3    3    0    0  0.95847301410E+01 -0.91014832464E+00 -0.52364145637E+02  0.53241893001E+02  0.51100000000E-03 0. -1.
         23    2    1    0    0    0 -0.15698168768E+02  0.12947311482E+02 -0.20797571311E+02  0.95993533724E+02  0.91477615662E+02 0.  0.
         11    1    3    3    0    0 -0.25282898909E+02  0.13857459807E+02  0.31566574326E+02  0.42751640723E+02  0.51100000000E-03 0.  1.
         22    1    1    0    0    0  0.15698168768E+02 -0.12947311482E+02  0.20797571311E+02  0.29096466276E+02  0.00000000000E+00 0. -1.
</event>
<event>
 5    1  0.1059945E-009  0.9118800E+02  0.7815553E-02  0.1125453E+00
         25   -1    0    0    0    0  0.00000000000E+00  0.00000000000E+00  0.99999998245E-14  0.12509000000E+03  0.12509000000E+03 0.  0.
        -11    1    3    3    0    0  0.36664220379E+01  0.11170821070E+02 -0.36943423248E+02  0.38769142568E+02  0.51100000000E-03 0. -1.
         23    2    1    0    0    0  0.43786778353E+01 -0.26174793798E+02  0.81544080997E+01  0.97326948630E+02  0.93283159832E+02 0.  0.
         11    1    3    3    0    0  0.71225579744E+00 -0.37345614868E+02  0.45097831348E+02  0.58557806061E+02  0.51100000000E-03 0.  1.
         22    1    1    0    0    0 -0.43786778353E+01  0.26174793798E+02 -0.81544080997E+01  0.27763051370E+02  0.00000000000E+00 0.  1.
</event>
<event>
 5    1  0.1059945E-009  0.9118800E+02  0.7815553E-02  0.1125453E+00
         25   -1    0    0    0    0  0.00000000000E+00  0.00000000000E+00  0.99999998245E-14  0.12509000000E+03  0.12509000000E+03 0.  0.
        -11    1    3    3    0    0 -0.82763001797E+01 -0.21191003581E+02 -0.58245903662E+02  0.62531120821E+02  0.51100000000E-03 0. -1.
         23    2    1    0    0    0 -0.35084169385E+01 -0.11248654362E+02 -0.31275342338E+02  0.91668625810E+02  0.85358940394E+02 0.  0.
         11    1    3    3    0    0  0.47678832411E+01  0.99423492189E+01  0.26970561325E+02  0.29137504990E+02  0.51100000000E-03 0.  1.
         22    1    1    0    0    0  0.35084169385E+01  0.11248654362E+02  0.31275342338E+02  0.33421374190E+02  0.00000000000E+00 0. -1.
</event>
<event>
 5    1  0.1059945E-009  0.9118800E+02  0.7815553E-02  0.1125453E+00
         25   -1    0    0    0    0  0.00000000000E+00  0.00000000000E+00  0.99999998245E-14  0.12509000000E+03  0.12509000000E+03 0.  0.
        -11    1    3    3    0    0 -0.57148897047E+01 -0.19005781472E+01  0.32109872946E+02  0.32669804139E+02  0.51100000000E-03 0.  1.
         23    2    1    0    0    0 -0.95644389196E+01 -0.43326356412E+02  0.22376002634E+02  0.75397574565E+02  0.56705000701E+02 0.  0.
         11    1    3    3    0    0 -0.38495492148E+01 -0.41425778265E+02 -0.97338703122E+01  0.42727770426E+02  0.51100000000E-03 0. -1.
         22    1    1    0    0    0  0.95644389196E+01  0.43326356412E+02 -0.22376002634E+02  0.49692425435E+02  0.00000000000E+00 0.  1.
</event>
<event>
 5    1  0.1059945E-009  0.9118800E+02  0.7815553E-02  0.1125453E+00
         25   -1    0    0    0    0  0.00000000000E+00  0.00000000000E+00  0.99999998245E-14  0.12509000000E+03  0.12509000000E+03 0.  0.
        -11    1    3    3    0    0 -0.41509738904E+02  0.54262859988E+00 -0.35312054522E+01  0.41663200572E+02  0.51100000000E-03 0.  1.
         23    2    1    0    0    0 -0.48243949275E+00 -0.21770763961E+02  0.21361636385E+02  0.94585599984E+02  0.89531655318E+02 0.  0.
         11    1    3    3    0    0  0.41027299411E+02 -0.22313392561E+02  0.24892841837E+02  0.52922399412E+02  0.51100000000E-03 0. -1.
         22    1    1    0    0    0  0.48243949275E+00  0.21770763961E+02 -0.21361636385E+02  0.30504400016E+02  0.00000000000E+00 0. -1.
</event>
<event>
 5    1  0.1059945E-009  0.9118800E+02  0.7815553E-02  0.1125453E+00
         25   -1    0    0    0    0  0.00000000000E+00  0.00000000000E+00  0.99999998245E-14  0.12509000000E+03  0.12509000000E+03 0.  0.
        -11    1    3    3    0    0 -0.16452889747E+02 -0.35157021226E+02 -0.25587964430E+02  0.46491479289E+02  0.51100000000E-03 0. -1.
         23    2    1    0    0    0 -0.68995022661E+01  0.13110270547E+02 -0.25388038965E+02  0.95695530320E+02  0.91069202672E+02 0.  0.
         11    1    3    3    0    0  0.95533874813E+01  0.48267291772E+02  0.19992546589E+00  0.49204051031E+02  0.51100000000E-03 0.  1.
         22    1    1    0    0    0  0.68995022661E+01 -0.13110270547E+02  0.25388038965E+02  0.29394469680E+02  0.00000000000E+00 0.  1.
</event>
<event>
 5    1  0.1059945E-009  0.9118800E+02  0.7815553E-02  0.1125453E+00
         25   -1    0    0    0    0  0.00000000000E+00  0.00000000000E+00  0.99999998245E-14  0.12509000000E+03  0.12509000000E+03 0.  0.
        -11    1    3    3    0    0  0.52561361916E+01  0.26622718855E+02  0.53585963853E+02  0.60065394773E+02  0.51100000000E-03 0.  1.
         23    2    1    0    0    0  0.91173616091E+01  0.20903899454E+02  0.18785036992E+02  0.95543817338E+02  0.90860575178E+02 0.  0.
         11    1    3    3    0    0  0.38612254176E+01 -0.57188194009E+01 -0.34800926861E+02  0.35478422565E+02  0.51100000000E-03 0. -1.
         22    1    1    0    0    0 -0.91173616091E+01 -0.20903899454E+02 -0.18785036992E+02  0.29546182662E+02  0.00000000000E+00 0.  1.
</event>
<event>
 5    1  0.1059945E-009  0.9118800E+02  0.7815553E-02  0.1125453E+00
         25   -1    0    0    0    0  0.00000000000E+00  0.00000000000E+00  0.99999998245E-14  0.12509000000E+03  0.12509000000E+03 0.  0.
        -11    1    3    3    0    0 -0.45756619411E+02 -0.14708441352E+02 -0.35271613417E+02  0.59616215749E+02  0.51100000000E-03 0. -1.
         23    2    1    0    0    0 -0.30243293290E+02 -0.63784525848E+01 -0.62591696478E+01  0.93554010225E+02  0.88078568211E+02 0.  0.
         11    1    3    3    0    0  0.15513326121E+02  0.83299887668E+01  0.29012443769E+02  0.33937794476E+02  0.51100000000E-03 0.  1.
         22    1    1    0    0    0  0.30243293290E+02  0.63784525848E+01  0.62591696478E+01  0.31535989775E+02  0.00000000000E+00 0. -1.
</event>
<event>
 5    1  0.1059945E-009  0.9118800E+02  0.7815553E-02  0.1125453E+00
         25   -1    0    0    0    0  0.00000000000E+00  0.00000000000E+00  0.99999998245E-14  0.12509000000E+03  0.12509000000E+03 0.  0.
        -11    1    3    3    0    0  0.51477025405E+02  0.96068499694E+00 -0.26538794532E+02  0.57923351731E+02  0.51100000000E-03 0. -1.
         23    2    1    0    0    0  0.15529665429E+02  0.38124312709E+01 -0.26681123759E+02  0.93983931370E+02  0.88687044433E+02 0.  0.
         11    1    3    3    0    0 -0.35947359976E+02  0.28517462740E+01 -0.14232922702E+00  0.36060579640E+02  0.51100000000E-03 0.  1.
         22    1    1    0    0    0 -0.15529665429E+02 -0.38124312709E+01  0.26681123759E+02  0.31106068630E+02  0.00000000000E+00 0. -1.
</event>
<event>
 5    1  0.1059945E-009  0.9118800E+02  0.7815553E-02  0.1125453E+00
         25   -1    0    0    0    0  0.00000000000E+00  0.00000000000E+00  0.99999998245E-14  0.12509000000E+03  0.12509000000E+03 0.  0.
        -11    1    3    3    0    0 -0.43373601195E+02  0.16267725313E+02  0.21271609342E+01  0.46372761201E+02  0.51100000000E-03 0.  1.
         23    2    1    0    0    0 -0.17307736223E+02 -0.23155561139E+02 -0.87813786545E+01  0.94876586491E+02  0.89937290977E+02 0.  0.
         11    1    3    3    0    0  0.26065864973E+02 -0.39423286452E+02 -0.10908539589E+02  0.48503825289E+02  0.51100000000E-03 0. -1.
         22    1    1    0    0    0  0.17307736223E+02  0.23155561139E+02  0.87813786545E+01  0.30213413509E+02  0.00000000000E+00 0. -1.
</event>
<event>
 5    1  0.1059945E-009  0.9118800E+02  0.7815553E-02  0.1125453E+00
         25   -1    0    0    0    0  0.00000000000E+00  0.00000000000E+00  0.99999998245E-14  0.12509000000E+03  0.12509000000E+03 0.  0.
        -11    1    3    3    0    0  0.52682567799E+02  0.37651220329E+01  0.16860187227E+02  0.55442718255E+02  0.51100000000E-03 0.  1.
         23    2    1    0    0    0  0.28233948858E+02  0.63858785878E+01 -0.12344895548E+02  0.93620462991E+02  0.88172894537E+02 0.  0.
         11    1    3    3    0    0 -0.24448618941E+02  0.26207565548E+01 -0.29205082774E+02  0.38177744737E+02  0.51100000000E-03 0. -1.
         22    1    1    0    0    0 -0.28233948858E+02 -0.63858785878E+01  0.12344895548E+02  0.31469537009E+02  0.00000000000E+00 0.  1.
</event>
<event>
 5    1  0.1059945E-009  0.9118800E+02  0.7815553E-02  0.1125453E+00
         25   -1    0    0    0    0  0.00000000000E+00  0.00000000000E+00  0.99999998245E-14  0.12509000000E+03  0.12509000000E+03 0.  0.
        -11    1    3    3    0    0  0.17525585073E+02  0.20151694043E+02  0.50689665379E+02  0.57294668875E+02  0.51100000000E-03 0.  1.
         23    2    1    0    0    0  0.22153267865E+02 -0.97159700666E+00  0.17806435737E+02  0.96650934764E+02  0.92372196896E+02 0.  0.
         11    1    3    3    0    0  0.46276827917E+01 -0.21123291050E+02 -0.32883229642E+02  0.39356265889E+02  0.51100000000E-03 0. -1.
         22    1    1    0    0    0 -0.22153267865E+02  0.97159700666E+00 -0.17806435737E+02  0.28439065236E+02  0.00000000000E+00 0.  1.
</event>
<event>
 5    1  0.1059945E-009  0.9118800E+02  0.7815553E-02  0.1125453E+00
         25   -1    0    0    0    0  0.00000000000E+00  0.00000000000E+00  0.99999998245E-14  0.12509000000E+03  0.12509000000E+03 0.  0.
        -11    1    3    3    0    0 -0.24779766108E+02 -0.23005987058E+02 -0.90188245067E+00  0.33824926328E+02  0.51100000000E-03 0. -1.
         23    2    1    0    0    0  0.17590293440E+02  0.22808871906E+02 -0.17312117455E+01  0.96234148686E+02  0.91806052187E+02 0.  0.
         11    1    3    3    0    0  0.42370059548E+02  0.45814858964E+02 -0.82932929486E+00  0.62409222358E+02  0.51100000000E-03 0.  1.
         22    1    1    0    0    0 -0.17590293440E+02 -0.22808871906E+02  0.17312117455E+01  0.28855851314E+02  0.00000000000E+00 0.  1.
</event>
<event>
 5    1  0.1059945E-009  0.9118800E+02  0.7815553E-02  0.1125453E+00
         25   -1    0    0    0    0  0.00000000000E+00  0.00000000000E+00  0.99999998245E-14  0.12509000000E+03  0.12509000000E+03 0.  0.
        -11    1    3    3    0    0  0.46167524010E+02  0.97805171078E+01  0.39105866019E+02  0.61289212309E+02  0.51100000000E-03 0. -1.
         23    2    1    0    0    0  0.26495048952E+02  0.89082950140E+00  0.11867679345E+02  0.96044810911E+02  0.91547707201E+02 0.  0.
         11    1    3    3    0    0 -0.19672475059E+02 -0.88896876064E+01 -0.27238186673E+02  0.34755598602E+02  0.51100000000E-03 0.  1.
         22    1    1    0    0    0 -0.26495048952E+02 -0.89082950140E+00 -0.11867679345E+02  0.29045189089E+02  0.00000000000E+00 0. -1.
</event>
<event>
 5    1  0.1059945E-009  0.9118800E+02  0.7815553E-02  0.1125453E+00
         25   -1    0    0    0    0  0.00000000000E+00  0.00000000000E+00  0.99999998245E-14  0.12509000000E+03  0.12509000000E+03 0.  0.
        -11    1    3    3    0    0  0.88633163465E+01 -0.49196372466E+02  0.28260776848E+02  0.57423975382E+02  0.51100000000E-03 0. -1.
         23    2    1    0    0    0  0.16458482709E+02 -0.14996013176E+02 -0.60263723608E+00  0.10281613110E+03  0.10037445680E+03 0.  0.
         11    1    3    3    0    0  0.75951663624E+01  0.34200359290E+02 -0.28863414084E+02  0.45392155715E+02  0.51100000000E-03 0.  1.
         22    1    1    0    0    0 -0.16458482709E+02  0.14996013176E+02  0.60263723608E+00  0.22273868903E+02  0.00000000000E+00 0. -1.
</event>
<event>
 5    1  0.1059945E-009  0.9118800E+02  0.7815553E-02  0.1125453E+00
         25   -1    0    0    0    0  0.00000000000E+00  0.00000000000E+00  0.99999998245E-14  0.12509000000E+03  0.12509000000E+03 0.  0.
        -11    1    3    3    0    0  0.21102134553E+02  0.24279152262E+02 -0.38466058146E+02  0.50143942275E+02  0.51100000000E-03 0.  1.
         23    2    1    0    0    0  0.15829298955E+02  0.21599965145E+02  0.81222266092E+01  0.97106151716E+02  0.92986606220E+02 0.  0.
         11    1    3    3    0    0 -0.52728355983E+01 -0.26791871170E+01  0.46588284756E+02  0.46962209441E+02  0.51100000000E-03 0. -1.
         22    1    1    0    0    0 -0.15829298955E+02 -0.21599965145E+02 -0.81222266092E+01  0.27983848284E+02  0.00000000000E+00 0.  1.
</event>
<event>
 5    1  0.1059945E-009  0.9118800E+02  0.7815553E-02  0.1125453E+00
         25   -1    0    0    0    0  0.00000000000E+00  0.00000000000E+00  0.99999998245E-14  0.12509000000E+03  0.12509000000E+03 0.  0.
        -11    1    3    3    0    0  0.18369732957E+02 -0.53334582267E+02 -0.21871892293E+01  0.56451825050E+02  0.51100000000E-03 0.  1.
         23    2    1    0    0    0  0.47375377341E+00 -0.24755212281E+02  0.16817618984E+02  0.95158790769E+02  0.90328944280E+02 0.  0.
         11    1    3    3    0    0 -0.17895979183E+02  0.28579369986E+02  0.19004808213E+02  0.38706965719E+02  0.51100000000E-03 0. -1.
         22    1    1    0    0    0 -0.47375377341E+00  0.24755212281E+02 -0.16817618984E+02  0.29931209231E+02  0.00000000000E+00 0.  1.
</event>
<event>
 5    1  0.1059945E-009  0.9118800E+02  0.7815553E-02  0.1125453E+00
         25   -1    0    0    0    0  0.00000000000E+00  0.00000000000E+00  0.99999998245E-14  0.12509000000E+03  0.12509000000E+03 0.  0.
        -11    1    3    3    0    0  0.27947718209E+02  0.17894488940E+02 -0.16496268034E+02  0.37059608023E+02  0.51100000000E-03 0.  1.
         23    2    1    0    0    0 -0.16322716219E+02 -0.21235479582E+02 -0.37855162116E+00  0.98303436966E+02  0.94583538526E+02 0.  0.
         11    1    3    3    0    0 -0.44270434428E+02 -0.39129968522E+02  0.16117716412E+02  0.61243828943E+02  0.51100000000E-03 0. -1.
         22    1    1    0    0    0  0.16322716219E+02  0.21235479582E+02  0.37855162116E+00  0.26786563034E+02  0.00000000000E+00 0. -1.
</event>
<event>
 5    1  0.1059945E-009  0.9118800E+02  0.7815553E-02  0.1125453E+00
         25   -1    0    0    0    0  0.00000000000E+00  0.00000000000E+00  0.99999998245E-14  0.12509000000E+03  0.12509000000E+03 0.  0.
        -11    1    3    3    0    0 -0.30580060719E+02 -0.49008148137E+02 -0.16432279002E+02  0.60057959429E+02  0.51100000000E-03 0.  1.
         23    2    1    0    0    0 -0.20111059466E+02 -0.18810053446E+02  0.28835931013E+01  0.97402675596E+02  0.93384652275E+02 0.  0.
         11    1    3    3    0    0  0.10469001253E+02  0.30198094691E+02  0.19315872103E+02  0.37344716166E+02  0.51100000000E-03 0. -1.
         22    1    1    0    0    0  0.20111059466E+02  0.18810053446E+02 -0.28835931013E+01  0.27687324404E+02  0.00000000000E+00 0.  1.
</event>
<event>
 5    1  0.1059945E-009  0.9118800E+02  0.7815553E-02  0.1125453E+00
         25   -1    0    0    0    0  0.00000000000E+00  0.00000000000E+00  0.99999998245E-14  0.12509000000E+03  0.12509000000E+03 0.  0.
        -11    1    3    3    0    0 -0.37265090216E+01  0.33071998020E+02 -0.32071722438E+02  0.46219468873E+02  0.51100000000E-03 0.  1.
         23    2    1    0    0    0  0.14832787907E+02 -0.12588702224E+02 -0.20459740682E+02  0.96857252886E+02  0.92651170673E+02 0.  0.
         11    1    3    3    0    0  0.18559296929E+02 -0.45660700244E+02  0.11611981755E+02  0.50637784014E+02  0.51100000000E-03 0. -1.
         22    1    1    0    0    0 -0.14832787907E+02  0.12588702224E+02  0.20459740682E+02  0.28232747114E+02  0.00000000000E+00 0. -1.
</event>
<event>
 5    1  0.1059945E-009  0.9118800E+02  0.7815553E-02  0.1125453E+00
         25   -1    0    0    0    0  0.00000000000E+00  0.00000000000E+00  0.99999998245E-14  0.12509000000E+03  0.12509000000E+03 0.  0.
        -11    1    3    3    0    0  0.52151207463E+01 -0.53740502103E+02  0.16634690161E+02  0.56497362484E+02  0.51100000000E-03 0.  1.
         23    2    1    0    0    0  0.13826238235E+02 -0.15526256331E+02  0.20540822430E+02  0.95864071692E+02  0.91300412682E+02 0.  0.
         11    1    3    3    0    0  0.86111174883E+01  0.38214245772E+02  0.39061322689E+01  0.39366709208E+02  0.51100000000E-03 0. -1.
         22    1    1    0    0    0 -0.13826238235E+02  0.15526256331E+02 -0.20540822430E+02  0.29225928308E+02  0.00000000000E+00 0.  1.
</event>
<event>
 5    1  0.1059945E-009  0.9118800E+02  0.7815553E-02  0.1125453E+00
         25   -1    0    0    0    0  0.00000000000E+00  0.00000000000E+00  0.99999998245E-14  0.12509000000E+03  0.12509000000E+03 0.  0.
        -11    1    3    3    0    0  0.18885900887E+02 -0.62545053959E+00 -0.28489128777E+02  0.34186238451E+02  0.51100000000E-03 0.  1.
         23    2    1    0    0    0 -0.22979611566E+02 -0.12169325349E+01  0.17350923302E+02  0.96269902638E+02  0.91854755685E+02 0.  0.
         11    1    3    3    0    0 -0.41865512453E+02 -0.59148199526E+00  0.45840052079E+02  0.62083664187E+02  0.51100000000E-03 0. -1.
         22    1    1    0    0    0  0.22979611566E+02  0.12169325349E+01 -0.17350923302E+02  0.28820097362E+02  0.00000000000E+00 0. -1.
</event>
<event>
 5    1  0.1059945E-009  0.9118800E+02  0.7815553E-02  0.1125453E+00
         25   -1    0    0    0    0  0.00000000000E+00  0.00000000000E+00  0.99999998245E-14  0.12509000000E+03  0.12509000000E+03 0.  0.
        -11    1    3    3    0    0  0.25257058885E+02  0.18432130852E+02 -0.83620900192E+01  0.32366449002E+02  0.51100000000E-03 0. -1.
         23    2    1    0    0    0 -0.26435747285E+02 -0.15031130185E+02  0.10571398016E+01  0.94661376079E+02  0.89637464085E+02 0.  0.
         11    1    3    3    0    0 -0.51692806170E+02 -0.33463261037E+02  0.94192298208E+01  0.62294927077E+02  0.51100000000E-03 0.  1.
         22    1    1    0    0    0  0.26435747285E+02  0.15031130185E+02 -0.10571398016E+01  0.30428623921E+02  0.00000000000E+00 0.  1.
</event>
<event>
 5    1  0.1059945E-009  0.9118800E+02  0.7815553E-02  0.1125453E+00
         25   -1    0    0    0    0  0.00000000000E+00  0.00000000000E+00  0.99999998245E-14  0.12509000000E+03  0.12509000000E+03 0.  0.
        -11    1    3    3    0    0  0.25006238612E+02  0.99068765181E+01 -0.20795499927E+02  0.33998690994E+02  0.51100000000E-03 0. -1.
         23    2    1    0    0    0 -0.23693962291E+02 -0.20159442651E+02 -0.35249500528E+01  0.93781339059E+02  0.88400833173E+02 0.  0.
         11    1    3    3    0    0 -0.48700200903E+02 -0.30066319169E+02  0.17270549875E+02  0.59782648064E+02  0.51100000000E-03 0.  1.
         22    1    1    0    0    0  0.23693962291E+02  0.20159442651E+02  0.35249500528E+01  0.31308660941E+02  0.00000000000E+00 0.  1.
</event>
<event>
 5    1  0.1059945E-009  0.9118800E+02  0.7815553E-02  0.1125453E+00
         25   -1    0    0    0    0  0.00000000000E+00  0.00000000000E+00  0.99999998245E-14  0.12509000000E+03  0.12509000000E+03 0.  0.
        -11    1    3    3    0    0 -0.17148585891E+02 -0.68710488073E+01 -0.30758155894E+02  0.35879652508E+02  0.51100000000E-03 0.  1.
         23    2    1    0    0    0  0.63647115092E+01  0.67689327096E+01  0.25276605851E+02  0.98159816080E+02  0.94393403831E+02 0.  0.
         11    1    3    3    0    0  0.23513297401E+02  0.13639981517E+02  0.56034761745E+02  0.62280163572E+02  0.51100000000E-03 0. -1.
         22    1    1    0    0    0 -0.63647115092E+01 -0.67689327096E+01 -0.25276605851E+02  0.26930183920E+02  0.00000000000E+00 0. -1.
</event>
<event>
 5    1  0.1059945E-009  0.9118800E+02  0.7815553E-02  0.1125453E+00
         25   -1    0    0    0    0  0.00000000000E+00  0.00000000000E+00  0.99999998245E-14  0.12509000000E+03  0.12509000000E+03 0.  0.
        -11    1    3    3    0    0  0.52076594671E+02 -0.23097010386E+02  0.18172927093E+02  0.59797147764E+02  0.51100000000E-03 0. -1.
         23    2    1    0    0    0  0.23030222149E+02  0.29889808107E+01  0.10583952103E+02  0.99568534904E+02  0.96242131951E+02 0.  0.
         11    1    3    3    0    0 -0.29046372522E+02  0.26085991197E+02 -0.75889749903E+01  0.39771387141E+02  0.51100000000E-03 0.  1.
         22    1    1    0    0    0 -0.23030222149E+02 -0.29889808107E+01 -0.10583952103E+02  0.25521465096E+02  0.00000000000E+00 0. -1.
</event>
<event>
 5    1  0.1059945E-009  0.9118800E+02  0.7815553E-02  0.1125453E+00
         25   -1    0    0    0    0  0.00000000000E+00  0.00000000000E+00  0.99999998245E-14  0.12509000000E+03  0.12509000000E+03 0.  0.
        -11    1    3    3    0    0  0.67439647472E+01  0.39902502988E+02  0.15676742846E+02  0.43398745048E+02  0.51100000000E-03 0.  1.
         23    2    1    0    0    0 -0.28028990482E+02  0.13450149712E+01  0.81958492249E+01  0.95856366678E+02  0.91289855491E+02 0.  0.
         11    1    3    3    0    0 -0.34772955229E+02 -0.38557488016E+02 -0.74808936212E+01  0.52457621630E+02  0.51100000000E-03 0. -1.
         22    1    1    0    0    0  0.28028990482E+02 -0.13450149712E+01 -0.81958492249E+01  0.29233633322E+02  0.00000000000E+00 0. -1.
</event>
<event>
 5    1  0.1059945E-009  0.9118800E+02  0.7815553E-02  0.1125453E+00
         25   -1    0    0    0    0  0.00000000000E+00  0.00000000000E+00  0.99999998245E-14  0.12509000000E+03  0.12509000000E+03 0.  0.
        -11    1    3    3    0    0  0.15549305299E+01  0.27813366663E+01 -0.48490180389E+02  0.48594765531E+02  0.51100000000E-03 0. -1.
         23    2    1    0    0    0 -0.27652499086E+02  0.31646228084E+01 -0.13557374393E+02  0.94130705052E+02  0.88893822563E+02 0.  0.
         11    1    3    3    0    0 -0.29207429616E+02  0.38328614205E+00  0.34932805996E+02  0.45535939521E+02  0.51100000000E-03 0.  1.
         22    1    1    0    0    0  0.27652499086E+02 -0.31646228084E+01  0.13557374393E+02  0.30959294948E+02  0.00000000000E+00 0.  1.
</event>
<event>
 5    1  0.1059945E-009  0.9118800E+02  0.7815553E-02  0.1125453E+00
         25   -1    0    0    0    0  0.00000000000E+00  0.00000000000E+00  0.99999998245E-14  0.12509000000E+03  0.12509000000E+03 0.  0.
        -11    1    3    3    0    0  0.12443248958E+02 -0.50607805831E+02 -0.19448514241E+02  0.55625795833E+02  0.51100000000E-03 0. -1.
         23    2    1    0    0    0  0.91201179198E+01 -0.95146328405E+01 -0.24608087292E+02  0.97174721940E+02  0.93078804435E+02 0.  0.
         11    1    3    3    0    0 -0.33231310381E+01  0.41093172990E+02 -0.51595730518E+01  0.41548926107E+02  0.51100000000E-03 0.  1.
         22    1    1    0    0    0 -0.91201179198E+01  0.95146328405E+01  0.24608087292E+02  0.27915278060E+02  0.00000000000E+00 0. -1.
</event>
<event>
 5    1  0.1059945E-009  0.9118800E+02  0.7815553E-02  0.1125453E+00
         25   -1    0    0    0    0  0.00000000000E+00  0.00000000000E+00  0.99999998245E-14  0.12509000000E+03  0.12509000000E+03 0.  0.
        -11    1    3    3    0    0  0.16388895425E+02  0.30618261243E+02  0.11708480889E+02  0.36649179251E+02  0.51100000000E-03 0. -1.
         23    2    1    0    0    0 -0.24533163830E+02  0.83883043120E+00 -0.17369897350E+02  0.95018533491E+02  0.90134502877E+02 0.  0.
         11    1    3    3    0    0 -0.40922059255E+02 -0.29779430811E+02 -0.29078378240E+02  0.58369354240E+02  0.51100000000E-03 0.  1.
         22    1    1    0    0    0  0.24533163830E+02 -0.83883043120E+00  0.17369897350E+02  0.30071466509E+02  0.00000000000E+00 0.  1.
</event>
<event>
 5    1  0.1059945E-009  0.9118800E+02  0.7815553E-02  0.1125453E+00
         25   -1    0    0    0    0  0.00000000000E+00  0.00000000000E+00  0.99999998245E-14  0.12509000000E+03  0.12509000000E+03 0.  0.
        -11    1    3    3    0    0 -0.18391253297E+00  0.48378486953E+02  0.11897673731E+02  0.49820341871E+02  0.51100000000E-03 0.  1.
         23    2    1    0    0    0  0.22122503309E+02  0.82957930707E+01  0.17011633122E+02  0.95976068682E+02  0.91453730174E+02 0.  0.
         11    1    3    3    0    0  0.22306415842E+02 -0.40082693882E+02  0.51139593906E+01  0.46155726811E+02  0.51100000000E-03 0. -1.
         22    1    1    0    0    0 -0.22122503309E+02 -0.82957930707E+01 -0.17011633122E+02  0.29113931318E+02  0.00000000000E+00 0.  1.
</event>
<event>
 5    1  0.1059945E-009  0.9118800E+02  0.7815553E-02  0.1125453E+00
         25   -1    0    0    0    0  0.00000000000E+00  0.00000000000E+00  0.99999998245E-14  0.12509000000E+03  0.12509000000E+03 0.  0.
        -11    1    3    3    0    0  0.32428934665E+02  0.29673004105E+02  0.29685093243E+02  0.53040811997E+02  0.51100000000E-03 0. -1.
         23    2    1    0    0    0  0.22219585283E+02  0.16445787069E+02 -0.96761501003E+01  0.95801747009E+02  0.91214982140E+02 0.  0.
         11    1    3    3    0    0 -0.10209349382E+02 -0.13227217036E+02 -0.39361243344E+02  0.42760935013E+02  0.51100000000E-03 0.  1.
         22    1    1    0    0    0 -0.22219585283E+02 -0.16445787069E+02  0.96761501003E+01  0.29288252991E+02  0.00000000000E+00 0. -1.
</event>
<event>
 5    1  0.1059945E-009  0.9118800E+02  0.7815553E-02  0.1125453E+00
         25   -1    0    0    0    0  0.00000000000E+00  0.00000000000E+00  0.99999998245E-14  0.12509000000E+03  0.12509000000E+03 0.  0.
        -11    1    3    3    0    0  0.26108793140E+02 -0.80290749550E+01  0.27773647030E+02  0.38955238331E+02  0.51100000000E-03 0. -1.
         23    2    1    0    0    0  0.11490465774E+02 -0.61504830940E+01 -0.26695375377E+02  0.95383059523E+02  0.90638985716E+02 0.  0.
         11    1    3    3    0    0 -0.14618327366E+02  0.18785918610E+01 -0.54469022406E+02  0.56427821192E+02  0.51100000000E-03 0.  1.
         22    1    1    0    0    0 -0.11490465774E+02  0.61504830940E+01  0.26695375377E+02  0.29706940477E+02  0.00000000000E+00 0.  1.
</event>
<event>
 5    1  0.1059945E-009  0.9118800E+02  0.7815553E-02  0.1125453E+00
         25   -1    0    0    0    0  0.00000000000E+00  0.00000000000E+00  0.99999998245E-14  0.12509000000E+03  0.12509000000E+03 0.  0.
        -11    1    3    3    0    0 -0.41195485841E+02 -0.32890831369E+02 -0.30974936293E+02  0.61141814828E+02  0.51100000000E-03 0.  1.
         23    2    1    0    0    0 -0.15636495791E+02 -0.22420683304E+02 -0.94195487622E+01  0.96177806390E+02  0.91729251075E+02 0.  0.
         11    1    3    3    0    0  0.25558990050E+02  0.10470148065E+02  0.21555387531E+02  0.35035991562E+02  0.51100000000E-03 0. -1.
         22    1    1    0    0    0  0.15636495791E+02  0.22420683304E+02  0.94195487622E+01  0.28912193610E+02  0.00000000000E+00 0.  1.
</event>
<event>
 5    1  0.1059945E-009  0.9118800E+02  0.7815553E-02  0.1125453E+00
         25   -1    0    0    0    0  0.00000000000E+00  0.00000000000E+00  0.99999998245E-14  0.12509000000E+03  0.12509000000E+03 0.  0.
        -11    1    3    3    0    0 -0.30946214198E+02  0.49022378903E+02 -0.73567030167E+01  0.58437854906E+02  0.51100000000E-03 0.  1.
         23    2    1    0    0    0 -0.93432835558E+01  0.18657384729E+02 -0.18362644993E+02  0.97294646365E+02  0.93239833374E+02 0.  0.
         11    1    3    3    0    0  0.21602930642E+02 -0.30364994173E+02 -0.11005941977E+02  0.38856791459E+02  0.51100000000E-03 0. -1.
         22    1    1    0    0    0  0.93432835558E+01 -0.18657384729E+02  0.18362644993E+02  0.27795353635E+02  0.00000000000E+00 0.  1.
</event>
<event>
 5    1  0.1059945E-009  0.9118800E+02  0.7815553E-02  0.1125453E+00
         25   -1    0    0    0    0  0.00000000000E+00  0.00000000000E+00  0.99999998245E-14  0.12509000000E+03  0.12509000000E+03 0.  0.
        -11    1    3    3    0    0 -0.27134972735E+02 -0.31274304309E+02 -0.33801600325E+02  0.53450323106E+02  0.51100000000E-03 0.  1.
         23    2    1    0    0    0 -0.13770780902E+02 -0.27913640220E+02  0.40215903982E+01  0.93705626400E+02  0.88293632345E+02 0.  0.
         11    1    3    3    0    0  0.13364191834E+02  0.33606640887E+01  0.37823190723E+02  0.40255303293E+02  0.51100000000E-03 0. -1.
         22    1    1    0    0    0  0.13770780902E+02  0.27913640220E+02 -0.40215903982E+01  0.31384373600E+02  0.00000000000E+00 0.  1.
</event>
<event>
 5    1  0.1059945E-009  0.9118800E+02  0.7815553E-02  0.1125453E+00
         25   -1    0    0    0    0  0.00000000000E+00  0.00000000000E+00  0.99999998245E-14  0.12509000000E+03  0.12509000000E+03 0.  0.
        -11    1    3    3    0    0 -0.32980374733E+02  0.36268262945E+02 -0.50529045404E+01  0.49281069988E+02  0.51100000000E-03 0.  1.
         23    2    1    0    0    0 -0.23420032445E+02 -0.12022809249E+02 -0.37603966517E-01  0.98764208919E+02  0.95190974821E+02 0.  0.
         11    1    3    3    0    0  0.95603422883E+01 -0.48291072194E+02  0.50153005739E+01  0.49483138931E+02  0.51100000000E-03 0. -1.
         22    1    1    0    0    0  0.23420032445E+02  0.12022809249E+02  0.37603966517E-01  0.26325791081E+02  0.00000000000E+00 0. -1.
</event>
<event>
 5    1  0.1059945E-009  0.9118800E+02  0.7815553E-02  0.1125453E+00
         25   -1    0    0    0    0  0.00000000000E+00  0.00000000000E+00  0.99999998245E-14  0.12509000000E+03  0.12509000000E+03 0.  0.
        -11    1    3    3    0    0  0.30124724704E+02 -0.80600900687E+01  0.39631211292E+02  0.50429128479E+02  0.51100000000E-03 0. -1.
         23    2    1    0    0    0  0.24470664383E+02 -0.56825283067E+01 -0.82090484004E+01  0.98660981499E+02  0.95055227375E+02 0.  0.
         11    1    3    3    0    0 -0.56540603206E+01  0.23775617620E+01 -0.47840259692E+02  0.48231853020E+02  0.51100000000E-03 0.  1.
         22    1    1    0    0    0 -0.24470664383E+02  0.56825283067E+01  0.82090484004E+01  0.26429018501E+02  0.00000000000E+00 0. -1.
</event>
<event>
 5    1  0.1059945E-009  0.9118800E+02  0.7815553E-02  0.1125453E+00
         25   -1    0    0    0    0  0.00000000000E+00  0.00000000000E+00  0.99999998245E-14  0.12509000000E+03  0.12509000000E+03 0.  0.
        -11    1    3    3    0    0  0.71493889597E+01  0.35421079548E+02  0.17572415202E+02  0.40181543215E+02  0.51100000000E-03 0. -1.
         23    2    1    0    0    0 -0.72698382518E+01 -0.22186931883E+02  0.84342429501E+01  0.10026567828E+03  0.97144013159E+02 0.  0.
         11    1    3    3    0    0 -0.14419227212E+02 -0.57608011431E+02 -0.91381722517E+01  0.60084135067E+02  0.51100000000E-03 0.  1.
         22    1    1    0    0    0  0.72698382518E+01  0.22186931883E+02 -0.84342429501E+01  0.24824321718E+02  0.00000000000E+00 0.  1.
</event>
<event>
 5    1  0.1059945E-009  0.9118800E+02  0.7815553E-02  0.1125453E+00
         25   -1    0    0    0    0  0.00000000000E+00  0.00000000000E+00  0.99999998245E-14  0.12509000000E+03  0.12509000000E+03 0.  0.
        -11    1    3    3    0    0  0.30831516069E+02 -0.18878114539E+02 -0.83312927244E+01  0.37099542186E+02  0.51100000000E-03 0.  1.
         23    2    1    0    0    0 -0.19949659120E+02  0.80507624895E+01 -0.19960177973E+02  0.95743579769E+02  0.91135178095E+02 0.  0.
         11    1    3    3    0    0 -0.50781175189E+02  0.26928877029E+02 -0.11628885249E+02  0.58644037583E+02  0.51100000000E-03 0. -1.
         22    1    1    0    0    0  0.19949659120E+02 -0.80507624895E+01  0.19960177973E+02  0.29346420231E+02  0.00000000000E+00 0. -1.
</event>
<event>
 5    1  0.1059945E-009  0.9118800E+02  0.7815553E-02  0.1125453E+00
         25   -1    0    0    0    0  0.00000000000E+00  0.00000000000E+00  0.99999998245E-14  0.12509000000E+03  0.12509000000E+03 0.  0.
        -11    1    3    3    0    0 -0.55022023025E+02  0.28478945725E+01 -0.27588497998E+02  0.61617032900E+02  0.51100000000E-03 0. -1.
         23    2    1    0    0    0 -0.25144893807E+02 -0.13501435905E+01 -0.20525393857E+02  0.92603381751E+02  0.86717967841E+02 0.  0.
         11    1    3    3    0    0  0.29877129218E+02 -0.41980381630E+01  0.70631041408E+01  0.30986348851E+02  0.51100000000E-03 0.  1.
         22    1    1    0    0    0  0.25144893807E+02  0.13501435905E+01  0.20525393857E+02  0.32486618249E+02  0.00000000000E+00 0. -1.
</event>
<event>
 5    1  0.1059945E-009  0.9118800E+02  0.7815553E-02  0.1125453E+00
         25   -1    0    0    0    0  0.00000000000E+00  0.00000000000E+00  0.99999998245E-14  0.12509000000E+03  0.12509000000E+03 0.  0.
        -11    1    3    3    0    0 -0.20632382305E+01  0.41176853856E+02 -0.52432531776E+01  0.41560581680E+02  0.51100000000E-03 0.  1.
         23    2    1    0    0    0 -0.12997601074E+02  0.29675245265E+00  0.27239274112E+02  0.94907161336E+02  0.89979806195E+02 0.  0.
         11    1    3    3    0    0 -0.10934362844E+02 -0.40880101403E+02  0.32482527289E+02  0.53346579655E+02  0.51100000000E-03 0. -1.
         22    1    1    0    0    0  0.12997601074E+02 -0.29675245265E+00 -0.27239274112E+02  0.30182838664E+02  0.00000000000E+00 0. -1.
</event>
<event>
 5    1  0.1059945E-009  0.9118800E+02  0.7815553E-02  0.1125453E+00
         25   -1    0    0    0    0  0.00000000000E+00  0.00000000000E+00  0.99999998245E-14  0.12509000000E+03  0.12509000000E+03 0.  0.
        -11    1    3    3    0    0 -0.34184927969E+02 -0.36715767313E+02  0.22834486513E+02  0.55118695959E+02  0.51100000000E-03 0.  1.
         23    2    1    0    0    0 -0.22922283224E+02 -0.16872763218E+02 -0.98429155416E+01  0.94973489691E+02  0.90071968730E+02 0.  0.
         11    1    3    3    0    0  0.11262644744E+02  0.19843004095E+02 -0.32677402054E+02  0.39854793732E+02  0.51100000000E-03 0. -1.
         22    1    1    0    0    0  0.22922283224E+02  0.16872763218E+02  0.98429155416E+01  0.30116510309E+02  0.00000000000E+00 0.  1.
</event>
<event>
 5    1  0.1059945E-009  0.9118800E+02  0.7815553E-02  0.1125453E+00
         25   -1    0    0    0    0  0.00000000000E+00  0.00000000000E+00  0.99999998245E-14  0.12509000000E+03  0.12509000000E+03 0.  0.
        -11    1    3    3    0    0 -0.16325265192E+02  0.76565752372E+00 -0.29934897183E+02  0.34105697246E+02  0.51100000000E-03 0.  1.
         23    2    1    0    0    0  0.39110793055E+01 -0.10085652373E+02  0.27273089534E+02  0.95749953342E+02  0.91143925893E+02 0.  0.
         11    1    3    3    0    0  0.20236344498E+02 -0.10851309896E+02  0.57207986718E+02  0.61644256096E+02  0.51100000000E-03 0. -1.
         22    1    1    0    0    0 -0.39110793055E+01  0.10085652373E+02 -0.27273089534E+02  0.29340046658E+02  0.00000000000E+00 0. -1.
</event>
<event>
 5    1  0.1059945E-009  0.9118800E+02  0.7815553E-02  0.1125453E+00
         25   -1    0    0    0    0  0.00000000000E+00  0.00000000000E+00  0.99999998245E-14  0.12509000000E+03  0.12509000000E+03 0.  0.
        -11    1    3    3    0    0  0.13092962167E+02  0.40191981565E+02  0.37156795763E+01  0.42433799210E+02  0.51100000000E-03 0. -1.
         23    2    1    0    0    0  0.26348817055E+01 -0.28559012834E+01 -0.27939615601E+02  0.96881474805E+02  0.92683867349E+02 0.  0.
         11    1    3    3    0    0 -0.10458080462E+02 -0.43047882848E+02 -0.31655295177E+02  0.54447675595E+02  0.51100000000E-03 0.  1.
         22    1    1    0    0    0 -0.26348817055E+01  0.28559012834E+01  0.27939615601E+02  0.28208525195E+02  0.00000000000E+00 0.  1.
</event>
<event>
 5    1  0.1059945E-009  0.9118800E+02  0.7815553E-02  0.1125453E+00
         25   -1    0    0    0    0  0.00000000000E+00  0.00000000000E+00  0.99999998245E-14  0.12509000000E+03  0.12509000000E+03 0.  0.
        -11    1    3    3    0    0  0.19137778598E+02 -0.37947181688E+01  0.55054712544E+02  0.58409552551E+02  0.51100000000E-03 0.  1.
         23    2    1    0    0    0 -0.48584707693E+01 -0.10744851483E+02  0.24674163701E+02  0.97742771147E+02  0.93839109041E+02 0.  0.
         11    1    3    3    0    0 -0.23996249368E+02 -0.69501333139E+01 -0.30380548843E+02  0.39333218595E+02  0.51100000000E-03 0. -1.
         22    1    1    0    0    0  0.48584707693E+01  0.10744851483E+02 -0.24674163701E+02  0.27347228853E+02  0.00000000000E+00 0.  1.
</event>
<event>
 5    1  0.1059945E-009  0.9118800E+02  0.7815553E-02  0.1125453E+00
         25   -1    0    0    0    0  0.00000000000E+00  0.00000000000E+00  0.99999998245E-14  0.12509000000E+03  0.12509000000E+03 0.  0.
        -11    1    3    3    0    0  0.18879082816E+02  0.29171711747E+02  0.24851720256E+02  0.42720212243E+02  0.51100000000E-03 0.  1.
         23    2    1    0    0    0  0.16490320812E+02  0.37588756090E+01 -0.22754871278E+02  0.96737857344E+02  0.92489832145E+02 0.  0.
         11    1    3    3    0    0 -0.23887620038E+01 -0.25412836138E+02 -0.47606591533E+02  0.54017645100E+02  0.51100000000E-03 0. -1.
         22    1    1    0    0    0 -0.16490320812E+02 -0.37588756090E+01  0.22754871278E+02  0.28352142656E+02  0.00000000000E+00 0. -1.
</event>
<event>
 5    1  0.1059945E-009  0.9118800E+02  0.7815553E-02  0.1125453E+00
         25   -1    0    0    0    0  0.00000000000E+00  0.00000000000E+00  0.99999998245E-14  0.12509000000E+03  0.12509000000E+03 0.  0.
        -11    1    3    3    0    0 -0.76038722579E+01 -0.45485656763E+02 -0.23916650017E+01  0.46178825302E+02  0.51100000000E-03 0.  1.
         23    2    1    0    0    0  0.39989870041E+01 -0.34369252531E+01 -0.27890660291E+02  0.96705263190E+02  0.92445738923E+02 0.  0.
         11    1    3    3    0    0  0.11602859262E+02  0.42048731510E+02 -0.25498995290E+02  0.50526437889E+02  0.51100000000E-03 0. -1.
         22    1    1    0    0    0 -0.39989870041E+01  0.34369252531E+01  0.27890660291E+02  0.28384736810E+02  0.00000000000E+00 0.  1.
</event>
<event>
 5    1  0.1059945E-009  0.9118800E+02  0.7815553E-02  0.1125453E+00
         25   -1    0    0    0    0  0.00000000000E+00  0.00000000000E+00  0.99999998245E-14  0.12509000000E+03  0.12509000000E+03 0.  0.
        -11    1    3    3    0    0  0.38922504815E+02  0.12145707585E+02  0.16267236668E+02  0.43898776554E+02  0.51100000000E-03 0. -1.
         23    2    1    0    0    0 -0.10209757952E+02 -0.43228424364E+01 -0.16501792915E+02  0.10520947451E+03  0.10331407568E+03 0.  0.
         11    1    3    3    0    0 -0.49132262767E+02 -0.16468550022E+02 -0.32769029582E+02  0.61310697961E+02  0.51100000000E-03 0.  1.
         22    1    1    0    0    0  0.10209757952E+02  0.43228424364E+01  0.16501792915E+02  0.19880525485E+02  0.00000000000E+00 0.  1.
</event>
<event>
 5    1  0.1059945E-009  0.9118800E+02  0.7815553E-02  0.1125453E+00
         25   -1    0    0    0    0  0.00000000000E+00  0.00000000000E+00  0.99999998245E-14  0.12509000000E+03  0.12509000000E+03 0.  0.
        -11    1    3    3    0    0 -0.40092233861E+02 -0.69611411631E+01  0.41587731097E+02  0.58184053488E+02  0.51100000000E-03 0. -1.
         23    2    1    0    0    0 -0.26713185296E+02 -0.91787823210E+01  0.60752508472E+01  0.96197907891E+02  0.91756659138E+02 0.  0.
         11    1    3    3    0    0  0.13379048565E+02 -0.22176411579E+01 -0.35512480250E+02  0.38013854403E+02  0.51100000000E-03 0.  1.
         22    1    1    0    0    0  0.26713185296E+02  0.91787823210E+01 -0.60752508472E+01  0.28892092109E+02  0.00000000000E+00 0. -1.
</event>
<event>
 5    1  0.1059945E-009  0.9118800E+02  0.7815553E-02  0.1125453E+00
         25   -1    0    0    0    0  0.00000000000E+00  0.00000000000E+00  0.99999998245E-14  0.12509000000E+03  0.12509000000E+03 0.  0.
        -11    1    3    3    0    0 -0.52928358475E+02  0.10442282298E+01  0.18001365935E+02  0.55915567771E+02  0.51100000000E-03 0. -1.
         23    2    1    0    0    0 -0.20321187050E+02  0.20215718529E+02  0.45198924705E+01  0.96071810072E+02  0.91584591192E+02 0.  0.
         11    1    3    3    0    0  0.32607171425E+02  0.19171490300E+02 -0.13481473465E+02  0.40156242300E+02  0.51100000000E-03 0.  1.
         22    1    1    0    0    0  0.20321187050E+02 -0.20215718529E+02 -0.45198924705E+01  0.29018189928E+02  0.00000000000E+00 0. -1.
</event>
<event>
 5    1  0.1059945E-009  0.9118800E+02  0.7815553E-02  0.1125453E+00
         25   -1    0    0    0    0  0.00000000000E+00  0.00000000000E+00  0.99999998245E-14  0.12509000000E+03  0.12509000000E+03 0.  0.
        -11    1    3    3    0    0  0.10359011292E+02  0.45787253675E+02 -0.34318695031E+02  0.58151135354E+02  0.51100000000E-03 0. -1.
         23    2    1    0    0    0  0.19448010596E+02  0.20479760217E+02 -0.80975398192E+01  0.95709464848E+02  0.91088340723E+02 0.  0.
         11    1    3    3    0    0  0.90889993033E+01 -0.25307493458E+02  0.26221155212E+02  0.37558329494E+02  0.51100000000E-03 0.  1.
         22    1    1    0    0    0 -0.19448010596E+02 -0.20479760217E+02  0.80975398192E+01  0.29380535152E+02  0.00000000000E+00 0. -1.
</event>
<event>
 5    1  0.1059945E-009  0.9118800E+02  0.7815553E-02  0.1125453E+00
         25   -1    0    0    0    0  0.00000000000E+00  0.00000000000E+00  0.99999998245E-14  0.12509000000E+03  0.12509000000E+03 0.  0.
        -11    1    3    3    0    0 -0.15886104054E+02 -0.32760195215E+02 -0.24714035410E+02  0.44004343411E+02  0.51100000000E-03 0. -1.
         23    2    1    0    0    0 -0.26254707239E+02  0.13588876636E+02 -0.68791928992E+01  0.94737232163E+02  0.89743259593E+02 0.  0.
         11    1    3    3    0    0 -0.10368603185E+02  0.46349071851E+02  0.17834842511E+02  0.50732888751E+02  0.51100000000E-03 0.  1.
         22    1    1    0    0    0  0.26254707239E+02 -0.13588876636E+02  0.68791928992E+01  0.30352767837E+02  0.00000000000E+00 0. -1.
</event>
<event>
 5    1  0.1059945E-009  0.9118800E+02  0.7815553E-02  0.1125453E+00
         25   -1    0    0    0    0  0.00000000000E+00  0.00000000000E+00  0.99999998245E-14  0.12509000000E+03  0.12509000000E+03 0.  0.
        -11    1    3    3    0    0 -0.16817609479E+02 -0.55224510895E+01  0.28376254792E+02  0.33444600325E+02  0.51100000000E-03 0. -1.
         23    2    1    0    0    0  0.27182699173E+02  0.21523888393E+02  0.17605519452E+02  0.86203868525E+02  0.76934879785E+02 0.  0.
         11    1    3    3    0    0  0.44000308652E+02  0.27046339483E+02 -0.10770735340E+02  0.52759268199E+02  0.51100000000E-03 0.  1.
         22    1    1    0    0    0 -0.27182699173E+02 -0.21523888393E+02 -0.17605519452E+02  0.38886131475E+02  0.00000000000E+00 0.  1.
</event>
<event>
 5    1  0.1059945E-009  0.9118800E+02  0.7815553E-02  0.1125453E+00
         25   -1    0    0    0    0  0.00000000000E+00  0.00000000000E+00  0.99999998245E-14  0.12509000000E+03  0.12509000000E+03 0.  0.
        -11    1    3    3    0    0  0.30336448686E+01  0.39196899224E+01 -0.35460078873E+02  0.35804806440E+02  0.51100000000E-03 0.  1.
         23    2    1    0    0    0  0.12031962877E+02 -0.20983461561E+02  0.17648029981E+02  0.95147943424E+02  0.90313921330E+02 0.  0.
         11    1    3    3    0    0  0.89983180080E+01 -0.24903151484E+02  0.53108108854E+02  0.59343136984E+02  0.51100000000E-03 0. -1.
         22    1    1    0    0    0 -0.12031962877E+02  0.20983461561E+02 -0.17648029981E+02  0.29942056576E+02  0.00000000000E+00 0. -1.
</event>
<event>
 5    1  0.1059945E-009  0.9118800E+02  0.7815553E-02  0.1125453E+00
         25   -1    0    0    0    0  0.00000000000E+00  0.00000000000E+00  0.99999998245E-14  0.12509000000E+03  0.12509000000E+03 0.  0.
        -11    1    3    3    0    0 -0.77171920722E+01  0.69764139642E+01 -0.30931961907E+02  0.32634516589E+02  0.51100000000E-03 0.  1.
         23    2    1    0    0    0 -0.17212228263E+01 -0.22339031013E+02  0.22159477002E+02  0.93577505087E+02  0.88111929514E+02 0.  0.
         11    1    3    3    0    0  0.59959692458E+01 -0.29315444977E+02  0.53091438909E+02  0.60942988499E+02  0.51100000000E-03 0. -1.
         22    1    1    0    0    0  0.17212228263E+01  0.22339031013E+02 -0.22159477002E+02  0.31512494913E+02  0.00000000000E+00 0. -1.
</event>
<event>
 5    1  0.1059945E-009  0.9118800E+02  0.7815553E-02  0.1125453E+00
         25   -1    0    0    0    0  0.00000000000E+00  0.00000000000E+00  0.99999998245E-14  0.12509000000E+03  0.12509000000E+03 0.  0.
        -11    1    3    3    0    0 -0.24314720682E+02 -0.28585540277E+02  0.27202857055E+02  0.46350126072E+02  0.51100000000E-03 0.  1.
         23    2    1    0    0    0 -0.18464317214E+02  0.18634026575E+02  0.11410145364E+02  0.96483193575E+02  0.92144762567E+02 0.  0.
         11    1    3    3    0    0  0.58504034672E+01  0.47219566852E+02 -0.15792711691E+02  0.50133067503E+02  0.51100000000E-03 0. -1.
         22    1    1    0    0    0  0.18464317214E+02 -0.18634026575E+02 -0.11410145364E+02  0.28606806425E+02  0.00000000000E+00 0. -1.
</event>
<event>
 5    1  0.1059945E-009  0.9118800E+02  0.7815553E-02  0.1125453E+00
         25   -1    0    0    0    0  0.00000000000E+00  0.00000000000E+00  0.99999998245E-14  0.12509000000E+03  0.12509000000E+03 0.  0.
        -11    1    3    3    0    0  0.20758913749E+02 -0.31418707949E+02 -0.34836569014E+02  0.51299651560E+02  0.51100000000E-03 0.  1.
         23    2    1    0    0    0 -0.17068378051E+00 -0.27053305867E+02  0.59858053899E+01  0.97381871996E+02  0.93356781414E+02 0.  0.
         11    1    3    3    0    0 -0.20929597530E+02  0.43654020814E+01  0.40822374404E+02  0.46082220436E+02  0.51100000000E-03 0. -1.
         22    1    1    0    0    0  0.17068378051E+00  0.27053305867E+02 -0.59858053899E+01  0.27708128004E+02  0.00000000000E+00 0. -1.
</event>
<event>
 5    1  0.1059945E-009  0.9118800E+02  0.7815553E-02  0.1125453E+00
         25   -1    0    0    0    0  0.00000000000E+00  0.00000000000E+00  0.99999998245E-14  0.12509000000E+03  0.12509000000E+03 0.  0.
        -11    1    3    3    0    0 -0.10411413927E+02 -0.36578633121E+02  0.18224434591E+02  0.42172549809E+02  0.51100000000E-03 0.  1.
         23    2    1    0    0    0 -0.55523613619E+01  0.63821217499E+01  0.35399541497E+02  0.88693740124E+02  0.80881962169E+02 0.  0.
         11    1    3    3    0    0  0.48590525652E+01  0.42960754871E+02  0.17175106907E+02  0.46521190316E+02  0.51100000000E-03 0. -1.
         22    1    1    0    0    0  0.55523613619E+01 -0.63821217499E+01 -0.35399541497E+02  0.36396259876E+02  0.00000000000E+00 0. -1.
</event>
<event>
 5    1  0.1059945E-009  0.9118800E+02  0.7815553E-02  0.1125453E+00
         25   -1    0    0    0    0  0.00000000000E+00  0.00000000000E+00  0.99999998245E-14  0.12509000000E+03  0.12509000000E+03 0.  0.
        -11    1    3    3    0    0  0.33155477475E+02 -0.44471682679E+02 -0.24513398859E+00  0.55471401081E+02  0.51100000000E-03 0.  1.
         23    2    1    0    0    0  0.15719421341E+02 -0.10801965231E+02 -0.19342170888E+02  0.97925644038E+02  0.94082567596E+02 0.  0.
         11    1    3    3    0    0 -0.17436056134E+02  0.33669717448E+02 -0.19097036899E+02  0.42454242958E+02  0.51100000000E-03 0. -1.
         22    1    1    0    0    0 -0.15719421341E+02  0.10801965231E+02  0.19342170888E+02  0.27164355962E+02  0.00000000000E+00 0.  1.
</event>
<event>
 5    1  0.1059945E-009  0.9118800E+02  0.7815553E-02  0.1125453E+00
         25   -1    0    0    0    0  0.00000000000E+00  0.00000000000E+00  0.99999998245E-14  0.12509000000E+03  0.12509000000E+03 0.  0.
        -11    1    3    3    0    0 -0.49349391252E+01 -0.78368935967E+01  0.61330258093E+02  0.62025567981E+02  0.51100000000E-03 0.  1.
         23    2    1    0    0    0 -0.42873862209E+00 -0.88457046581E+01  0.26765803768E+02  0.96897118646E+02  0.92704978522E+02 0.  0.
         11    1    3    3    0    0  0.45062005031E+01 -0.10088110613E+01 -0.34564454325E+02  0.34871550665E+02  0.51100000000E-03 0. -1.
         22    1    1    0    0    0  0.42873862209E+00  0.88457046581E+01 -0.26765803768E+02  0.28192881354E+02  0.00000000000E+00 0.  1.
</event>
<event>
 5    1  0.1059945E-009  0.9118800E+02  0.7815553E-02  0.1125453E+00
         25   -1    0    0    0    0  0.00000000000E+00  0.00000000000E+00  0.99999998245E-14  0.12509000000E+03  0.12509000000E+03 0.  0.
        -11    1    3    3    0    0  0.50486125817E+02  0.20383890238E+02 -0.14464098150E+02  0.56334376865E+02  0.51100000000E-03 0.  1.
         23    2    1    0    0    0  0.30307126660E+02 -0.59707238588E+01  0.33738979493E+01  0.94016624626E+02  0.88733145154E+02 0.  0.
         11    1    3    3    0    0 -0.20178999157E+02 -0.26354614097E+02  0.17837996099E+02  0.37682247761E+02  0.51100000000E-03 0. -1.
         22    1    1    0    0    0 -0.30307126660E+02  0.59707238588E+01 -0.33738979493E+01  0.31073375374E+02  0.00000000000E+00 0.  1.
</event>
<event>
 5    1  0.1059945E-009  0.9118800E+02  0.7815553E-02  0.1125453E+00
         25   -1    0    0    0    0  0.00000000000E+00  0.00000000000E+00  0.99999998245E-14  0.12509000000E+03  0.12509000000E+03 0.  0.
        -11    1    3    3    0    0  0.19993555073E+02  0.88900117380E+01 -0.52973510450E+02  0.57314634805E+02  0.51100000000E-03 0.  1.
         23    2    1    0    0    0  0.21984301986E+02  0.12289346105E+02 -0.14421685083E+02  0.96067206163E+02  0.91578302768E+02 0.  0.
         11    1    3    3    0    0  0.19907469126E+01  0.33993343671E+01  0.38551825368E+02  0.38752571358E+02  0.51100000000E-03 0. -1.
         22    1    1    0    0    0 -0.21984301986E+02 -0.12289346105E+02  0.14421685083E+02  0.29022793837E+02  0.00000000000E+00 0.  1.
</event>
<event>
 5    1  0.1059945E-009  0.9118800E+02  0.7815553E-02  0.1125453E+00
         25   -1    0    0    0    0  0.00000000000E+00  0.00000000000E+00  0.99999998245E-14  0.12509000000E+03  0.12509000000E+03 0.  0.
        -11    1    3    3    0    0  0.46813372592E+01  0.55342577173E+02  0.13042350119E+02  0.57051018076E+02  0.51100000000E-03 0. -1.
         23    2    1    0    0    0  0.78724473900E+01  0.17712700065E+02  0.21903311746E+02  0.95841577189E+02  0.91269587931E+02 0.  0.
         11    1    3    3    0    0  0.31911101307E+01 -0.37629877108E+02  0.88609616272E+01  0.38790559112E+02  0.51100000000E-03 0.  1.
         22    1    1    0    0    0 -0.78724473900E+01 -0.17712700065E+02 -0.21903311746E+02  0.29248422811E+02  0.00000000000E+00 0. -1.
</event>
<event>
 5    1  0.1059945E-009  0.9118800E+02  0.7815553E-02  0.1125453E+00
         25   -1    0    0    0    0  0.00000000000E+00  0.00000000000E+00  0.99999998245E-14  0.12509000000E+03  0.12509000000E+03 0.  0.
        -11    1    3    3    0    0 -0.81605382153E+01  0.32365261962E+02 -0.12416580280E+02  0.35612863293E+02  0.51100000000E-03 0. -1.
         23    2    1    0    0    0 -0.24167967854E+01 -0.21731502279E+02  0.16940951785E+02  0.97429650302E+02  0.93420778270E+02 0.  0.
         11    1    3    3    0    0  0.57437414300E+01 -0.54096764241E+02  0.29357532065E+02  0.61816787009E+02  0.51100000000E-03 0.  1.
         22    1    1    0    0    0  0.24167967854E+01  0.21731502279E+02 -0.16940951785E+02  0.27660349698E+02  0.00000000000E+00 0.  1.
</event>
<event>
 5    1  0.1059945E-009  0.9118800E+02  0.7815553E-02  0.1125453E+00
         25   -1    0    0    0    0  0.00000000000E+00  0.00000000000E+00  0.99999998245E-14  0.12509000000E+03  0.12509000000E+03 0.  0.
        -11    1    3    3    0    0  0.40376229272E+02 -0.15960458281E+01 -0.32447540373E+02  0.51823065608E+02  0.51100000000E-03 0.  1.
         23    2    1    0    0    0 -0.43987708888E+01 -0.95411947420E+01 -0.25090220362E+02  0.97888846711E+02  0.94033629996E+02 0.  0.
         11    1    3    3    0    0 -0.44775000160E+02 -0.79451489139E+01  0.73573200107E+01  0.46065781103E+02  0.51100000000E-03 0. -1.
         22    1    1    0    0    0  0.43987708888E+01  0.95411947420E+01  0.25090220362E+02  0.27201153289E+02  0.00000000000E+00 0.  1.
</event>
<event>
 5    1  0.1059945E-009  0.9118800E+02  0.7815553E-02  0.1125453E+00
         25   -1    0    0    0    0  0.00000000000E+00  0.00000000000E+00  0.99999998245E-14  0.12509000000E+03  0.12509000000E+03 0.  0.
        -11    1    3    3    0    0 -0.45752752626E+02  0.21834568227E+02  0.14444868119E+02  0.52713536760E+02  0.51100000000E-03 0.  1.
         23    2    1    0    0    0 -0.23733433313E+02 -0.11590873897E+02 -0.65009120579E+01  0.97889153100E+02  0.94034037574E+02 0.  0.
         11    1    3    3    0    0  0.22019319313E+02 -0.33425442124E+02 -0.20945780177E+02  0.45175616340E+02  0.51100000000E-03 0. -1.
         22    1    1    0    0    0  0.23733433313E+02  0.11590873897E+02  0.65009120579E+01  0.27200846900E+02  0.00000000000E+00 0.  1.
</event>
<event>
 5    1  0.1059945E-009  0.9118800E+02  0.7815553E-02  0.1125453E+00
         25   -1    0    0    0    0  0.00000000000E+00  0.00000000000E+00  0.99999998245E-14  0.12509000000E+03  0.12509000000E+03 0.  0.
        -11    1    3    3    0    0  0.31131740605E+02 -0.14998662998E+02 -0.47955498047E+02  0.59109009111E+02  0.51100000000E-03 0.  1.
         23    2    1    0    0    0  0.34746257067E+01  0.12415202784E+01 -0.27923958038E+02  0.96923320591E+02  0.92740326965E+02 0.  0.
         11    1    3    3    0    0 -0.27657114898E+02  0.16240183276E+02  0.20031540009E+02  0.37814311481E+02  0.51100000000E-03 0. -1.
         22    1    1    0    0    0 -0.34746257067E+01 -0.12415202784E+01  0.27923958038E+02  0.28166679409E+02  0.00000000000E+00 0.  1.
</event>
<event>
 5    1  0.1059945E-009  0.9118800E+02  0.7815553E-02  0.1125453E+00
         25   -1    0    0    0    0  0.00000000000E+00  0.00000000000E+00  0.99999998245E-14  0.12509000000E+03  0.12509000000E+03 0.  0.
        -11    1    3    3    0    0 -0.15999890616E+02  0.34912241400E+02  0.32554598359E+01  0.38541654327E+02  0.51100000000E-03 0. -1.
         23    2    1    0    0    0 -0.18631246096E+02 -0.20307264416E+02 -0.10647907745E+02  0.95545351440E+02  0.90862687190E+02 0.  0.
         11    1    3    3    0    0 -0.26313554806E+01 -0.55219505816E+02 -0.13903367580E+02  0.57003697113E+02  0.51100000000E-03 0.  1.
         22    1    1    0    0    0  0.18631246096E+02  0.20307264416E+02  0.10647907745E+02  0.29544648560E+02  0.00000000000E+00 0.  1.
</event>
<event>
 5    1  0.1059945E-009  0.9118800E+02  0.7815553E-02  0.1125453E+00
         25   -1    0    0    0    0  0.00000000000E+00  0.00000000000E+00  0.99999998245E-14  0.12509000000E+03  0.12509000000E+03 0.  0.
        -11    1    3    3    0    0  0.19948096234E+02  0.38859379633E+02 -0.36145698752E+02  0.56696467856E+02  0.51100000000E-03 0. -1.
         23    2    1    0    0    0 -0.38554140406E+01  0.96707282865E+01 -0.27980434932E+02  0.95235487075E+02  0.90435093058E+02 0.  0.
         11    1    3    3    0    0 -0.23803510275E+02 -0.29188651347E+02  0.81652638202E+01  0.38539019219E+02  0.51100000000E-03 0.  1.
         22    1    1    0    0    0  0.38554140406E+01 -0.96707282865E+01  0.27980434932E+02  0.29854512925E+02  0.00000000000E+00 0. -1.
</event>
<event>
 5    1  0.1059945E-009  0.9118800E+02  0.7815553E-02  0.1125453E+00
         25   -1    0    0    0    0  0.00000000000E+00  0.00000000000E+00  0.99999998245E-14  0.12509000000E+03  0.12509000000E+03 0.  0.
        -11    1    3    3    0    0 -0.38081868353E+02  0.79236115440E+00  0.20640018680E+02  0.43322821986E+02  0.51100000000E-03 0.  1.
         23    2    1    0    0    0 -0.10433035800E+02  0.20340341781E+02 -0.18934606986E+02  0.95406720506E+02  0.90671634133E+02 0.  0.
         11    1    3    3    0    0  0.27648832553E+02  0.19547980627E+02 -0.39574625666E+02  0.52083898520E+02  0.51100000000E-03 0. -1.
         22    1    1    0    0    0  0.10433035800E+02 -0.20340341781E+02  0.18934606986E+02  0.29683279494E+02  0.00000000000E+00 0. -1.
</event>
<event>
 5    1  0.1059945E-009  0.9118800E+02  0.7815553E-02  0.1125453E+00
         25   -1    0    0    0    0  0.00000000000E+00  0.00000000000E+00  0.99999998245E-14  0.12509000000E+03  0.12509000000E+03 0.  0.
        -11    1    3    3    0    0 -0.29693183205E+02  0.18951373233E+02 -0.10725140868E+02  0.36822117309E+02  0.51100000000E-03 0.  1.
         23    2    1    0    0    0  0.10949695154E+02 -0.49672145972E+01  0.25901673090E+02  0.96533639698E+02  0.92213219658E+02 0.  0.
         11    1    3    3    0    0  0.40642878359E+02 -0.23918587830E+02  0.36626813957E+02  0.59711522389E+02  0.51100000000E-03 0. -1.
         22    1    1    0    0    0 -0.10949695154E+02  0.49672145972E+01 -0.25901673090E+02  0.28556360302E+02  0.00000000000E+00 0. -1.
</event>
<event>
 5    1  0.1059945E-009  0.9118800E+02  0.7815553E-02  0.1125453E+00
         25   -1    0    0    0    0  0.00000000000E+00  0.00000000000E+00  0.99999998245E-14  0.12509000000E+03  0.12509000000E+03 0.  0.
        -11    1    3    3    0    0 -0.21223068138E+01  0.22216763353E+02  0.39307762932E+02  0.45201648057E+02  0.51100000000E-03 0.  1.
         23    2    1    0    0    0 -0.28376686682E+02 -0.77031694841E+01  0.12830964790E+02  0.93008715353E+02  0.87300700496E+02 0.  0.
         11    1    3    3    0    0 -0.26254379868E+02 -0.29919932837E+02 -0.26476798143E+02  0.47807067296E+02  0.51100000000E-03 0. -1.
         22    1    1    0    0    0  0.28376686682E+02  0.77031694841E+01 -0.12830964790E+02  0.32081284647E+02  0.00000000000E+00 0.  1.
</event>
<event>
 5    1  0.1059945E-009  0.9118800E+02  0.7815553E-02  0.1125453E+00
         25   -1    0    0    0    0  0.00000000000E+00  0.00000000000E+00  0.99999998245E-14  0.12509000000E+03  0.12509000000E+03 0.  0.
        -11    1    3    3    0    0  0.37752612660E+02  0.86303764946E+01 -0.26252015381E+02  0.46785804182E+02  0.51100000000E-03 0. -1.
         23    2    1    0    0    0  0.12606317344E+02 -0.25313100931E+02  0.53547151423E+00  0.96806452742E+02  0.92582559086E+02 0.  0.
         11    1    3    3    0    0 -0.25146295316E+02 -0.33943477426E+02  0.26787486896E+02  0.50020648560E+02  0.51100000000E-03 0.  1.
         22    1    1    0    0    0 -0.12606317344E+02  0.25313100931E+02 -0.53547151423E+00  0.28283547258E+02  0.00000000000E+00 0.  1.
</event>
<event>
 5    1  0.1059945E-009  0.9118800E+02  0.7815553E-02  0.1125453E+00
         25   -1    0    0    0    0  0.00000000000E+00  0.00000000000E+00  0.99999998245E-14  0.12509000000E+03  0.12509000000E+03 0.  0.
        -11    1    3    3    0    0 -0.86907275435E+01  0.26466736555E+01  0.39050501164E+02  0.40093331966E+02  0.51100000000E-03 0.  1.
         23    2    1    0    0    0 -0.39411039839E+01  0.25951469277E+02 -0.11860431585E+02  0.96285818088E+02  0.91876427169E+02 0.  0.
         11    1    3    3    0    0  0.47496235596E+01  0.23304795621E+02 -0.50910932750E+02  0.56192486122E+02  0.51100000000E-03 0. -1.
         22    1    1    0    0    0  0.39411039839E+01 -0.25951469277E+02  0.11860431585E+02  0.28804181912E+02  0.00000000000E+00 0. -1.
</event>
<event>
 5    1  0.1059945E-009  0.9118800E+02  0.7815553E-02  0.1125453E+00
         25   -1    0    0    0    0  0.00000000000E+00  0.00000000000E+00  0.99999998245E-14  0.12509000000E+03  0.12509000000E+03 0.  0.
        -11    1    3    3    0    0  0.25799568152E+02  0.26449456256E+02 -0.37954795928E+02  0.52969406144E+02  0.51100000000E-03 0. -1.
         23    2    1    0    0    0  0.21703175480E+02  0.14657423845E+02  0.56265312868E+01  0.98303328800E+02  0.94583395472E+02 0.  0.
         11    1    3    3    0    0 -0.40963926720E+01 -0.11792032411E+02  0.43581327215E+02  0.45333922656E+02  0.51100000000E-03 0.  1.
         22    1    1    0    0    0 -0.21703175480E+02 -0.14657423845E+02 -0.56265312868E+01  0.26786671200E+02  0.00000000000E+00 0. -1.
</event>
<event>
 5    1  0.1059945E-009  0.9118800E+02  0.7815553E-02  0.1125453E+00
         25   -1    0    0    0    0  0.00000000000E+00  0.00000000000E+00  0.99999998245E-14  0.12509000000E+03  0.12509000000E+03 0.  0.
        -11    1    3    3    0    0  0.15187507171E+02  0.31412177543E+02 -0.29561347904E+01  0.35016053535E+02  0.51100000000E-03 0.  1.
         23    2    1    0    0    0 -0.18498637022E+02 -0.16905696122E+02  0.14097973787E+02  0.96336652404E+02  0.91945612177E+02 0.  0.
         11    1    3    3    0    0 -0.33686144193E+02 -0.48317873664E+02  0.17054108578E+02  0.61320598869E+02  0.51100000000E-03 0. -1.
         22    1    1    0    0    0  0.18498637022E+02  0.16905696122E+02 -0.14097973787E+02  0.28753347596E+02  0.00000000000E+00 0. -1.
</event>
<event>
 5    1  0.1059945E-009  0.9118800E+02  0.7815553E-02  0.1125453E+00
         25   -1    0    0    0    0  0.00000000000E+00  0.00000000000E+00  0.99999998245E-14  0.12509000000E+03  0.12509000000E+03 0.  0.
        -11    1    3    3    0    0 -0.48917989195E+02  0.96789807598E+01 -0.21722694674E+02  0.54392350561E+02  0.51100000000E-03 0. -1.
         23    2    1    0    0    0 -0.18863104003E+02  0.22260536375E+02  0.36449859365E+01  0.95685338893E+02  0.91055202950E+02 0.  0.
         11    1    3    3    0    0  0.30054885191E+02  0.12581555615E+02  0.25367680610E+02  0.41292988332E+02  0.51100000000E-03 0.  1.
         22    1    1    0    0    0  0.18863104003E+02 -0.22260536375E+02 -0.36449859365E+01  0.29404661107E+02  0.00000000000E+00 0. -1.
</event>
<event>
 5    1  0.1059945E-009  0.9118800E+02  0.7815553E-02  0.1125453E+00
         25   -1    0    0    0    0  0.00000000000E+00  0.00000000000E+00  0.99999998245E-14  0.12509000000E+03  0.12509000000E+03 0.  0.
        -11    1    3    3    0    0  0.61743926211E+02  0.48713963370E+01 -0.19168200082E+01  0.61965451063E+02  0.51100000000E-03 0. -1.
         23    2    1    0    0    0  0.28830464283E+02  0.61797839619E+00 -0.66708554250E+01  0.95491387192E+02  0.90788364605E+02 0.  0.
         11    1    3    3    0    0 -0.32913461928E+02 -0.42534179408E+01 -0.47540354168E+01  0.33525936128E+02  0.51100000000E-03 0.  1.
         22    1    1    0    0    0 -0.28830464283E+02 -0.61797839619E+00  0.66708554250E+01  0.29598612808E+02  0.00000000000E+00 0. -1.
</event>
<event>
 5    1  0.1059945E-009  0.9118800E+02  0.7815553E-02  0.1125453E+00
         25   -1    0    0    0    0  0.00000000000E+00  0.00000000000E+00  0.99999998245E-14  0.12509000000E+03  0.12509000000E+03 0.  0.
        -11    1    3    3    0    0 -0.19198773561E+02  0.40528617473E+02 -0.15774607593E+02  0.47539457143E+02  0.51100000000E-03 0. -1.
         23    2    1    0    0    0  0.22399755601E+02  0.13655173591E+02 -0.79525164801E+01  0.97677314339E+02  0.93751812790E+02 0.  0.
         11    1    3    3    0    0  0.41598529162E+02 -0.26873443883E+02  0.78220911124E+01  0.50137857196E+02  0.51100000000E-03 0.  1.
         22    1    1    0    0    0 -0.22399755601E+02 -0.13655173591E+02  0.79525164801E+01  0.27412685661E+02  0.00000000000E+00 0.  1.
</event>
<event>
 5    1  0.1059945E-009  0.9118800E+02  0.7815553E-02  0.1125453E+00
         25   -1    0    0    0    0  0.00000000000E+00  0.00000000000E+00  0.99999998245E-14  0.12509000000E+03  0.12509000000E+03 0.  0.
        -11    1    3    3    0    0 -0.45503494126E+02  0.23718030635E+02  0.22846039247E+02  0.56169871501E+02  0.51100000000E-03 0. -1.
         23    2    1    0    0    0 -0.18607435774E+02 -0.70891811537E+01  0.19528070471E+02  0.97200240377E+02  0.93113092729E+02 0.  0.
         11    1    3    3    0    0  0.26896058352E+02 -0.30807211789E+02 -0.33179687764E+01  0.41030368877E+02  0.51100000000E-03 0.  1.
         22    1    1    0    0    0  0.18607435774E+02  0.70891811537E+01 -0.19528070471E+02  0.27889759623E+02  0.00000000000E+00 0. -1.
</event>
<event>
 5    1  0.1059945E-009  0.9118800E+02  0.7815553E-02  0.1125453E+00
         25   -1    0    0    0    0  0.00000000000E+00  0.00000000000E+00  0.99999998245E-14  0.12509000000E+03  0.12509000000E+03 0.  0.
        -11    1    3    3    0    0 -0.13666900636E+02 -0.15451038570E+02  0.26512482559E+02  0.33592119575E+02  0.51100000000E-03 0. -1.
         23    2    1    0    0    0 -0.28010382977E+02 -0.56290411212E+01 -0.24479963456E+02  0.87466386813E+02  0.78960955876E+02 0.  0.
         11    1    3    3    0    0 -0.14343482341E+02  0.98219974486E+01 -0.50992446015E+02  0.53874267237E+02  0.51100000000E-03 0.  1.
         22    1    1    0    0    0  0.28010382977E+02  0.56290411212E+01  0.24479963456E+02  0.37623613187E+02  0.00000000000E+00 0.  1.
</event>
<event>
 5    1  0.1059945E-009  0.9118800E+02  0.7815553E-02  0.1125453E+00
         25   -1    0    0    0    0  0.00000000000E+00  0.00000000000E+00  0.99999998245E-14  0.12509000000E+03  0.12509000000E+03 0.  0.
        -11    1    3    3    0    0  0.34022652999E+02 -0.33752353622E+02  0.38374488548E+02  0.61395143649E+02  0.51100000000E-03 0. -1.
         23    2    1    0    0    0  0.83295839339E+01 -0.19531684012E+02  0.19168560422E+02  0.96484015355E+02  0.92145878158E+02 0.  0.
         11    1    3    3    0    0 -0.25693069065E+02  0.14220669609E+02 -0.19205928127E+02  0.35088871706E+02  0.51100000000E-03 0.  1.
         22    1    1    0    0    0 -0.83295839339E+01  0.19531684012E+02 -0.19168560422E+02  0.28605984645E+02  0.00000000000E+00 0. -1.
</event>
<event>
 5    1  0.1059945E-009  0.9118800E+02  0.7815553E-02  0.1125453E+00
         25   -1    0    0    0    0  0.00000000000E+00  0.00000000000E+00  0.99999998245E-14  0.12509000000E+03  0.12509000000E+03 0.  0.
        -11    1    3    3    0    0  0.24646895699E+02  0.31986949292E+02  0.34185318279E+02  0.52908131499E+02  0.51100000000E-03 0. -1.
         23    2    1    0    0    0  0.27612414895E+01 -0.26376976172E+01  0.30849256167E+02  0.94005301042E+02  0.88717180493E+02 0.  0.
         11    1    3    3    0    0 -0.21885654209E+02 -0.34624646909E+02 -0.33360621124E+01  0.41097169543E+02  0.51100000000E-03 0.  1.
         22    1    1    0    0    0 -0.27612414895E+01  0.26376976172E+01 -0.30849256167E+02  0.31084698958E+02  0.00000000000E+00 0. -1.
</event>
<event>
 5    1  0.1059945E-009  0.9118800E+02  0.7815553E-02  0.1125453E+00
         25   -1    0    0    0    0  0.00000000000E+00  0.00000000000E+00  0.99999998245E-14  0.12509000000E+03  0.12509000000E+03 0.  0.
        -11    1    3    3    0    0  0.11900754903E+02  0.30416916778E+02 -0.21950289011E+02  0.39352661682E+02  0.51100000000E-03 0.  1.
         23    2    1    0    0    0 -0.24790863503E+02 -0.83954836145E+01  0.37918085252E+01  0.98642904314E+02  0.95031435332E+02 0.  0.
         11    1    3    3    0    0 -0.36691618406E+02 -0.38812400393E+02  0.25742097536E+02  0.59290242632E+02  0.51100000000E-03 0. -1.
         22    1    1    0    0    0  0.24790863503E+02  0.83954836145E+01 -0.37918085252E+01  0.26447095686E+02  0.00000000000E+00 0. -1.
</event>
<event>
 5    1  0.1059945E-009  0.9118800E+02  0.7815553E-02  0.1125453E+00
         25   -1    0    0    0    0  0.00000000000E+00  0.00000000000E+00  0.99999998245E-14  0.12509000000E+03  0.12509000000E+03 0.  0.
        -11    1    3    3    0    0  0.22165089312E+02  0.14163518660E+02 -0.24113899364E+02  0.35684402585E+02  0.51100000000E-03 0.  1.
         23    2    1    0    0    0 -0.23952963192E+02 -0.17520312750E+02 -0.39898147911E+01  0.95146312408E+02  0.90311662249E+02 0.  0.
         11    1    3    3    0    0 -0.46118052505E+02 -0.31683831410E+02  0.20124084573E+02  0.59461909823E+02  0.51100000000E-03 0. -1.
         22    1    1    0    0    0  0.23952963192E+02  0.17520312750E+02  0.39898147911E+01  0.29943687592E+02  0.00000000000E+00 0. -1.
</event>
<event>
 5    1  0.1059945E-009  0.9118800E+02  0.7815553E-02  0.1125453E+00
         25   -1    0    0    0    0  0.00000000000E+00  0.00000000000E+00  0.99999998245E-14  0.12509000000E+03  0.12509000000E+03 0.  0.
        -11    1    3    3    0    0 -0.42553847223E+02  0.15896982314E+02 -0.42374525916E+02  0.62122012258E+02  0.51100000000E-03 0.  1.
         23    2    1    0    0    0 -0.15833548392E+02  0.24749737003E+01 -0.19961712274E+02  0.99491236233E+02  0.96141611078E+02 0.  0.
         11    1    3    3    0    0  0.26720298831E+02 -0.13422008614E+02  0.22412813641E+02  0.37369223974E+02  0.51100000000E-03 0. -1.
         22    1    1    0    0    0  0.15833548392E+02 -0.24749737003E+01  0.19961712274E+02  0.25598763767E+02  0.00000000000E+00 0.  1.
</event>
<event>
 5    1  0.1059945E-009  0.9118800E+02  0.7815553E-02  0.1125453E+00
         25   -1    0    0    0    0  0.00000000000E+00  0.00000000000E+00  0.99999998245E-14  0.12509000000E+03  0.12509000000E+03 0.  0.
        -11    1    3    3    0    0 -0.27424504319E+02 -0.20910853402E+02  0.26540940648E+02  0.43517683278E+02  0.51100000000E-03 0. -1.
         23    2    1    0    0    0 -0.14220133842E+02  0.25314273104E+02  0.10998438581E+02  0.94041807130E+02  0.88768638650E+02 0.  0.
         11    1    3    3    0    0  0.13204370476E+02  0.46225126506E+02 -0.15542502067E+02  0.50524123852E+02  0.51100000000E-03 0.  1.
         22    1    1    0    0    0  0.14220133842E+02 -0.25314273104E+02 -0.10998438581E+02  0.31048192870E+02  0.00000000000E+00 0. -1.
</event>
<event>
 5    1  0.1059945E-009  0.9118800E+02  0.7815553E-02  0.1125453E+00
         25   -1    0    0    0    0  0.00000000000E+00  0.00000000000E+00  0.99999998245E-14  0.12509000000E+03  0.12509000000E+03 0.  0.
        -11    1    3    3    0    0 -0.83147263425E+01  0.22802769319E+02 -0.44670596836E+02  0.50838599358E+02  0.51100000000E-03 0.  1.
         23    2    1    0    0    0  0.72325997800E+00  0.32322557810E+02 -0.53153262359E+01  0.92325330898E+02  0.86315949766E+02 0.  0.
         11    1    3    3    0    0  0.90379863205E+01  0.95197884907E+01  0.39355270600E+02  0.41486731540E+02  0.51100000000E-03 0. -1.
         22    1    1    0    0    0 -0.72325997800E+00 -0.32322557810E+02  0.53153262359E+01  0.32764669102E+02  0.00000000000E+00 0.  1.
</event>
<event>
 5    1  0.1059945E-009  0.9118800E+02  0.7815553E-02  0.1125453E+00
         25   -1    0    0    0    0  0.00000000000E+00  0.00000000000E+00  0.99999998245E-14  0.12509000000E+03  0.12509000000E+03 0.  0.
        -11    1    3    3    0    0 -0.24117250873E+02 -0.23954445305E+02  0.17102221373E+02  0.38051849044E+02  0.51100000000E-03 0. -1.
         23    2    1    0    0    0 -0.89260534655E+01  0.28006636357E+02 -0.24091253681E+01  0.95596780516E+02  0.90933461660E+02 0.  0.
         11    1    3    3    0    0  0.15191197407E+02  0.51961081662E+02 -0.19511346741E+02  0.57544931472E+02  0.51100000000E-03 0.  1.
         22    1    1    0    0    0  0.89260534655E+01 -0.28006636357E+02  0.24091253681E+01  0.29493219484E+02  0.00000000000E+00 0.  1.
</event>
<event>
 5    1  0.1059945E-009  0.9118800E+02  0.7815553E-02  0.1125453E+00
         25   -1    0    0    0    0  0.00000000000E+00  0.00000000000E+00  0.99999998245E-14  0.12509000000E+03  0.12509000000E+03 0.  0.
        -11    1    3    3    0    0  0.25437267502E+02 -0.48486865144E+02 -0.57521265494E+01  0.55055586724E+02  0.51100000000E-03 0.  1.
         23    2    1    0    0    0  0.20513318362E+02 -0.16598144919E+02  0.16241356075E+02  0.94104902096E+02  0.88857505628E+02 0.  0.
         11    1    3    3    0    0 -0.49239491395E+01  0.31888720226E+02  0.21993482625E+02  0.39049315371E+02  0.51100000000E-03 0. -1.
         22    1    1    0    0    0 -0.20513318362E+02  0.16598144919E+02 -0.16241356075E+02  0.30985097904E+02  0.00000000000E+00 0.  1.
</event>
<event>
 5    1  0.1059945E-009  0.9118800E+02  0.7815553E-02  0.1125453E+00
         25   -1    0    0    0    0  0.00000000000E+00  0.00000000000E+00  0.99999998245E-14  0.12509000000E+03  0.12509000000E+03 0.  0.
        -11    1    3    3    0    0  0.37518677249E+02 -0.34800854550E+02 -0.27777042717E+02  0.58226409148E+02  0.51100000000E-03 0. -1.
         23    2    1    0    0    0  0.14371062016E+02 -0.27635902296E+02 -0.29058053678E+02  0.82491396705E+02  0.70641273542E+02 0.  0.
         11    1    3    3    0    0 -0.23147615233E+02  0.71649522535E+01 -0.12810109604E+01  0.24264987557E+02  0.51100000000E-03 0.  1.
         22    1    1    0    0    0 -0.14371062016E+02  0.27635902296E+02  0.29058053678E+02  0.42598603295E+02  0.00000000000E+00 0. -1.
</event>
<event>
 5    1  0.1059945E-009  0.9118800E+02  0.7815553E-02  0.1125453E+00
         25   -1    0    0    0    0  0.00000000000E+00  0.00000000000E+00  0.99999998245E-14  0.12509000000E+03  0.12509000000E+03 0.  0.
        -11    1    3    3    0    0  0.17930007772E+02  0.45322814240E+02 -0.36630547769E+02  0.60970810225E+02  0.51100000000E-03 0. -1.
         23    2    1    0    0    0  0.16111424032E+02  0.22987760465E+02 -0.11198113036E+02  0.94867279224E+02  0.89924344959E+02 0.  0.
         11    1    3    3    0    0 -0.18185837406E+01 -0.22335053775E+02  0.25432434732E+02  0.33896468999E+02  0.51100000000E-03 0.  1.
         22    1    1    0    0    0 -0.16111424032E+02 -0.22987760465E+02  0.11198113036E+02  0.30222720776E+02  0.00000000000E+00 0. -1.
</event>
<event>
 5    1  0.1059945E-009  0.9118800E+02  0.7815553E-02  0.1125453E+00
         25   -1    0    0    0    0  0.00000000000E+00  0.00000000000E+00  0.99999998245E-14  0.12509000000E+03  0.12509000000E+03 0.  0.
        -11    1    3    3    0    0  0.16292568782E+02 -0.65404191082E+01  0.39163232574E+02  0.42918337171E+02  0.51100000000E-03 0.  1.
         23    2    1    0    0    0 -0.66666208070E+01 -0.26048055154E+02 -0.63151842788E+01  0.97470684970E+02  0.93475707356E+02 0.  0.
         11    1    3    3    0    0 -0.22959189589E+02 -0.19507636046E+02 -0.45478416853E+02  0.54552347799E+02  0.51100000000E-03 0. -1.
         22    1    1    0    0    0  0.66666208070E+01  0.26048055154E+02  0.63151842788E+01  0.27619315030E+02  0.00000000000E+00 0. -1.
</event>
<event>
 5    1  0.1059945E-009  0.9118800E+02  0.7815553E-02  0.1125453E+00
         25   -1    0    0    0    0  0.00000000000E+00  0.00000000000E+00  0.99999998245E-14  0.12509000000E+03  0.12509000000E+03 0.  0.
        -11    1    3    3    0    0  0.54764878523E+02  0.11603448056E+02  0.18868921037E+02  0.59075105652E+02  0.51100000000E-03 0. -1.
         23    2    1    0    0    0  0.21592938160E+02  0.78984163995E+00  0.22183873012E+02  0.94122225621E+02  0.88881889639E+02 0.  0.
         11    1    3    3    0    0 -0.33171940363E+02 -0.10813606416E+02  0.33149519749E+01  0.35047119968E+02  0.51100000000E-03 0.  1.
         22    1    1    0    0    0 -0.21592938160E+02 -0.78984163995E+00 -0.22183873012E+02  0.30967774379E+02  0.00000000000E+00 0. -1.
</event>
<event>
 5    1  0.1059945E-009  0.9118800E+02  0.7815553E-02  0.1125453E+00
         25   -1    0    0    0    0  0.00000000000E+00  0.00000000000E+00  0.99999998245E-14  0.12509000000E+03  0.12509000000E+03 0.  0.
        -11    1    3    3    0    0  0.28603682338E+02  0.29646528886E+02  0.34130925299E+02  0.53497732478E+02  0.51100000000E-03 0.  1.
         23    2    1    0    0    0  0.29357780281E+02 -0.19382588290E+01  0.77311855757E+01  0.94669491446E+02  0.89648788446E+02 0.  0.
         11    1    3    3    0    0  0.75409794305E+00 -0.31584787715E+02 -0.26399739724E+02  0.41171758967E+02  0.51100000000E-03 0. -1.
         22    1    1    0    0    0 -0.29357780281E+02  0.19382588290E+01 -0.77311855757E+01  0.30420508554E+02  0.00000000000E+00 0. -1.
</event>
<event>
 5    1  0.1059945E-009  0.9118800E+02  0.7815553E-02  0.1125453E+00
         25   -1    0    0    0    0  0.00000000000E+00  0.00000000000E+00  0.99999998245E-14  0.12509000000E+03  0.12509000000E+03 0.  0.
        -11    1    3    3    0    0  0.26903436469E+02  0.18491950020E+02  0.16522486571E+02  0.36588791619E+02  0.51100000000E-03 0.  1.
         23    2    1    0    0    0  0.23564505023E+01 -0.27586276799E+02 -0.10625817700E+02  0.95434249658E+02  0.90709605221E+02 0.  0.
         11    1    3    3    0    0 -0.24546985966E+02 -0.46078226818E+02 -0.27148304271E+02  0.58845458039E+02  0.51100000000E-03 0. -1.
         22    1    1    0    0    0 -0.23564505023E+01  0.27586276799E+02  0.10625817700E+02  0.29655750342E+02  0.00000000000E+00 0. -1.
</event>
<event>
 5    1  0.1059945E-009  0.9118800E+02  0.7815553E-02  0.1125453E+00
         25   -1    0    0    0    0  0.00000000000E+00  0.00000000000E+00  0.99999998245E-14  0.12509000000E+03  0.12509000000E+03 0.  0.
        -11    1    3    3    0    0  0.24557051066E+02  0.23833507176E+02 -0.39609866349E+02  0.52345260854E+02  0.51100000000E-03 0.  1.
         23    2    1    0    0    0 -0.11720753534E+02  0.33570180242E+01 -0.26339520362E+02  0.96065597055E+02  0.91576104805E+02 0.  0.
         11    1    3    3    0    0 -0.36277804601E+02 -0.20476489152E+02  0.13270345988E+02  0.43720336201E+02  0.51100000000E-03 0. -1.
         22    1    1    0    0    0  0.11720753534E+02 -0.33570180242E+01  0.26339520362E+02  0.29024402945E+02  0.00000000000E+00 0. -1.
</event>
<event>
 5    1  0.1059945E-009  0.9118800E+02  0.7815553E-02  0.1125453E+00
         25   -1    0    0    0    0  0.00000000000E+00  0.00000000000E+00  0.99999998245E-14  0.12509000000E+03  0.12509000000E+03 0.  0.
        -11    1    3    3    0    0  0.29806550702E+02  0.12151664848E+02 -0.30380388685E+02  0.44261286022E+02  0.51100000000E-03 0. -1.
         23    2    1    0    0    0 -0.12181644494E+02 -0.16614349526E+02 -0.20340451900E+02  0.96138954143E+02  0.91676253454E+02 0.  0.
         11    1    3    3    0    0 -0.41988195196E+02 -0.28766014374E+02  0.10039936785E+02  0.51877668121E+02  0.51100000000E-03 0.  1.
         22    1    1    0    0    0  0.12181644494E+02  0.16614349526E+02  0.20340451900E+02  0.28951045857E+02  0.00000000000E+00 0.  1.
</event>
<event>
 5    1  0.1059945E-009  0.9118800E+02  0.7815553E-02  0.1125453E+00
         25   -1    0    0    0    0  0.00000000000E+00  0.00000000000E+00  0.99999998245E-14  0.12509000000E+03  0.12509000000E+03 0.  0.
        -11    1    3    3    0    0 -0.20442558956E+02  0.65200750769E+01 -0.27382125350E+02  0.34787790740E+02  0.51100000000E-03 0. -1.
         23    2    1    0    0    0 -0.16371487542E+02 -0.34629260218E+02  0.38290150734E+01  0.86594901299E+02  0.77568062416E+02 0.  0.
         11    1    3    3    0    0  0.40710714138E+01 -0.41149335295E+02  0.31211140423E+02  0.51807110559E+02  0.51100000000E-03 0.  1.
         22    1    1    0    0    0  0.16371487542E+02  0.34629260218E+02 -0.38290150734E+01  0.38495098701E+02  0.00000000000E+00 0.  1.
</event>
<event>
 5    1  0.1059945E-009  0.9118800E+02  0.7815553E-02  0.1125453E+00
         25   -1    0    0    0    0  0.00000000000E+00  0.00000000000E+00  0.99999998245E-14  0.12509000000E+03  0.12509000000E+03 0.  0.
        -11    1    3    3    0    0  0.44467595697E+02  0.18744011035E+02  0.18506882006E+00  0.48257012624E+02  0.51100000000E-03 0. -1.
         23    2    1    0    0    0  0.62151612066E+01  0.59129074125E+01 -0.26902060706E+02  0.96853293869E+02  0.92645825379E+02 0.  0.
         11    1    3    3    0    0 -0.38252434490E+02 -0.12831103622E+02 -0.27087129526E+02  0.48596281245E+02  0.51100000000E-03 0.  1.
         22    1    1    0    0    0 -0.62151612066E+01 -0.59129074125E+01  0.26902060706E+02  0.28236706131E+02  0.00000000000E+00 0.  1.
</event>
<event>
 5    1  0.1059945E-009  0.9118800E+02  0.7815553E-02  0.1125453E+00
         25   -1    0    0    0    0  0.00000000000E+00  0.00000000000E+00  0.99999998245E-14  0.12509000000E+03  0.12509000000E+03 0.  0.
        -11    1    3    3    0    0 -0.91561564582E+00  0.11250022405E+02  0.35448268787E+02  0.37201896677E+02  0.51100000000E-03 0.  1.
         23    2    1    0    0    0  0.19482392639E+02 -0.19745248165E+02 -0.97570339003E+01  0.95685269793E+02  0.91055108021E+02 0.  0.
         11    1    3    3    0    0  0.20398008285E+02 -0.30995270570E+02 -0.45205302687E+02  0.58483373116E+02  0.51100000000E-03 0. -1.
         22    1    1    0    0    0 -0.19482392639E+02  0.19745248165E+02  0.97570339003E+01  0.29404730207E+02  0.00000000000E+00 0. -1.
</event>
<event>
 5    1  0.1059945E-009  0.9118800E+02  0.7815553E-02  0.1125453E+00
         25   -1    0    0    0    0  0.00000000000E+00  0.00000000000E+00  0.99999998245E-14  0.12509000000E+03  0.12509000000E+03 0.  0.
        -11    1    3    3    0    0  0.17136128211E+02  0.68406467358E+01 -0.41881465877E+02  0.45765691539E+02  0.51100000000E-03 0. -1.
         23    2    1    0    0    0  0.20298769486E+02 -0.22113233543E+02 -0.21957759287E+01  0.94992548741E+02  0.90098433638E+02 0.  0.
         11    1    3    3    0    0  0.31626412752E+01 -0.28953880279E+02  0.39685689948E+02  0.49226857202E+02  0.51100000000E-03 0.  1.
         22    1    1    0    0    0 -0.20298769486E+02  0.22113233543E+02  0.21957759287E+01  0.30097451259E+02  0.00000000000E+00 0. -1.
</event>
<event>
 5    1  0.1059945E-009  0.9118800E+02  0.7815553E-02  0.1125453E+00
         25   -1    0    0    0    0  0.00000000000E+00  0.00000000000E+00  0.99999998245E-14  0.12509000000E+03  0.12509000000E+03 0.  0.
        -11    1    3    3    0    0  0.19167958191E+02 -0.22127169745E+02 -0.55187363270E+02  0.62471332042E+02  0.51100000000E-03 0. -1.
         23    2    1    0    0    0  0.73178663254E+01 -0.90147112928E+01 -0.26373930266E+02  0.96273331474E+02  0.91859425037E+02 0.  0.
         11    1    3    3    0    0 -0.11850091866E+02  0.13112458452E+02  0.28813433004E+02  0.33801999432E+02  0.51100000000E-03 0.  1.
         22    1    1    0    0    0 -0.73178663254E+01  0.90147112928E+01  0.26373930266E+02  0.28816668526E+02  0.00000000000E+00 0. -1.
</event>
<event>
 5    1  0.1059945E-009  0.9118800E+02  0.7815553E-02  0.1125453E+00
         25   -1    0    0    0    0  0.00000000000E+00  0.00000000000E+00  0.99999998245E-14  0.12509000000E+03  0.12509000000E+03 0.  0.
        -11    1    3    3    0    0 -0.20497641443E+02  0.18064426960E+01 -0.50543521647E+02  0.54571642093E+02  0.51100000000E-03 0.  1.
         23    2    1    0    0    0  0.10258915462E+02 -0.90700457958E+01 -0.27042578889E+02  0.94778085673E+02  0.89800185822E+02 0.  0.
         11    1    3    3    0    0  0.30756556905E+02 -0.10876488492E+02  0.23500942758E+02  0.40206443580E+02  0.51100000000E-03 0. -1.
         22    1    1    0    0    0 -0.10258915462E+02  0.90700457958E+01  0.27042578889E+02  0.30311914327E+02  0.00000000000E+00 0.  1.
</event>
<event>
 5    1  0.1059945E-009  0.9118800E+02  0.7815553E-02  0.1125453E+00
         25   -1    0    0    0    0  0.00000000000E+00  0.00000000000E+00  0.99999998245E-14  0.12509000000E+03  0.12509000000E+03 0.  0.
        -11    1    3    3    0    0 -0.46148146952E+01 -0.32329356407E+02 -0.22542451760E+02  0.39681808578E+02  0.51100000000E-03 0.  1.
         23    2    1    0    0    0  0.24566959679E+02 -0.41776741249E+01  0.15878790871E+02  0.95541320360E+02  0.90857137461E+02 0.  0.
         11    1    3    3    0    0  0.29181774374E+02  0.28151682282E+02  0.38421242631E+02  0.55859511782E+02  0.51100000000E-03 0. -1.
         22    1    1    0    0    0 -0.24566959679E+02  0.41776741249E+01 -0.15878790871E+02  0.29548679640E+02  0.00000000000E+00 0. -1.
</event>
<event>
 5    1  0.1059945E-009  0.9118800E+02  0.7815553E-02  0.1125453E+00
         25   -1    0    0    0    0  0.00000000000E+00  0.00000000000E+00  0.99999998245E-14  0.12509000000E+03  0.12509000000E+03 0.  0.
        -11    1    3    3    0    0  0.27204153850E+02 -0.13637410414E+02  0.31849991336E+02  0.44050730958E+02  0.51100000000E-03 0.  1.
         23    2    1    0    0    0  0.22890350803E+02  0.86840532012E+01 -0.15177233077E+02  0.96284977109E+02  0.91875282166E+02 0.  0.
         11    1    3    3    0    0 -0.43138030472E+01  0.22321463615E+02 -0.47027224414E+02  0.52234246151E+02  0.51100000000E-03 0. -1.
         22    1    1    0    0    0 -0.22890350803E+02 -0.86840532012E+01  0.15177233077E+02  0.28805022891E+02  0.00000000000E+00 0. -1.
</event>
<event>
 5    1  0.1059945E-009  0.9118800E+02  0.7815553E-02  0.1125453E+00
         25   -1    0    0    0    0  0.00000000000E+00  0.00000000000E+00  0.99999998245E-14  0.12509000000E+03  0.12509000000E+03 0.  0.
        -11    1    3    3    0    0 -0.18037611125E+02  0.81266463164E+00 -0.28642786773E+02  0.33858899470E+02  0.51100000000E-03 0. -1.
         23    2    1    0    0    0  0.19826727688E+02 -0.14102020279E+02  0.17301616593E+02  0.95235150419E+02  0.90434627394E+02 0.  0.
         11    1    3    3    0    0  0.37864338813E+02 -0.14914684910E+02  0.45944403366E+02  0.61376250950E+02  0.51100000000E-03 0.  1.
         22    1    1    0    0    0 -0.19826727688E+02  0.14102020279E+02 -0.17301616593E+02  0.29854849581E+02  0.00000000000E+00 0.  1.
</event>
<event>
 5    1  0.1059945E-009  0.9118800E+02  0.7815553E-02  0.1125453E+00
         25   -1    0    0    0    0  0.00000000000E+00  0.00000000000E+00  0.99999998245E-14  0.12509000000E+03  0.12509000000E+03 0.  0.
        -11    1    3    3    0    0 -0.50245744547E+02 -0.41536820051E+01  0.46504897116E+01  0.50631166035E+02  0.51100000000E-03 0.  1.
         23    2    1    0    0    0 -0.12630036254E+02  0.57640482906E+01 -0.22907083204E+02  0.98304247642E+02  0.94584610667E+02 0.  0.
         11    1    3    3    0    0  0.37615708293E+02  0.99177302958E+01 -0.27557572916E+02  0.47673081606E+02  0.51100000000E-03 0. -1.
         22    1    1    0    0    0  0.12630036254E+02 -0.57640482906E+01  0.22907083204E+02  0.26785752358E+02  0.00000000000E+00 0. -1.
</event>
<event>
 5    1  0.1059945E-009  0.9118800E+02  0.7815553E-02  0.1125453E+00
         25   -1    0    0    0    0  0.00000000000E+00  0.00000000000E+00  0.99999998245E-14  0.12509000000E+03  0.12509000000E+03 0.  0.
        -11    1    3    3    0    0  0.26513041464E+02 -0.10599058346E+02 -0.22497979561E+02  0.36351622936E+02  0.51100000000E-03 0.  1.
         23    2    1    0    0    0 -0.13747008650E+02 -0.16824508691E+02  0.20240835842E+02  0.95395963981E+02  0.90656793285E+02 0.  0.
         11    1    3    3    0    0 -0.40260050114E+02 -0.62254503448E+01  0.42738815403E+02  0.59044341045E+02  0.51100000000E-03 0. -1.
         22    1    1    0    0    0  0.13747008650E+02  0.16824508691E+02 -0.20240835842E+02  0.29694036019E+02  0.00000000000E+00 0. -1.
</event>
<event>
 5    1  0.1059945E-009  0.9118800E+02  0.7815553E-02  0.1125453E+00
         25   -1    0    0    0    0  0.00000000000E+00  0.00000000000E+00  0.99999998245E-14  0.12509000000E+03  0.12509000000E+03 0.  0.
        -11    1    3    3    0    0  0.19029011639E+01 -0.41041088766E+02  0.40247914937E+02  0.57514230039E+02  0.51100000000E-03 0.  1.
         23    2    1    0    0    0 -0.12899685823E+02 -0.10005075583E+02  0.25236905185E+02  0.95033306651E+02  0.90155002956E+02 0.  0.
         11    1    3    3    0    0 -0.14802586987E+02  0.31036013183E+02 -0.15011009752E+02  0.37519076612E+02  0.51100000000E-03 0. -1.
         22    1    1    0    0    0  0.12899685823E+02  0.10005075583E+02 -0.25236905185E+02  0.30056693349E+02  0.00000000000E+00 0.  1.
</event>
<event>
 5    1  0.1059945E-009  0.9118800E+02  0.7815553E-02  0.1125453E+00
         25   -1    0    0    0    0  0.00000000000E+00  0.00000000000E+00  0.99999998245E-14  0.12509000000E+03  0.12509000000E+03 0.  0.
        -11    1    3    3    0    0 -0.43868755324E+02 -0.19074952908E+02 -0.10298489515E+02  0.48932406529E+02  0.51100000000E-03 0. -1.
         23    2    1    0    0    0 -0.20646229747E+02  0.12052940410E+02  0.16433802862E+02  0.96079483772E+02  0.91595071648E+02 0.  0.
         11    1    3    3    0    0  0.23222525577E+02  0.31127893318E+02  0.26732292377E+02  0.47147077243E+02  0.51100000000E-03 0.  1.
         22    1    1    0    0    0  0.20646229747E+02 -0.12052940410E+02 -0.16433802862E+02  0.29010516228E+02  0.00000000000E+00 0. -1.
</event>
<event>
 5    1  0.1059945E-009  0.9118800E+02  0.7815553E-02  0.1125453E+00
         25   -1    0    0    0    0  0.00000000000E+00  0.00000000000E+00  0.99999998245E-14  0.12509000000E+03  0.12509000000E+03 0.  0.
        -11    1    3    3    0    0  0.14637727255E+02 -0.30198341312E+02 -0.47075572862E+02  0.57812735948E+02  0.51100000000E-03 0. -1.
         23    2    1    0    0    0 -0.10580767993E+02 -0.12865948289E+02 -0.22692992936E+02  0.96939383575E+02  0.92761990507E+02 0.  0.
         11    1    3    3    0    0 -0.25218495248E+02  0.17332393023E+02  0.24382579926E+02  0.39126647627E+02  0.51100000000E-03 0.  1.
         22    1    1    0    0    0  0.10580767993E+02  0.12865948289E+02  0.22692992936E+02  0.28150616425E+02  0.00000000000E+00 0. -1.
</event>
<event>
 5    1  0.1059945E-009  0.9118800E+02  0.7815553E-02  0.1125453E+00
         25   -1    0    0    0    0  0.00000000000E+00  0.00000000000E+00  0.99999998245E-14  0.12509000000E+03  0.12509000000E+03 0.  0.
        -11    1    3    3    0    0  0.11197936961E+02 -0.48419877319E+02 -0.69602878213E+01  0.50182904644E+02  0.51100000000E-03 0. -1.
         23    2    1    0    0    0 -0.54445372300E+01 -0.23611972914E+02  0.22416129878E+02  0.92080135880E+02  0.85959876073E+02 0.  0.
         11    1    3    3    0    0 -0.16642474191E+02  0.24807904405E+02  0.29376417699E+02  0.41897231236E+02  0.51100000000E-03 0.  1.
         22    1    1    0    0    0  0.54445372300E+01  0.23611972914E+02 -0.22416129878E+02  0.33009864120E+02  0.00000000000E+00 0. -1.
</event>
<event>
 5    1  0.1059945E-009  0.9118800E+02  0.7815553E-02  0.1125453E+00
         25   -1    0    0    0    0  0.00000000000E+00  0.00000000000E+00  0.99999998245E-14  0.12509000000E+03  0.12509000000E+03 0.  0.
        -11    1    3    3    0    0 -0.47534495832E+02  0.19201418093E+02  0.29939700766E+02  0.59368412755E+02  0.51100000000E-03 0.  1.
         23    2    1    0    0    0 -0.14688287583E+02  0.20913885593E+02  0.14553366232E+02  0.95680190899E+02  0.91048130453E+02 0.  0.
         11    1    3    3    0    0  0.32846208249E+02  0.17124674999E+01 -0.15386334534E+02  0.36311778144E+02  0.51100000000E-03 0. -1.
         22    1    1    0    0    0  0.14688287583E+02 -0.20913885593E+02 -0.14553366232E+02  0.29409809101E+02  0.00000000000E+00 0.  1.
</event>
<event>
 5    1  0.1059945E-009  0.9118800E+02  0.7815553E-02  0.1125453E+00
         25   -1    0    0    0    0  0.00000000000E+00  0.00000000000E+00  0.99999998245E-14  0.12509000000E+03  0.12509000000E+03 0.  0.
        -11    1    3    3    0    0  0.61507018587E+02  0.34051127064E+01 -0.16594741445E+01  0.61623550553E+02  0.51100000000E-03 0.  1.
         23    2    1    0    0    0  0.36228119946E+02  0.51765769617E+01  0.57945523325E+01  0.88038003285E+02  0.79861377159E+02 0.  0.
         11    1    3    3    0    0 -0.25278898641E+02  0.17714642553E+01  0.74540264770E+01  0.26414452732E+02  0.51100000000E-03 0. -1.
         22    1    1    0    0    0 -0.36228119946E+02 -0.51765769617E+01 -0.57945523325E+01  0.37051996715E+02  0.00000000000E+00 0.  1.
</event>
<event>
 5    1  0.1059945E-009  0.9118800E+02  0.7815553E-02  0.1125453E+00
         25   -1    0    0    0    0  0.00000000000E+00  0.00000000000E+00  0.99999998245E-14  0.12509000000E+03  0.12509000000E+03 0.  0.
        -11    1    3    3    0    0  0.29736697079E+02  0.15409949436E+02 -0.27591898789E+02  0.43394130638E+02  0.51100000000E-03 0.  1.
         23    2    1    0    0    0 -0.31614072889E+01 -0.22586730820E+02 -0.21005977440E+02  0.94083452411E+02  0.88827304497E+02 0.  0.
         11    1    3    3    0    0 -0.32898104368E+02 -0.37996680257E+02  0.65859213493E+01  0.50689321773E+02  0.51100000000E-03 0. -1.
         22    1    1    0    0    0  0.31614072889E+01  0.22586730820E+02  0.21005977440E+02  0.31006547589E+02  0.00000000000E+00 0.  1.
</event>
<event>
 5    1  0.1059945E-009  0.9118800E+02  0.7815553E-02  0.1125453E+00
         25   -1    0    0    0    0  0.00000000000E+00  0.00000000000E+00  0.99999998245E-14  0.12509000000E+03  0.12509000000E+03 0.  0.
        -11    1    3    3    0    0  0.14101444695E+02  0.48637374503E+02  0.18580781872E+02  0.53941546105E+02  0.51100000000E-03 0. -1.
         23    2    1    0    0    0  0.17540084007E+02  0.11981409796E+02 -0.10999382438E+02  0.10116939922E+03  0.98300825006E+02 0.  0.
         11    1    3    3    0    0  0.34386393120E+01 -0.36655964707E+02 -0.29580164310E+02  0.47227853115E+02  0.51100000000E-03 0.  1.
         22    1    1    0    0    0 -0.17540084007E+02 -0.11981409796E+02  0.10999382438E+02  0.23920600780E+02  0.00000000000E+00 0. -1.
</event>
<event>
 5    1  0.1059945E-009  0.9118800E+02  0.7815553E-02  0.1125453E+00
         25   -1    0    0    0    0  0.00000000000E+00  0.00000000000E+00  0.99999998245E-14  0.12509000000E+03  0.12509000000E+03 0.  0.
        -11    1    3    3    0    0  0.10106695636E+02  0.52091723609E+01  0.16242308691E+02  0.19826582288E+02  0.51100000000E-03 0.  1.
         23    2    1    0    0    0 -0.13906411031E+01  0.47930211096E+02 -0.15967539094E+02  0.74550893131E+02  0.54805422575E+02 0.  0.
         11    1    3    3    0    0 -0.11497336739E+02  0.42721038735E+02 -0.32209847785E+02  0.54724310843E+02  0.51100000000E-03 0. -1.
         22    1    1    0    0    0  0.13906411031E+01 -0.47930211096E+02  0.15967539094E+02  0.50539106869E+02  0.00000000000E+00 0. -1.
</event>
<event>
 5    1  0.1059945E-009  0.9118800E+02  0.7815553E-02  0.1125453E+00
         25   -1    0    0    0    0  0.00000000000E+00  0.00000000000E+00  0.99999998245E-14  0.12509000000E+03  0.12509000000E+03 0.  0.
        -11    1    3    3    0    0  0.25771719852E+02 -0.29703630980E+02 -0.44369642783E+02  0.59288721006E+02  0.51100000000E-03 0.  1.
         23    2    1    0    0    0 -0.14910350748E+01 -0.16619047618E+02 -0.24410111425E+02  0.95521951889E+02  0.90830467485E+02 0.  0.
         11    1    3    3    0    0 -0.27262754927E+02  0.13084583362E+02  0.19959531358E+02  0.36233230884E+02  0.51100000000E-03 0. -1.
         22    1    1    0    0    0  0.14910350748E+01  0.16619047618E+02  0.24410111425E+02  0.29568048111E+02  0.00000000000E+00 0.  1.
</event>
<event>
 5    1  0.1059945E-009  0.9118800E+02  0.7815553E-02  0.1125453E+00
         25   -1    0    0    0    0  0.00000000000E+00  0.00000000000E+00  0.99999998245E-14  0.12509000000E+03  0.12509000000E+03 0.  0.
        -11    1    3    3    0    0  0.17041685860E+02 -0.51755998207E+02  0.43278488981E+01  0.54661071008E+02  0.51100000000E-03 0. -1.
         23    2    1    0    0    0 -0.11517961325E+02 -0.26439040700E+02  0.12445348204E+02  0.93680240400E+02  0.88257659403E+02 0.  0.
         11    1    3    3    0    0 -0.28559647186E+02  0.25316957508E+02  0.81174993059E+01  0.39019169392E+02  0.51100000000E-03 0.  1.
         22    1    1    0    0    0  0.11517961325E+02  0.26439040700E+02 -0.12445348204E+02  0.31409759600E+02  0.00000000000E+00 0. -1.
</event>
<event>
 5    1  0.1059945E-009  0.9118800E+02  0.7815553E-02  0.1125453E+00
         25   -1    0    0    0    0  0.00000000000E+00  0.00000000000E+00  0.99999998245E-14  0.12509000000E+03  0.12509000000E+03 0.  0.
        -11    1    3    3    0    0  0.88373483060E+01 -0.35076804847E+02 -0.18999338184E+02  0.40858974719E+02  0.51100000000E-03 0. -1.
         23    2    1    0    0    0 -0.25770537119E+02  0.66799776702E+01  0.41870258903E+00  0.98464485978E+02  0.94796292133E+02 0.  0.
         11    1    3    3    0    0 -0.34607885425E+02  0.41756782517E+02  0.19418040773E+02  0.57605511260E+02  0.51100000000E-03 0.  1.
         22    1    1    0    0    0  0.25770537119E+02 -0.66799776702E+01 -0.41870258903E+00  0.26625514022E+02  0.00000000000E+00 0.  1.
</event>
<event>
 5    1  0.1059945E-009  0.9118800E+02  0.7815553E-02  0.1125453E+00
         25   -1    0    0    0    0  0.00000000000E+00  0.00000000000E+00  0.99999998245E-14  0.12509000000E+03  0.12509000000E+03 0.  0.
        -11    1    3    3    0    0  0.22227513440E+02 -0.12736510215E+00  0.61030164588E-01  0.22227962132E+02  0.51100000000E-03 0. -1.
         23    2    1    0    0    0 -0.23602977744E+01  0.40198123164E+02 -0.26949687933E+02  0.76636457393E+02  0.59375085773E+02 0.  0.
         11    1    3    3    0    0 -0.24587811214E+02  0.40325488266E+02 -0.27010718098E+02  0.54408495261E+02  0.51100000000E-03 0.  1.
         22    1    1    0    0    0  0.23602977744E+01 -0.40198123164E+02  0.26949687933E+02  0.48453542607E+02  0.00000000000E+00 0.  1.
</event>
<event>
 5    1  0.1059945E-009  0.9118800E+02  0.7815553E-02  0.1125453E+00
         25   -1    0    0    0    0  0.00000000000E+00  0.00000000000E+00  0.99999998245E-14  0.12509000000E+03  0.12509000000E+03 0.  0.
        -11    1    3    3    0    0 -0.18220499130E+02  0.42642145300E+01  0.45764484540E+02  0.49442473235E+02  0.51100000000E-03 0.  1.
         23    2    1    0    0    0  0.20511464826E+02 -0.24106652022E+01  0.19285475816E+02  0.96832946483E+02  0.92618348350E+02 0.  0.
         11    1    3    3    0    0  0.38731963956E+02 -0.66748797322E+01 -0.26479008725E+02  0.47390473248E+02  0.51100000000E-03 0. -1.
         22    1    1    0    0    0 -0.20511464826E+02  0.24106652022E+01 -0.19285475816E+02  0.28257053517E+02  0.00000000000E+00 0. -1.
</event>
<event>
 5    1  0.1059945E-009  0.9118800E+02  0.7815553E-02  0.1125453E+00
         25   -1    0    0    0    0  0.00000000000E+00  0.00000000000E+00  0.99999998245E-14  0.12509000000E+03  0.12509000000E+03 0.  0.
        -11    1    3    3    0    0  0.25439285052E+02  0.87350228890E+01  0.48799959724E+02  0.55721574979E+02  0.51100000000E-03 0.  1.
         23    2    1    0    0    0  0.24952898890E+02  0.13476600845E+02  0.96903999500E+01  0.95120519115E+02  0.90275929085E+02 0.  0.
         11    1    3    3    0    0 -0.48638616195E+00  0.47415779562E+01 -0.39109559774E+02  0.39398944135E+02  0.51100000000E-03 0. -1.
         22    1    1    0    0    0 -0.24952898890E+02 -0.13476600845E+02 -0.96903999500E+01  0.29969480885E+02  0.00000000000E+00 0.  1.
</event>
<event>
 5    1  0.1059945E-009  0.9118800E+02  0.7815553E-02  0.1125453E+00
         25   -1    0    0    0    0  0.00000000000E+00  0.00000000000E+00  0.99999998245E-14  0.12509000000E+03  0.12509000000E+03 0.  0.
        -11    1    3    3    0    0 -0.22942805710E+01 -0.19210305138E+02  0.53979899259E+02  0.57342210204E+02  0.51100000000E-03 0.  1.
         23    2    1    0    0    0  0.10751872373E+02  0.48216764930E+01  0.26397059211E+02  0.96182283751E+02  0.91735356591E+02 0.  0.
         11    1    3    3    0    0  0.13046152944E+02  0.24031981631E+02 -0.27582840048E+02  0.38840073547E+02  0.51100000000E-03 0. -1.
         22    1    1    0    0    0 -0.10751872373E+02 -0.48216764930E+01 -0.26397059211E+02  0.28907716249E+02  0.00000000000E+00 0.  1.
</event>
<event>
 5    1  0.1059945E-009  0.9118800E+02  0.7815553E-02  0.1125453E+00
         25   -1    0    0    0    0  0.00000000000E+00  0.00000000000E+00  0.99999998245E-14  0.12509000000E+03  0.12509000000E+03 0.  0.
        -11    1    3    3    0    0 -0.30660291855E+02 -0.14882091068E+02 -0.37193922598E+02  0.50447180394E+02  0.51100000000E-03 0.  1.
         23    2    1    0    0    0 -0.18203739955E+02  0.19441437669E+02 -0.77552729031E+01  0.97350318949E+02  0.93314493487E+02 0.  0.
         11    1    3    3    0    0  0.12456551900E+02  0.34323528737E+02  0.29438649695E+02  0.46903138555E+02  0.51100000000E-03 0. -1.
         22    1    1    0    0    0  0.18203739955E+02 -0.19441437669E+02  0.77552729031E+01  0.27739681051E+02  0.00000000000E+00 0.  1.
</event>
<event>
 5    1  0.1059945E-009  0.9118800E+02  0.7815553E-02  0.1125453E+00
         25   -1    0    0    0    0  0.00000000000E+00  0.00000000000E+00  0.99999998245E-14  0.12509000000E+03  0.12509000000E+03 0.  0.
        -11    1    3    3    0    0  0.44360072108E+02  0.37952029869E+02  0.17892324125E+02  0.61059870876E+02  0.51100000000E-03 0.  1.
         23    2    1    0    0    0  0.23315657828E+02  0.17255066546E+02 -0.93308641431E+00  0.96068837520E+02  0.91580531068E+02 0.  0.
         11    1    3    3    0    0 -0.21044414280E+02 -0.20696963323E+02 -0.18825410540E+02  0.35008966643E+02  0.51100000000E-03 0. -1.
         22    1    1    0    0    0 -0.23315657828E+02 -0.17255066546E+02  0.93308641431E+00  0.29021162480E+02  0.00000000000E+00 0.  1.
</event>
<event>
 5    1  0.1059945E-009  0.9118800E+02  0.7815553E-02  0.1125453E+00
         25   -1    0    0    0    0  0.00000000000E+00  0.00000000000E+00  0.99999998245E-14  0.12509000000E+03  0.12509000000E+03 0.  0.
        -11    1    3    3    0    0 -0.17854364814E+02 -0.10397914090E+02 -0.33857617342E+02  0.39664003992E+02  0.51100000000E-03 0.  1.
         23    2    1    0    0    0  0.15757905857E+02  0.23972847818E+02 -0.43441168341E+01  0.96074824995E+02  0.91588709005E+02 0.  0.
         11    1    3    3    0    0  0.33612270671E+02  0.34370761908E+02  0.29513500508E+02  0.56410821003E+02  0.51100000000E-03 0. -1.
         22    1    1    0    0    0 -0.15757905857E+02 -0.23972847818E+02  0.43441168341E+01  0.29015175005E+02  0.00000000000E+00 0. -1.
</event>
<event>
 5    1  0.1059945E-009  0.9118800E+02  0.7815553E-02  0.1125453E+00
         25   -1    0    0    0    0  0.00000000000E+00  0.00000000000E+00  0.99999998245E-14  0.12509000000E+03  0.12509000000E+03 0.  0.
        -11    1    3    3    0    0  0.26070914354E+02 -0.10248492861E+02  0.23263439475E+02  0.36413071797E+02  0.51100000000E-03 0.  1.
         23    2    1    0    0    0 -0.78624449578E+01  0.26192797511E+02 -0.96366756606E+01  0.96094376193E+02  0.91615407743E+02 0.  0.
         11    1    3    3    0    0 -0.33933359312E+02  0.36441290373E+02 -0.32900115136E+02  0.59681304396E+02  0.51100000000E-03 0. -1.
         22    1    1    0    0    0  0.78624449578E+01 -0.26192797511E+02  0.96366756606E+01  0.28995623807E+02  0.00000000000E+00 0. -1.
</event>
<event>
 5    1  0.1059945E-009  0.9118800E+02  0.7815553E-02  0.1125453E+00
         25   -1    0    0    0    0  0.00000000000E+00  0.00000000000E+00  0.99999998245E-14  0.12509000000E+03  0.12509000000E+03 0.  0.
        -11    1    3    3    0    0  0.25249588726E+01 -0.29296347986E+02  0.24257354796E+02  0.38119164269E+02  0.51100000000E-03 0.  1.
         23    2    1    0    0    0 -0.14799885426E+02 -0.21604187910E+01 -0.24404345704E+02  0.96467000381E+02  0.92122777071E+02 0.  0.
         11    1    3    3    0    0 -0.17324844298E+02  0.27135929195E+02 -0.48661700499E+02  0.58347836112E+02  0.51100000000E-03 0. -1.
         22    1    1    0    0    0  0.14799885426E+02  0.21604187910E+01  0.24404345704E+02  0.28622999619E+02  0.00000000000E+00 0. -1.
</event>
<event>
 5    1  0.1059945E-009  0.9118800E+02  0.7815553E-02  0.1125453E+00
         25   -1    0    0    0    0  0.00000000000E+00  0.00000000000E+00  0.99999998245E-14  0.12509000000E+03  0.12509000000E+03 0.  0.
        -11    1    3    3    0    0  0.24896453667E+02 -0.26912366663E+02 -0.46448433879E+01  0.36955154647E+02  0.51100000000E-03 0.  1.
         23    2    1    0    0    0  0.52827452286E+01  0.27483749608E+02 -0.10769043619E+02  0.95102732866E+02  0.90251280370E+02 0.  0.
         11    1    3    3    0    0 -0.19613708439E+02  0.54396116271E+02 -0.61242002316E+01  0.58147578220E+02  0.51100000000E-03 0. -1.
         22    1    1    0    0    0 -0.52827452286E+01 -0.27483749608E+02  0.10769043619E+02  0.29987267134E+02  0.00000000000E+00 0. -1.
</event>
<event>
 5    1  0.1059945E-009  0.9118800E+02  0.7815553E-02  0.1125453E+00
         25   -1    0    0    0    0  0.00000000000E+00  0.00000000000E+00  0.99999998245E-14  0.12509000000E+03  0.12509000000E+03 0.  0.
        -11    1    3    3    0    0  0.31872200892E+02  0.18251182777E+02  0.26108370729E+00  0.36728885464E+02  0.51100000000E-03 0. -1.
         23    2    1    0    0    0 -0.14401974204E+02  0.15043733650E+01 -0.28064511422E+02  0.93509993642E+02  0.88016033252E+02 0.  0.
         11    1    3    3    0    0 -0.46274175096E+02 -0.16746809412E+02 -0.28325595130E+02  0.56781108178E+02  0.51100000000E-03 0.  1.
         22    1    1    0    0    0  0.14401974204E+02 -0.15043733650E+01  0.28064511422E+02  0.31580006358E+02  0.00000000000E+00 0.  1.
</event>
<event>
 5    1  0.1059945E-009  0.9118800E+02  0.7815553E-02  0.1125453E+00
         25   -1    0    0    0    0  0.00000000000E+00  0.00000000000E+00  0.99999998245E-14  0.12509000000E+03  0.12509000000E+03 0.  0.
        -11    1    3    3    0    0  0.28968772282E+02 -0.30041807805E+02  0.41317409178E+02  0.58726725477E+02  0.51100000000E-03 0. -1.
         23    2    1    0    0    0  0.94479432107E+01 -0.98530206224E+00  0.26860150678E+02  0.96599613104E+02  0.92302671177E+02 0.  0.
         11    1    3    3    0    0 -0.19520829072E+02  0.29056505743E+02 -0.14457258501E+02  0.37872887627E+02  0.51100000000E-03 0.  1.
         22    1    1    0    0    0 -0.94479432107E+01  0.98530206224E+00 -0.26860150678E+02  0.28490386896E+02  0.00000000000E+00 0. -1.
</event>
<event>
 5    1  0.1059945E-009  0.9118800E+02  0.7815553E-02  0.1125453E+00
         25   -1    0    0    0    0  0.00000000000E+00  0.00000000000E+00  0.99999998245E-14  0.12509000000E+03  0.12509000000E+03 0.  0.
        -11    1    3    3    0    0  0.39752950460E+02  0.15061109595E+02  0.17712147519E+02  0.46052733496E+02  0.51100000000E-03 0. -1.
         23    2    1    0    0    0  0.20030714074E+02  0.25050872969E+02  0.37514772334E+02  0.75732792967E+02  0.57439725317E+02 0.  0.
         11    1    3    3    0    0 -0.19722236386E+02  0.99897633741E+01  0.19802624815E+02  0.29680059471E+02  0.51100000000E-03 0.  1.
         22    1    1    0    0    0 -0.20030714074E+02 -0.25050872969E+02 -0.37514772334E+02  0.49357207033E+02  0.00000000000E+00 0. -1.
</event>
<event>
 5    1  0.1059945E-009  0.9118800E+02  0.7815553E-02  0.1125453E+00
         25   -1    0    0    0    0  0.00000000000E+00  0.00000000000E+00  0.99999998245E-14  0.12509000000E+03  0.12509000000E+03 0.  0.
        -11    1    3    3    0    0 -0.28347460816E+02  0.40827471680E+02  0.27179766285E+01  0.49777990877E+02  0.51100000000E-03 0.  1.
         23    2    1    0    0    0  0.72733354021E+01  0.18055148835E+02  0.21541353301E+02  0.96056920430E+02  0.91564252048E+02 0.  0.
         11    1    3    3    0    0  0.35620796218E+02 -0.22772322845E+02  0.18823376672E+02  0.46278929553E+02  0.51100000000E-03 0. -1.
         22    1    1    0    0    0 -0.72733354021E+01 -0.18055148835E+02 -0.21541353301E+02  0.29033079570E+02  0.00000000000E+00 0.  1.
</event>
<event>
 5    1  0.1059945E-009  0.9118800E+02  0.7815553E-02  0.1125453E+00
         25   -1    0    0    0    0  0.00000000000E+00  0.00000000000E+00  0.99999998245E-14  0.12509000000E+03  0.12509000000E+03 0.  0.
        -11    1    3    3    0    0  0.49054173060E+02  0.15415147101E+02  0.17094928054E+02  0.54186485586E+02  0.51100000000E-03 0.  1.
         23    2    1    0    0    0  0.27512642504E+02 -0.11818292212E+02 -0.40997095847E+01  0.94867075803E+02  0.89924061987E+02 0.  0.
         11    1    3    3    0    0 -0.21541530556E+02 -0.27233439313E+02 -0.21194637639E+02  0.40680590217E+02  0.51100000000E-03 0. -1.
         22    1    1    0    0    0 -0.27512642504E+02  0.11818292212E+02  0.40997095847E+01  0.30222924197E+02  0.00000000000E+00 0. -1.
</event>
<event>
 5    1  0.1059945E-009  0.9118800E+02  0.7815553E-02  0.1125453E+00
         25   -1    0    0    0    0  0.00000000000E+00  0.00000000000E+00  0.99999998245E-14  0.12509000000E+03  0.12509000000E+03 0.  0.
        -11    1    3    3    0    0  0.26318191555E+02  0.33685376711E+02  0.39012777770E+02  0.57873557351E+02  0.51100000000E-03 0. -1.
         23    2    1    0    0    0  0.23855844814E+02  0.31894750627E+01  0.15461217357E+02  0.96483648868E+02  0.92145380642E+02 0.  0.
         11    1    3    3    0    0 -0.24623467410E+01 -0.30495901648E+02 -0.23551560413E+02  0.38610091517E+02  0.51100000000E-03 0.  1.
         22    1    1    0    0    0 -0.23855844814E+02 -0.31894750627E+01 -0.15461217357E+02  0.28606351132E+02  0.00000000000E+00 0. -1.
</event>
<event>
 5    1  0.1059945E-009  0.9118800E+02  0.7815553E-02  0.1125453E+00
         25   -1    0    0    0    0  0.00000000000E+00  0.00000000000E+00  0.99999998245E-14  0.12509000000E+03  0.12509000000E+03 0.  0.
        -11    1    3    3    0    0  0.19314826814E+01  0.31119284799E+02  0.91875317849E+01  0.32504634320E+02  0.51100000000E-03 0. -1.
         23    2    1    0    0    0  0.15309592208E+02 -0.27747157440E+02  0.14454162345E+01  0.93366545149E+02  0.87811924962E+02 0.  0.
         11    1    3    3    0    0  0.13378109526E+02 -0.58866442239E+02 -0.77421155504E+01  0.60861910829E+02  0.51100000000E-03 0.  1.
         22    1    1    0    0    0 -0.15309592208E+02  0.27747157440E+02 -0.14454162345E+01  0.31723454851E+02  0.00000000000E+00 0.  1.
</event>
<event>
 5    1  0.1059945E-009  0.9118800E+02  0.7815553E-02  0.1125453E+00
         25   -1    0    0    0    0  0.00000000000E+00  0.00000000000E+00  0.99999998245E-14  0.12509000000E+03  0.12509000000E+03 0.  0.
        -11    1    3    3    0    0 -0.35802503143E+02  0.28448951069E+02 -0.17549142532E+02  0.48980960098E+02  0.51100000000E-03 0.  1.
         23    2    1    0    0    0  0.28118831469E+01  0.27906364653E+02  0.87563839174E+01  0.95707247673E+02  0.91085295865E+02 0.  0.
         11    1    3    3    0    0  0.38614386290E+02 -0.54258641571E+00  0.26305526449E+02  0.46726287575E+02  0.51100000000E-03 0. -1.
         22    1    1    0    0    0 -0.28118831469E+01 -0.27906364653E+02 -0.87563839174E+01  0.29382752327E+02  0.00000000000E+00 0. -1.
</event>
<event>
 5    1  0.1059945E-009  0.9118800E+02  0.7815553E-02  0.1125453E+00
         25   -1    0    0    0    0  0.00000000000E+00  0.00000000000E+00  0.99999998245E-14  0.12509000000E+03  0.12509000000E+03 0.  0.
        -11    1    3    3    0    0 -0.27104015351E+02 -0.46843820154E+02 -0.27767443693E+02  0.60827642271E+02  0.51100000000E-03 0.  1.
         23    2    1    0    0    0 -0.16427482475E+02 -0.14396218301E+02 -0.19112102458E+02  0.96066117728E+02  0.91576816024E+02 0.  0.
         11    1    3    3    0    0  0.10676532876E+02  0.32447601854E+02  0.86553412353E+01  0.35238475456E+02  0.51100000000E-03 0. -1.
         22    1    1    0    0    0  0.16427482475E+02  0.14396218301E+02  0.19112102458E+02  0.29023882272E+02  0.00000000000E+00 0.  1.
</event>
<event>
 5    1  0.1059945E-009  0.9118800E+02  0.7815553E-02  0.1125453E+00
         25   -1    0    0    0    0  0.00000000000E+00  0.00000000000E+00  0.99999998245E-14  0.12509000000E+03  0.12509000000E+03 0.  0.
        -11    1    3    3    0    0  0.90791223850E+01  0.32676221168E+02 -0.24922835201E+02  0.42086976701E+02  0.51100000000E-03 0.  1.
         23    2    1    0    0    0 -0.24145745235E+01 -0.19905454174E+02 -0.21002461204E+02  0.96052771265E+02  0.91558583514E+02 0.  0.
         11    1    3    3    0    0 -0.11493696909E+02 -0.52581675342E+02  0.39203739968E+01  0.53965794564E+02  0.51100000000E-03 0. -1.
         22    1    1    0    0    0  0.24145745235E+01  0.19905454174E+02  0.21002461204E+02  0.29037228735E+02  0.00000000000E+00 0.  1.
</event>
<event>
 5    1  0.1059945E-009  0.9118800E+02  0.7815553E-02  0.1125453E+00
         25   -1    0    0    0    0  0.00000000000E+00  0.00000000000E+00  0.99999998245E-14  0.12509000000E+03  0.12509000000E+03 0.  0.
        -11    1    3    3    0    0  0.38714018558E+02 -0.40675322507E+00 -0.15484414968E+02  0.41697815150E+02  0.51100000000E-03 0. -1.
         23    2    1    0    0    0  0.12829816709E+02 -0.30788752864E+01  0.28997438575E+02  0.93231953705E+02  0.87619986749E+02 0.  0.
         11    1    3    3    0    0 -0.25884201849E+02 -0.26721220614E+01  0.44481853544E+02  0.51534138555E+02  0.51100000000E-03 0.  1.
         22    1    1    0    0    0 -0.12829816709E+02  0.30788752864E+01 -0.28997438575E+02  0.31858046295E+02  0.00000000000E+00 0.  1.
</event>
<event>
 5    1  0.1059945E-009  0.9118800E+02  0.7815553E-02  0.1125453E+00
         25   -1    0    0    0    0  0.00000000000E+00  0.00000000000E+00  0.99999998245E-14  0.12509000000E+03  0.12509000000E+03 0.  0.
        -11    1    3    3    0    0 -0.18945301919E+02  0.40474615996E+02  0.28551853514E+02  0.53031380750E+02  0.51100000000E-03 0. -1.
         23    2    1    0    0    0  0.15937004194E+02  0.20490846291E+02  0.11369504449E+02  0.96750477848E+02  0.92506899462E+02 0.  0.
         11    1    3    3    0    0  0.34882306113E+02 -0.19983769706E+02 -0.17182349065E+02  0.43719097098E+02  0.51100000000E-03 0.  1.
         22    1    1    0    0    0 -0.15937004194E+02 -0.20490846291E+02 -0.11369504449E+02  0.28339522152E+02  0.00000000000E+00 0. -1.
</event>
<event>
 5    1  0.1059945E-009  0.9118800E+02  0.7815553E-02  0.1125453E+00
         25   -1    0    0    0    0  0.00000000000E+00  0.00000000000E+00  0.99999998245E-14  0.12509000000E+03  0.12509000000E+03 0.  0.
        -11    1    3    3    0    0 -0.21919002282E+02  0.11738158259E+02 -0.21345794399E+02  0.32769955129E+02  0.51100000000E-03 0. -1.
         23    2    1    0    0    0  0.40725661963E+01 -0.23076711035E+02  0.21134769119E+02  0.93533719273E+02  0.88049746097E+02 0.  0.
         11    1    3    3    0    0  0.25991568478E+02 -0.34814869294E+02  0.42480563518E+02  0.60763764144E+02  0.51100000000E-03 0.  1.
         22    1    1    0    0    0 -0.40725661963E+01  0.23076711035E+02 -0.21134769119E+02  0.31556280727E+02  0.00000000000E+00 0.  1.
</event>
<event>
 5    1  0.1059945E-009  0.9118800E+02  0.7815553E-02  0.1125453E+00
         25   -1    0    0    0    0  0.00000000000E+00  0.00000000000E+00  0.99999998245E-14  0.12509000000E+03  0.12509000000E+03 0.  0.
        -11    1    3    3    0    0  0.19084092761E+02  0.33300480090E+02  0.12130839961E+02  0.40252724742E+02  0.51100000000E-03 0.  1.
         23    2    1    0    0    0 -0.22175992876E+02  0.77436984873E+01  0.25325645309E+02  0.90548317403E+02  0.83701074951E+02 0.  0.
         11    1    3    3    0    0 -0.41260085637E+02 -0.25556781603E+02  0.13194805348E+02  0.50295592661E+02  0.51100000000E-03 0. -1.
         22    1    1    0    0    0  0.22175992876E+02 -0.77436984873E+01 -0.25325645309E+02  0.34541682597E+02  0.00000000000E+00 0. -1.
</event>
<event>
 5    1  0.1059945E-009  0.9118800E+02  0.7815553E-02  0.1125453E+00
         25   -1    0    0    0    0  0.00000000000E+00  0.00000000000E+00  0.99999998245E-14  0.12509000000E+03  0.12509000000E+03 0.  0.
        -11    1    3    3    0    0  0.23492247234E+02  0.18283121534E+02 -0.11625282015E+02  0.31957869067E+02  0.51100000000E-03 0. -1.
         23    2    1    0    0    0 -0.18966362949E+02 -0.25251798129E+02 -0.32900491186E+01  0.93337824398E+02  0.87771002089E+02 0.  0.
         11    1    3    3    0    0 -0.42458610183E+02 -0.43534919663E+02  0.83352328965E+01  0.61379955331E+02  0.51100000000E-03 0.  1.
         22    1    1    0    0    0  0.18966362949E+02  0.25251798129E+02  0.32900491186E+01  0.31752175602E+02  0.00000000000E+00 0.  1.
</event>
<event>
 5    1  0.1059945E-009  0.9118800E+02  0.7815553E-02  0.1125453E+00
         25   -1    0    0    0    0  0.00000000000E+00  0.00000000000E+00  0.99999998245E-14  0.12509000000E+03  0.12509000000E+03 0.  0.
        -11    1    3    3    0    0  0.27240143366E+02 -0.43013665886E+02  0.29828319032E+02  0.59007876424E+02  0.51100000000E-03 0.  1.
         23    2    1    0    0    0  0.71160878826E+01 -0.29540428490E+02  0.39530100475E+01  0.94448493664E+02  0.89339890558E+02 0.  0.
         11    1    3    3    0    0 -0.20124055484E+02  0.13473237396E+02 -0.25875308984E+02  0.35440617240E+02  0.51100000000E-03 0. -1.
         22    1    1    0    0    0 -0.71160878826E+01  0.29540428490E+02 -0.39530100475E+01  0.30641506336E+02  0.00000000000E+00 0.  1.
</event>
<event>
 5    1  0.1059945E-009  0.9118800E+02  0.7815553E-02  0.1125453E+00
         25   -1    0    0    0    0  0.00000000000E+00  0.00000000000E+00  0.99999998245E-14  0.12509000000E+03  0.12509000000E+03 0.  0.
        -11    1    3    3    0    0 -0.37429780423E+02 -0.40197423083E+02 -0.29072169254E+02  0.62145090799E+02  0.51100000000E-03 0.  1.
         23    2    1    0    0    0 -0.18827964116E+02 -0.19935108817E+02 -0.88797916105E+01  0.96267239977E+02  0.91851129538E+02 0.  0.
         11    1    3    3    0    0  0.18601816307E+02  0.20262314266E+02  0.20192377644E+02  0.34122149178E+02  0.51100000000E-03 0. -1.
         22    1    1    0    0    0  0.18827964116E+02  0.19935108817E+02  0.88797916105E+01  0.28822760023E+02  0.00000000000E+00 0.  1.
</event>
<event>
 5    1  0.1059945E-009  0.9118800E+02  0.7815553E-02  0.1125453E+00
         25   -1    0    0    0    0  0.00000000000E+00  0.00000000000E+00  0.99999998245E-14  0.12509000000E+03  0.12509000000E+03 0.  0.
        -11    1    3    3    0    0 -0.74677341598E+01  0.25957888024E+02 -0.31931635991E+02  0.41823538606E+02  0.51100000000E-03 0. -1.
         23    2    1    0    0    0 -0.36053852596E+02  0.13930794360E+02  0.14085216372E+00  0.86438128663E+02  0.77314829941E+02 0.  0.
         11    1    3    3    0    0 -0.28586118437E+02 -0.12027093665E+02  0.32072488155E+02  0.44614590057E+02  0.51100000000E-03 0.  1.
         22    1    1    0    0    0  0.36053852596E+02 -0.13930794360E+02 -0.14085216372E+00  0.38651871337E+02  0.00000000000E+00 0.  1.
</event>
<event>
 5    1  0.1059945E-009  0.9118800E+02  0.7815553E-02  0.1125453E+00
         25   -1    0    0    0    0  0.00000000000E+00  0.00000000000E+00  0.99999998245E-14  0.12509000000E+03  0.12509000000E+03 0.  0.
        -11    1    3    3    0    0  0.69067404808E+00  0.28469905472E+01 -0.40668661424E+02  0.40774040860E+02  0.51100000000E-03 0. -1.
         23    2    1    0    0    0 -0.20051089167E+02 -0.21106974536E+02  0.41715368229E+01  0.95679929101E+02  0.91047770771E+02 0.  0.
         11    1    3    3    0    0 -0.20741763215E+02 -0.23953965083E+02  0.44840198246E+02  0.54905888241E+02  0.51100000000E-03 0.  1.
         22    1    1    0    0    0  0.20051089167E+02  0.21106974536E+02 -0.41715368229E+01  0.29410070899E+02  0.00000000000E+00 0.  1.
</event>
<event>
 5    1  0.1059945E-009  0.9118800E+02  0.7815553E-02  0.1125453E+00
         25   -1    0    0    0    0  0.00000000000E+00  0.00000000000E+00  0.99999998245E-14  0.12509000000E+03  0.12509000000E+03 0.  0.
        -11    1    3    3    0    0  0.10294018152E+02  0.46164290037E+02  0.26619917755E+02  0.54274565920E+02  0.51100000000E-03 0. -1.
         23    2    1    0    0    0  0.24701886612E+02  0.10026947492E+02  0.12299038432E+02  0.95730346996E+02  0.91117013292E+02 0.  0.
         11    1    3    3    0    0  0.14407868460E+02 -0.36137342545E+02 -0.14320879323E+02  0.41455781075E+02  0.51100000000E-03 0.  1.
         22    1    1    0    0    0 -0.24701886612E+02 -0.10026947492E+02 -0.12299038432E+02  0.29359653004E+02  0.00000000000E+00 0. -1.
</event>
<event>
 5    1  0.1059945E-009  0.9118800E+02  0.7815553E-02  0.1125453E+00
         25   -1    0    0    0    0  0.00000000000E+00  0.00000000000E+00  0.99999998245E-14  0.12509000000E+03  0.12509000000E+03 0.  0.
        -11    1    3    3    0    0 -0.72961395620E+01  0.32053746040E+02  0.66242283838E+01  0.33534410531E+02  0.51100000000E-03 0. -1.
         23    2    1    0    0    0  0.18824044263E+02 -0.23226156052E+02 -0.11770332808E+01  0.95170368072E+02  0.90344975424E+02 0.  0.
         11    1    3    3    0    0  0.26120183825E+02 -0.55279902091E+02 -0.78012616646E+01  0.61635957542E+02  0.51100000000E-03 0.  1.
         22    1    1    0    0    0 -0.18824044263E+02  0.23226156052E+02  0.11770332808E+01  0.29919631928E+02  0.00000000000E+00 0.  1.
</event>
<event>
 5    1  0.1059945E-009  0.9118800E+02  0.7815553E-02  0.1125453E+00
         25   -1    0    0    0    0  0.00000000000E+00  0.00000000000E+00  0.99999998245E-14  0.12509000000E+03  0.12509000000E+03 0.  0.
        -11    1    3    3    0    0  0.43742126735E+02 -0.12670745687E+01  0.24552761744E+02  0.50177856060E+02  0.51100000000E-03 0. -1.
         23    2    1    0    0    0  0.11891577216E+02  0.26138135962E+02  0.87293286913E+01  0.95076454064E+02  0.90214850096E+02 0.  0.
         11    1    3    3    0    0 -0.31850549519E+02  0.27405210530E+02 -0.15823433053E+02  0.44898598004E+02  0.51100000000E-03 0.  1.
         22    1    1    0    0    0 -0.11891577216E+02 -0.26138135962E+02 -0.87293286913E+01  0.30013545936E+02  0.00000000000E+00 0. -1.
</event>
<event>
 5    1  0.1059945E-009  0.9118800E+02  0.7815553E-02  0.1125453E+00
         25   -1    0    0    0    0  0.00000000000E+00  0.00000000000E+00  0.99999998245E-14  0.12509000000E+03  0.12509000000E+03 0.  0.
        -11    1    3    3    0    0  0.29395270087E+02 -0.13596735754E+02  0.44487571346E+02  0.55028148535E+02  0.51100000000E-03 0.  1.
         23    2    1    0    0    0  0.52119208123E+01 -0.26037987482E+02  0.17867943085E+02  0.93083683424E+02  0.87408053514E+02 0.  0.
         11    1    3    3    0    0 -0.24183349275E+02 -0.12441251728E+02 -0.26619628261E+02  0.38055534890E+02  0.51100000000E-03 0. -1.
         22    1    1    0    0    0 -0.52119208123E+01  0.26037987482E+02 -0.17867943085E+02  0.32006316576E+02  0.00000000000E+00 0. -1.
</event>
<event>
 5    1  0.1059945E-009  0.9118800E+02  0.7815553E-02  0.1125453E+00
         25   -1    0    0    0    0  0.00000000000E+00  0.00000000000E+00  0.99999998245E-14  0.12509000000E+03  0.12509000000E+03 0.  0.
        -11    1    3    3    0    0 -0.77045622825E+01 -0.18926850290E+02  0.38352318206E+02  0.43456717018E+02  0.51100000000E-03 0.  1.
         23    2    1    0    0    0  0.12501171775E+02  0.22613297991E+02  0.14904739404E+02  0.95260621890E+02  0.90469852903E+02 0.  0.
         11    1    3    3    0    0  0.20205734057E+02  0.41540148281E+02 -0.23447578803E+02  0.51803904872E+02  0.51100000000E-03 0. -1.
         22    1    1    0    0    0 -0.12501171775E+02 -0.22613297991E+02 -0.14904739404E+02  0.29829378110E+02  0.00000000000E+00 0. -1.
</event>
<event>
 5    1  0.1059945E-009  0.9118800E+02  0.7815553E-02  0.1125453E+00
         25   -1    0    0    0    0  0.00000000000E+00  0.00000000000E+00  0.99999998245E-14  0.12509000000E+03  0.12509000000E+03 0.  0.
        -11    1    3    3    0    0 -0.65926631400E+01  0.27857157304E+02 -0.51573152371E+02  0.58985375018E+02  0.51100000000E-03 0.  1.
         23    2    1    0    0    0 -0.13832724538E+02  0.26691884668E+01 -0.25520323850E+02  0.95939429429E+02  0.91403601431E+02 0.  0.
         11    1    3    3    0    0 -0.72400613976E+01 -0.25187968837E+02  0.26052828521E+02  0.36954054411E+02  0.51100000000E-03 0. -1.
         22    1    1    0    0    0  0.13832724538E+02 -0.26691884668E+01  0.25520323850E+02  0.29150570571E+02  0.00000000000E+00 0.  1.
</event>
<event>
 5    1  0.1059945E-009  0.9118800E+02  0.7815553E-02  0.1125453E+00
         25   -1    0    0    0    0  0.00000000000E+00  0.00000000000E+00  0.99999998245E-14  0.12509000000E+03  0.12509000000E+03 0.  0.
        -11    1    3    3    0    0 -0.50366792390E+00  0.35518387348E+02 -0.14042517319E+02  0.38196882256E+02  0.51100000000E-03 0.  1.
         23    2    1    0    0    0  0.34190920086E+00 -0.23341784820E+02  0.70123869131E+01  0.10071523045E+03  0.97721176076E+02 0.  0.
         11    1    3    3    0    0  0.84557712477E+00 -0.58860172167E+02  0.21054904232E+02  0.62518348193E+02  0.51100000000E-03 0. -1.
         22    1    1    0    0    0 -0.34190920086E+00  0.23341784820E+02 -0.70123869131E+01  0.24374769551E+02  0.00000000000E+00 0. -1.
</event>
<event>
 5    1  0.1059945E-009  0.9118800E+02  0.7815553E-02  0.1125453E+00
         25   -1    0    0    0    0  0.00000000000E+00  0.00000000000E+00  0.99999998245E-14  0.12509000000E+03  0.12509000000E+03 0.  0.
        -11    1    3    3    0    0  0.29929124213E+01 -0.27040548671E+01 -0.61285119827E+02  0.61417712022E+02  0.51100000000E-03 0.  1.
         23    2    1    0    0    0  0.92502311350E+01  0.13374593502E+01 -0.26540207946E+02  0.96952156952E+02  0.92779213870E+02 0.  0.
         11    1    3    3    0    0  0.62573187137E+01  0.40415142173E+01  0.34744911881E+02  0.35534444931E+02  0.51100000000E-03 0. -1.
         22    1    1    0    0    0 -0.92502311350E+01 -0.13374593502E+01  0.26540207946E+02  0.28137843048E+02  0.00000000000E+00 0.  1.
</event>
<event>
 5    1  0.1059945E-009  0.9118800E+02  0.7815553E-02  0.1125453E+00
         25   -1    0    0    0    0  0.00000000000E+00  0.00000000000E+00  0.99999998245E-14  0.12509000000E+03  0.12509000000E+03 0.  0.
        -11    1    3    3    0    0 -0.58135328678E+01 -0.18648771551E+02  0.29338469344E+02  0.35246554845E+02  0.51100000000E-03 0.  1.
         23    2    1    0    0    0  0.20612769469E+02  0.32224013207E+01 -0.20560001018E+02  0.95798639886E+02  0.91210721007E+02 0.  0.
         11    1    3    3    0    0  0.26426302337E+02  0.21871172872E+02 -0.49898470362E+02  0.60552085040E+02  0.51100000000E-03 0. -1.
         22    1    1    0    0    0 -0.20612769469E+02 -0.32224013207E+01  0.20560001018E+02  0.29291360114E+02  0.00000000000E+00 0. -1.
</event>
<event>
 5    1  0.1059945E-009  0.9118800E+02  0.7815553E-02  0.1125453E+00
         25   -1    0    0    0    0  0.00000000000E+00  0.00000000000E+00  0.99999998245E-14  0.12509000000E+03  0.12509000000E+03 0.  0.
        -11    1    3    3    0    0 -0.19296380522E+02 -0.17219584280E+02 -0.20654096848E+02  0.33097675159E+02  0.51100000000E-03 0. -1.
         23    2    1    0    0    0  0.20967504068E+02  0.19019564554E+02  0.96662786669E+01  0.95176507962E+02  0.90353476202E+02 0.  0.
         11    1    3    3    0    0  0.40263884591E+02  0.36239148834E+02  0.30320375515E+02  0.62078832803E+02  0.51100000000E-03 0.  1.
         22    1    1    0    0    0 -0.20967504068E+02 -0.19019564554E+02 -0.96662786669E+01  0.29913492038E+02  0.00000000000E+00 0.  1.
</event>
<event>
 5    1  0.1059945E-009  0.9118800E+02  0.7815553E-02  0.1125453E+00
         25   -1    0    0    0    0  0.00000000000E+00  0.00000000000E+00  0.99999998245E-14  0.12509000000E+03  0.12509000000E+03 0.  0.
        -11    1    3    3    0    0  0.92459486767E+01  0.35540737091E+02 -0.41227855471E+02  0.55212024296E+02  0.51100000000E-03 0. -1.
         23    2    1    0    0    0  0.25259108337E+02  0.12380123024E+02 -0.18209865175E+02  0.91580461212E+02  0.85229640889E+02 0.  0.
         11    1    3    3    0    0  0.16013159660E+02 -0.23160614067E+02  0.23017990295E+02  0.36368436917E+02  0.51100000000E-03 0.  1.
         22    1    1    0    0    0 -0.25259108337E+02 -0.12380123024E+02  0.18209865175E+02  0.33509538788E+02  0.00000000000E+00 0. -1.
</event>
<event>
 5    1  0.1059945E-009  0.9118800E+02  0.7815553E-02  0.1125453E+00
         25   -1    0    0    0    0  0.00000000000E+00  0.00000000000E+00  0.99999998245E-14  0.12509000000E+03  0.12509000000E+03 0.  0.
        -11    1    3    3    0    0  0.97653030651E+01  0.45766403311E+01  0.25414101256E+02  0.27607667840E+02  0.51100000000E-03 0.  1.
         23    2    1    0    0    0 -0.41106595207E+02  0.10131024381E+02  0.16994023636E+02  0.79469975188E+02  0.65071424546E+02 0.  0.
         11    1    3    3    0    0 -0.50871898272E+02  0.55543840497E+01 -0.84200776200E+01  0.51862307347E+02  0.51100000000E-03 0. -1.
         22    1    1    0    0    0  0.41106595207E+02 -0.10131024381E+02 -0.16994023636E+02  0.45620024812E+02  0.00000000000E+00 0. -1.
</event>
<event>
 5    1  0.1059945E-009  0.9118800E+02  0.7815553E-02  0.1125453E+00
         25   -1    0    0    0    0  0.00000000000E+00  0.00000000000E+00  0.99999998245E-14  0.12509000000E+03  0.12509000000E+03 0.  0.
        -11    1    3    3    0    0 -0.14497014151E+02 -0.27640253708E+02  0.16384006629E+02  0.35250286776E+02  0.51100000000E-03 0. -1.
         23    2    1    0    0    0  0.11732891108E+02  0.55573651103E+01 -0.26554793729E+02  0.95531547559E+02  0.90843681499E+02 0.  0.
         11    1    3    3    0    0  0.26229905259E+02  0.33197618818E+02 -0.42938800358E+02  0.60281260783E+02  0.51100000000E-03 0.  1.
         22    1    1    0    0    0 -0.11732891108E+02 -0.55573651103E+01  0.26554793729E+02  0.29558452441E+02  0.00000000000E+00 0.  1.
</event>
<event>
 5    1  0.1059945E-009  0.9118800E+02  0.7815553E-02  0.1125453E+00
         25   -1    0    0    0    0  0.00000000000E+00  0.00000000000E+00  0.99999998245E-14  0.12509000000E+03  0.12509000000E+03 0.  0.
        -11    1    3    3    0    0 -0.12424559170E+02 -0.39731653269E+02 -0.10387115070E+02  0.42905315543E+02  0.51100000000E-03 0. -1.
         23    2    1    0    0    0  0.74710405182E+01  0.17685293365E+02 -0.94800915735E+01  0.10367836335E+03  0.10144330852E+03 0.  0.
         11    1    3    3    0    0  0.19895599688E+02  0.57416946634E+02  0.90702349670E+00  0.60773047806E+02  0.51100000000E-03 0.  1.
         22    1    1    0    0    0 -0.74710405182E+01 -0.17685293365E+02  0.94800915735E+01  0.21411636651E+02  0.00000000000E+00 0.  1.
</event>
<event>
 5    1  0.1059945E-009  0.9118800E+02  0.7815553E-02  0.1125453E+00
         25   -1    0    0    0    0  0.00000000000E+00  0.00000000000E+00  0.99999998245E-14  0.12509000000E+03  0.12509000000E+03 0.  0.
        -11    1    3    3    0    0  0.57967627256E+01  0.27795493043E+02 -0.54351819194E+02  0.61321384048E+02  0.51100000000E-03 0.  1.
         23    2    1    0    0    0 -0.13925528346E+01  0.19400997801E+02 -0.20957785644E+02  0.96496876733E+02  0.92163336100E+02 0.  0.
         11    1    3    3    0    0 -0.71893155603E+01 -0.83944952419E+01  0.33394033550E+02  0.35175492685E+02  0.51100000000E-03 0. -1.
         22    1    1    0    0    0  0.13925528346E+01 -0.19400997801E+02  0.20957785644E+02  0.28593123267E+02  0.00000000000E+00 0.  1.
</event>
<event>
 5    1  0.1059945E-009  0.9118800E+02  0.7815553E-02  0.1125453E+00
         25   -1    0    0    0    0  0.00000000000E+00  0.00000000000E+00  0.99999998245E-14  0.12509000000E+03  0.12509000000E+03 0.  0.
        -11    1    3    3    0    0 -0.11724427785E+02 -0.29513155129E+02  0.20226125197E+00  0.31757352572E+02  0.51100000000E-03 0.  1.
         23    2    1    0    0    0  0.65365446389E+01  0.30125192369E+02  0.24267592741E+01  0.94168441313E+02  0.88946908590E+02 0.  0.
         11    1    3    3    0    0  0.18260972424E+02  0.59638347497E+02  0.22244980221E+01  0.62411088741E+02  0.51100000000E-03 0. -1.
         22    1    1    0    0    0 -0.65365446389E+01 -0.30125192369E+02 -0.24267592741E+01  0.30921558687E+02  0.00000000000E+00 0. -1.
</event>
<event>
 5    1  0.1059945E-009  0.9118800E+02  0.7815553E-02  0.1125453E+00
         25   -1    0    0    0    0  0.00000000000E+00  0.00000000000E+00  0.99999998245E-14  0.12509000000E+03  0.12509000000E+03 0.  0.
        -11    1    3    3    0    0 -0.75849379868E+00 -0.46652776447E+02  0.23887094237E+02  0.52418032531E+02  0.51100000000E-03 0.  1.
         23    2    1    0    0    0 -0.14732335248E+02 -0.23589625961E+02 -0.98295698970E+01  0.95591989911E+02  0.90926871363E+02 0.  0.
         11    1    3    3    0    0 -0.13973841450E+02  0.23063150486E+02 -0.33716664134E+02  0.43173957379E+02  0.51100000000E-03 0. -1.
         22    1    1    0    0    0  0.14732335248E+02  0.23589625961E+02  0.98295698970E+01  0.29498010089E+02  0.00000000000E+00 0.  1.
</event>
<event>
 5    1  0.1059945E-009  0.9118800E+02  0.7815553E-02  0.1125453E+00
         25   -1    0    0    0    0  0.00000000000E+00  0.00000000000E+00  0.99999998245E-14  0.12509000000E+03  0.12509000000E+03 0.  0.
        -11    1    3    3    0    0 -0.26565719564E+02 -0.41368215025E+02 -0.85611150843E+01  0.49903500499E+02  0.51100000000E-03 0.  1.
         23    2    1    0    0    0  0.15990628980E+02 -0.23239859133E+02 -0.61166106196E+01  0.96224723400E+02  0.91793208900E+02 0.  0.
         11    1    3    3    0    0  0.42556348544E+02  0.18128355891E+02  0.24445044647E+01  0.46321222901E+02  0.51100000000E-03 0. -1.
         22    1    1    0    0    0 -0.15990628980E+02  0.23239859133E+02  0.61166106196E+01  0.28865276600E+02  0.00000000000E+00 0.  1.
</event>
<event>
 5    1  0.1059945E-009  0.9118800E+02  0.7815553E-02  0.1125453E+00
         25   -1    0    0    0    0  0.00000000000E+00  0.00000000000E+00  0.99999998245E-14  0.12509000000E+03  0.12509000000E+03 0.  0.
        -11    1    3    3    0    0 -0.13151174139E+02 -0.50643305005E+02 -0.21459523183E+02  0.56552708675E+02  0.51100000000E-03 0.  1.
         23    2    1    0    0    0 -0.21001645948E+02 -0.13810333206E+02 -0.17589367815E+02  0.94411338101E+02  0.89287851727E+02 0.  0.
         11    1    3    3    0    0 -0.78504718093E+01  0.36832971799E+02  0.38701553675E+01  0.37858629426E+02  0.51100000000E-03 0. -1.
         22    1    1    0    0    0  0.21001645948E+02  0.13810333206E+02  0.17589367815E+02  0.30678661899E+02  0.00000000000E+00 0.  1.
</event>
<event>
 5    1  0.1059945E-009  0.9118800E+02  0.7815553E-02  0.1125453E+00
         25   -1    0    0    0    0  0.00000000000E+00  0.00000000000E+00  0.99999998245E-14  0.12509000000E+03  0.12509000000E+03 0.  0.
        -11    1    3    3    0    0 -0.11039752313E+02 -0.21985456729E+02 -0.39961013869E+02  0.46926741507E+02  0.51100000000E-03 0.  1.
         23    2    1    0    0    0 -0.23903318788E+02 -0.17583190852E+02  0.59646253985E+01  0.94822624729E+02  0.89862206487E+02 0.  0.
         11    1    3    3    0    0 -0.12863566475E+02  0.44022658768E+01  0.45925639268E+02  0.47895883223E+02  0.51100000000E-03 0. -1.
         22    1    1    0    0    0  0.23903318788E+02  0.17583190852E+02 -0.59646253985E+01  0.30267375271E+02  0.00000000000E+00 0. -1.
</event>
<event>
 5    1  0.1059945E-009  0.9118800E+02  0.7815553E-02  0.1125453E+00
         25   -1    0    0    0    0  0.00000000000E+00  0.00000000000E+00  0.99999998245E-14  0.12509000000E+03  0.12509000000E+03 0.  0.
        -11    1    3    3    0    0  0.53936485163E+01 -0.20602475038E+02 -0.34082360864E+02  0.40189062497E+02  0.51100000000E-03 0.  1.
         23    2    1    0    0    0  0.70289689860E+01 -0.15694009023E+02  0.22367932789E+02  0.96875947801E+02  0.92676407574E+02 0.  0.
         11    1    3    3    0    0  0.16353204697E+01  0.49084660152E+01  0.56450293654E+02  0.56686885305E+02  0.51100000000E-03 0. -1.
         22    1    1    0    0    0 -0.70289689860E+01  0.15694009023E+02 -0.22367932789E+02  0.28214052199E+02  0.00000000000E+00 0. -1.
</event>
<event>
 5    1  0.1059945E-009  0.9118800E+02  0.7815553E-02  0.1125453E+00
         25   -1    0    0    0    0  0.00000000000E+00  0.00000000000E+00  0.99999998245E-14  0.12509000000E+03  0.12509000000E+03 0.  0.
        -11    1    3    3    0    0  0.51487945842E+02 -0.43417120380E+01 -0.31893430339E+02  0.60721083072E+02  0.51100000000E-03 0. -1.
         23    2    1    0    0    0  0.29046844959E+02 -0.67705824083E+01 -0.67496672581E+01  0.94510300912E+02  0.89426388624E+02 0.  0.
         11    1    3    3    0    0 -0.22441100883E+02 -0.24288703703E+01  0.25143763080E+02  0.33789217840E+02  0.51100000000E-03 0.  1.
         22    1    1    0    0    0 -0.29046844959E+02  0.67705824083E+01  0.67496672581E+01  0.30579699088E+02  0.00000000000E+00 0. -1.
</event>
<event>
 5    1  0.1059945E-009  0.9118800E+02  0.7815553E-02  0.1125453E+00
         25   -1    0    0    0    0  0.00000000000E+00  0.00000000000E+00  0.99999998245E-14  0.12509000000E+03  0.12509000000E+03 0.  0.
        -11    1    3    3    0    0  0.50467240005E+01 -0.16512923327E+02 -0.40702443482E+02  0.44213515644E+02  0.51100000000E-03 0.  1.
         23    2    1    0    0    0  0.20394902101E+02 -0.21654591142E+02  0.69517341012E+01  0.94541678340E+02  0.89470268733E+02 0.  0.
         11    1    3    3    0    0  0.15348178100E+02 -0.51416678149E+01  0.47654177583E+02  0.50328162696E+02  0.51100000000E-03 0. -1.
         22    1    1    0    0    0 -0.20394902101E+02  0.21654591142E+02 -0.69517341012E+01  0.30548321660E+02  0.00000000000E+00 0. -1.
</event>
<event>
 5    1  0.1059945E-009  0.9118800E+02  0.7815553E-02  0.1125453E+00
         25   -1    0    0    0    0  0.00000000000E+00  0.00000000000E+00  0.99999998245E-14  0.12509000000E+03  0.12509000000E+03 0.  0.
        -11    1    3    3    0    0  0.20557401178E+02 -0.42245320018E+02 -0.38564731832E+02  0.60782500345E+02  0.51100000000E-03 0.  1.
         23    2    1    0    0    0  0.88198012105E+01 -0.13216085124E+02 -0.26201634781E+02  0.94447228183E+02  0.89338118666E+02 0.  0.
         11    1    3    3    0    0 -0.11737599967E+02  0.29029234893E+02  0.12363097051E+02  0.33664727838E+02  0.51100000000E-03 0. -1.
         22    1    1    0    0    0 -0.88198012105E+01  0.13216085124E+02  0.26201634781E+02  0.30642771817E+02  0.00000000000E+00 0.  1.
</event>
<event>
 5    1  0.1059945E-009  0.9118800E+02  0.7815553E-02  0.1125453E+00
         25   -1    0    0    0    0  0.00000000000E+00  0.00000000000E+00  0.99999998245E-14  0.12509000000E+03  0.12509000000E+03 0.  0.
        -11    1    3    3    0    0 -0.54058268748E+02  0.25813907844E+02 -0.59178624991E+01  0.60196971311E+02  0.51100000000E-03 0.  1.
         23    2    1    0    0    0 -0.23367740399E+02 -0.19028659309E+00 -0.77646038594E+01  0.10046528531E+03  0.97400703178E+02 0.  0.
         11    1    3    3    0    0  0.30690528349E+02 -0.26004194437E+02 -0.18467413603E+01  0.40268314002E+02  0.51100000000E-03 0. -1.
         22    1    1    0    0    0  0.23367740399E+02  0.19028659309E+00  0.77646038594E+01  0.24624714687E+02  0.00000000000E+00 0.  1.
</event>
<event>
 5    1  0.1059945E-009  0.9118800E+02  0.7815553E-02  0.1125453E+00
         25   -1    0    0    0    0  0.00000000000E+00  0.00000000000E+00  0.99999998245E-14  0.12509000000E+03  0.12509000000E+03 0.  0.
        -11    1    3    3    0    0 -0.15339014232E+02  0.30553019322E+02  0.41821596641E+02  0.54016833424E+02  0.51100000000E-03 0.  1.
         23    2    1    0    0    0  0.16205777804E+02  0.15472198600E+02  0.18352320821E+02  0.96127544246E+02  0.91660683608E+02 0.  0.
         11    1    3    3    0    0  0.31544792036E+02 -0.15080820721E+02 -0.23469275820E+02  0.42110710823E+02  0.51100000000E-03 0. -1.
         22    1    1    0    0    0 -0.16205777804E+02 -0.15472198600E+02 -0.18352320821E+02  0.28962455754E+02  0.00000000000E+00 0.  1.
</event>
<event>
 5    1  0.1059945E-009  0.9118800E+02  0.7815553E-02  0.1125453E+00
         25   -1    0    0    0    0  0.00000000000E+00  0.00000000000E+00  0.99999998245E-14  0.12509000000E+03  0.12509000000E+03 0.  0.
        -11    1    3    3    0    0 -0.36490209192E+02  0.86040988088E+01  0.18761851751E+01  0.37537793679E+02  0.51100000000E-03 0.  1.
         23    2    1    0    0    0  0.10202962581E+02 -0.15449139509E+02 -0.22924477501E+02  0.95622933201E+02  0.90969430735E+02 0.  0.
         11    1    3    3    0    0  0.46693171774E+02 -0.24053238318E+02 -0.24800662676E+02  0.58085139522E+02  0.51100000000E-03 0. -1.
         22    1    1    0    0    0 -0.10202962581E+02  0.15449139509E+02  0.22924477501E+02  0.29467066799E+02  0.00000000000E+00 0. -1.
</event>
<event>
 5    1  0.1059945E-009  0.9118800E+02  0.7815553E-02  0.1125453E+00
         25   -1    0    0    0    0  0.00000000000E+00  0.00000000000E+00  0.99999998245E-14  0.12509000000E+03  0.12509000000E+03 0.  0.
        -11    1    3    3    0    0  0.13314131375E+02  0.96724458674E+01 -0.33999620755E+02  0.37772960105E+02  0.51100000000E-03 0. -1.
         23    2    1    0    0    0 -0.30631011390E+02  0.81829288830E+01  0.48569837874E-01  0.93384771048E+02  0.87837884314E+02 0.  0.
         11    1    3    3    0    0 -0.43945142765E+02 -0.14895169844E+01  0.34048190593E+02  0.55611810943E+02  0.51100000000E-03 0.  1.
         22    1    1    0    0    0  0.30631011390E+02 -0.81829288830E+01 -0.48569837874E-01  0.31705228952E+02  0.00000000000E+00 0.  1.
</event>
<event>
 5    1  0.1059945E-009  0.9118800E+02  0.7815553E-02  0.1125453E+00
         25   -1    0    0    0    0  0.00000000000E+00  0.00000000000E+00  0.99999998245E-14  0.12509000000E+03  0.12509000000E+03 0.  0.
        -11    1    3    3    0    0  0.89525089944E+01 -0.44674245979E+02 -0.30537510385E+02  0.54849568931E+02  0.51100000000E-03 0. -1.
         23    2    1    0    0    0 -0.23849906554E+01 -0.54438582578E+01 -0.28758156587E+02  0.95724112589E+02  0.91108453985E+02 0.  0.
         11    1    3    3    0    0 -0.11337499650E+02  0.39230387721E+02  0.17793537980E+01  0.40874543658E+02  0.51100000000E-03 0.  1.
         22    1    1    0    0    0  0.23849906554E+01  0.54438582578E+01  0.28758156587E+02  0.29365887411E+02  0.00000000000E+00 0. -1.
</event>
<event>
 5    1  0.1059945E-009  0.9118800E+02  0.7815553E-02  0.1125453E+00
         25   -1    0    0    0    0  0.00000000000E+00  0.00000000000E+00  0.99999998245E-14  0.12509000000E+03  0.12509000000E+03 0.  0.
        -11    1    3    3    0    0  0.19957621126E+01  0.37306182051E+02  0.45969383386E+02  0.59236124914E+02  0.51100000000E-03 0.  1.
         23    2    1    0    0    0  0.76313572288E+01  0.63167241547E+01  0.27752475639E+02  0.95622415754E+02  0.90968719203E+02 0.  0.
         11    1    3    3    0    0  0.56355951162E+01 -0.30989457896E+02 -0.18216907747E+02  0.36386290841E+02  0.51100000000E-03 0. -1.
         22    1    1    0    0    0 -0.76313572288E+01 -0.63167241547E+01 -0.27752475639E+02  0.29467584246E+02  0.00000000000E+00 0.  1.
</event>
<event>
 5    1  0.1059945E-009  0.9118800E+02  0.7815553E-02  0.1125453E+00
         25   -1    0    0    0    0  0.00000000000E+00  0.00000000000E+00  0.99999998245E-14  0.12509000000E+03  0.12509000000E+03 0.  0.
        -11    1    3    3    0    0  0.38140760653E+01  0.35999771050E+02 -0.38948513075E+02  0.53174405149E+02  0.51100000000E-03 0. -1.
         23    2    1    0    0    0 -0.21003591105E+02  0.80842792055E+01 -0.19627703349E+02  0.95227763843E+02  0.90424409637E+02 0.  0.
         11    1    3    3    0    0 -0.24817667170E+02 -0.27915491844E+02  0.19320809727E+02  0.42053358694E+02  0.51100000000E-03 0.  1.
         22    1    1    0    0    0  0.21003591105E+02 -0.80842792055E+01  0.19627703349E+02  0.29862236157E+02  0.00000000000E+00 0.  1.
</event>
<event>
 5    1  0.1059945E-009  0.9118800E+02  0.7815553E-02  0.1125453E+00
         25   -1    0    0    0    0  0.00000000000E+00  0.00000000000E+00  0.99999998245E-14  0.12509000000E+03  0.12509000000E+03 0.  0.
        -11    1    3    3    0    0 -0.21981074833E+02 -0.43879482485E+02 -0.31839811745E+02  0.58500856798E+02  0.51100000000E-03 0. -1.
         23    2    1    0    0    0  0.42872793922E+01 -0.26581740237E+02 -0.12689801454E+02  0.95324235445E+02  0.90557766777E+02 0.  0.
         11    1    3    3    0    0  0.26268354225E+02  0.17297742249E+02  0.19150010290E+02  0.36823378647E+02  0.51100000000E-03 0.  1.
         22    1    1    0    0    0 -0.42872793922E+01  0.26581740237E+02  0.12689801454E+02  0.29765764555E+02  0.00000000000E+00 0. -1.
</event>
<event>
 5    1  0.1059945E-009  0.9118800E+02  0.7815553E-02  0.1125453E+00
         25   -1    0    0    0    0  0.00000000000E+00  0.00000000000E+00  0.99999998245E-14  0.12509000000E+03  0.12509000000E+03 0.  0.
        -11    1    3    3    0    0 -0.23581982007E+02 -0.55256871638E+02  0.14187612422E+02  0.61731030164E+02  0.51100000000E-03 0.  1.
         23    2    1    0    0    0 -0.91553085865E+01 -0.27456772121E+02 -0.77075695583E-01  0.96146953317E+02  0.91687167482E+02 0.  0.
         11    1    3    3    0    0  0.14426673420E+02  0.27800099517E+02 -0.14264688117E+02  0.34415923153E+02  0.51100000000E-03 0. -1.
         22    1    1    0    0    0  0.91553085865E+01  0.27456772121E+02  0.77075695583E-01  0.28943046683E+02  0.00000000000E+00 0.  1.
</event>
<event>
 5    1  0.1059945E-009  0.9118800E+02  0.7815553E-02  0.1125453E+00
         25   -1    0    0    0    0  0.00000000000E+00  0.00000000000E+00  0.99999998245E-14  0.12509000000E+03  0.12509000000E+03 0.  0.
        -11    1    3    3    0    0  0.10882209548E+02 -0.34849929278E+02 -0.30728578640E+02  0.47719865893E+02  0.51100000000E-03 0.  1.
         23    2    1    0    0    0  0.29231099363E+02 -0.59941162071E+00 -0.25024131233E+01  0.95745860284E+02  0.91138308224E+02 0.  0.
         11    1    3    3    0    0  0.18348889814E+02  0.34250517657E+02  0.28226165517E+02  0.48025994391E+02  0.51100000000E-03 0. -1.
         22    1    1    0    0    0 -0.29231099363E+02  0.59941162071E+00  0.25024131233E+01  0.29344139716E+02  0.00000000000E+00 0.  1.
</event>
<event>
 5    1  0.1059945E-009  0.9118800E+02  0.7815553E-02  0.1125453E+00
         25   -1    0    0    0    0  0.00000000000E+00  0.00000000000E+00  0.99999998245E-14  0.12509000000E+03  0.12509000000E+03 0.  0.
        -11    1    3    3    0    0  0.22320990709E+02 -0.36595584440E+02  0.24522995905E+02  0.49384620634E+02  0.51100000000E-03 0.  1.
         23    2    1    0    0    0 -0.79157124072E+01 -0.26905338827E+02 -0.90755294806E+01  0.95612534104E+02  0.90955130048E+02 0.  0.
         11    1    3    3    0    0 -0.30236703116E+02  0.96902456134E+01 -0.33598525386E+02  0.46227913470E+02  0.51100000000E-03 0. -1.
         22    1    1    0    0    0  0.79157124072E+01  0.26905338827E+02  0.90755294806E+01  0.29477465896E+02  0.00000000000E+00 0.  1.
</event>
<event>
 5    1  0.1059945E-009  0.9118800E+02  0.7815553E-02  0.1125453E+00
         25   -1    0    0    0    0  0.00000000000E+00  0.00000000000E+00  0.99999998245E-14  0.12509000000E+03  0.12509000000E+03 0.  0.
        -11    1    3    3    0    0  0.74284643149E+01 -0.29944666924E+02 -0.26525616612E+02  0.40687510321E+02  0.51100000000E-03 0.  1.
         23    2    1    0    0    0 -0.17048449299E+02 -0.10344240273E+02  0.20034680708E+02  0.96822680329E+02  0.92604481882E+02 0.  0.
         11    1    3    3    0    0 -0.24476913614E+02  0.19600426651E+02  0.46560297320E+02  0.56135170007E+02  0.51100000000E-03 0. -1.
         22    1    1    0    0    0  0.17048449299E+02  0.10344240273E+02 -0.20034680708E+02  0.28267319671E+02  0.00000000000E+00 0. -1.
</event>
<event>
 5    1  0.1059945E-009  0.9118800E+02  0.7815553E-02  0.1125453E+00
         25   -1    0    0    0    0  0.00000000000E+00  0.00000000000E+00  0.99999998245E-14  0.12509000000E+03  0.12509000000E+03 0.  0.
        -11    1    3    3    0    0 -0.49107356579E+01 -0.18417043459E+02  0.27448075492E+02  0.33417056467E+02  0.51100000000E-03 0.  1.
         23    2    1    0    0    0  0.10435012235E+02  0.15647785023E+02 -0.22481960976E+02  0.95778206712E+02  0.91182693836E+02 0.  0.
         11    1    3    3    0    0  0.15345747893E+02  0.34064828482E+02 -0.49930036468E+02  0.62361150244E+02  0.51100000000E-03 0. -1.
         22    1    1    0    0    0 -0.10435012235E+02 -0.15647785023E+02  0.22481960976E+02  0.29311793288E+02  0.00000000000E+00 0. -1.
</event>
<event>
 5    1  0.1059945E-009  0.9118800E+02  0.7815553E-02  0.1125453E+00
         25   -1    0    0    0    0  0.00000000000E+00  0.00000000000E+00  0.99999998245E-14  0.12509000000E+03  0.12509000000E+03 0.  0.
        -11    1    3    3    0    0  0.52584728688E+02  0.14154641372E+02 -0.10793045970E+02  0.55515740157E+02  0.51100000000E-03 0.  1.
         23    2    1    0    0    0  0.27005114731E+02 -0.69644589848E+01  0.10895938683E+02  0.95148366939E+02  0.90314507920E+02 0.  0.
         11    1    3    3    0    0 -0.25579613958E+02 -0.21119100357E+02  0.21688984653E+02  0.39632626782E+02  0.51100000000E-03 0. -1.
         22    1    1    0    0    0 -0.27005114731E+02  0.69644589848E+01 -0.10895938683E+02  0.29941633061E+02  0.00000000000E+00 0.  1.
</event>
<event>
 5    1  0.1059945E-009  0.9118800E+02  0.7815553E-02  0.1125453E+00
         25   -1    0    0    0    0  0.00000000000E+00  0.00000000000E+00  0.99999998245E-14  0.12509000000E+03  0.12509000000E+03 0.  0.
        -11    1    3    3    0    0  0.40438733968E+02 -0.19842635387E+02 -0.35374732003E+02  0.57274715614E+02  0.51100000000E-03 0. -1.
         23    2    1    0    0    0  0.16533864743E+02  0.44417404936E+01 -0.28203373692E+02  0.92097151842E+02  0.85984634370E+02 0.  0.
         11    1    3    3    0    0 -0.23904869225E+02  0.24284375881E+02  0.71713583111E+01  0.34822436228E+02  0.51100000000E-03 0.  1.
         22    1    1    0    0    0 -0.16533864743E+02 -0.44417404936E+01  0.28203373692E+02  0.32992848158E+02  0.00000000000E+00 0. -1.
</event>
<event>
 5    1  0.1059945E-009  0.9118800E+02  0.7815553E-02  0.1125453E+00
         25   -1    0    0    0    0  0.00000000000E+00  0.00000000000E+00  0.99999998245E-14  0.12509000000E+03  0.12509000000E+03 0.  0.
        -11    1    3    3    0    0 -0.11273027311E+02 -0.48543301701E+01  0.28055436287E+02  0.30622755782E+02  0.51100000000E-03 0.  1.
         23    2    1    0    0    0  0.34661067663E+02  0.14155385285E+02  0.11335369760E+00  0.87649682251E+02  0.79250800662E+02 0.  0.
         11    1    3    3    0    0  0.45934094974E+02  0.19009715455E+02 -0.27942082590E+02  0.57026926469E+02  0.51100000000E-03 0. -1.
         22    1    1    0    0    0 -0.34661067663E+02 -0.14155385285E+02 -0.11335369760E+00  0.37440317749E+02  0.00000000000E+00 0. -1.
</event>
<event>
 5    1  0.1059945E-009  0.9118800E+02  0.7815553E-02  0.1125453E+00
         25   -1    0    0    0    0  0.00000000000E+00  0.00000000000E+00  0.99999998245E-14  0.12509000000E+03  0.12509000000E+03 0.  0.
        -11    1    3    3    0    0  0.13825269721E+02 -0.28511111633E+02  0.25914454980E+02  0.40933855750E+02  0.51100000000E-03 0. -1.
         23    2    1    0    0    0 -0.12793236977E+02 -0.18172307811E+02 -0.20123663805E+02  0.95108980530E+02  0.90259939336E+02 0.  0.
         11    1    3    3    0    0 -0.26618506698E+02  0.10338803821E+02 -0.46038118785E+02  0.54175124779E+02  0.51100000000E-03 0.  1.
         22    1    1    0    0    0  0.12793236977E+02  0.18172307811E+02  0.20123663805E+02  0.29981019470E+02  0.00000000000E+00 0.  1.
</event>
<event>
 5    1  0.1059945E-009  0.9118800E+02  0.7815553E-02  0.1125453E+00
         25   -1    0    0    0    0  0.00000000000E+00  0.00000000000E+00  0.99999998245E-14  0.12509000000E+03  0.12509000000E+03 0.  0.
        -11    1    3    3    0    0  0.23339232910E+02  0.23815396990E+02 -0.78246299418E+01  0.34250806714E+02  0.51100000000E-03 0. -1.
         23    2    1    0    0    0 -0.25381936869E+02 -0.13686718004E+02 -0.51862696199E+01  0.95790403390E+02  0.91199424451E+02 0.  0.
         11    1    3    3    0    0 -0.48721169778E+02 -0.37502114994E+02  0.26383603218E+01  0.61539596676E+02  0.51100000000E-03 0.  1.
         22    1    1    0    0    0  0.25381936869E+02  0.13686718004E+02  0.51862696199E+01  0.29299596610E+02  0.00000000000E+00 0.  1.
</event>
<event>
 5    1  0.1059945E-009  0.9118800E+02  0.7815553E-02  0.1125453E+00
         25   -1    0    0    0    0  0.00000000000E+00  0.00000000000E+00  0.99999998245E-14  0.12509000000E+03  0.12509000000E+03 0.  0.
        -11    1    3    3    0    0 -0.37339656901E+02  0.20129807235E+01 -0.39832340923E+02  0.54634398071E+02  0.51100000000E-03 0. -1.
         23    2    1    0    0    0 -0.16895146733E+02  0.21692987520E+02 -0.99370489147E+01  0.95853436731E+02  0.91285840640E+02 0.  0.
         11    1    3    3    0    0  0.20444510169E+02  0.19680006796E+02  0.29895292008E+02  0.41219038660E+02  0.51100000000E-03 0.  1.
         22    1    1    0    0    0  0.16895146733E+02 -0.21692987520E+02  0.99370489147E+01  0.29236563269E+02  0.00000000000E+00 0. -1.
</event>
<event>
 5    1  0.1059945E-009  0.9118800E+02  0.7815553E-02  0.1125453E+00
         25   -1    0    0    0    0  0.00000000000E+00  0.00000000000E+00  0.99999998245E-14  0.12509000000E+03  0.12509000000E+03 0.  0.
        -11    1    3    3    0    0 -0.23461329131E+02  0.41003878463E+02 -0.20967220424E+02  0.51685359109E+02  0.51100000000E-03 0.  1.
         23    2    1    0    0    0 -0.17455722859E+02  0.17091198952E+02  0.15830688536E+02  0.95979485720E+02  0.91458403864E+02 0.  0.
         11    1    3    3    0    0  0.60056062720E+01 -0.23912679511E+02  0.36797908960E+02  0.44294126611E+02  0.51100000000E-03 0. -1.
         22    1    1    0    0    0  0.17455722859E+02 -0.17091198952E+02 -0.15830688536E+02  0.29110514280E+02  0.00000000000E+00 0.  1.
</event>
<event>
 5    1  0.1059945E-009  0.9118800E+02  0.7815553E-02  0.1125453E+00
         25   -1    0    0    0    0  0.00000000000E+00  0.00000000000E+00  0.99999998245E-14  0.12509000000E+03  0.12509000000E+03 0.  0.
        -11    1    3    3    0    0 -0.36856291295E+02  0.15314369983E+02 -0.22120218037E+02  0.45631350870E+02  0.51100000000E-03 0.  1.
         23    2    1    0    0    0 -0.35357384097E+01 -0.21695635287E+02 -0.19832953582E+02  0.95483445246E+02  0.90777421376E+02 0.  0.
         11    1    3    3    0    0  0.33320552885E+02 -0.37010005271E+02  0.22872644551E+01  0.49852094376E+02  0.51100000000E-03 0. -1.
         22    1    1    0    0    0  0.35357384097E+01  0.21695635287E+02  0.19832953582E+02  0.29606554754E+02  0.00000000000E+00 0.  1.
</event>
<event>
 5    1  0.1059945E-009  0.9118800E+02  0.7815553E-02  0.1125453E+00
         25   -1    0    0    0    0  0.00000000000E+00  0.00000000000E+00  0.99999998245E-14  0.12509000000E+03  0.12509000000E+03 0.  0.
        -11    1    3    3    0    0 -0.10337120131E+02  0.56070013131E+02 -0.22427786572E+02  0.61267512075E+02  0.51100000000E-03 0.  1.
         23    2    1    0    0    0 -0.66547464339E+01  0.28411620302E+02 -0.20143259871E+01  0.95839985855E+02  0.91267406895E+02 0.  0.
         11    1    3    3    0    0  0.36823736973E+01 -0.27658392829E+02  0.20413460585E+02  0.34572473780E+02  0.51100000000E-03 0. -1.
         22    1    1    0    0    0  0.66547464339E+01 -0.28411620302E+02  0.20143259871E+01  0.29250014145E+02  0.00000000000E+00 0.  1.
</event>
<event>
 5    1  0.1059945E-009  0.9118800E+02  0.7815553E-02  0.1125453E+00
         25   -1    0    0    0    0  0.00000000000E+00  0.00000000000E+00  0.99999998245E-14  0.12509000000E+03  0.12509000000E+03 0.  0.
        -11    1    3    3    0    0 -0.24940307814E+02  0.19522821040E+01 -0.23289501682E+02  0.34179398007E+02  0.51100000000E-03 0.  1.
         23    2    1    0    0    0  0.11353136887E+02 -0.12881632452E+02  0.23981991064E+02  0.95594812813E+02  0.90930754806E+02 0.  0.
         11    1    3    3    0    0  0.36293444700E+02 -0.14833914556E+02  0.47271492745E+02  0.61415414807E+02  0.51100000000E-03 0. -1.
         22    1    1    0    0    0 -0.11353136887E+02  0.12881632452E+02 -0.23981991064E+02  0.29495187187E+02  0.00000000000E+00 0. -1.
</event>
<event>
 5    1  0.1059945E-009  0.9118800E+02  0.7815553E-02  0.1125453E+00
         25   -1    0    0    0    0  0.00000000000E+00  0.00000000000E+00  0.99999998245E-14  0.12509000000E+03  0.12509000000E+03 0.  0.
        -11    1    3    3    0    0  0.11205269371E+02 -0.52284785018E+02 -0.67263926783E+01  0.53893424134E+02  0.51100000000E-03 0. -1.
         23    2    1    0    0    0 -0.49859914139E+01  0.21843978998E+01 -0.12934948177E+02  0.11105630523E+03  0.11016604896E+03 0.  0.
         11    1    3    3    0    0 -0.16191260785E+02  0.54469182918E+02 -0.62085554984E+01  0.57162881096E+02  0.51100000000E-03 0.  1.
         22    1    1    0    0    0  0.49859914139E+01 -0.21843978998E+01  0.12934948177E+02  0.14033694770E+02  0.00000000000E+00 0.  1.
</event>
<event>
 5    1  0.1059945E-009  0.9118800E+02  0.7815553E-02  0.1125453E+00
         25   -1    0    0    0    0  0.00000000000E+00  0.00000000000E+00  0.99999998245E-14  0.12509000000E+03  0.12509000000E+03 0.  0.
        -11    1    3    3    0    0 -0.22126996313E+02 -0.84377642461E+01  0.25270678291E+02  0.34632456061E+02  0.51100000000E-03 0.  1.
         23    2    1    0    0    0  0.25046688935E+02  0.12908290389E+02 -0.75273855773E+01  0.95924573190E+02  0.91383267728E+02 0.  0.
         11    1    3    3    0    0  0.47173685248E+02  0.21346054635E+02 -0.32798063868E+02  0.61292117129E+02  0.51100000000E-03 0. -1.
         22    1    1    0    0    0 -0.25046688935E+02 -0.12908290389E+02  0.75273855773E+01  0.29165426810E+02  0.00000000000E+00 0. -1.
</event>
<event>
 5    1  0.1059945E-009  0.9118800E+02  0.7815553E-02  0.1125453E+00
         25   -1    0    0    0    0  0.00000000000E+00  0.00000000000E+00  0.99999998245E-14  0.12509000000E+03  0.12509000000E+03 0.  0.
        -11    1    3    3    0    0  0.56607830960E+01  0.56900543936E+02  0.17125629457E+01  0.57207073318E+02  0.51100000000E-03 0.  1.
         23    2    1    0    0    0 -0.11655113863E+02  0.12620433175E+02  0.96127974358E+01  0.10540439899E+03  0.10354981622E+03 0.  0.
         11    1    3    3    0    0 -0.17315896959E+02 -0.44280110761E+02  0.79002344901E+01  0.48197325670E+02  0.51100000000E-03 0. -1.
         22    1    1    0    0    0  0.11655113863E+02 -0.12620433175E+02 -0.96127974358E+01  0.19685601013E+02  0.00000000000E+00 0.  1.
</event>
<event>
 5    1  0.1059945E-009  0.9118800E+02  0.7815553E-02  0.1125453E+00
         25   -1    0    0    0    0  0.00000000000E+00  0.00000000000E+00  0.99999998245E-14  0.12509000000E+03  0.12509000000E+03 0.  0.
        -11    1    3    3    0    0 -0.18269890761E+02  0.16454791001E+02 -0.56036212420E+02  0.61193187186E+02  0.51100000000E-03 0. -1.
         23    2    1    0    0    0 -0.10854761937E+02  0.15669123398E+02 -0.22255019212E+02  0.95787557015E+02  0.91195520251E+02 0.  0.
         11    1    3    3    0    0  0.74151288242E+01 -0.78566760271E+00  0.33781193208E+02  0.34594369829E+02  0.51100000000E-03 0.  1.
         22    1    1    0    0    0  0.10854761937E+02 -0.15669123398E+02  0.22255019212E+02  0.29302442985E+02  0.00000000000E+00 0. -1.
</event>
<event>
 5    1  0.1059945E-009  0.9118800E+02  0.7815553E-02  0.1125453E+00
         25   -1    0    0    0    0  0.00000000000E+00  0.00000000000E+00  0.99999998245E-14  0.12509000000E+03  0.12509000000E+03 0.  0.
        -11    1    3    3    0    0 -0.48544405170E+02 -0.23996534972E+02 -0.29930023830E+02  0.61872443710E+02  0.51100000000E-03 0.  1.
         23    2    1    0    0    0 -0.21410781052E+02 -0.17618640679E+02 -0.13206540790E+02  0.94377612202E+02  0.89240590096E+02 0.  0.
         11    1    3    3    0    0  0.27133624118E+02  0.63778942932E+01  0.16723483040E+02  0.32505168492E+02  0.51100000000E-03 0. -1.
         22    1    1    0    0    0  0.21410781052E+02  0.17618640679E+02  0.13206540790E+02  0.30712387798E+02  0.00000000000E+00 0.  1.
</event>
<event>
 5    1  0.1059945E-009  0.9118800E+02  0.7815553E-02  0.1125453E+00
         25   -1    0    0    0    0  0.00000000000E+00  0.00000000000E+00  0.99999998245E-14  0.12509000000E+03  0.12509000000E+03 0.  0.
        -11    1    3    3    0    0  0.10683617507E+01 -0.26165270647E+02  0.65249608518E+01  0.26987736089E+02  0.51100000000E-03 0. -1.
         23    2    1    0    0    0 -0.96970759792E+01  0.34585440198E+02 -0.10979561595E+01  0.89154064448E+02  0.81590782223E+02 0.  0.
         11    1    3    3    0    0 -0.10765437730E+02  0.60750710845E+02 -0.76229170113E+01  0.62166328359E+02  0.51100000000E-03 0.  1.
         22    1    1    0    0    0  0.96970759792E+01 -0.34585440198E+02  0.10979561595E+01  0.35935935552E+02  0.00000000000E+00 0.  1.
</event>
<event>
 5    1  0.1059945E-009  0.9118800E+02  0.7815553E-02  0.1125453E+00
         25   -1    0    0    0    0  0.00000000000E+00  0.00000000000E+00  0.99999998245E-14  0.12509000000E+03  0.12509000000E+03 0.  0.
        -11    1    3    3    0    0 -0.38948130006E+02 -0.30106367965E+02 -0.37403104280E+02  0.61825095496E+02  0.51100000000E-03 0. -1.
         23    2    1    0    0    0 -0.17466055609E+02 -0.91361658889E+01 -0.21947104480E+02  0.95590711521E+02  0.90925112639E+02 0.  0.
         11    1    3    3    0    0  0.21482074397E+02  0.20970202076E+02  0.15455999799E+02  0.33765616025E+02  0.51100000000E-03 0.  1.
         22    1    1    0    0    0  0.17466055609E+02  0.91361658889E+01  0.21947104480E+02  0.29499288479E+02  0.00000000000E+00 0. -1.
</event>
<event>
 5    1  0.1059945E-009  0.9118800E+02  0.7815553E-02  0.1125453E+00
         25   -1    0    0    0    0  0.00000000000E+00  0.00000000000E+00  0.99999998245E-14  0.12509000000E+03  0.12509000000E+03 0.  0.
        -11    1    3    3    0    0 -0.48729491814E+01  0.35701575187E+02  0.29932332923E+02  0.46843277629E+02  0.51100000000E-03 0.  1.
         23    2    1    0    0    0  0.25298775615E+02  0.16589293080E+00  0.14400388390E+02  0.95979404784E+02  0.91458293166E+02 0.  0.
         11    1    3    3    0    0  0.30171724796E+02 -0.35535682256E+02 -0.15531944533E+02  0.49136127155E+02  0.51100000000E-03 0. -1.
         22    1    1    0    0    0 -0.25298775615E+02 -0.16589293080E+00 -0.14400388390E+02  0.29110595216E+02  0.00000000000E+00 0.  1.
</event>
<event>
 5    1  0.1059945E-009  0.9118800E+02  0.7815553E-02  0.1125453E+00
         25   -1    0    0    0    0  0.00000000000E+00  0.00000000000E+00  0.99999998245E-14  0.12509000000E+03  0.12509000000E+03 0.  0.
        -11    1    3    3    0    0 -0.20739619857E+02 -0.17116105249E+02  0.55658953289E+02  0.61814334682E+02  0.51100000000E-03 0. -1.
         23    2    1    0    0    0 -0.68390123479E+01 -0.18132660169E+01  0.27168496712E+02  0.97015327479E+02  0.92864344766E+02 0.  0.
         11    1    3    3    0    0  0.13900607510E+02  0.15302839232E+02 -0.28490456576E+02  0.35200992797E+02  0.51100000000E-03 0.  1.
         22    1    1    0    0    0  0.68390123479E+01  0.18132660169E+01 -0.27168496712E+02  0.28074672521E+02  0.00000000000E+00 0. -1.
</event>
<event>
 5    1  0.1059945E-009  0.9118800E+02  0.7815553E-02  0.1125453E+00
         25   -1    0    0    0    0  0.00000000000E+00  0.00000000000E+00  0.99999998245E-14  0.12509000000E+03  0.12509000000E+03 0.  0.
        -11    1    3    3    0    0 -0.16044896491E+02  0.14772094984E+02  0.52476632119E+02  0.56828253645E+02  0.51100000000E-03 0.  1.
         23    2    1    0    0    0 -0.17611929174E+02 -0.90108605208E+01  0.22378276265E+02  0.95220903844E+02  0.90414919254E+02 0.  0.
         11    1    3    3    0    0 -0.15670326835E+01 -0.23782955504E+02 -0.30098355854E+02  0.38392650199E+02  0.51100000000E-03 0. -1.
         22    1    1    0    0    0  0.17611929174E+02  0.90108605208E+01 -0.22378276265E+02  0.29869096156E+02  0.00000000000E+00 0.  1.
</event>
<event>
 5    1  0.1059945E-009  0.9118800E+02  0.7815553E-02  0.1125453E+00
         25   -1    0    0    0    0  0.00000000000E+00  0.00000000000E+00  0.99999998245E-14  0.12509000000E+03  0.12509000000E+03 0.  0.
        -11    1    3    3    0    0  0.13240718200E+02  0.43442589750E+02 -0.35747083834E+02  0.57796446479E+02  0.51100000000E-03 0.  1.
         23    2    1    0    0    0  0.50482695275E+01  0.28169394076E+02 -0.12007164563E+01  0.96446649849E+02  0.92095139716E+02 0.  0.
         11    1    3    3    0    0 -0.81924486726E+01 -0.15273195674E+02  0.34546367378E+02  0.38650203371E+02  0.51100000000E-03 0. -1.
         22    1    1    0    0    0 -0.50482695275E+01 -0.28169394076E+02  0.12007164563E+01  0.28643350151E+02  0.00000000000E+00 0.  1.
</event>
<event>
 5    1  0.1059945E-009  0.9118800E+02  0.7815553E-02  0.1125453E+00
         25   -1    0    0    0    0  0.00000000000E+00  0.00000000000E+00  0.99999998245E-14  0.12509000000E+03  0.12509000000E+03 0.  0.
        -11    1    3    3    0    0  0.43283441951E+01 -0.37187027223E+02 -0.18547365060E+02  0.41780549399E+02  0.51100000000E-03 0.  1.
         23    2    1    0    0    0  0.27643348410E+02  0.70305983835E+01  0.33815482129E+01  0.96366857879E+02  0.91986696887E+02 0.  0.
         11    1    3    3    0    0  0.23315004215E+02  0.44217625607E+02  0.21928913273E+02  0.54586308480E+02  0.51100000000E-03 0. -1.
         22    1    1    0    0    0 -0.27643348410E+02 -0.70305983835E+01 -0.33815482129E+01  0.28723142121E+02  0.00000000000E+00 0. -1.
</event>
<event>
 5    1  0.1059945E-009  0.9118800E+02  0.7815553E-02  0.1125453E+00
         25   -1    0    0    0    0  0.00000000000E+00  0.00000000000E+00  0.99999998245E-14  0.12509000000E+03  0.12509000000E+03 0.  0.
        -11    1    3    3    0    0 -0.35155164984E+02  0.40904432635E+02 -0.21965623645E+02  0.58236988733E+02  0.51100000000E-03 0. -1.
         23    2    1    0    0    0 -0.24992046846E+02  0.15745925086E+02  0.33693059563E+01  0.95359732847E+02  0.90606787073E+02 0.  0.
         11    1    3    3    0    0  0.10163118139E+02 -0.25158507549E+02  0.25334929602E+02  0.37122744114E+02  0.51100000000E-03 0.  1.
         22    1    1    0    0    0  0.24992046846E+02 -0.15745925086E+02 -0.33693059563E+01  0.29730267153E+02  0.00000000000E+00 0. -1.
</event>
<event>
 5    1  0.1059945E-009  0.9118800E+02  0.7815553E-02  0.1125453E+00
         25   -1    0    0    0    0  0.00000000000E+00  0.00000000000E+00  0.99999998245E-14  0.12509000000E+03  0.12509000000E+03 0.  0.
        -11    1    3    3    0    0 -0.89043755965E+01  0.19122733198E+02  0.58467183292E+02  0.62156080572E+02  0.51100000000E-03 0.  1.
         23    2    1    0    0    0 -0.44284187773E+01  0.40156283536E+01  0.28029181140E+02  0.96430426394E+02  0.92073101257E+02 0.  0.
         11    1    3    3    0    0  0.44759568192E+01 -0.15107104844E+02 -0.30438002152E+02  0.34274345822E+02  0.51100000000E-03 0. -1.
         22    1    1    0    0    0  0.44284187773E+01 -0.40156283536E+01 -0.28029181140E+02  0.28659573606E+02  0.00000000000E+00 0.  1.
</event>
<event>
 5    1  0.1059945E-009  0.9118800E+02  0.7815553E-02  0.1125453E+00
         25   -1    0    0    0    0  0.00000000000E+00  0.00000000000E+00  0.99999998245E-14  0.12509000000E+03  0.12509000000E+03 0.  0.
        -11    1    3    3    0    0 -0.41770316522E+02 -0.22363890720E+02 -0.24715981896E+01  0.47444828468E+02  0.51100000000E-03 0.  1.
         23    2    1    0    0    0 -0.19451081837E+02  0.20835074412E+02 -0.50740263601E+01  0.96138477521E+02  0.91675603113E+02 0.  0.
         11    1    3    3    0    0  0.22319234685E+02  0.43198965132E+02 -0.26024281704E+01  0.48693649053E+02  0.51100000000E-03 0. -1.
         22    1    1    0    0    0  0.19451081837E+02 -0.20835074412E+02  0.50740263601E+01  0.28951522479E+02  0.00000000000E+00 0.  1.
</event>
<event>
 5    1  0.1059945E-009  0.9118800E+02  0.7815553E-02  0.1125453E+00
         25   -1    0    0    0    0  0.00000000000E+00  0.00000000000E+00  0.99999998245E-14  0.12509000000E+03  0.12509000000E+03 0.  0.
        -11    1    3    3    0    0  0.43233282890E+00 -0.58633730920E+00  0.44075670270E+02  0.44081690225E+02  0.51100000000E-03 0. -1.
         23    2    1    0    0    0 -0.27677518356E+02  0.29728328021E+01 -0.90031544032E+00  0.97238728483E+02  0.93164784076E+02 0.  0.
         11    1    3    3    0    0 -0.28109851185E+02  0.35591701113E+01 -0.44975985710E+02  0.53157038258E+02  0.51100000000E-03 0.  1.
         22    1    1    0    0    0  0.27677518356E+02 -0.29728328021E+01  0.90031544032E+00  0.27851271517E+02  0.00000000000E+00 0.  1.
</event>
<event>
 5    1  0.1059945E-009  0.9118800E+02  0.7815553E-02  0.1125453E+00
         25   -1    0    0    0    0  0.00000000000E+00  0.00000000000E+00  0.99999998245E-14  0.12509000000E+03  0.12509000000E+03 0.  0.
        -11    1    3    3    0    0  0.65061771674E+01 -0.29993242621E+02 -0.18379594425E+02  0.35773376074E+02  0.51100000000E-03 0. -1.
         23    2    1    0    0    0  0.27861478195E+01  0.28180655792E+02 -0.11709617551E+02  0.94446450536E+02  0.89337029809E+02 0.  0.
         11    1    3    3    0    0 -0.37200293479E+01  0.58173898414E+02  0.66699768735E+01  0.58673074461E+02  0.51100000000E-03 0.  1.
         22    1    1    0    0    0 -0.27861478195E+01 -0.28180655792E+02  0.11709617551E+02  0.30643549464E+02  0.00000000000E+00 0.  1.
</event>
<event>
 5    1  0.1059945E-009  0.9118800E+02  0.7815553E-02  0.1125453E+00
         25   -1    0    0    0    0  0.00000000000E+00  0.00000000000E+00  0.99999998245E-14  0.12509000000E+03  0.12509000000E+03 0.  0.
        -11    1    3    3    0    0 -0.28679777829E+02  0.64062020435E+00 -0.47559264197E+02  0.55541188877E+02  0.51100000000E-03 0. -1.
         23    2    1    0    0    0 -0.36070687260E+01 -0.18485001844E+02 -0.21972520193E+02  0.96150444343E+02  0.91691930211E+02 0.  0.
         11    1    3    3    0    0  0.25072709103E+02 -0.19125622049E+02  0.25586744005E+02  0.40609255467E+02  0.51100000000E-03 0.  1.
         22    1    1    0    0    0  0.36070687260E+01  0.18485001844E+02  0.21972520193E+02  0.28939555657E+02  0.00000000000E+00 0. -1.
</event>
<event>
 5    1  0.1059945E-009  0.9118800E+02  0.7815553E-02  0.1125453E+00
         25   -1    0    0    0    0  0.00000000000E+00  0.00000000000E+00  0.99999998245E-14  0.12509000000E+03  0.12509000000E+03 0.  0.
        -11    1    3    3    0    0  0.59611489193E+02 -0.12099468293E+02  0.11980952674E+02  0.61995725692E+02  0.51100000000E-03 0. -1.
         23    2    1    0    0    0  0.28981724551E+02 -0.63967302913E+01 -0.95846892681E-01  0.95410584524E+02  0.90676964750E+02 0.  0.
         11    1    3    3    0    0 -0.30629764642E+02  0.57027380017E+01 -0.12076799567E+02  0.33414858833E+02  0.51100000000E-03 0.  1.
         22    1    1    0    0    0 -0.28981724551E+02  0.63967302913E+01  0.95846892681E-01  0.29679415476E+02  0.00000000000E+00 0. -1.
</event>
<event>
 5    1  0.1059945E-009  0.9118800E+02  0.7815553E-02  0.1125453E+00
         25   -1    0    0    0    0  0.00000000000E+00  0.00000000000E+00  0.99999998245E-14  0.12509000000E+03  0.12509000000E+03 0.  0.
        -11    1    3    3    0    0 -0.18161808626E+02 -0.13789046061E+02 -0.24715364765E+02  0.33627939865E+02  0.51100000000E-03 0.  1.
         23    2    1    0    0    0  0.27243934860E+02  0.10613825786E+02  0.81195002529E+01  0.94745122857E+02  0.89754257483E+02 0.  0.
         11    1    3    3    0    0  0.45405743486E+02  0.24402871847E+02  0.32834865018E+02  0.61117182992E+02  0.51100000000E-03 0. -1.
         22    1    1    0    0    0 -0.27243934860E+02 -0.10613825786E+02 -0.81195002529E+01  0.30344877143E+02  0.00000000000E+00 0. -1.
</event>
<event>
 5    1  0.1059945E-009  0.9118800E+02  0.7815553E-02  0.1125453E+00
         25   -1    0    0    0    0  0.00000000000E+00  0.00000000000E+00  0.99999998245E-14  0.12509000000E+03  0.12509000000E+03 0.  0.
        -11    1    3    3    0    0  0.23902164668E+02  0.20389054725E+02  0.40175909755E+02  0.51001281880E+02  0.51100000000E-03 0.  1.
         23    2    1    0    0    0  0.23359429503E+02  0.17585780192E+02 -0.42717336608E+01  0.95540544504E+02  0.90856069274E+02 0.  0.
         11    1    3    3    0    0 -0.54273516584E+00 -0.28032745330E+01 -0.44447643416E+02  0.44539262624E+02  0.51100000000E-03 0. -1.
         22    1    1    0    0    0 -0.23359429503E+02 -0.17585780192E+02  0.42717336608E+01  0.29549455496E+02  0.00000000000E+00 0.  1.
</event>
<event>
 5    1  0.1059945E-009  0.9118800E+02  0.7815553E-02  0.1125453E+00
         25   -1    0    0    0    0  0.00000000000E+00  0.00000000000E+00  0.99999998245E-14  0.12509000000E+03  0.12509000000E+03 0.  0.
        -11    1    3    3    0    0 -0.31797183685E+02 -0.32430942764E+02  0.47972613518E+01  0.45671004539E+02  0.51100000000E-03 0.  1.
         23    2    1    0    0    0 -0.21693672424E+02  0.17421422377E+02  0.63140710601E+01  0.96559509744E+02  0.92248306476E+02 0.  0.
         11    1    3    3    0    0  0.10103511261E+02  0.49852365142E+02  0.15168097083E+01  0.50888505205E+02  0.51100000000E-03 0. -1.
         22    1    1    0    0    0  0.21693672424E+02 -0.17421422377E+02 -0.63140710601E+01  0.28530490256E+02  0.00000000000E+00 0. -1.
</event>
<event>
 5    1  0.1059945E-009  0.9118800E+02  0.7815553E-02  0.1125453E+00
         25   -1    0    0    0    0  0.00000000000E+00  0.00000000000E+00  0.99999998245E-14  0.12509000000E+03  0.12509000000E+03 0.  0.
        -11    1    3    3    0    0  0.66154320442E+01 -0.74331246943E+01  0.36632208161E+02  0.37959635916E+02  0.51100000000E-03 0.  1.
         23    2    1    0    0    0  0.23354534494E+02  0.15583977220E+02 -0.12197774384E+02  0.94478232208E+02  0.89381519532E+02 0.  0.
         11    1    3    3    0    0  0.16739102450E+02  0.23017101914E+02 -0.48829982544E+02  0.56518596293E+02  0.51100000000E-03 0. -1.
         22    1    1    0    0    0 -0.23354534494E+02 -0.15583977220E+02  0.12197774384E+02  0.30611767792E+02  0.00000000000E+00 0. -1.
</event>
<event>
 5    1  0.1059945E-009  0.9118800E+02  0.7815553E-02  0.1125453E+00
         25   -1    0    0    0    0  0.00000000000E+00  0.00000000000E+00  0.99999998245E-14  0.12509000000E+03  0.12509000000E+03 0.  0.
        -11    1    3    3    0    0  0.88491670630E+01  0.37652821802E+02 -0.10177529001E+02  0.39995310278E+02  0.51100000000E-03 0.  1.
         23    2    1    0    0    0 -0.21104611301E+02 -0.80417678540E+01 -0.19291603890E+02  0.95387464266E+02  0.90645064455E+02 0.  0.
         11    1    3    3    0    0 -0.29953778364E+02 -0.45694589656E+02 -0.91140748886E+01  0.55392153988E+02  0.51100000000E-03 0. -1.
         22    1    1    0    0    0  0.21104611301E+02  0.80417678540E+01  0.19291603890E+02  0.29702535734E+02  0.00000000000E+00 0. -1.
</event>
<event>
 5    1  0.1059945E-009  0.9118800E+02  0.7815553E-02  0.1125453E+00
         25   -1    0    0    0    0  0.00000000000E+00  0.00000000000E+00  0.99999998245E-14  0.12509000000E+03  0.12509000000E+03 0.  0.
        -11    1    3    3    0    0  0.13399917382E+02 -0.26702078754E+01 -0.28438486110E+02  0.31550519622E+02  0.51100000000E-03 0.  1.
         23    2    1    0    0    0  0.12496638910E+02  0.25029560564E+02  0.22266050732E+02  0.89334973762E+02  0.81867671493E+02 0.  0.
         11    1    3    3    0    0 -0.90327847211E+00  0.27699768439E+02  0.50704536842E+02  0.57784454140E+02  0.51100000000E-03 0. -1.
         22    1    1    0    0    0 -0.12496638910E+02 -0.25029560564E+02 -0.22266050732E+02  0.35755026238E+02  0.00000000000E+00 0. -1.
</event>
<event>
 5    1  0.1059945E-009  0.9118800E+02  0.7815553E-02  0.1125453E+00
         25   -1    0    0    0    0  0.00000000000E+00  0.00000000000E+00  0.99999998245E-14  0.12509000000E+03  0.12509000000E+03 0.  0.
        -11    1    3    3    0    0  0.23476845510E+02 -0.25600373891E+01 -0.45200551192E+02  0.50998096973E+02  0.51100000000E-03 0.  1.
         23    2    1    0    0    0  0.22287825171E+02 -0.20237977275E+02 -0.54814144669E+01  0.94489856543E+02  0.89397786381E+02 0.  0.
         11    1    3    3    0    0 -0.11890203381E+01 -0.17677939886E+02  0.39719136726E+02  0.43491759570E+02  0.51100000000E-03 0. -1.
         22    1    1    0    0    0 -0.22287825171E+02  0.20237977275E+02  0.54814144669E+01  0.30600143457E+02  0.00000000000E+00 0. -1.
</event>
<event>
 5    1  0.1059945E-009  0.9118800E+02  0.7815553E-02  0.1125453E+00
         25   -1    0    0    0    0  0.00000000000E+00  0.00000000000E+00  0.99999998245E-14  0.12509000000E+03  0.12509000000E+03 0.  0.
        -11    1    3    3    0    0 -0.36339772924E+02 -0.26631250504E+02  0.26532097431E+02  0.52285321017E+02  0.51100000000E-03 0. -1.
         23    2    1    0    0    0 -0.22595066459E+02  0.12021609139E+02  0.16884147549E+02  0.94428451555E+02  0.89311824022E+02 0.  0.
         11    1    3    3    0    0  0.13744706465E+02  0.38652859642E+02 -0.96479498820E+01  0.42143130538E+02  0.51100000000E-03 0.  1.
         22    1    1    0    0    0  0.22595066459E+02 -0.12021609139E+02 -0.16884147549E+02  0.30661548445E+02  0.00000000000E+00 0. -1.
</event>
<event>
 5    1  0.1059945E-009  0.9118800E+02  0.7815553E-02  0.1125453E+00
         25   -1    0    0    0    0  0.00000000000E+00  0.00000000000E+00  0.99999998245E-14  0.12509000000E+03  0.12509000000E+03 0.  0.
        -11    1    3    3    0    0  0.15022181700E+02  0.39369222080E+02  0.33694030680E+01  0.42272384219E+02  0.51100000000E-03 0.  1.
         23    2    1    0    0    0 -0.10990294305E+02 -0.30538935907E+01  0.25817889044E+02  0.96864546422E+02  0.92661017283E+02 0.  0.
         11    1    3    3    0    0 -0.26012476005E+02 -0.42423115671E+02  0.22448485976E+02  0.54592162203E+02  0.51100000000E-03 0. -1.
         22    1    1    0    0    0  0.10990294305E+02  0.30538935907E+01 -0.25817889044E+02  0.28225453578E+02  0.00000000000E+00 0. -1.
</event>
<event>
 5    1  0.1059945E-009  0.9118800E+02  0.7815553E-02  0.1125453E+00
         25   -1    0    0    0    0  0.00000000000E+00  0.00000000000E+00  0.99999998245E-14  0.12509000000E+03  0.12509000000E+03 0.  0.
        -11    1    3    3    0    0  0.15678943827E+02 -0.47343543222E+02 -0.26632063017E+02  0.56537661299E+02  0.51100000000E-03 0. -1.
         23    2    1    0    0    0 -0.12144150891E+02 -0.23785136366E+02 -0.11664526101E+02  0.95947689145E+02  0.91414904531E+02 0.  0.
         11    1    3    3    0    0 -0.27823094718E+02  0.23558406856E+02  0.14967536916E+02  0.39410027847E+02  0.51100000000E-03 0.  1.
         22    1    1    0    0    0  0.12144150891E+02  0.23785136366E+02  0.11664526101E+02  0.29142310855E+02  0.00000000000E+00 0. -1.
</event>
<event>
 5    1  0.1059945E-009  0.9118800E+02  0.7815553E-02  0.1125453E+00
         25   -1    0    0    0    0  0.00000000000E+00  0.00000000000E+00  0.99999998245E-14  0.12509000000E+03  0.12509000000E+03 0.  0.
        -11    1    3    3    0    0 -0.92073496290E+01 -0.86570171293E+01 -0.50353232219E+02  0.51915000028E+02  0.51100000000E-03 0.  1.
         23    2    1    0    0    0  0.55651563472E+00 -0.27366087351E+02 -0.13067056940E+02  0.94759150628E+02  0.89773805779E+02 0.  0.
         11    1    3    3    0    0  0.97638652638E+01 -0.18709070222E+02  0.37286175278E+02  0.42844150600E+02  0.51100000000E-03 0. -1.
         22    1    1    0    0    0 -0.55651563472E+00  0.27366087351E+02  0.13067056940E+02  0.30330849372E+02  0.00000000000E+00 0.  1.
</event>
<event>
 5    1  0.1059945E-009  0.9118800E+02  0.7815553E-02  0.1125453E+00
         25   -1    0    0    0    0  0.00000000000E+00  0.00000000000E+00  0.99999998245E-14  0.12509000000E+03  0.12509000000E+03 0.  0.
        -11    1    3    3    0    0  0.21504872941E+02 -0.34928458427E+02 -0.13218845727E+01  0.41039056366E+02  0.51100000000E-03 0.  1.
         23    2    1    0    0    0 -0.22933933634E+02 -0.11080369289E+02  0.16741958469E+02  0.94609956219E+02  0.89565678398E+02 0.  0.
         11    1    3    3    0    0 -0.44438806575E+02  0.23848089138E+02  0.18063843042E+02  0.53570899853E+02  0.51100000000E-03 0. -1.
         22    1    1    0    0    0  0.22933933634E+02  0.11080369289E+02 -0.16741958469E+02  0.30480043781E+02  0.00000000000E+00 0. -1.
</event>
<event>
 5    1  0.1059945E-009  0.9118800E+02  0.7815553E-02  0.1125453E+00
         25   -1    0    0    0    0  0.00000000000E+00  0.00000000000E+00  0.99999998245E-14  0.12509000000E+03  0.12509000000E+03 0.  0.
        -11    1    3    3    0    0  0.31335727200E+02 -0.35184679698E+01 -0.30967277456E+02  0.44195923899E+02  0.51100000000E-03 0.  1.
         23    2    1    0    0    0 -0.36943668572E+00 -0.29069763360E+02  0.10553058755E+01  0.95998741936E+02  0.91484737293E+02 0.  0.
         11    1    3    3    0    0 -0.31705163885E+02 -0.25551295390E+02  0.32022583331E+02  0.51802818037E+02  0.51100000000E-03 0. -1.
         22    1    1    0    0    0  0.36943668572E+00  0.29069763360E+02 -0.10553058755E+01  0.29091258064E+02  0.00000000000E+00 0.  1.
</event>
<event>
 5    1  0.1059945E-009  0.9118800E+02  0.7815553E-02  0.1125453E+00
         25   -1    0    0    0    0  0.00000000000E+00  0.00000000000E+00  0.99999998245E-14  0.12509000000E+03  0.12509000000E+03 0.  0.
        -11    1    3    3    0    0 -0.23531264716E+02  0.63517595851E+01  0.57227410143E+02  0.62201621690E+02  0.51100000000E-03 0.  1.
         23    2    1    0    0    0 -0.85000873258E+01  0.53980515771E+01  0.31570154927E+02  0.91952934236E+02  0.85774570749E+02 0.  0.
         11    1    3    3    0    0  0.15031177390E+02 -0.95370800793E+00 -0.25657255216E+02  0.29751312546E+02  0.51100000000E-03 0. -1.
         22    1    1    0    0    0  0.85000873258E+01 -0.53980515771E+01 -0.31570154927E+02  0.33137065764E+02  0.00000000000E+00 0.  1.
</event>
<event>
 5    1  0.1059945E-009  0.9118800E+02  0.7815553E-02  0.1125453E+00
         25   -1    0    0    0    0  0.00000000000E+00  0.00000000000E+00  0.99999998245E-14  0.12509000000E+03  0.12509000000E+03 0.  0.
        -11    1    3    3    0    0  0.48704752735E+02  0.92336934640E+01 -0.19366875951E+02  0.53221141647E+02  0.51100000000E-03 0. -1.
         23    2    1    0    0    0  0.27210615890E+02 -0.10717661674E+02  0.94692460225E+01  0.94349920151E+02  0.89201765248E+02 0.  0.
         11    1    3    3    0    0 -0.21494136844E+02 -0.19951355138E+02  0.28836121973E+02  0.41128778504E+02  0.51100000000E-03 0.  1.
         22    1    1    0    0    0 -0.27210615890E+02  0.10717661674E+02 -0.94692460225E+01  0.30740079849E+02  0.00000000000E+00 0. -1.
</event>
<event>
 5    1  0.1059945E-009  0.9118800E+02  0.7815553E-02  0.1125453E+00
         25   -1    0    0    0    0  0.00000000000E+00  0.00000000000E+00  0.99999998245E-14  0.12509000000E+03  0.12509000000E+03 0.  0.
        -11    1    3    3    0    0  0.26935089741E+02 -0.14026810077E+01 -0.27462513552E+02  0.38492287854E+02  0.51100000000E-03 0. -1.
         23    2    1    0    0    0  0.97645807244E+01 -0.77045875878E+01  0.26686645280E+02  0.95647093504E+02  0.91002646956E+02 0.  0.
         11    1    3    3    0    0 -0.17170509017E+02 -0.63019065801E+01  0.54149158832E+02  0.57154805650E+02  0.51100000000E-03 0.  1.
         22    1    1    0    0    0 -0.97645807244E+01  0.77045875878E+01 -0.26686645280E+02  0.29442906496E+02  0.00000000000E+00 0.  1.
</event>
<event>
 5    1  0.1059945E-009  0.9118800E+02  0.7815553E-02  0.1125453E+00
         25   -1    0    0    0    0  0.00000000000E+00  0.00000000000E+00  0.99999998245E-14  0.12509000000E+03  0.12509000000E+03 0.  0.
        -11    1    3    3    0    0 -0.27922237335E+02 -0.35026190960E+02  0.23939696545E+02  0.50789708228E+02  0.51100000000E-03 0.  1.
         23    2    1    0    0    0  0.13692680701E+02 -0.18658215447E+02  0.17727434596E+02  0.95937290935E+02  0.91400674758E+02 0.  0.
         11    1    3    3    0    0  0.41614918036E+02  0.16367975513E+02 -0.62122619486E+01  0.45147582707E+02  0.51100000000E-03 0. -1.
         22    1    1    0    0    0 -0.13692680701E+02  0.18658215447E+02 -0.17727434596E+02  0.29152709065E+02  0.00000000000E+00 0.  1.
</event>
<event>
 5    1  0.1059945E-009  0.9118800E+02  0.7815553E-02  0.1125453E+00
         25   -1    0    0    0    0  0.00000000000E+00  0.00000000000E+00  0.99999998245E-14  0.12509000000E+03  0.12509000000E+03 0.  0.
        -11    1    3    3    0    0 -0.58386138721E+01  0.57728294225E+02 -0.54190628183E+01  0.58275308735E+02  0.51100000000E-03 0.  1.
         23    2    1    0    0    0 -0.10341902485E+01  0.25882931198E+02  0.13759294992E+02  0.95758892358E+02  0.91156193372E+02 0.  0.
         11    1    3    3    0    0  0.48044236236E+01 -0.31845363027E+02  0.19178357810E+02  0.37483583623E+02  0.51100000000E-03 0. -1.
         22    1    1    0    0    0  0.10341902485E+01 -0.25882931198E+02 -0.13759294992E+02  0.29331107642E+02  0.00000000000E+00 0.  1.
</event>
<event>
 5    1  0.1059945E-009  0.9118800E+02  0.7815553E-02  0.1125453E+00
         25   -1    0    0    0    0  0.00000000000E+00  0.00000000000E+00  0.99999998245E-14  0.12509000000E+03  0.12509000000E+03 0.  0.
        -11    1    3    3    0    0  0.30247006659E+02 -0.10776914555E+02 -0.52829760146E+02  0.61822381518E+02  0.51100000000E-03 0.  1.
         23    2    1    0    0    0  0.11011321040E+02 -0.10850889562E+02 -0.26122461896E+02  0.94735856777E+02  0.89741342470E+02 0.  0.
         11    1    3    3    0    0 -0.19235685620E+02 -0.73975006650E-01  0.26707298250E+02  0.32913475259E+02  0.51100000000E-03 0. -1.
         22    1    1    0    0    0 -0.11011321040E+02  0.10850889562E+02  0.26122461896E+02  0.30354143223E+02  0.00000000000E+00 0.  1.
</event>
<event>
 5    1  0.1059945E-009  0.9118800E+02  0.7815553E-02  0.1125453E+00
         25   -1    0    0    0    0  0.00000000000E+00  0.00000000000E+00  0.99999998245E-14  0.12509000000E+03  0.12509000000E+03 0.  0.
        -11    1    3    3    0    0 -0.29405131330E+02  0.12590023664E+02  0.30833237536E+02  0.44428132772E+02  0.51100000000E-03 0.  1.
         23    2    1    0    0    0  0.20430589850E+02  0.11943865424E+02  0.16335743451E+02  0.96333758295E+02  0.91941674720E+02 0.  0.
         11    1    3    3    0    0  0.49835721180E+02 -0.64615823973E+00 -0.14497494085E+02  0.51905625524E+02  0.51100000000E-03 0. -1.
         22    1    1    0    0    0 -0.20430589850E+02 -0.11943865424E+02 -0.16335743451E+02  0.28756241705E+02  0.00000000000E+00 0.  1.
</event>
<event>
 5    1  0.1059945E-009  0.9118800E+02  0.7815553E-02  0.1125453E+00
         25   -1    0    0    0    0  0.00000000000E+00  0.00000000000E+00  0.99999998245E-14  0.12509000000E+03  0.12509000000E+03 0.  0.
        -11    1    3    3    0    0 -0.46481326699E+02 -0.33892653686E+02  0.14604538259E+01  0.57544405734E+02  0.51100000000E-03 0. -1.
         23    2    1    0    0    0 -0.28913750852E+02 -0.10651498048E+01  0.73443994937E+01  0.95239041283E+02  0.90440009112E+02 0.  0.
         11    1    3    3    0    0  0.17567575848E+02  0.32827503882E+02  0.58839456679E+01  0.37694635549E+02  0.51100000000E-03 0.  1.
         22    1    1    0    0    0  0.28913750852E+02  0.10651498048E+01 -0.73443994937E+01  0.29850958717E+02  0.00000000000E+00 0. -1.
</event>
<event>
 5    1  0.1059945E-009  0.9118800E+02  0.7815553E-02  0.1125453E+00
         25   -1    0    0    0    0  0.00000000000E+00  0.00000000000E+00  0.99999998245E-14  0.12509000000E+03  0.12509000000E+03 0.  0.
        -11    1    3    3    0    0  0.49833256751E+01  0.15465487651E+02 -0.40250228578E+02  0.43406171726E+02  0.51100000000E-03 0.  1.
         23    2    1    0    0    0  0.17597911116E+02  0.22239290804E+02  0.95043805799E+01  0.95180038761E+02  0.90358364290E+02 0.  0.
         11    1    3    3    0    0  0.12614585441E+02  0.67738031530E+01  0.49754609158E+02  0.51773867035E+02  0.51100000000E-03 0. -1.
         22    1    1    0    0    0 -0.17597911116E+02 -0.22239290804E+02 -0.95043805799E+01  0.29909961239E+02  0.00000000000E+00 0.  1.
</event>
<event>
 5    1  0.1059945E-009  0.9118800E+02  0.7815553E-02  0.1125453E+00
         25   -1    0    0    0    0  0.00000000000E+00  0.00000000000E+00  0.99999998245E-14  0.12509000000E+03  0.12509000000E+03 0.  0.
        -11    1    3    3    0    0  0.24718483228E+00 -0.19931272462E+01 -0.47828022628E+02  0.47870172397E+02  0.51100000000E-03 0.  1.
         23    2    1    0    0    0 -0.20218702422E+02 -0.16056777231E+02 -0.30252462146E+01  0.99094459280E+02  0.95623970439E+02 0.  0.
         11    1    3    3    0    0 -0.20465887255E+02 -0.14063649984E+02  0.44802776414E+02  0.51224286883E+02  0.51100000000E-03 0. -1.
         22    1    1    0    0    0  0.20218702422E+02  0.16056777231E+02  0.30252462146E+01  0.25995540720E+02  0.00000000000E+00 0. -1.
</event>
<event>
 5    1  0.1059945E-009  0.9118800E+02  0.7815553E-02  0.1125453E+00
         25   -1    0    0    0    0  0.00000000000E+00  0.00000000000E+00  0.99999998245E-14  0.12509000000E+03  0.12509000000E+03 0.  0.
        -11    1    3    3    0    0 -0.14307629642E+02 -0.36021307858E+02 -0.29031876351E+02  0.48426157503E+02  0.51100000000E-03 0. -1.
         23    2    1    0    0    0  0.21440287724E+02 -0.20235552524E+02 -0.28356617985E+01  0.95472361649E+02  0.90762147052E+02 0.  0.
         11    1    3    3    0    0  0.35747917365E+02  0.15785755334E+02  0.26196214552E+02  0.47046204146E+02  0.51100000000E-03 0.  1.
         22    1    1    0    0    0 -0.21440287724E+02  0.20235552524E+02  0.28356617985E+01  0.29617638351E+02  0.00000000000E+00 0.  1.
</event>
<event>
 5    1  0.1059945E-009  0.9118800E+02  0.7815553E-02  0.1125453E+00
         25   -1    0    0    0    0  0.00000000000E+00  0.00000000000E+00  0.99999998245E-14  0.12509000000E+03  0.12509000000E+03 0.  0.
        -11    1    3    3    0    0  0.34351388882E+02 -0.19784962403E+02 -0.55947344045E+01  0.40034531454E+02  0.51100000000E-03 0. -1.
         23    2    1    0    0    0 -0.20308045749E+02 -0.21217495337E+01  0.13551246652E+02  0.10058377979E+03  0.97552764838E+02 0.  0.
         11    1    3    3    0    0 -0.54659434631E+02  0.17663212870E+02  0.19145981056E+02  0.60549248335E+02  0.51100000000E-03 0.  1.
         22    1    1    0    0    0  0.20308045749E+02  0.21217495337E+01 -0.13551246652E+02  0.24506220211E+02  0.00000000000E+00 0.  1.
</event>
<event>
 5    1  0.1059945E-009  0.9118800E+02  0.7815553E-02  0.1125453E+00
         25   -1    0    0    0    0  0.00000000000E+00  0.00000000000E+00  0.99999998245E-14  0.12509000000E+03  0.12509000000E+03 0.  0.
        -11    1    3    3    0    0 -0.26369764937E+02  0.91160637549E+01 -0.39485483861E+02  0.48348428694E+02  0.51100000000E-03 0. -1.
         23    2    1    0    0    0  0.17402985380E+02 -0.26751221600E+01 -0.21940122659E+02  0.96958360144E+02  0.92787576974E+02 0.  0.
         11    1    3    3    0    0  0.43772750317E+02 -0.11791185915E+02  0.17545361202E+02  0.48609931450E+02  0.51100000000E-03 0.  1.
         22    1    1    0    0    0 -0.17402985380E+02  0.26751221600E+01  0.21940122659E+02  0.28131639856E+02  0.00000000000E+00 0. -1.
</event>
<event>
 5    1  0.1059945E-009  0.9118800E+02  0.7815553E-02  0.1125453E+00
         25   -1    0    0    0    0  0.00000000000E+00  0.00000000000E+00  0.99999998245E-14  0.12509000000E+03  0.12509000000E+03 0.  0.
        -11    1    3    3    0    0  0.22217250440E+02  0.33987312207E+01  0.22296917477E+02  0.31659281740E+02  0.51100000000E-03 0. -1.
         23    2    1    0    0    0 -0.19608720793E+02 -0.42839061926E+01 -0.23519837545E+02  0.94170159419E+02  0.88949324806E+02 0.  0.
         11    1    3    3    0    0 -0.41825971233E+02 -0.76826374133E+01 -0.45816755022E+02  0.62510877679E+02  0.51100000000E-03 0.  1.
         22    1    1    0    0    0  0.19608720793E+02  0.42839061926E+01  0.23519837545E+02  0.30919840581E+02  0.00000000000E+00 0.  1.
</event>
<event>
 5    1  0.1059945E-009  0.9118800E+02  0.7815553E-02  0.1125453E+00
         25   -1    0    0    0    0  0.00000000000E+00  0.00000000000E+00  0.99999998245E-14  0.12509000000E+03  0.12509000000E+03 0.  0.
        -11    1    3    3    0    0 -0.27820674195E+02 -0.41941357464E+01 -0.15938197570E+02  0.32335844343E+02  0.51100000000E-03 0. -1.
         23    2    1    0    0    0  0.28559402324E+02 -0.57332489965E+01  0.98331633470E+01  0.94345883383E+02  0.89196104202E+02 0.  0.
         11    1    3    3    0    0  0.56380076519E+02 -0.15391132500E+01  0.25771360917E+02  0.62010039040E+02  0.51100000000E-03 0.  1.
         22    1    1    0    0    0 -0.28559402324E+02  0.57332489965E+01 -0.98331633470E+01  0.30744116617E+02  0.00000000000E+00 0.  1.
</event>
<event>
 5    1  0.1059945E-009  0.9118800E+02  0.7815553E-02  0.1125453E+00
         25   -1    0    0    0    0  0.00000000000E+00  0.00000000000E+00  0.99999998245E-14  0.12509000000E+03  0.12509000000E+03 0.  0.
        -11    1    3    3    0    0  0.21121475765E+02  0.53750148577E+01 -0.42404639365E+02  0.47677677829E+02  0.51100000000E-03 0.  1.
         23    2    1    0    0    0  0.27458117453E+02  0.78313387153E+01  0.54576172621E+01  0.96020021219E+02  0.91513828511E+02 0.  0.
         11    1    3    3    0    0  0.63366416879E+01  0.24563238576E+01  0.47862256627E+02  0.48342343391E+02  0.51100000000E-03 0. -1.
         22    1    1    0    0    0 -0.27458117453E+02 -0.78313387153E+01 -0.54576172621E+01  0.29069978781E+02  0.00000000000E+00 0.  1.
</event>
<event>
 5    1  0.1059945E-009  0.9118800E+02  0.7815553E-02  0.1125453E+00
         25   -1    0    0    0    0  0.00000000000E+00  0.00000000000E+00  0.99999998245E-14  0.12509000000E+03  0.12509000000E+03 0.  0.
        -11    1    3    3    0    0 -0.17461387289E+02 -0.27020063449E+01  0.45040904258E+02  0.48382682243E+02  0.51100000000E-03 0. -1.
         23    2    1    0    0    0 -0.15556845780E+02  0.23083375675E+02  0.38884838695E+01  0.96983452899E+02  0.92821399182E+02 0.  0.
         11    1    3    3    0    0  0.19045415089E+01  0.25785382019E+02 -0.41152420389E+02  0.48600770656E+02  0.51100000000E-03 0.  1.
         22    1    1    0    0    0  0.15556845780E+02 -0.23083375675E+02 -0.38884838695E+01  0.28106547101E+02  0.00000000000E+00 0.  1.
</event>
<event>
 5    1  0.1059945E-009  0.9118800E+02  0.7815553E-02  0.1125453E+00
         25   -1    0    0    0    0  0.00000000000E+00  0.00000000000E+00  0.99999998245E-14  0.12509000000E+03  0.12509000000E+03 0.  0.
        -11    1    3    3    0    0 -0.52587405184E+02  0.21368539010E+02  0.42419698191E+01  0.56921383958E+02  0.51100000000E-03 0.  1.
         23    2    1    0    0    0 -0.22011931069E+02  0.82276351888E+01 -0.16717136670E+02  0.96251107015E+02  0.91829155789E+02 0.  0.
         11    1    3    3    0    0  0.30575474116E+02 -0.13140903821E+02 -0.20959106489E+02  0.39329723057E+02  0.51100000000E-03 0. -1.
         22    1    1    0    0    0  0.22011931069E+02 -0.82276351888E+01  0.16717136670E+02  0.28838892985E+02  0.00000000000E+00 0. -1.
</event>
<event>
 5    1  0.1059945E-009  0.9118800E+02  0.7815553E-02  0.1125453E+00
         25   -1    0    0    0    0  0.00000000000E+00  0.00000000000E+00  0.99999998245E-14  0.12509000000E+03  0.12509000000E+03 0.  0.
        -11    1    3    3    0    0  0.32147784628E+02 -0.36162443842E+02  0.26709281512E+02  0.55268328365E+02  0.51100000000E-03 0.  1.
         23    2    1    0    0    0  0.48564788543E+01 -0.75116807998E+01  0.28840344186E+02  0.94894368063E+02  0.89962019219E+02 0.  0.
         11    1    3    3    0    0 -0.27291305774E+02  0.28650763042E+02  0.21310626742E+01  0.39626039698E+02  0.51100000000E-03 0. -1.
         22    1    1    0    0    0 -0.48564788543E+01  0.75116807998E+01 -0.28840344186E+02  0.30195631937E+02  0.00000000000E+00 0.  1.
</event>
<event>
 5    1  0.1059945E-009  0.9118800E+02  0.7815553E-02  0.1125453E+00
         25   -1    0    0    0    0  0.00000000000E+00  0.00000000000E+00  0.99999998245E-14  0.12509000000E+03  0.12509000000E+03 0.  0.
        -11    1    3    3    0    0 -0.36358706636E+02 -0.18896526902E+02  0.25994581755E+02  0.48525792709E+02  0.51100000000E-03 0.  1.
         23    2    1    0    0    0 -0.30730426994E+02 -0.29198766246E+02 -0.56941195290E+01  0.82319097616E+02  0.70335508398E+02 0.  0.
         11    1    3    3    0    0  0.56282796421E+01 -0.10302239344E+02 -0.31688701284E+02  0.33793304907E+02  0.51100000000E-03 0. -1.
         22    1    1    0    0    0  0.30730426994E+02  0.29198766246E+02  0.56941195290E+01  0.42770902384E+02  0.00000000000E+00 0.  1.
</event>
<event>
 5    1  0.1059945E-009  0.9118800E+02  0.7815553E-02  0.1125453E+00
         25   -1    0    0    0    0  0.00000000000E+00  0.00000000000E+00  0.99999998245E-14  0.12509000000E+03  0.12509000000E+03 0.  0.
        -11    1    3    3    0    0  0.26215320230E+02  0.21555421331E+02  0.43320015488E+02  0.55031835747E+02  0.51100000000E-03 0. -1.
         23    2    1    0    0    0 -0.29963701942E+01  0.92548039620E+00  0.32562642345E+02  0.92376693460E+02  0.86390352874E+02 0.  0.
         11    1    3    3    0    0 -0.29211690425E+02 -0.20629940935E+02 -0.10757373143E+02  0.37344857713E+02  0.51100000000E-03 0.  1.
         22    1    1    0    0    0  0.29963701942E+01 -0.92548039620E+00 -0.32562642345E+02  0.32713306540E+02  0.00000000000E+00 0. -1.
</event>
<event>
 5    1  0.1059945E-009  0.9118800E+02  0.7815553E-02  0.1125453E+00
         25   -1    0    0    0    0  0.00000000000E+00  0.00000000000E+00  0.99999998245E-14  0.12509000000E+03  0.12509000000E+03 0.  0.
        -11    1    3    3    0    0 -0.15952954140E+02  0.32567178295E+02 -0.19570361492E+02  0.41208213952E+02  0.51100000000E-03 0. -1.
         23    2    1    0    0    0  0.13446722133E+02 -0.14615034539E+02 -0.20142387889E+02  0.96803442051E+02  0.92578491197E+02 0.  0.
         11    1    3    3    0    0  0.29399676273E+02 -0.47182212835E+02 -0.57202639779E+00  0.55595228099E+02  0.51100000000E-03 0.  1.
         22    1    1    0    0    0 -0.13446722133E+02  0.14615034539E+02  0.20142387889E+02  0.28286557949E+02  0.00000000000E+00 0.  1.
</event>
<event>
 5    1  0.1059945E-009  0.9118800E+02  0.7815553E-02  0.1125453E+00
         25   -1    0    0    0    0  0.00000000000E+00  0.00000000000E+00  0.99999998245E-14  0.12509000000E+03  0.12509000000E+03 0.  0.
        -11    1    3    3    0    0  0.23347443021E+02 -0.14282012566E+02 -0.38528029376E+02  0.47259792915E+02  0.51100000000E-03 0. -1.
         23    2    1    0    0    0 -0.10597172556E+02  0.15768719819E+02 -0.23171959113E+02  0.95125149257E+02  0.90282344570E+02 0.  0.
         11    1    3    3    0    0 -0.33944615576E+02  0.30050732385E+02  0.15356070262E+02  0.47865356342E+02  0.51100000000E-03 0.  1.
         22    1    1    0    0    0  0.10597172556E+02 -0.15768719819E+02  0.23171959113E+02  0.29964850743E+02  0.00000000000E+00 0.  1.
</event>
<event>
 5    1  0.1059945E-009  0.9118800E+02  0.7815553E-02  0.1125453E+00
         25   -1    0    0    0    0  0.00000000000E+00  0.00000000000E+00  0.99999998245E-14  0.12509000000E+03  0.12509000000E+03 0.  0.
        -11    1    3    3    0    0  0.21881890945E+02 -0.34260226104E+02  0.47066294602E+02  0.62191770612E+02  0.51100000000E-03 0.  1.
         23    2    1    0    0    0  0.65632037003E+01 -0.13300999169E+02  0.23767273420E+02  0.97074370300E+02  0.92943842515E+02 0.  0.
         11    1    3    3    0    0 -0.15318687245E+02  0.20959226935E+02 -0.23299021183E+02  0.34882599687E+02  0.51100000000E-03 0. -1.
         22    1    1    0    0    0 -0.65632037003E+01  0.13300999169E+02 -0.23767273420E+02  0.28015629700E+02  0.00000000000E+00 0.  1.
</event>
<event>
 5    1  0.1059945E-009  0.9118800E+02  0.7815553E-02  0.1125453E+00
         25   -1    0    0    0    0  0.00000000000E+00  0.00000000000E+00  0.99999998245E-14  0.12509000000E+03  0.12509000000E+03 0.  0.
        -11    1    3    3    0    0 -0.19633783972E+02  0.28384186386E+02 -0.15543921330E+02  0.37851829552E+02  0.51100000000E-03 0. -1.
         23    2    1    0    0    0  0.18927753326E+02  0.54515336197E+00  0.20241982710E+02  0.97371866906E+02  0.93343374498E+02 0.  0.
         11    1    3    3    0    0  0.38561537297E+02 -0.27839033024E+02  0.35785904041E+02  0.59520037355E+02  0.51100000000E-03 0.  1.
         22    1    1    0    0    0 -0.18927753326E+02 -0.54515336197E+00 -0.20241982710E+02  0.27718133094E+02  0.00000000000E+00 0.  1.
</event>
<event>
 5    1  0.1059945E-009  0.9118800E+02  0.7815553E-02  0.1125453E+00
         25   -1    0    0    0    0  0.00000000000E+00  0.00000000000E+00  0.99999998245E-14  0.12509000000E+03  0.12509000000E+03 0.  0.
        -11    1    3    3    0    0  0.48756484020E+02 -0.29006827502E+02 -0.15739432415E+02  0.58875466103E+02  0.51100000000E-03 0. -1.
         23    2    1    0    0    0  0.30058229302E+02 -0.89753223395E+01 -0.21735446474E+02  0.86926100916E+02  0.78100344604E+02 0.  0.
         11    1    3    3    0    0 -0.18698254718E+02  0.20031505163E+02 -0.59960140584E+01  0.28050634814E+02  0.51100000000E-03 0.  1.
         22    1    1    0    0    0 -0.30058229302E+02  0.89753223395E+01  0.21735446474E+02  0.38163899084E+02  0.00000000000E+00 0. -1.
</event>
<event>
 5    1  0.1059945E-009  0.9118800E+02  0.7815553E-02  0.1125453E+00
         25   -1    0    0    0    0  0.00000000000E+00  0.00000000000E+00  0.99999998245E-14  0.12509000000E+03  0.12509000000E+03 0.  0.
        -11    1    3    3    0    0  0.33250874506E+02  0.22972262998E+02  0.41984612037E+02  0.58275665340E+02  0.51100000000E-03 0. -1.
         23    2    1    0    0    0  0.17698461316E+02  0.21964906362E+02  0.78340921729E+01  0.95814316496E+02  0.91232217999E+02 0.  0.
         11    1    3    3    0    0 -0.15552413190E+02 -0.10073566359E+01 -0.34150519864E+02  0.37538651156E+02  0.51100000000E-03 0.  1.
         22    1    1    0    0    0 -0.17698461316E+02 -0.21964906362E+02 -0.78340921729E+01  0.29275683504E+02  0.00000000000E+00 0. -1.
</event>
<event>
 5    1  0.1059945E-009  0.9118800E+02  0.7815553E-02  0.1125453E+00
         25   -1    0    0    0    0  0.00000000000E+00  0.00000000000E+00  0.99999998245E-14  0.12509000000E+03  0.12509000000E+03 0.  0.
        -11    1    3    3    0    0  0.19149028835E+02 -0.26384520414E+02 -0.13214931584E+02  0.35177587180E+02  0.51100000000E-03 0. -1.
         23    2    1    0    0    0 -0.10911107832E+02  0.23649613954E+02 -0.17511338473E+02  0.93705234756E+02  0.88293077483E+02 0.  0.
         11    1    3    3    0    0 -0.30060136667E+02  0.50034134368E+02 -0.42964068884E+01  0.58527647576E+02  0.51100000000E-03 0.  1.
         22    1    1    0    0    0  0.10911107832E+02 -0.23649613954E+02  0.17511338473E+02  0.31384765244E+02  0.00000000000E+00 0.  1.
</event>
<event>
 5    1  0.1059945E-009  0.9118800E+02  0.7815553E-02  0.1125453E+00
         25   -1    0    0    0    0  0.00000000000E+00  0.00000000000E+00  0.99999998245E-14  0.12509000000E+03  0.12509000000E+03 0.  0.
        -11    1    3    3    0    0 -0.11905669675E+02 -0.41049500867E+01 -0.55966360466E+02  0.57365748402E+02  0.51100000000E-03 0. -1.
         23    2    1    0    0    0  0.11480853043E+02  0.34934717200E+01 -0.28126416241E+02  0.94510437841E+02  0.89426580160E+02 0.  0.
         11    1    3    3    0    0  0.23386522718E+02  0.75984218067E+01  0.27839944226E+02  0.37144689439E+02  0.51100000000E-03 0.  1.
         22    1    1    0    0    0 -0.11480853043E+02 -0.34934717200E+01  0.28126416241E+02  0.30579562159E+02  0.00000000000E+00 0. -1.
</event>
<event>
 5    1  0.1059945E-009  0.9118800E+02  0.7815553E-02  0.1125453E+00
         25   -1    0    0    0    0  0.00000000000E+00  0.00000000000E+00  0.99999998245E-14  0.12509000000E+03  0.12509000000E+03 0.  0.
        -11    1    3    3    0    0  0.27849798566E+02  0.22717053392E+02 -0.78432430044E+01  0.36785761595E+02  0.51100000000E-03 0.  1.
         23    2    1    0    0    0 -0.13409383133E+01 -0.27789565945E+02 -0.10918964076E+02  0.95202178610E+02  0.90389008981E+02 0.  0.
         11    1    3    3    0    0 -0.29190736880E+02 -0.50506619337E+02 -0.30757210712E+01  0.58416417015E+02  0.51100000000E-03 0. -1.
         22    1    1    0    0    0  0.13409383133E+01  0.27789565945E+02  0.10918964076E+02  0.29887821390E+02  0.00000000000E+00 0. -1.
</event>
<event>
 5    1  0.1059945E-009  0.9118800E+02  0.7815553E-02  0.1125453E+00
         25   -1    0    0    0    0  0.00000000000E+00  0.00000000000E+00  0.99999998245E-14  0.12509000000E+03  0.12509000000E+03 0.  0.
        -11    1    3    3    0    0 -0.33352391476E+02  0.31467693839E+02 -0.81079400126E+01  0.46565399861E+02  0.51100000000E-03 0.  1.
         23    2    1    0    0    0 -0.16831816097E+02 -0.79041558519E+01 -0.26219887948E+02  0.92945510007E+02  0.87210088829E+02 0.  0.
         11    1    3    3    0    0  0.16520575378E+02 -0.39371849691E+02 -0.18111947936E+02  0.46380110146E+02  0.51100000000E-03 0. -1.
         22    1    1    0    0    0  0.16831816097E+02  0.79041558519E+01  0.26219887948E+02  0.32144489993E+02  0.00000000000E+00 0. -1.
</event>
<event>
 5    1  0.1059945E-009  0.9118800E+02  0.7815553E-02  0.1125453E+00
         25   -1    0    0    0    0  0.00000000000E+00  0.00000000000E+00  0.99999998245E-14  0.12509000000E+03  0.12509000000E+03 0.  0.
        -11    1    3    3    0    0 -0.26734688871E+02 -0.14019017454E+02 -0.31840406154E+02  0.43875823682E+02  0.51100000000E-03 0.  1.
         23    2    1    0    0    0 -0.21037235212E+02  0.87631693443E+01  0.16051224031E+02  0.97215276768E+02  0.93133290728E+02 0.  0.
         11    1    3    3    0    0  0.56974536591E+01  0.22782186799E+02  0.47891630185E+02  0.53339453087E+02  0.51100000000E-03 0. -1.
         22    1    1    0    0    0  0.21037235212E+02 -0.87631693443E+01 -0.16051224031E+02  0.27874723232E+02  0.00000000000E+00 0. -1.
</event>
<event>
 5    1  0.1059945E-009  0.9118800E+02  0.7815553E-02  0.1125453E+00
         25   -1    0    0    0    0  0.00000000000E+00  0.00000000000E+00  0.99999998245E-14  0.12509000000E+03  0.12509000000E+03 0.  0.
        -11    1    3    3    0    0  0.62803814387E+01 -0.19906554268E+02 -0.28214763627E+02  0.35096822942E+02  0.51100000000E-03 0.  1.
         23    2    1    0    0    0  0.83152822694E+01  0.69845252896E+01  0.26694521963E+02  0.96271169080E+02  0.91856480340E+02 0.  0.
         11    1    3    3    0    0  0.20349008307E+01  0.26891079558E+02  0.54909285590E+02  0.61174346138E+02  0.51100000000E-03 0. -1.
         22    1    1    0    0    0 -0.83152822694E+01 -0.69845252896E+01 -0.26694521963E+02  0.28818830920E+02  0.00000000000E+00 0. -1.
</event>
<event>
 5    1  0.1059945E-009  0.9118800E+02  0.7815553E-02  0.1125453E+00
         25   -1    0    0    0    0  0.00000000000E+00  0.00000000000E+00  0.99999998245E-14  0.12509000000E+03  0.12509000000E+03 0.  0.
        -11    1    3    3    0    0 -0.29322076601E+02  0.45224388354E+02 -0.30422737768E+02  0.61891618590E+02  0.51100000000E-03 0.  1.
         23    2    1    0    0    0 -0.13919888050E+02  0.16673720982E+02 -0.58276926767E+01  0.10260137495E+03  0.10010646275E+03 0.  0.
         11    1    3    3    0    0  0.15402188551E+02 -0.28550667372E+02  0.24595045091E+02  0.40709756359E+02  0.51100000000E-03 0. -1.
         22    1    1    0    0    0  0.13919888050E+02 -0.16673720982E+02  0.58276926767E+01  0.22488625050E+02  0.00000000000E+00 0.  1.
</event>
<event>
 5    1  0.1059945E-009  0.9118800E+02  0.7815553E-02  0.1125453E+00
         25   -1    0    0    0    0  0.00000000000E+00  0.00000000000E+00  0.99999998245E-14  0.12509000000E+03  0.12509000000E+03 0.  0.
        -11    1    3    3    0    0 -0.36792923585E+02 -0.34640722770E+02 -0.27019072575E+02  0.57303832184E+02  0.51100000000E-03 0.  1.
         23    2    1    0    0    0 -0.23037743887E+02 -0.31989787415E+01  0.12950983149E+01  0.10179518538E+03  0.99093952284E+02 0.  0.
         11    1    3    3    0    0  0.13755179698E+02  0.31441744028E+02  0.28314170890E+02  0.44491353199E+02  0.51100000000E-03 0. -1.
         22    1    1    0    0    0  0.23037743887E+02  0.31989787415E+01 -0.12950983149E+01  0.23294814617E+02  0.00000000000E+00 0.  1.
</event>
<event>
 5    1  0.1059945E-009  0.9118800E+02  0.7815553E-02  0.1125453E+00
         25   -1    0    0    0    0  0.00000000000E+00  0.00000000000E+00  0.99999998245E-14  0.12509000000E+03  0.12509000000E+03 0.  0.
        -11    1    3    3    0    0 -0.33063599764E+02 -0.43921454690E+02  0.54514499287E+00  0.54978113780E+02  0.51100000000E-03 0.  1.
         23    2    1    0    0    0 -0.27364090682E+02 -0.28700739549E+01  0.64177147331E+01  0.96837250651E+02  0.92624161362E+02 0.  0.
         11    1    3    3    0    0  0.56995090823E+01  0.41051380735E+02  0.58725697403E+01  0.41859136872E+02  0.51100000000E-03 0. -1.
         22    1    1    0    0    0  0.27364090682E+02  0.28700739549E+01 -0.64177147331E+01  0.28252749349E+02  0.00000000000E+00 0.  1.
</event>
<event>
 5    1  0.1059945E-009  0.9118800E+02  0.7815553E-02  0.1125453E+00
         25   -1    0    0    0    0  0.00000000000E+00  0.00000000000E+00  0.99999998245E-14  0.12509000000E+03  0.12509000000E+03 0.  0.
        -11    1    3    3    0    0 -0.45326943062E+01  0.37452389113E+02  0.30247120432E+02  0.48354059423E+02  0.51100000000E-03 0.  1.
         23    2    1    0    0    0 -0.15887417594E+02  0.20639392283E+02 -0.12893687422E+02  0.96027279430E+02  0.91523749201E+02 0.  0.
         11    1    3    3    0    0 -0.11354723288E+02 -0.16812996830E+02 -0.43140807853E+02  0.47673220007E+02  0.51100000000E-03 0. -1.
         22    1    1    0    0    0  0.15887417594E+02 -0.20639392283E+02  0.12893687422E+02  0.29062720570E+02  0.00000000000E+00 0.  1.
</event>
<event>
 5    1  0.1059945E-009  0.9118800E+02  0.7815553E-02  0.1125453E+00
         25   -1    0    0    0    0  0.00000000000E+00  0.00000000000E+00  0.99999998245E-14  0.12509000000E+03  0.12509000000E+03 0.  0.
        -11    1    3    3    0    0 -0.32903367033E+01 -0.54367743940E+02 -0.69293109792E+01  0.54906222303E+02  0.51100000000E-03 0.  1.
         23    2    1    0    0    0 -0.11170008140E+02 -0.15754234138E+02 -0.20820234696E+02  0.96691986903E+02  0.92427772792E+02 0.  0.
         11    1    3    3    0    0 -0.78796714364E+01  0.38613509802E+02 -0.13890923716E+02  0.41785764599E+02  0.51100000000E-03 0. -1.
         22    1    1    0    0    0  0.11170008140E+02  0.15754234138E+02  0.20820234696E+02  0.28398013097E+02  0.00000000000E+00 0.  1.
</event>
<event>
 5    1  0.1059945E-009  0.9118800E+02  0.7815553E-02  0.1125453E+00
         25   -1    0    0    0    0  0.00000000000E+00  0.00000000000E+00  0.99999998245E-14  0.12509000000E+03  0.12509000000E+03 0.  0.
        -11    1    3    3    0    0 -0.30448202042E+02 -0.15452340312E+02 -0.11846325416E+02  0.36141434045E+02  0.51100000000E-03 0.  1.
         23    2    1    0    0    0  0.13819551354E+02  0.19869431407E+02 -0.20425443236E+02  0.93420250468E+02  0.87888396060E+02 0.  0.
         11    1    3    3    0    0  0.44267753395E+02  0.35321771719E+02 -0.85791178197E+01  0.57278816423E+02  0.51100000000E-03 0. -1.
         22    1    1    0    0    0 -0.13819551354E+02 -0.19869431407E+02  0.20425443236E+02  0.31669749532E+02  0.00000000000E+00 0. -1.
</event>
<event>
 5    1  0.1059945E-009  0.9118800E+02  0.7815553E-02  0.1125453E+00
         25   -1    0    0    0    0  0.00000000000E+00  0.00000000000E+00  0.99999998245E-14  0.12509000000E+03  0.12509000000E+03 0.  0.
        -11    1    3    3    0    0  0.46563794160E+01 -0.58199238510E+02 -0.19832866784E+02  0.61661785877E+02  0.51100000000E-03 0. -1.
         23    2    1    0    0    0  0.10107149048E+02 -0.36435581607E+02 -0.12325304421E+02  0.85320423713E+02  0.75484803137E+02 0.  0.
         11    1    3    3    0    0  0.54507696325E+01  0.21763656903E+02  0.75075623638E+01  0.23658637836E+02  0.51100000000E-03 0.  1.
         22    1    1    0    0    0 -0.10107149048E+02  0.36435581607E+02  0.12325304421E+02  0.39769576287E+02  0.00000000000E+00 0. -1.
</event>
<event>
 5    1  0.1059945E-009  0.9118800E+02  0.7815553E-02  0.1125453E+00
         25   -1    0    0    0    0  0.00000000000E+00  0.00000000000E+00  0.99999998245E-14  0.12509000000E+03  0.12509000000E+03 0.  0.
        -11    1    3    3    0    0  0.11541623338E+02  0.15423321257E+02  0.58336284020E+02  0.61434598895E+02  0.51100000000E-03 0.  1.
         23    2    1    0    0    0  0.11178184409E+02  0.12200488497E+02  0.23913805991E+02  0.96009528146E+02  0.91499484433E+02 0.  0.
         11    1    3    3    0    0 -0.36343892942E+00 -0.32228327599E+01 -0.34422478028E+02  0.34574929251E+02  0.51100000000E-03 0. -1.
         22    1    1    0    0    0 -0.11178184409E+02 -0.12200488497E+02 -0.23913805991E+02  0.29080471854E+02  0.00000000000E+00 0.  1.
</event>
<event>
 5    1  0.1059945E-009  0.9118800E+02  0.7815553E-02  0.1125453E+00
         25   -1    0    0    0    0  0.00000000000E+00  0.00000000000E+00  0.99999998245E-14  0.12509000000E+03  0.12509000000E+03 0.  0.
        -11    1    3    3    0    0 -0.20713218431E+02  0.16343298125E+00 -0.27964358873E+02  0.34800423784E+02  0.51100000000E-03 0.  1.
         23    2    1    0    0    0  0.27026422839E+02  0.60723354248E+01  0.95359268644E+01  0.95794357148E+02  0.91204847301E+02 0.  0.
         11    1    3    3    0    0  0.47739641269E+02  0.59089024436E+01  0.37500285737E+02  0.60993933364E+02  0.51100000000E-03 0. -1.
         22    1    1    0    0    0 -0.27026422839E+02 -0.60723354248E+01 -0.95359268644E+01  0.29295642852E+02  0.00000000000E+00 0. -1.
</event>
<event>
 5    1  0.1059945E-009  0.9118800E+02  0.7815553E-02  0.1125453E+00
         25   -1    0    0    0    0  0.00000000000E+00  0.00000000000E+00  0.99999998245E-14  0.12509000000E+03  0.12509000000E+03 0.  0.
        -11    1    3    3    0    0 -0.16365004488E+00  0.27313959523E+02  0.49074567761E+01  0.27751798111E+02  0.51100000000E-03 0. -1.
         23    2    1    0    0    0  0.25984406786E+01 -0.33900388280E+02 -0.75020041879E+01  0.90272356680E+02  0.83287634702E+02 0.  0.
         11    1    3    3    0    0  0.27620907235E+01 -0.61214347803E+02 -0.12409460964E+02  0.62520558569E+02  0.51100000000E-03 0.  1.
         22    1    1    0    0    0 -0.25984406786E+01  0.33900388280E+02  0.75020041879E+01  0.34817643320E+02  0.00000000000E+00 0.  1.
</event>
<event>
 5    1  0.1059945E-009  0.9118800E+02  0.7815553E-02  0.1125453E+00
         25   -1    0    0    0    0  0.00000000000E+00  0.00000000000E+00  0.99999998245E-14  0.12509000000E+03  0.12509000000E+03 0.  0.
        -11    1    3    3    0    0 -0.47995849175E+02  0.25172956915E+02 -0.13452161073E+02  0.55841202849E+02  0.51100000000E-03 0.  1.
         23    2    1    0    0    0 -0.83408253354E+01  0.26507170963E+02 -0.95332826269E+01  0.95711726440E+02  0.91091446474E+02 0.  0.
         11    1    3    3    0    0  0.39655023839E+02  0.13342140481E+01  0.39188784461E+01  0.39870523590E+02  0.51100000000E-03 0. -1.
         22    1    1    0    0    0  0.83408253354E+01 -0.26507170963E+02  0.95332826269E+01  0.29378273560E+02  0.00000000000E+00 0.  1.
</event>
<event>
 5    1  0.1059945E-009  0.9118800E+02  0.7815553E-02  0.1125453E+00
         25   -1    0    0    0    0  0.00000000000E+00  0.00000000000E+00  0.99999998245E-14  0.12509000000E+03  0.12509000000E+03 0.  0.
        -11    1    3    3    0    0  0.31263505639E+02  0.99795522702E+01 -0.87019617710E+01  0.33951765599E+02  0.51100000000E-03 0. -1.
         23    2    1    0    0    0 -0.25729216297E+02 -0.11352916360E+02  0.54840613223E+01  0.96437666592E+02  0.92082937225E+02 0.  0.
         11    1    3    3    0    0 -0.56992721936E+02 -0.21332468630E+02  0.14186023093E+02  0.62485900993E+02  0.51100000000E-03 0.  1.
         22    1    1    0    0    0  0.25729216297E+02  0.11352916360E+02 -0.54840613223E+01  0.28652333408E+02  0.00000000000E+00 0.  1.
</event>
<event>
 5    1  0.1059945E-009  0.9118800E+02  0.7815553E-02  0.1125453E+00
         25   -1    0    0    0    0  0.00000000000E+00  0.00000000000E+00  0.99999998245E-14  0.12509000000E+03  0.12509000000E+03 0.  0.
        -11    1    3    3    0    0  0.36427349713E+02 -0.51855087154E+01 -0.33235296939E+02  0.49582519810E+02  0.51100000000E-03 0.  1.
         23    2    1    0    0    0  0.27721858852E+02 -0.78502145900E+00  0.11277616768E+02  0.95151690815E+02  0.90319111533E+02 0.  0.
         11    1    3    3    0    0 -0.87054908618E+01  0.44004872564E+01  0.44512913707E+02  0.45569171006E+02  0.51100000000E-03 0. -1.
         22    1    1    0    0    0 -0.27721858852E+02  0.78502145900E+00 -0.11277616768E+02  0.29938309185E+02  0.00000000000E+00 0. -1.
</event>
<event>
 5    1  0.1059945E-009  0.9118800E+02  0.7815553E-02  0.1125453E+00
         25   -1    0    0    0    0  0.00000000000E+00  0.00000000000E+00  0.99999998245E-14  0.12509000000E+03  0.12509000000E+03 0.  0.
        -11    1    3    3    0    0  0.49764566089E+01  0.51257195909E+02 -0.12856376324E+02  0.53078730818E+02  0.51100000000E-03 0.  1.
         23    2    1    0    0    0  0.40854675572E+01  0.10785899437E+02 -0.26815717820E+02  0.95899087133E+02  0.91348374473E+02 0.  0.
         11    1    3    3    0    0 -0.89098905167E+00 -0.40471296472E+02 -0.13959341496E+02  0.42820356314E+02  0.51100000000E-03 0. -1.
         22    1    1    0    0    0 -0.40854675572E+01 -0.10785899437E+02  0.26815717820E+02  0.29190912867E+02  0.00000000000E+00 0.  1.
</event>
<event>
 5    1  0.1059945E-009  0.9118800E+02  0.7815553E-02  0.1125453E+00
         25   -1    0    0    0    0  0.00000000000E+00  0.00000000000E+00  0.99999998245E-14  0.12509000000E+03  0.12509000000E+03 0.  0.
        -11    1    3    3    0    0  0.28565389699E+02  0.12159694903E+02 -0.47253470055E+02  0.56539633013E+02  0.51100000000E-03 0. -1.
         23    2    1    0    0    0  0.20581146022E+02  0.19861459544E+02 -0.11010927038E+02  0.94441971335E+02  0.89330757797E+02 0.  0.
         11    1    3    3    0    0 -0.79842436764E+01  0.77017646408E+01  0.36242543017E+02  0.37902338322E+02  0.51100000000E-03 0.  1.
         22    1    1    0    0    0 -0.20581146022E+02 -0.19861459544E+02  0.11010927038E+02  0.30648028665E+02  0.00000000000E+00 0. -1.
</event>
<event>
 5    1  0.1059945E-009  0.9118800E+02  0.7815553E-02  0.1125453E+00
         25   -1    0    0    0    0  0.00000000000E+00  0.00000000000E+00  0.99999998245E-14  0.12509000000E+03  0.12509000000E+03 0.  0.
        -11    1    3    3    0    0 -0.36626877186E+01  0.26303376661E+02  0.27905425501E+02  0.38522664468E+02  0.51100000000E-03 0.  1.
         23    2    1    0    0    0 -0.26149873288E+01  0.15022670088E+02 -0.26727886614E+02  0.94318280871E+02  0.89157385608E+02 0.  0.
         11    1    3    3    0    0  0.10477003898E+01 -0.11280706573E+02 -0.54633312115E+02  0.55795616403E+02  0.51100000000E-03 0. -1.
         22    1    1    0    0    0  0.26149873288E+01 -0.15022670088E+02  0.26727886614E+02  0.30771719129E+02  0.00000000000E+00 0. -1.
</event>
<event>
 5    1  0.1059945E-009  0.9118800E+02  0.7815553E-02  0.1125453E+00
         25   -1    0    0    0    0  0.00000000000E+00  0.00000000000E+00  0.99999998245E-14  0.12509000000E+03  0.12509000000E+03 0.  0.
        -11    1    3    3    0    0 -0.18440606869E+02 -0.21796514095E+02 -0.20838038446E+02  0.35346398048E+02  0.51100000000E-03 0.  1.
         23    2    1    0    0    0  0.31647124427E+01  0.59948192987E+00  0.29981145340E+02  0.94936329256E+02  0.90020346330E+02 0.  0.
         11    1    3    3    0    0  0.21605319312E+02  0.22395996025E+02  0.50819183786E+02  0.59589931209E+02  0.51100000000E-03 0. -1.
         22    1    1    0    0    0 -0.31647124427E+01 -0.59948192987E+00 -0.29981145340E+02  0.30153670744E+02  0.00000000000E+00 0. -1.
</event>
<event>
 5    1  0.1059945E-009  0.9118800E+02  0.7815553E-02  0.1125453E+00
         25   -1    0    0    0    0  0.00000000000E+00  0.00000000000E+00  0.99999998245E-14  0.12509000000E+03  0.12509000000E+03 0.  0.
        -11    1    3    3    0    0  0.59903985074E+02  0.15072760481E+02  0.47300338811E+01  0.61951987515E+02  0.51100000000E-03 0.  1.
         23    2    1    0    0    0  0.30565152319E+02  0.14941962115E+01  0.32780971407E+01  0.94313270488E+02  0.89150355640E+02 0.  0.
         11    1    3    3    0    0 -0.29338832756E+02 -0.13578564270E+02 -0.14519367404E+01  0.32361282973E+02  0.51100000000E-03 0. -1.
         22    1    1    0    0    0 -0.30565152319E+02 -0.14941962115E+01 -0.32780971407E+01  0.30776729512E+02  0.00000000000E+00 0.  1.
</event>
<event>
 5    1  0.1059945E-009  0.9118800E+02  0.7815553E-02  0.1125453E+00
         25   -1    0    0    0    0  0.00000000000E+00  0.00000000000E+00  0.99999998245E-14  0.12509000000E+03  0.12509000000E+03 0.  0.
        -11    1    3    3    0    0  0.45166472304E+02 -0.76710185381E+01  0.17287187554E+01  0.45845863659E+02  0.51100000000E-03 0. -1.
         23    2    1    0    0    0  0.12337686098E+02  0.28055871446E+02 -0.79414158724E+00  0.94430889091E+02  0.89315237965E+02 0.  0.
         11    1    3    3    0    0 -0.32828786206E+02  0.35726889984E+02 -0.25228603426E+01  0.48585025432E+02  0.51100000000E-03 0.  1.
         22    1    1    0    0    0 -0.12337686098E+02 -0.28055871446E+02  0.79414158724E+00  0.30659110909E+02  0.00000000000E+00 0. -1.
</event>
<event>
 5    1  0.1059945E-009  0.9118800E+02  0.7815553E-02  0.1125453E+00
         25   -1    0    0    0    0  0.00000000000E+00  0.00000000000E+00  0.99999998245E-14  0.12509000000E+03  0.12509000000E+03 0.  0.
        -11    1    3    3    0    0 -0.39250416902E+02  0.40530667613E+00  0.43069443255E+02  0.58272947780E+02  0.51100000000E-03 0.  1.
         23    2    1    0    0    0 -0.17404024248E+02 -0.16044808202E+02  0.18306390387E+02  0.95165764684E+02  0.90338601432E+02 0.  0.
         11    1    3    3    0    0  0.21846392654E+02 -0.16450114878E+02 -0.24763052868E+02  0.36892816904E+02  0.51100000000E-03 0. -1.
         22    1    1    0    0    0  0.17404024248E+02  0.16044808202E+02 -0.18306390387E+02  0.29924235316E+02  0.00000000000E+00 0.  1.
</event>
<event>
 5    1  0.1059945E-009  0.9118800E+02  0.7815553E-02  0.1125453E+00
         25   -1    0    0    0    0  0.00000000000E+00  0.00000000000E+00  0.99999998245E-14  0.12509000000E+03  0.12509000000E+03 0.  0.
        -11    1    3    3    0    0 -0.75953732536E+01  0.36119504769E+02 -0.26313566794E+02  0.45328932453E+02  0.51100000000E-03 0.  1.
         23    2    1    0    0    0  0.19171945781E+02  0.12084044713E+02  0.13278430727E+02  0.98823969386E+02  0.95269473395E+02 0.  0.
         11    1    3    3    0    0  0.26767319035E+02 -0.24035460057E+02  0.39591997521E+02  0.53495036933E+02  0.51100000000E-03 0. -1.
         22    1    1    0    0    0 -0.19171945781E+02 -0.12084044713E+02 -0.13278430727E+02  0.26266030614E+02  0.00000000000E+00 0. -1.
</event>
<event>
 5    1  0.1059945E-009  0.9118800E+02  0.7815553E-02  0.1125453E+00
         25   -1    0    0    0    0  0.00000000000E+00  0.00000000000E+00  0.99999998245E-14  0.12509000000E+03  0.12509000000E+03 0.  0.
        -11    1    3    3    0    0  0.59554445529E+02 -0.95005710347E+01  0.58800789406E+01  0.60593466322E+02  0.51100000000E-03 0.  1.
         23    2    1    0    0    0  0.27240704894E+02 -0.11772303277E+02 -0.54633613494E+01  0.94915649223E+02  0.89991605290E+02 0.  0.
         11    1    3    3    0    0 -0.32313740636E+02 -0.22717322426E+01 -0.11343440290E+02  0.34322182901E+02  0.51100000000E-03 0. -1.
         22    1    1    0    0    0 -0.27240704894E+02  0.11772303277E+02  0.54633613494E+01  0.30174350777E+02  0.00000000000E+00 0.  1.
</event>
<event>
 5    1  0.1059945E-009  0.9118800E+02  0.7815553E-02  0.1125453E+00
         25   -1    0    0    0    0  0.00000000000E+00  0.00000000000E+00  0.99999998245E-14  0.12509000000E+03  0.12509000000E+03 0.  0.
        -11    1    3    3    0    0  0.33408590965E+02 -0.16063782498E+02  0.13723265970E+02  0.39528560404E+02  0.51100000000E-03 0. -1.
         23    2    1    0    0    0  0.20527366174E+01  0.28151927236E+02 -0.40520220783E+01  0.96573976124E+02  0.92267921006E+02 0.  0.
         11    1    3    3    0    0 -0.31355854348E+02  0.44215709735E+02 -0.17775288049E+02  0.57045415721E+02  0.51100000000E-03 0.  1.
         22    1    1    0    0    0 -0.20527366174E+01 -0.28151927236E+02  0.40520220783E+01  0.28516023876E+02  0.00000000000E+00 0.  1.
</event>
<event>
 5    1  0.1059945E-009  0.9118800E+02  0.7815553E-02  0.1125453E+00
         25   -1    0    0    0    0  0.00000000000E+00  0.00000000000E+00  0.99999998245E-14  0.12509000000E+03  0.12509000000E+03 0.  0.
        -11    1    3    3    0    0 -0.31092915946E+02 -0.99602142635E+01 -0.48543784049E+02  0.58501916723E+02  0.51100000000E-03 0. -1.
         23    2    1    0    0    0 -0.27085039074E+02  0.26086937290E+01 -0.16225216262E+02  0.93409370787E+02  0.87872909838E+02 0.  0.
         11    1    3    3    0    0  0.40078768722E+01  0.12568907993E+02  0.32318567787E+02  0.34907454064E+02  0.51100000000E-03 0.  1.
         22    1    1    0    0    0  0.27085039074E+02 -0.26086937290E+01  0.16225216262E+02  0.31680629213E+02  0.00000000000E+00 0. -1.
</event>
<event>
 4    1  0.1059945E-009  0.9118800E+02  0.7815553E-02  0.1125453E+00
         25   -1    0    0    0    0  0.00000000000E+00  0.00000000000E+00  0.99999998245E-14  0.12509000000E+03  0.12509000000E+03 0.  0.
        -11    1    1    0    0    0 -0.28762767926E+02  0.13142824386E+02  0.11831617328E+02  0.33764149930E+02  0.51100000000E-03 0. -1.
         11    1    1    0    0    0 -0.21950315352E+02  0.14542635351E+02 -0.19876262681E+02  0.32990459309E+02  0.51100000000E-03 0.  1.
         22    1    1    0    0    0  0.50713083278E+02 -0.27685459737E+02  0.80446453538E+01  0.58335390761E+02  0.00000000000E+00 0. -1.
</event>
<event>
 5    1  0.1059945E-009  0.9118800E+02  0.7815553E-02  0.1125453E+00
         25   -1    0    0    0    0  0.00000000000E+00  0.00000000000E+00  0.99999998245E-14  0.12509000000E+03  0.12509000000E+03 0.  0.
        -11    1    3    3    0    0 -0.39666745671E+02 -0.15181699684E+02  0.18808421831E+02  0.46450957465E+02  0.51100000000E-03 0.  1.
         23    2    1    0    0    0 -0.21101608580E+02  0.18959153912E+02 -0.10198313534E+02  0.94944801367E+02  0.90032118191E+02 0.  0.
         11    1    3    3    0    0  0.18565137091E+02  0.34140853596E+02 -0.29006735365E+02  0.48493843901E+02  0.51100000000E-03 0. -1.
         22    1    1    0    0    0  0.21101608580E+02 -0.18959153912E+02  0.10198313534E+02  0.30145198633E+02  0.00000000000E+00 0. -1.
</event>
<event>
 5    1  0.1059945E-009  0.9118800E+02  0.7815553E-02  0.1125453E+00
         25   -1    0    0    0    0  0.00000000000E+00  0.00000000000E+00  0.99999998245E-14  0.12509000000E+03  0.12509000000E+03 0.  0.
        -11    1    3    3    0    0  0.45159243787E+02 -0.72407378432E+00 -0.36387922153E+02  0.57999676388E+02  0.51100000000E-03 0.  1.
         23    2    1    0    0    0  0.23773149303E+02  0.14975068289E+02 -0.10419368827E+02  0.95123709859E+02  0.90280350202E+02 0.  0.
         11    1    3    3    0    0 -0.21386094483E+02  0.15699142073E+02  0.25968553326E+02  0.37124033471E+02  0.51100000000E-03 0. -1.
         22    1    1    0    0    0 -0.23773149303E+02 -0.14975068289E+02  0.10419368827E+02  0.29966290141E+02  0.00000000000E+00 0.  1.
</event>
<event>
 5    1  0.1059945E-009  0.9118800E+02  0.7815553E-02  0.1125453E+00
         25   -1    0    0    0    0  0.00000000000E+00  0.00000000000E+00  0.99999998245E-14  0.12509000000E+03  0.12509000000E+03 0.  0.
        -11    1    3    3    0    0  0.16215414750E+02  0.52888255629E+02 -0.23166115755E+01  0.55366722392E+02  0.51100000000E-03 0. -1.
         23    2    1    0    0    0 -0.11054867742E+02  0.20612604506E+02 -0.12125142931E+02  0.98744058066E+02  0.95164490998E+02 0.  0.
         11    1    3    3    0    0 -0.27270282492E+02 -0.32275651123E+02 -0.98085313551E+01  0.43377335674E+02  0.51100000000E-03 0.  1.
         22    1    1    0    0    0  0.11054867742E+02 -0.20612604506E+02  0.12125142931E+02  0.26345941934E+02  0.00000000000E+00 0. -1.
</event>
<event>
 5    1  0.1059945E-009  0.9118800E+02  0.7815553E-02  0.1125453E+00
         25   -1    0    0    0    0  0.00000000000E+00  0.00000000000E+00  0.99999998245E-14  0.12509000000E+03  0.12509000000E+03 0.  0.
        -11    1    3    3    0    0  0.38310290034E+02 -0.26528131487E+02 -0.40496664256E+02  0.61736536175E+02  0.51100000000E-03 0.  1.
         23    2    1    0    0    0  0.13509850207E+02 -0.17866758262E+02 -0.17189392895E+02  0.96855051239E+02  0.92648198143E+02 0.  0.
         11    1    3    3    0    0 -0.24800439827E+02  0.86613732248E+01  0.23307271362E+02  0.35118515065E+02  0.51100000000E-03 0. -1.
         22    1    1    0    0    0 -0.13509850207E+02  0.17866758262E+02  0.17189392895E+02  0.28234948761E+02  0.00000000000E+00 0.  1.
</event>
<event>
 5    1  0.1059945E-009  0.9118800E+02  0.7815553E-02  0.1125453E+00
         25   -1    0    0    0    0  0.00000000000E+00  0.00000000000E+00  0.99999998245E-14  0.12509000000E+03  0.12509000000E+03 0.  0.
        -11    1    3    3    0    0 -0.37937201733E+02  0.26403409888E+02 -0.24062766451E+02  0.52109385514E+02  0.51100000000E-03 0.  1.
         23    2    1    0    0    0  0.22670759842E-01  0.10684009241E+02 -0.29650322263E+02  0.93573493567E+02  0.88106234289E+02 0.  0.
         11    1    3    3    0    0  0.37959872493E+02 -0.15719400647E+02 -0.55875558122E+01  0.41464108053E+02  0.51100000000E-03 0. -1.
         22    1    1    0    0    0 -0.22670759842E-01 -0.10684009241E+02  0.29650322263E+02  0.31516506433E+02  0.00000000000E+00 0.  1.
</event>
<event>
 5    1  0.1059945E-009  0.9118800E+02  0.7815553E-02  0.1125453E+00
         25   -1    0    0    0    0  0.00000000000E+00  0.00000000000E+00  0.99999998245E-14  0.12509000000E+03  0.12509000000E+03 0.  0.
        -11    1    3    3    0    0 -0.56882303842E+01  0.31288850359E+02  0.29393474809E+02  0.43305016838E+02  0.51100000000E-03 0.  1.
         23    2    1    0    0    0  0.15543766611E+02 -0.15888823228E+02  0.18491382150E+02  0.96176428830E+02  0.91727372494E+02 0.  0.
         11    1    3    3    0    0  0.21231996995E+02 -0.47177673587E+02 -0.10902092660E+02  0.52871411992E+02  0.51100000000E-03 0. -1.
         22    1    1    0    0    0 -0.15543766611E+02  0.15888823228E+02 -0.18491382150E+02  0.28913571170E+02  0.00000000000E+00 0. -1.
</event>
<event>
 5    1  0.1059945E-009  0.9118800E+02  0.7815553E-02  0.1125453E+00
         25   -1    0    0    0    0  0.00000000000E+00  0.00000000000E+00  0.99999998245E-14  0.12509000000E+03  0.12509000000E+03 0.  0.
        -11    1    3    3    0    0  0.31728372713E+02  0.21279490518E+02 -0.20274738640E+02  0.43250102646E+02  0.51100000000E-03 0.  1.
         23    2    1    0    0    0  0.39162167137E+01 -0.22149048611E+02 -0.20255790547E+02  0.94820970309E+02  0.89859903472E+02 0.  0.
         11    1    3    3    0    0 -0.27812155999E+02 -0.43428539129E+02  0.18948093124E-01  0.51570867663E+02  0.51100000000E-03 0. -1.
         22    1    1    0    0    0 -0.39162167137E+01  0.22149048611E+02  0.20255790547E+02  0.30269029691E+02  0.00000000000E+00 0.  1.
</event>
<event>
 5    1  0.1059945E-009  0.9118800E+02  0.7815553E-02  0.1125453E+00
         25   -1    0    0    0    0  0.00000000000E+00  0.00000000000E+00  0.99999998245E-14  0.12509000000E+03  0.12509000000E+03 0.  0.
        -11    1    3    3    0    0  0.42537531141E+02 -0.46858849294E+00 -0.35604385655E+02  0.55473718182E+02  0.51100000000E-03 0.  1.
         23    2    1    0    0    0  0.24199486804E+02  0.17472241020E+02 -0.60041786832E+01  0.94644236264E+02  0.89613542104E+02 0.  0.
         11    1    3    3    0    0 -0.18338044337E+02  0.17940829513E+02  0.29600206972E+02  0.39170518082E+02  0.51100000000E-03 0. -1.
         22    1    1    0    0    0 -0.24199486804E+02 -0.17472241020E+02  0.60041786832E+01  0.30445763736E+02  0.00000000000E+00 0.  1.
</event>
<event>
 5    1  0.1059945E-009  0.9118800E+02  0.7815553E-02  0.1125453E+00
         25   -1    0    0    0    0  0.00000000000E+00  0.00000000000E+00  0.99999998245E-14  0.12509000000E+03  0.12509000000E+03 0.  0.
        -11    1    3    3    0    0 -0.28167215651E+02  0.15904895047E+01  0.26964479035E+02  0.39025694411E+02  0.51100000000E-03 0.  1.
         23    2    1    0    0    0  0.23599880566E+02  0.15021995187E+02  0.59397760173E+01  0.96491125175E+02  0.92155529385E+02 0.  0.
         11    1    3    3    0    0  0.51767096216E+02  0.13431505683E+02 -0.21024703018E+02  0.57465430764E+02  0.51100000000E-03 0. -1.
         22    1    1    0    0    0 -0.23599880566E+02 -0.15021995187E+02 -0.59397760173E+01  0.28598874825E+02  0.00000000000E+00 0. -1.
</event>
<event>
 5    1  0.1059945E-009  0.9118800E+02  0.7815553E-02  0.1125453E+00
         25   -1    0    0    0    0  0.00000000000E+00  0.00000000000E+00  0.99999998245E-14  0.12509000000E+03  0.12509000000E+03 0.  0.
        -11    1    3    3    0    0  0.21512444281E+02  0.55236476302E+02 -0.86352478018E+01  0.59903431272E+02  0.51100000000E-03 0. -1.
         23    2    1    0    0    0  0.20366869190E+02  0.19379323460E+02 -0.82870514792E+01  0.95780568743E+02  0.91185934157E+02 0.  0.
         11    1    3    3    0    0 -0.11455750915E+01 -0.35857152842E+02  0.34819632264E+00  0.35877137472E+02  0.51100000000E-03 0.  1.
         22    1    1    0    0    0 -0.20366869190E+02 -0.19379323460E+02  0.82870514792E+01  0.29309431257E+02  0.00000000000E+00 0. -1.
</event>
<event>
 5    1  0.1059945E-009  0.9118800E+02  0.7815553E-02  0.1125453E+00
         25   -1    0    0    0    0  0.00000000000E+00  0.00000000000E+00  0.99999998245E-14  0.12509000000E+03  0.12509000000E+03 0.  0.
        -11    1    3    3    0    0  0.21286070107E+02 -0.51253586801E+01  0.41066059069E+02  0.46538019832E+02  0.51100000000E-03 0. -1.
         23    2    1    0    0    0  0.20228256177E+01 -0.29899795408E+02  0.43995190336E+01  0.94800639547E+02  0.89831597459E+02 0.  0.
         11    1    3    3    0    0 -0.19263244489E+02 -0.24774436728E+02 -0.36666540035E+02  0.48262619716E+02  0.51100000000E-03 0.  1.
         22    1    1    0    0    0 -0.20228256177E+01  0.29899795408E+02 -0.43995190336E+01  0.30289360453E+02  0.00000000000E+00 0.  1.
</event>
<event>
 5    1  0.1059945E-009  0.9118800E+02  0.7815553E-02  0.1125453E+00
         25   -1    0    0    0    0  0.00000000000E+00  0.00000000000E+00  0.99999998245E-14  0.12509000000E+03  0.12509000000E+03 0.  0.
        -11    1    3    3    0    0  0.42091187478E+02  0.24754436003E+02  0.18805447297E+02  0.52326809701E+02  0.51100000000E-03 0.  1.
         23    2    1    0    0    0  0.26315840189E+02 -0.12322893690E+02  0.20688032049E+01  0.95958280167E+02  0.91429395886E+02 0.  0.
         11    1    3    3    0    0 -0.15775347290E+02 -0.37077329693E+02 -0.16736644092E+02  0.43631470466E+02  0.51100000000E-03 0. -1.
         22    1    1    0    0    0 -0.26315840189E+02  0.12322893690E+02 -0.20688032049E+01  0.29131719833E+02  0.00000000000E+00 0.  1.
</event>
<event>
 5    1  0.1059945E-009  0.9118800E+02  0.7815553E-02  0.1125453E+00
         25   -1    0    0    0    0  0.00000000000E+00  0.00000000000E+00  0.99999998245E-14  0.12509000000E+03  0.12509000000E+03 0.  0.
        -11    1    3    3    0    0 -0.18176086034E+02  0.90285272549E+01 -0.32412537177E+02  0.38242083814E+02  0.51100000000E-03 0.  1.
         23    2    1    0    0    0  0.28163913874E+02 -0.79773257472E+01 -0.30923509144E+01  0.95655217769E+02  0.91013813685E+02 0.  0.
         11    1    3    3    0    0  0.46339999909E+02 -0.17005853002E+02  0.29320186262E+02  0.57413133955E+02  0.51100000000E-03 0. -1.
         22    1    1    0    0    0 -0.28163913874E+02  0.79773257472E+01  0.30923509144E+01  0.29434782231E+02  0.00000000000E+00 0. -1.
</event>
<event>
 5    1  0.1059945E-009  0.9118800E+02  0.7815553E-02  0.1125453E+00
         25   -1    0    0    0    0  0.00000000000E+00  0.00000000000E+00  0.99999998245E-14  0.12509000000E+03  0.12509000000E+03 0.  0.
        -11    1    3    3    0    0  0.57832945763E+01  0.19763778957E+01 -0.46190708030E+02  0.46593283576E+02  0.51100000000E-03 0. -1.
         23    2    1    0    0    0  0.72639656771E+01  0.28274389022E+02 -0.50196096033E+01  0.95469014998E+02  0.90757534520E+02 0.  0.
         11    1    3    3    0    0  0.14806711008E+01  0.26298011126E+02  0.41171098427E+02  0.48875731422E+02  0.51100000000E-03 0.  1.
         22    1    1    0    0    0 -0.72639656771E+01 -0.28274389022E+02  0.50196096033E+01  0.29620985002E+02  0.00000000000E+00 0. -1.
</event>
<event>
 5    1  0.1059945E-009  0.9118800E+02  0.7815553E-02  0.1125453E+00
         25   -1    0    0    0    0  0.00000000000E+00  0.00000000000E+00  0.99999998245E-14  0.12509000000E+03  0.12509000000E+03 0.  0.
        -11    1    3    3    0    0 -0.14662895037E+02 -0.58897402872E+01  0.59604114136E+02  0.61663116639E+02  0.51100000000E-03 0.  1.
         23    2    1    0    0    0 -0.64271737563E+01 -0.10378335156E+02  0.30653274617E+02  0.92095430025E+02  0.85982129444E+02 0.  0.
         11    1    3    3    0    0  0.82357212804E+01 -0.44885948684E+01 -0.28950839519E+02  0.30432313386E+02  0.51100000000E-03 0. -1.
         22    1    1    0    0    0  0.64271737563E+01  0.10378335156E+02 -0.30653274617E+02  0.32994569975E+02  0.00000000000E+00 0.  1.
</event>
<event>
 5    1  0.1059945E-009  0.9118800E+02  0.7815553E-02  0.1125453E+00
         25   -1    0    0    0    0  0.00000000000E+00  0.00000000000E+00  0.99999998245E-14  0.12509000000E+03  0.12509000000E+03 0.  0.
        -11    1    3    3    0    0  0.24896198485E+02 -0.45636725648E+02  0.32934382116E+02  0.61540270982E+02  0.51100000000E-03 0.  1.
         23    2    1    0    0    0  0.51176754842E+01 -0.25006822183E+02  0.12535790959E+02  0.96652739002E+02  0.92374640154E+02 0.  0.
         11    1    3    3    0    0 -0.19778523001E+02  0.20629903464E+02 -0.20398591157E+02  0.35112468021E+02  0.51100000000E-03 0. -1.
         22    1    1    0    0    0 -0.51176754842E+01  0.25006822183E+02 -0.12535790959E+02  0.28437260998E+02  0.00000000000E+00 0.  1.
</event>
<event>
 5    1  0.1059945E-009  0.9118800E+02  0.7815553E-02  0.1125453E+00
         25   -1    0    0    0    0  0.00000000000E+00  0.00000000000E+00  0.99999998245E-14  0.12509000000E+03  0.12509000000E+03 0.  0.
        -11    1    3    3    0    0  0.36411438725E+02 -0.22039306072E+02  0.65336021523E+01  0.43060560139E+02  0.51100000000E-03 0.  1.
         23    2    1    0    0    0 -0.14166420766E+02 -0.17500135235E+02  0.19314444078E+02  0.95425375266E+02  0.90697366467E+02 0.  0.
         11    1    3    3    0    0 -0.50577859492E+02  0.45391708364E+01  0.12780841926E+02  0.52364815126E+02  0.51100000000E-03 0. -1.
         22    1    1    0    0    0  0.14166420766E+02  0.17500135235E+02 -0.19314444078E+02  0.29664624734E+02  0.00000000000E+00 0. -1.
</event>
<event>
 5    1  0.1059945E-009  0.9118800E+02  0.7815553E-02  0.1125453E+00
         25   -1    0    0    0    0  0.00000000000E+00  0.00000000000E+00  0.99999998245E-14  0.12509000000E+03  0.12509000000E+03 0.  0.
        -11    1    3    3    0    0 -0.30958569002E+02 -0.41356331900E+02  0.34715097366E+02  0.62240799869E+02  0.51100000000E-03 0. -1.
         23    2    1    0    0    0 -0.16572308678E+02 -0.16198586721E+02  0.18409654508E+02  0.95493530518E+02  0.90791317674E+02 0.  0.
         11    1    3    3    0    0  0.14386260324E+02  0.25157745179E+02 -0.16305442857E+02  0.33252730649E+02  0.51100000000E-03 0.  1.
         22    1    1    0    0    0  0.16572308678E+02  0.16198586721E+02 -0.18409654508E+02  0.29596469482E+02  0.00000000000E+00 0. -1.
</event>
<event>
 5    1  0.1059945E-009  0.9118800E+02  0.7815553E-02  0.1125453E+00
         25   -1    0    0    0    0  0.00000000000E+00  0.00000000000E+00  0.99999998245E-14  0.12509000000E+03  0.12509000000E+03 0.  0.
        -11    1    3    3    0    0  0.10358316412E+02 -0.42355956973E+02  0.29039829158E+02  0.52389249735E+02  0.51100000000E-03 0. -1.
         23    2    1    0    0    0  0.36893300551E+01 -0.27072957483E+02 -0.10902129061E+02  0.95672104066E+02  0.91037019367E+02 0.  0.
         11    1    3    3    0    0 -0.66689863568E+01  0.15282999490E+02 -0.39941958219E+02  0.43282854331E+02  0.51100000000E-03 0.  1.
         22    1    1    0    0    0 -0.36893300551E+01  0.27072957483E+02  0.10902129061E+02  0.29417895934E+02  0.00000000000E+00 0.  1.
</event>
<event>
 5    1  0.1059945E-009  0.9118800E+02  0.7815553E-02  0.1125453E+00
         25   -1    0    0    0    0  0.00000000000E+00  0.00000000000E+00  0.99999998245E-14  0.12509000000E+03  0.12509000000E+03 0.  0.
        -11    1    3    3    0    0  0.68949549190E+00  0.37099461158E+02  0.11366054388E+02  0.38807636038E+02  0.51100000000E-03 0.  1.
         23    2    1    0    0    0 -0.22449540657E+02 -0.15770169398E+02  0.74992783970E+01  0.96648493447E+02  0.92368890816E+02 0.  0.
         11    1    3    3    0    0 -0.23139036149E+02 -0.52869630556E+02 -0.38667759911E+01  0.57840857409E+02  0.51100000000E-03 0. -1.
         22    1    1    0    0    0  0.22449540657E+02  0.15770169398E+02 -0.74992783970E+01  0.28441506553E+02  0.00000000000E+00 0. -1.
</event>
<event>
 5    1  0.1059945E-009  0.9118800E+02  0.7815553E-02  0.1125453E+00
         25   -1    0    0    0    0  0.00000000000E+00  0.00000000000E+00  0.99999998245E-14  0.12509000000E+03  0.12509000000E+03 0.  0.
        -11    1    3    3    0    0  0.22098216671E+02 -0.26239743369E+02 -0.49278476952E+01  0.34657452233E+02  0.51100000000E-03 0.  1.
         23    2    1    0    0    0 -0.18587674977E+02  0.20931897936E+02 -0.21750634758E+01  0.97011949616E+02  0.92859794609E+02 0.  0.
         11    1    3    3    0    0 -0.40685891648E+02  0.47171641306E+02  0.27527842194E+01  0.62354497383E+02  0.51100000000E-03 0. -1.
         22    1    1    0    0    0  0.18587674977E+02 -0.20931897936E+02  0.21750634758E+01  0.28078050384E+02  0.00000000000E+00 0. -1.
</event>
<event>
 5    1  0.1059945E-009  0.9118800E+02  0.7815553E-02  0.1125453E+00
         25   -1    0    0    0    0  0.00000000000E+00  0.00000000000E+00  0.99999998245E-14  0.12509000000E+03  0.12509000000E+03 0.  0.
        -11    1    3    3    0    0 -0.43053176965E+02  0.14361106512E+02 -0.15392239185E+02  0.47924299207E+02  0.51100000000E-03 0.  1.
         23    2    1    0    0    0  0.51106666170E+01  0.23684315185E+02 -0.14219522910E+02  0.96996219001E+02  0.92838601722E+02 0.  0.
         11    1    3    3    0    0  0.48163843582E+02  0.93232086725E+01  0.11727162749E+01  0.49071919794E+02  0.51100000000E-03 0. -1.
         22    1    1    0    0    0 -0.51106666170E+01 -0.23684315185E+02  0.14219522910E+02  0.28093780999E+02  0.00000000000E+00 0.  1.
</event>
<event>
 5    1  0.1059945E-009  0.9118800E+02  0.7815553E-02  0.1125453E+00
         25   -1    0    0    0    0  0.00000000000E+00  0.00000000000E+00  0.99999998245E-14  0.12509000000E+03  0.12509000000E+03 0.  0.
        -11    1    3    3    0    0 -0.27121819512E+02 -0.92359022085E+01 -0.24750573209E+02  0.37861403271E+02  0.51100000000E-03 0. -1.
         23    2    1    0    0    0  0.27158533150E+02 -0.97078869750E+01 -0.40104511778E+01  0.95971059240E+02  0.91446878025E+02 0.  0.
         11    1    3    3    0    0  0.54280352661E+02 -0.47198476647E+00  0.20740122031E+02  0.58109655969E+02  0.51100000000E-03 0.  1.
         22    1    1    0    0    0 -0.27158533150E+02  0.97078869750E+01  0.40104511778E+01  0.29118940760E+02  0.00000000000E+00 0.  1.
</event>
<event>
 5    1  0.1059945E-009  0.9118800E+02  0.7815553E-02  0.1125453E+00
         25   -1    0    0    0    0  0.00000000000E+00  0.00000000000E+00  0.99999998245E-14  0.12509000000E+03  0.12509000000E+03 0.  0.
        -11    1    3    3    0    0  0.11185201730E+02 -0.17608351341E+02  0.84290260228E+01  0.22499138975E+02  0.51100000000E-03 0. -1.
         23    2    1    0    0    0 -0.45264854184E+01  0.22547999795E+02 -0.34683073845E+02  0.83474894853E+02  0.72361875974E+02 0.  0.
         11    1    3    3    0    0 -0.15711687148E+02  0.40156351136E+02 -0.43112099868E+02  0.60975755878E+02  0.51100000000E-03 0.  1.
         22    1    1    0    0    0  0.45264854184E+01 -0.22547999795E+02  0.34683073845E+02  0.41615105147E+02  0.00000000000E+00 0.  1.
</event>
<event>
 5    1  0.1059945E-009  0.9118800E+02  0.7815553E-02  0.1125453E+00
         25   -1    0    0    0    0  0.00000000000E+00  0.00000000000E+00  0.99999998245E-14  0.12509000000E+03  0.12509000000E+03 0.  0.
        -11    1    3    3    0    0  0.22637816254E+02 -0.11172634429E+02  0.28449330877E+02  0.38035022182E+02  0.51100000000E-03 0.  1.
         23    2    1    0    0    0 -0.28813296357E+02 -0.66767634514E+01  0.37759316046E+01  0.95273177959E+02  0.90487212145E+02 0.  0.
         11    1    3    3    0    0 -0.51451112611E+02  0.44958709777E+01 -0.24673399272E+02  0.57238155776E+02  0.51100000000E-03 0. -1.
         22    1    1    0    0    0  0.28813296357E+02  0.66767634514E+01 -0.37759316046E+01  0.29816822041E+02  0.00000000000E+00 0. -1.
</event>
<event>
 5    1  0.1059945E-009  0.9118800E+02  0.7815553E-02  0.1125453E+00
         25   -1    0    0    0    0  0.00000000000E+00  0.00000000000E+00  0.99999998245E-14  0.12509000000E+03  0.12509000000E+03 0.  0.
        -11    1    3    3    0    0 -0.24900311442E+02 -0.11632055829E+02 -0.26804415569E+02  0.38390193109E+02  0.51100000000E-03 0. -1.
         23    2    1    0    0    0  0.15749511491E+02  0.23401855354E+02 -0.44090081235E+01  0.96539460621E+02  0.92221115576E+02 0.  0.
         11    1    3    3    0    0  0.40649822933E+02  0.35033911183E+02  0.22395407445E+02  0.58149267512E+02  0.51100000000E-03 0.  1.
         22    1    1    0    0    0 -0.15749511491E+02 -0.23401855354E+02  0.44090081235E+01  0.28550539379E+02  0.00000000000E+00 0.  1.
</event>
<event>
 5    1  0.1059945E-009  0.9118800E+02  0.7815553E-02  0.1125453E+00
         25   -1    0    0    0    0  0.00000000000E+00  0.00000000000E+00  0.99999998245E-14  0.12509000000E+03  0.12509000000E+03 0.  0.
        -11    1    3    3    0    0 -0.33821658684E+02 -0.24892748732E+02  0.15526604766E+02  0.44773083336E+02  0.51100000000E-03 0. -1.
         23    2    1    0    0    0 -0.21176644319E+02  0.64398763118E+01 -0.21033917839E+02  0.94555626399E+02  0.89489767642E+02 0.  0.
         11    1    3    3    0    0  0.12645014366E+02  0.31332625044E+02 -0.36560522605E+02  0.49782543063E+02  0.51100000000E-03 0.  1.
         22    1    1    0    0    0  0.21176644319E+02 -0.64398763118E+01  0.21033917839E+02  0.30534373601E+02  0.00000000000E+00 0.  1.
</event>
<event>
 5    1  0.1059945E-009  0.9118800E+02  0.7815553E-02  0.1125453E+00
         25   -1    0    0    0    0  0.00000000000E+00  0.00000000000E+00  0.99999998245E-14  0.12509000000E+03  0.12509000000E+03 0.  0.
        -11    1    3    3    0    0 -0.18114992444E+02 -0.26781491929E+02  0.16255165692E+02  0.36188833542E+02  0.51100000000E-03 0.  1.
         23    2    1    0    0    0  0.23490027035E+02  0.15110731595E+02  0.93645307504E+01  0.95631384696E+02  0.90981051452E+02 0.  0.
         11    1    3    3    0    0  0.41605019479E+02  0.41892223524E+02 -0.68906349418E+01  0.59442551155E+02  0.51100000000E-03 0. -1.
         22    1    1    0    0    0 -0.23490027035E+02 -0.15110731595E+02 -0.93645307504E+01  0.29458615304E+02  0.00000000000E+00 0. -1.
</event>
<event>
 5    1  0.1059945E-009  0.9118800E+02  0.7815553E-02  0.1125453E+00
         25   -1    0    0    0    0  0.00000000000E+00  0.00000000000E+00  0.99999998245E-14  0.12509000000E+03  0.12509000000E+03 0.  0.
        -11    1    3    3    0    0 -0.38367856030E+02 -0.21946024670E+01  0.32156139552E+01  0.38564865224E+02  0.51100000000E-03 0. -1.
         23    2    1    0    0    0  0.17355812958E+02 -0.20286782983E+02 -0.55987666884E+01  0.97811363750E+02  0.93930500281E+02 0.  0.
         11    1    3    3    0    0  0.55723668988E+02 -0.18092180516E+02 -0.88143806436E+01  0.59246498527E+02  0.51100000000E-03 0.  1.
         22    1    1    0    0    0 -0.17355812958E+02  0.20286782983E+02  0.55987666884E+01  0.27278636250E+02  0.00000000000E+00 0.  1.
</event>
<event>
 5    1  0.1059945E-009  0.9118800E+02  0.7815553E-02  0.1125453E+00
         25   -1    0    0    0    0  0.00000000000E+00  0.00000000000E+00  0.99999998245E-14  0.12509000000E+03  0.12509000000E+03 0.  0.
        -11    1    3    3    0    0 -0.37651731795E+02 -0.30617312913E+01  0.23710864715E+02  0.44600809538E+02  0.51100000000E-03 0.  1.
         23    2    1    0    0    0  0.11141832869E+02  0.14431609974E+02  0.22072356048E+02  0.96461330670E+02  0.92115078066E+02 0.  0.
         11    1    3    3    0    0  0.48793564664E+02  0.17493341265E+02 -0.16385086668E+01  0.51860521132E+02  0.51100000000E-03 0. -1.
         22    1    1    0    0    0 -0.11141832869E+02 -0.14431609974E+02 -0.22072356048E+02  0.28628669330E+02  0.00000000000E+00 0. -1.
</event>
<event>
 5    1  0.1059945E-009  0.9118800E+02  0.7815553E-02  0.1125453E+00
         25   -1    0    0    0    0  0.00000000000E+00  0.00000000000E+00  0.99999998245E-14  0.12509000000E+03  0.12509000000E+03 0.  0.
        -11    1    3    3    0    0 -0.46499247666E+02  0.63794941065E+01  0.84894110768E+00  0.46942503979E+02  0.51100000000E-03 0.  1.
         23    2    1    0    0    0 -0.19614052288E+01  0.25128748470E+02  0.12942314402E+02  0.96756193121E+02  0.92514627466E+02 0.  0.
         11    1    3    3    0    0  0.44537842437E+02  0.18749254364E+02  0.12093373294E+02  0.49813689143E+02  0.51100000000E-03 0. -1.
         22    1    1    0    0    0  0.19614052288E+01 -0.25128748470E+02 -0.12942314402E+02  0.28333806879E+02  0.00000000000E+00 0. -1.
</event>
<event>
 5    1  0.1059945E-009  0.9118800E+02  0.7815553E-02  0.1125453E+00
         25   -1    0    0    0    0  0.00000000000E+00  0.00000000000E+00  0.99999998245E-14  0.12509000000E+03  0.12509000000E+03 0.  0.
        -11    1    3    3    0    0  0.61382773840E+01 -0.30091488843E+02 -0.10625939189E+02  0.32497488118E+02  0.51100000000E-03 0.  1.
         23    2    1    0    0    0 -0.73297876659E+01  0.25329254069E+02  0.14699322150E+02  0.94901144928E+02  0.89971441791E+02 0.  0.
         11    1    3    3    0    0 -0.13468065050E+02  0.55420742912E+02  0.25325261340E+02  0.62403656810E+02  0.51100000000E-03 0. -1.
         22    1    1    0    0    0  0.73297876659E+01 -0.25329254069E+02 -0.14699322150E+02  0.30188855072E+02  0.00000000000E+00 0. -1.
</event>
<event>
 5    1  0.1059945E-009  0.9118800E+02  0.7815553E-02  0.1125453E+00
         25   -1    0    0    0    0  0.00000000000E+00  0.00000000000E+00  0.99999998245E-14  0.12509000000E+03  0.12509000000E+03 0.  0.
        -11    1    3    3    0    0 -0.12090874860E+02 -0.13030786978E+02  0.54397989730E+02  0.57228768561E+02  0.51100000000E-03 0. -1.
         23    2    1    0    0    0  0.12471024730E+02 -0.52580534825E+01  0.27303784745E+02  0.94615908617E+02  0.89573991302E+02 0.  0.
         11    1    3    3    0    0  0.24561899590E+02  0.77727334956E+01 -0.27094204985E+02  0.37387140055E+02  0.51100000000E-03 0.  1.
         22    1    1    0    0    0 -0.12471024730E+02  0.52580534825E+01 -0.27303784745E+02  0.30474091383E+02  0.00000000000E+00 0. -1.
</event>
<event>
 5    1  0.1059945E-009  0.9118800E+02  0.7815553E-02  0.1125453E+00
         25   -1    0    0    0    0  0.00000000000E+00  0.00000000000E+00  0.99999998245E-14  0.12509000000E+03  0.12509000000E+03 0.  0.
        -11    1    3    3    0    0 -0.23498328370E+02  0.14418011077E+02 -0.46007978876E+02  0.53635665374E+02  0.51100000000E-03 0.  1.
         23    2    1    0    0    0 -0.76991939200E+01  0.25738114929E+02 -0.68290443864E+01  0.97370620600E+02  0.93341704300E+02 0.  0.
         11    1    3    3    0    0  0.15799134450E+02  0.11320103852E+02  0.39178934490E+02  0.43734955226E+02  0.51100000000E-03 0. -1.
         22    1    1    0    0    0  0.76991939200E+01 -0.25738114929E+02  0.68290443864E+01  0.27719379400E+02  0.00000000000E+00 0.  1.
</event>
<event>
 5    1  0.1059945E-009  0.9118800E+02  0.7815553E-02  0.1125453E+00
         25   -1    0    0    0    0  0.00000000000E+00  0.00000000000E+00  0.99999998245E-14  0.12509000000E+03  0.12509000000E+03 0.  0.
        -11    1    3    3    0    0 -0.43792007519E+01 -0.36677296522E+02  0.36912611282E+01  0.37121784553E+02  0.51100000000E-03 0.  1.
         23    2    1    0    0    0 -0.13433129041E+02  0.13259625638E+02 -0.23699489175E+02  0.94792600524E+02  0.89820402465E+02 0.  0.
         11    1    3    3    0    0 -0.90539282894E+01  0.49936922160E+02 -0.27390750303E+02  0.57670815971E+02  0.51100000000E-03 0. -1.
         22    1    1    0    0    0  0.13433129041E+02 -0.13259625638E+02  0.23699489175E+02  0.30297399476E+02  0.00000000000E+00 0. -1.
</event>
<event>
 5    1  0.1059945E-009  0.9118800E+02  0.7815553E-02  0.1125453E+00
         25   -1    0    0    0    0  0.00000000000E+00  0.00000000000E+00  0.99999998245E-14  0.12509000000E+03  0.12509000000E+03 0.  0.
        -11    1    3    3    0    0 -0.34136948620E+02 -0.18161855114E+02  0.46571308492E+02  0.60531570418E+02  0.51100000000E-03 0. -1.
         23    2    1    0    0    0 -0.17969067715E+02 -0.18137414563E+02  0.16449104295E+02  0.94718529280E+02  0.89717186510E+02 0.  0.
         11    1    3    3    0    0  0.16167880905E+02  0.24440551513E-01 -0.30122204197E+02  0.34186958863E+02  0.51100000000E-03 0.  1.
         22    1    1    0    0    0  0.17969067715E+02  0.18137414563E+02 -0.16449104295E+02  0.30371470720E+02  0.00000000000E+00 0. -1.
</event>
