<event>
 5    1  0.1259474E-009  0.9118800E+02  0.7815553E-02  0.1125453E+00
         25   -1    0    0    0    0  0.00000000000E+00  0.00000000000E+00  0.99999998245E-14  0.12509000000E+03  0.12509000000E+03 0.  0.
        -13    1    3    3    0    0  0.47243663448E+01  0.59758264719E+02 -0.12013542839E+02  0.61136782833E+02  0.10566000000E+00 0. -1.
         23    2    1    0    0    0 -0.52507603087E+01  0.23756904902E+02 -0.10681169931E+02  0.98518428623E+02  0.94867446329E+02 0.  0.
         13    1    3    3    0    0 -0.99751266535E+01 -0.36001359817E+02  0.13323729086E+01  0.37381645790E+02  0.10566000000E+00 0.  1.
         22    1    1    0    0    0  0.52507603087E+01 -0.23756904902E+02  0.10681169931E+02  0.26571571377E+02  0.00000000000E+00 0. -1.
</event>
<event>
 5    1  0.1259474E-009  0.9118800E+02  0.7815553E-02  0.1125453E+00
         25   -1    0    0    0    0  0.00000000000E+00  0.00000000000E+00  0.99999998245E-14  0.12509000000E+03  0.12509000000E+03 0.  0.
        -13    1    3    3    0    0  0.39563070045E+02  0.18362626207E+02  0.13087375650E+01  0.43636527253E+02  0.10566000000E+00 0.  1.
         23    2    1    0    0    0  0.76771270133E+01 -0.18987583287E+02  0.20265107894E+02  0.96277829026E+02  0.91865549396E+02 0.  0.
         13    1    3    3    0    0 -0.31885943032E+02 -0.37350209495E+02  0.18956370329E+02  0.52641301773E+02  0.10566000000E+00 0. -1.
         22    1    1    0    0    0 -0.76771270133E+01  0.18987583287E+02 -0.20265107894E+02  0.28812170974E+02  0.00000000000E+00 0. -1.
</event>
<event>
 5    1  0.1259474E-009  0.9118800E+02  0.7815553E-02  0.1125453E+00
         25   -1    0    0    0    0  0.00000000000E+00  0.00000000000E+00  0.99999998245E-14  0.12509000000E+03  0.12509000000E+03 0.  0.
        -13    1    3    3    0    0 -0.26333339499E+01  0.47237642007E+02 -0.18365709189E+02  0.50750760665E+02  0.10566000000E+00 0. -1.
         23    2    1    0    0    0 -0.26392335427E+02  0.10830941315E+02 -0.61777847838E+01  0.95900452490E+02  0.91350244137E+02 0.  0.
         13    1    3    3    0    0 -0.23759001477E+02 -0.36406700692E+02  0.12187924405E+02  0.45149691824E+02  0.10566000000E+00 0.  1.
         22    1    1    0    0    0  0.26392335427E+02 -0.10830941315E+02  0.61777847838E+01  0.29189547510E+02  0.00000000000E+00 0. -1.
</event>
<event>
 5    1  0.1259474E-009  0.9118800E+02  0.7815553E-02  0.1125453E+00
         25   -1    0    0    0    0  0.00000000000E+00  0.00000000000E+00  0.99999998245E-14  0.12509000000E+03  0.12509000000E+03 0.  0.
        -13    1    3    3    0    0  0.96536514736E+01 -0.41394049986E+02  0.35972063695E+02  0.55683578294E+02  0.10566000000E+00 0. -1.
         23    2    1    0    0    0  0.20385654205E+02 -0.18302998371E+02  0.27295951700E+01  0.97557740076E+02  0.93592132748E+02 0.  0.
         13    1    3    3    0    0  0.10732002731E+02  0.23091051615E+02 -0.33242468525E+02  0.41874161783E+02  0.10566000000E+00 0.  1.
         22    1    1    0    0    0 -0.20385654205E+02  0.18302998371E+02 -0.27295951700E+01  0.27532259924E+02  0.00000000000E+00 0. -1.
</event>
<event>
 5    1  0.1259474E-009  0.9118800E+02  0.7815553E-02  0.1125453E+00
         25   -1    0    0    0    0  0.00000000000E+00  0.00000000000E+00  0.99999998245E-14  0.12509000000E+03  0.12509000000E+03 0.  0.
        -13    1    3    3    0    0  0.33047194880E+02 -0.17251289918E+02  0.16165468442E+02  0.40633208429E+02  0.10566000000E+00 0.  1.
         23    2    1    0    0    0 -0.25128130419E+00  0.27210084145E+02  0.75943193559E+01  0.96838884837E+02  0.92626368322E+02 0.  0.
         13    1    3    3    0    0 -0.33298476184E+02  0.44461374063E+02 -0.85711490859E+01  0.56205676408E+02  0.10566000000E+00 0. -1.
         22    1    1    0    0    0  0.25128130419E+00 -0.27210084145E+02 -0.75943193559E+01  0.28251115163E+02  0.00000000000E+00 0. -1.
</event>
<event>
 5    1  0.1259474E-009  0.9118800E+02  0.7815553E-02  0.1125453E+00
         25   -1    0    0    0    0  0.00000000000E+00  0.00000000000E+00  0.99999998245E-14  0.12509000000E+03  0.12509000000E+03 0.  0.
        -13    1    3    3    0    0 -0.62062534697E+01  0.29443774796E+02  0.48846845141E+02  0.57371411876E+02  0.10566000000E+00 0.  1.
         23    2    1    0    0    0 -0.58629491488E+00 -0.20006598449E+01  0.31113779042E+02  0.93906452610E+02  0.88577695917E+02 0.  0.
         13    1    3    3    0    0  0.56199585548E+01 -0.31444434641E+02 -0.17733066099E+02  0.36535040733E+02  0.10566000000E+00 0. -1.
         22    1    1    0    0    0  0.58629491488E+00  0.20006598449E+01 -0.31113779042E+02  0.31183547390E+02  0.00000000000E+00 0.  1.
</event>
<event>
 5    1  0.1259474E-009  0.9118800E+02  0.7815553E-02  0.1125453E+00
         25   -1    0    0    0    0  0.00000000000E+00  0.00000000000E+00  0.99999998245E-14  0.12509000000E+03  0.12509000000E+03 0.  0.
        -13    1    3    3    0    0  0.36967598533E+01 -0.97624840739E+01  0.43592141719E+02  0.44824748883E+02  0.10566000000E+00 0.  1.
         23    2    1    0    0    0 -0.70964559239E+01 -0.28474788062E+02 -0.24089228869E+01  0.95645541245E+02  0.91000513233E+02 0.  0.
         13    1    3    3    0    0 -0.10793215777E+02 -0.18712303989E+02 -0.46001064606E+02  0.50820792362E+02  0.10566000000E+00 0. -1.
         22    1    1    0    0    0  0.70964559239E+01  0.28474788062E+02  0.24089228869E+01  0.29444458755E+02  0.00000000000E+00 0. -1.
</event>
<event>
 5    1  0.1259474E-009  0.9118800E+02  0.7815553E-02  0.1125453E+00
         25   -1    0    0    0    0  0.00000000000E+00  0.00000000000E+00  0.99999998245E-14  0.12509000000E+03  0.12509000000E+03 0.  0.
        -13    1    3    3    0    0 -0.29604626591E+02 -0.71766001446E+01 -0.25542252408E+02  0.39753683192E+02  0.10566000000E+00 0.  1.
         23    2    1    0    0    0 -0.11324427788E+02 -0.14088344135E+02  0.25170334520E+02  0.94101778930E+02  0.88853108853E+02 0.  0.
         13    1    3    3    0    0  0.18280198803E+02 -0.69117439907E+01  0.50712586929E+02  0.54348095738E+02  0.10566000000E+00 0. -1.
         22    1    1    0    0    0  0.11324427788E+02  0.14088344135E+02 -0.25170334520E+02  0.30988221070E+02  0.00000000000E+00 0. -1.
</event>
<event>
 5    1  0.1259474E-009  0.9118800E+02  0.7815553E-02  0.1125453E+00
         25   -1    0    0    0    0  0.00000000000E+00  0.00000000000E+00  0.99999998245E-14  0.12509000000E+03  0.12509000000E+03 0.  0.
        -13    1    3    3    0    0 -0.23444446234E+02  0.36528362128E+02 -0.38469568611E+02  0.57998984234E+02  0.10566000000E+00 0.  1.
         23    2    1    0    0    0  0.52041755058E+01  0.16722201317E+02 -0.23184817413E+02  0.96033998588E+02  0.91532932143E+02 0.  0.
         13    1    3    3    0    0  0.28648621740E+02 -0.19806160811E+02  0.15284751198E+02  0.38035014354E+02  0.10566000000E+00 0. -1.
         22    1    1    0    0    0 -0.52041755058E+01 -0.16722201317E+02  0.23184817413E+02  0.29056001412E+02  0.00000000000E+00 0.  1.
</event>
<event>
 5    1  0.1259474E-009  0.9118800E+02  0.7815553E-02  0.1125453E+00
         25   -1    0    0    0    0  0.00000000000E+00  0.00000000000E+00  0.99999998245E-14  0.12509000000E+03  0.12509000000E+03 0.  0.
        -13    1    3    3    0    0  0.21238156462E+02 -0.14168934271E+02  0.28568090414E+02  0.38314030619E+02  0.10566000000E+00 0.  1.
         23    2    1    0    0    0 -0.16505381874E+01  0.29126882940E+02 -0.16663973079E+01  0.95868835306E+02  0.91306939040E+02 0.  0.
         13    1    3    3    0    0 -0.22888694650E+02  0.43295817211E+02 -0.30234487722E+02  0.57554804687E+02  0.10566000000E+00 0. -1.
         22    1    1    0    0    0  0.16505381874E+01 -0.29126882940E+02  0.16663973079E+01  0.29221164694E+02  0.00000000000E+00 0. -1.
</event>
<event>
 5    1  0.1259474E-009  0.9118800E+02  0.7815553E-02  0.1125453E+00
         25   -1    0    0    0    0  0.00000000000E+00  0.00000000000E+00  0.99999998245E-14  0.12509000000E+03  0.12509000000E+03 0.  0.
        -13    1    3    3    0    0  0.33163846761E+02 -0.31951640570E+02 -0.15975882469E+02  0.48744107868E+02  0.10566000000E+00 0.  1.
         23    2    1    0    0    0  0.31546749399E+02 -0.19370677457E+02  0.17205746174E+02  0.84267723677E+02  0.73719678577E+02 0.  0.
         13    1    3    3    0    0 -0.16170973620E+01  0.12580963112E+02  0.33181628643E+02  0.35523615809E+02  0.10566000000E+00 0. -1.
         22    1    1    0    0    0 -0.31546749399E+02  0.19370677457E+02 -0.17205746174E+02  0.40822276323E+02  0.00000000000E+00 0.  1.
</event>
<event>
 5    1  0.1259474E-009  0.9118800E+02  0.7815553E-02  0.1125453E+00
         25   -1    0    0    0    0  0.00000000000E+00  0.00000000000E+00  0.99999998245E-14  0.12509000000E+03  0.12509000000E+03 0.  0.
        -13    1    3    3    0    0 -0.24027141401E+02  0.25952088771E+02  0.83791900476E+01  0.36346064785E+02  0.10566000000E+00 0.  1.
         23    2    1    0    0    0  0.13071533715E+02 -0.59221361036E+01 -0.25489327795E+02  0.95838632149E+02  0.91265551503E+02 0.  0.
         13    1    3    3    0    0  0.37098675115E+02 -0.31874224875E+02 -0.33868517843E+02  0.59492567364E+02  0.10566000000E+00 0. -1.
         22    1    1    0    0    0 -0.13071533715E+02  0.59221361036E+01  0.25489327795E+02  0.29251367851E+02  0.00000000000E+00 0. -1.
</event>
<event>
 5    1  0.1259474E-009  0.9118800E+02  0.7815553E-02  0.1125453E+00
         25   -1    0    0    0    0  0.00000000000E+00  0.00000000000E+00  0.99999998245E-14  0.12509000000E+03  0.12509000000E+03 0.  0.
        -13    1    3    3    0    0  0.54386272865E+02  0.11376092248E+02 -0.37707447496E+01  0.55691218617E+02  0.10566000000E+00 0. -1.
         23    2    1    0    0    0  0.21014875667E+02  0.56978273584E+01  0.18755323849E+02  0.96352352069E+02  0.91966968748E+02 0.  0.
         13    1    3    3    0    0 -0.33371397198E+02 -0.56782648893E+01  0.22526068598E+02  0.40661133452E+02  0.10566000000E+00 0.  1.
         22    1    1    0    0    0 -0.21014875667E+02 -0.56978273584E+01 -0.18755323849E+02  0.28737647931E+02  0.00000000000E+00 0. -1.
</event>
<event>
 5    1  0.1259474E-009  0.9118800E+02  0.7815553E-02  0.1125453E+00
         25   -1    0    0    0    0  0.00000000000E+00  0.00000000000E+00  0.99999998245E-14  0.12509000000E+03  0.12509000000E+03 0.  0.
        -13    1    3    3    0    0  0.28800242765E+02  0.39662029937E+02  0.25835942347E+02  0.55407920761E+02  0.10566000000E+00 0.  1.
         23    2    1    0    0    0 -0.23849357673E+01  0.13757881401E+02  0.25577382538E+02  0.95949483244E+02  0.91417359501E+02 0.  0.
         13    1    3    3    0    0 -0.31185178532E+02 -0.25904148535E+02 -0.25855980898E+00  0.40541562484E+02  0.10566000000E+00 0. -1.
         22    1    1    0    0    0  0.23849357673E+01 -0.13757881401E+02 -0.25577382538E+02  0.29140516756E+02  0.00000000000E+00 0.  1.
</event>
<event>
 5    1  0.1259474E-009  0.9118800E+02  0.7815553E-02  0.1125453E+00
         25   -1    0    0    0    0  0.00000000000E+00  0.00000000000E+00  0.99999998245E-14  0.12509000000E+03  0.12509000000E+03 0.  0.
        -13    1    3    3    0    0  0.19364533430E+01 -0.23104575283E+02 -0.53309404151E+02  0.58133251978E+02  0.10566000000E+00 0. -1.
         23    2    1    0    0    0 -0.38057059846E+01 -0.25695562455E+02 -0.19280269965E+02  0.92740747491E+02  0.86915890995E+02 0.  0.
         13    1    3    3    0    0 -0.57421593275E+01 -0.25909871719E+01  0.34029134186E+02  0.34607495514E+02  0.10566000000E+00 0.  1.
         22    1    1    0    0    0  0.38057059846E+01  0.25695562455E+02  0.19280269965E+02  0.32349252509E+02  0.00000000000E+00 0. -1.
</event>
<event>
 5    1  0.1259474E-009  0.9118800E+02  0.7815553E-02  0.1125453E+00
         25   -1    0    0    0    0  0.00000000000E+00  0.00000000000E+00  0.99999998245E-14  0.12509000000E+03  0.12509000000E+03 0.  0.
        -13    1    3    3    0    0  0.17652832304E+01  0.41457774099E+02  0.28038563135E+01  0.41590095364E+02  0.10566000000E+00 0.  1.
         23    2    1    0    0    0 -0.20764736209E+02 -0.60541331759E+01  0.18672663532E+02  0.96515620536E+02  0.92188772883E+02 0.  0.
         13    1    3    3    0    0 -0.22530019440E+02 -0.47511907275E+02  0.15868807219E+02  0.54925525172E+02  0.10566000000E+00 0. -1.
         22    1    1    0    0    0  0.20764736209E+02  0.60541331759E+01 -0.18672663532E+02  0.28574379464E+02  0.00000000000E+00 0. -1.
</event>
<event>
 5    1  0.1259474E-009  0.9118800E+02  0.7815553E-02  0.1125453E+00
         25   -1    0    0    0    0  0.00000000000E+00  0.00000000000E+00  0.99999998245E-14  0.12509000000E+03  0.12509000000E+03 0.  0.
        -13    1    3    3    0    0 -0.33041416764E+02  0.55395921842E+01  0.33833873169E+02  0.47614750246E+02  0.10566000000E+00 0.  1.
         23    2    1    0    0    0  0.55969296850E+01 -0.20183872691E+02  0.20193611929E+02  0.95995390508E+02  0.91480154664E+02 0.  0.
         13    1    3    3    0    0  0.38638346449E+02 -0.25723464875E+02 -0.13640261240E+02  0.48380640262E+02  0.10566000000E+00 0. -1.
         22    1    1    0    0    0 -0.55969296850E+01  0.20183872691E+02 -0.20193611929E+02  0.29094609492E+02  0.00000000000E+00 0.  1.
</event>
<event>
 5    1  0.1259474E-009  0.9118800E+02  0.7815553E-02  0.1125453E+00
         25   -1    0    0    0    0  0.00000000000E+00  0.00000000000E+00  0.99999998245E-14  0.12509000000E+03  0.12509000000E+03 0.  0.
        -13    1    3    3    0    0 -0.15945386081E+02  0.32252575067E+02 -0.20311398206E+02  0.41316437369E+02  0.10566000000E+00 0.  1.
         23    2    1    0    0    0  0.28122873842E+02  0.89145138990E+01  0.10582500256E+01  0.95569083952E+02  0.90895353694E+02 0.  0.
         13    1    3    3    0    0  0.44068259923E+02 -0.23338061168E+02  0.21369648231E+02  0.54252646583E+02  0.10566000000E+00 0. -1.
         22    1    1    0    0    0 -0.28122873842E+02 -0.89145138990E+01 -0.10582500256E+01  0.29520916048E+02  0.00000000000E+00 0. -1.
</event>
<event>
 5    1  0.1259474E-009  0.9118800E+02  0.7815553E-02  0.1125453E+00
         25   -1    0    0    0    0  0.00000000000E+00  0.00000000000E+00  0.99999998245E-14  0.12509000000E+03  0.12509000000E+03 0.  0.
        -13    1    3    3    0    0  0.65109500332E+01 -0.26724143857E+02  0.52392957819E+02  0.59174365466E+02  0.10566000000E+00 0.  1.
         23    2    1    0    0    0 -0.84977824222E+01 -0.45865865131E+01  0.28357773277E+02  0.95133157924E+02  0.90293440234E+02 0.  0.
         13    1    3    3    0    0 -0.15008732455E+02  0.22137557344E+02 -0.24035184541E+02  0.35958792458E+02  0.10566000000E+00 0. -1.
         22    1    1    0    0    0  0.84977824222E+01  0.45865865131E+01 -0.28357773277E+02  0.29956842076E+02  0.00000000000E+00 0.  1.
</event>
<event>
 5    1  0.1259474E-009  0.9118800E+02  0.7815553E-02  0.1125453E+00
         25   -1    0    0    0    0  0.00000000000E+00  0.00000000000E+00  0.99999998245E-14  0.12509000000E+03  0.12509000000E+03 0.  0.
        -13    1    3    3    0    0  0.14665265864E+02 -0.19228659809E+02  0.26829467270E+02  0.36119840239E+02  0.10566000000E+00 0. -1.
         23    2    1    0    0    0 -0.13366914882E+02 -0.14842001282E+01 -0.24443844704E+02  0.97190559013E+02  0.93100085681E+02 0.  0.
         13    1    3    3    0    0 -0.28032180746E+02  0.17744459681E+02 -0.51273311974E+02  0.61070718773E+02  0.10566000000E+00 0.  1.
         22    1    1    0    0    0  0.13366914882E+02  0.14842001282E+01  0.24443844704E+02  0.27899440987E+02  0.00000000000E+00 0.  1.
</event>
<event>
 5    1  0.1259474E-009  0.9118800E+02  0.7815553E-02  0.1125453E+00
         25   -1    0    0    0    0  0.00000000000E+00  0.00000000000E+00  0.99999998245E-14  0.12509000000E+03  0.12509000000E+03 0.  0.
        -13    1    3    3    0    0 -0.42844467539E+02 -0.27900262496E+02 -0.11887415511E+02  0.52491855155E+02  0.10566000000E+00 0. -1.
         23    2    1    0    0    0 -0.10941400375E+02 -0.98701195302E+00 -0.26250856427E+02  0.96633086993E+02  0.92348024364E+02 0.  0.
         13    1    3    3    0    0  0.31903067164E+02  0.26913250543E+02 -0.14363440915E+02  0.44141231838E+02  0.10566000000E+00 0.  1.
         22    1    1    0    0    0  0.10941400375E+02  0.98701195302E+00  0.26250856427E+02  0.28456913007E+02  0.00000000000E+00 0. -1.
</event>
<event>
 5    1  0.1259474E-009  0.9118800E+02  0.7815553E-02  0.1125453E+00
         25   -1    0    0    0    0  0.00000000000E+00  0.00000000000E+00  0.99999998245E-14  0.12509000000E+03  0.12509000000E+03 0.  0.
        -13    1    3    3    0    0 -0.47020748468E+02 -0.66620740825E+01 -0.33890279817E+02  0.58342919431E+02  0.10566000000E+00 0.  1.
         23    2    1    0    0    0 -0.97906982297E+01 -0.61822541548E+01 -0.26316510005E+02  0.96338708949E+02  0.91948410018E+02 0.  0.
         13    1    3    3    0    0  0.37230050238E+02  0.47981992766E+00  0.75737698118E+01  0.37995789518E+02  0.10566000000E+00 0. -1.
         22    1    1    0    0    0  0.97906982297E+01  0.61822541548E+01  0.26316510005E+02  0.28751291051E+02  0.00000000000E+00 0.  1.
</event>
<event>
 5    1  0.1259474E-009  0.9118800E+02  0.7815553E-02  0.1125453E+00
         25   -1    0    0    0    0  0.00000000000E+00  0.00000000000E+00  0.99999998245E-14  0.12509000000E+03  0.12509000000E+03 0.  0.
        -13    1    3    3    0    0 -0.29112650584E+02  0.11275007800E+02  0.12637010456E+02  0.33680519923E+02  0.10566000000E+00 0.  1.
         23    2    1    0    0    0  0.29366382466E+02  0.23040401899E+00 -0.39413041897E+01  0.95459418098E+02  0.90744306266E+02 0.  0.
         13    1    3    3    0    0  0.58479033050E+02 -0.11044603781E+02 -0.16578314646E+02  0.61778898175E+02  0.10566000000E+00 0. -1.
         22    1    1    0    0    0 -0.29366382466E+02 -0.23040401899E+00  0.39413041897E+01  0.29630581902E+02  0.00000000000E+00 0. -1.
</event>
<event>
 5    1  0.1259474E-009  0.9118800E+02  0.7815553E-02  0.1125453E+00
         25   -1    0    0    0    0  0.00000000000E+00  0.00000000000E+00  0.99999998245E-14  0.12509000000E+03  0.12509000000E+03 0.  0.
        -13    1    3    3    0    0 -0.32002805414E+02 -0.78776649497E+01 -0.34906550275E+02  0.48007453334E+02  0.10566000000E+00 0. -1.
         23    2    1    0    0    0  0.47811151785E+01 -0.26684002296E+02 -0.10318149677E+02  0.96083806633E+02  0.91600975123E+02 0.  0.
         13    1    3    3    0    0  0.36783920593E+02 -0.18806337346E+02  0.24588400598E+02  0.48076353300E+02  0.10566000000E+00 0.  1.
         22    1    1    0    0    0 -0.47811151785E+01  0.26684002296E+02  0.10318149677E+02  0.29006193367E+02  0.00000000000E+00 0. -1.
</event>
<event>
 5    1  0.1259474E-009  0.9118800E+02  0.7815553E-02  0.1125453E+00
         25   -1    0    0    0    0  0.00000000000E+00  0.00000000000E+00  0.99999998245E-14  0.12509000000E+03  0.12509000000E+03 0.  0.
        -13    1    3    3    0    0 -0.17223372963E+02 -0.43269258884E+02  0.26842726989E+01  0.46648577948E+02  0.10566000000E+00 0. -1.
         23    2    1    0    0    0  0.62839568740E+01 -0.34991317215E+01  0.25799342380E+02  0.98306831702E+02  0.94588028076E+02 0.  0.
         13    1    3    3    0    0  0.23507329837E+02  0.39770127162E+02  0.23115069682E+02  0.51658253755E+02  0.10566000000E+00 0.  1.
         22    1    1    0    0    0 -0.62839568740E+01  0.34991317215E+01 -0.25799342380E+02  0.26783168298E+02  0.00000000000E+00 0.  1.
</event>
<event>
 5    1  0.1259474E-009  0.9118800E+02  0.7815553E-02  0.1125453E+00
         25   -1    0    0    0    0  0.00000000000E+00  0.00000000000E+00  0.99999998245E-14  0.12509000000E+03  0.12509000000E+03 0.  0.
        -13    1    3    3    0    0 -0.38529278271E+02  0.43992445733E+02  0.19975435305E+02  0.61797004340E+02  0.10566000000E+00 0.  1.
         23    2    1    0    0    0 -0.27044611173E+02  0.22088576961E+02  0.80448670179E+01  0.89256550389E+02  0.81747756400E+02 0.  0.
         13    1    3    3    0    0  0.11484667098E+02 -0.21903868772E+02 -0.11930568287E+02  0.27459546049E+02  0.10566000000E+00 0. -1.
         22    1    1    0    0    0  0.27044611173E+02 -0.22088576961E+02 -0.80448670179E+01  0.35833449611E+02  0.00000000000E+00 0.  1.
</event>
<event>
 5    1  0.1259474E-009  0.9118800E+02  0.7815553E-02  0.1125453E+00
         25   -1    0    0    0    0  0.00000000000E+00  0.00000000000E+00  0.99999998245E-14  0.12509000000E+03  0.12509000000E+03 0.  0.
        -13    1    3    3    0    0  0.45930494973E+02  0.25651071736E+01 -0.28864346382E+02  0.54307934957E+02  0.10566000000E+00 0.  1.
         23    2    1    0    0    0  0.97366468729E+01  0.15227076317E+02 -0.26872918569E+02  0.92704510998E+02  0.86863723507E+02 0.  0.
         13    1    3    3    0    0 -0.36193848100E+02  0.12661969144E+02  0.19914278132E+01  0.38396576041E+02  0.10566000000E+00 0. -1.
         22    1    1    0    0    0 -0.97366468729E+01 -0.15227076317E+02  0.26872918569E+02  0.32385489002E+02  0.00000000000E+00 0.  1.
</event>
<event>
 5    1  0.1259474E-009  0.9118800E+02  0.7815553E-02  0.1125453E+00
         25   -1    0    0    0    0  0.00000000000E+00  0.00000000000E+00  0.99999998245E-14  0.12509000000E+03  0.12509000000E+03 0.  0.
        -13    1    3    3    0    0  0.26261325859E+02 -0.61328034392E+01  0.21051447617E+02  0.34211739574E+02  0.10566000000E+00 0.  1.
         23    2    1    0    0    0 -0.81180200516E+01  0.98907982626E+01 -0.26870618858E+02  0.95328274619E+02  0.90563346030E+02 0.  0.
         13    1    3    3    0    0 -0.34379345910E+02  0.16023601702E+02 -0.47922066475E+02  0.61116535045E+02  0.10566000000E+00 0. -1.
         22    1    1    0    0    0  0.81180200516E+01 -0.98907982626E+01  0.26870618858E+02  0.29761725381E+02  0.00000000000E+00 0. -1.
</event>
<event>
 5    1  0.1259474E-009  0.9118800E+02  0.7815553E-02  0.1125453E+00
         25   -1    0    0    0    0  0.00000000000E+00  0.00000000000E+00  0.99999998245E-14  0.12509000000E+03  0.12509000000E+03 0.  0.
        -13    1    3    3    0    0 -0.26628805927E+02  0.12758273956E+02 -0.16402931561E+02  0.33777717319E+02  0.10566000000E+00 0. -1.
         23    2    1    0    0    0  0.24195019952E+02 -0.15419443286E+01  0.16293522895E+02  0.95879463012E+02  0.91321497777E+02 0.  0.
         13    1    3    3    0    0  0.50823825880E+02 -0.14300218284E+02  0.32696454456E+02  0.62101745693E+02  0.10566000000E+00 0.  1.
         22    1    1    0    0    0 -0.24195019952E+02  0.15419443286E+01 -0.16293522895E+02  0.29210536988E+02  0.00000000000E+00 0.  1.
</event>
<event>
 5    1  0.1259474E-009  0.9118800E+02  0.7815553E-02  0.1125453E+00
         25   -1    0    0    0    0  0.00000000000E+00  0.00000000000E+00  0.99999998245E-14  0.12509000000E+03  0.12509000000E+03 0.  0.
        -13    1    3    3    0    0 -0.11804101019E+02  0.41649068314E+02 -0.24743878376E+02  0.49862334215E+02  0.10566000000E+00 0. -1.
         23    2    1    0    0    0  0.15201435910E+02  0.48530698955E+01 -0.24912168608E+02  0.95505340362E+02  0.90807587523E+02 0.  0.
         13    1    3    3    0    0  0.27005536930E+02 -0.36795998418E+02 -0.16829023142E+00  0.45643006147E+02  0.10566000000E+00 0.  1.
         22    1    1    0    0    0 -0.15201435910E+02 -0.48530698955E+01  0.24912168608E+02  0.29584659638E+02  0.00000000000E+00 0. -1.
</event>
<event>
 5    1  0.1259474E-009  0.9118800E+02  0.7815553E-02  0.1125453E+00
         25   -1    0    0    0    0  0.00000000000E+00  0.00000000000E+00  0.99999998245E-14  0.12509000000E+03  0.12509000000E+03 0.  0.
        -13    1    3    3    0    0  0.18446537600E+02 -0.14808954420E+02 -0.29987467315E+02  0.38194754096E+02  0.10566000000E+00 0. -1.
         23    2    1    0    0    0  0.20743089083E+02  0.88515212931E+01  0.20888114586E+02  0.94350147937E+02  0.89202084678E+02 0.  0.
         13    1    3    3    0    0  0.22965514832E+01  0.23660475713E+02  0.50875581901E+02  0.56155393841E+02  0.10566000000E+00 0.  1.
         22    1    1    0    0    0 -0.20743089083E+02 -0.88515212931E+01 -0.20888114586E+02  0.30739852063E+02  0.00000000000E+00 0.  1.
</event>
<event>
 5    1  0.1259474E-009  0.9118800E+02  0.7815553E-02  0.1125453E+00
         25   -1    0    0    0    0  0.00000000000E+00  0.00000000000E+00  0.99999998245E-14  0.12509000000E+03  0.12509000000E+03 0.  0.
        -13    1    3    3    0    0 -0.85382789604E+01  0.28131222808E+02 -0.24164152903E+02  0.38055030599E+02  0.10566000000E+00 0.  1.
         23    2    1    0    0    0  0.95679201132E+01  0.78400910215E+01  0.26661362200E+02  0.95698838797E+02  0.91073746987E+02 0.  0.
         13    1    3    3    0    0  0.18106199074E+02 -0.20291131787E+02  0.50825515103E+02  0.57643808198E+02  0.10566000000E+00 0. -1.
         22    1    1    0    0    0 -0.95679201132E+01 -0.78400910215E+01 -0.26661362200E+02  0.29391161203E+02  0.00000000000E+00 0. -1.
</event>
<event>
 5    1  0.1259474E-009  0.9118800E+02  0.7815553E-02  0.1125453E+00
         25   -1    0    0    0    0  0.00000000000E+00  0.00000000000E+00  0.99999998245E-14  0.12509000000E+03  0.12509000000E+03 0.  0.
        -13    1    3    3    0    0 -0.15556951987E+00  0.70231438724E+00 -0.19028877138E+02  0.19042761788E+02  0.10566000000E+00 0. -1.
         23    2    1    0    0    0  0.71055818076E+01 -0.10372411276E+02  0.41874165044E+02  0.81369044994E+02  0.68625065220E+02 0.  0.
         13    1    3    3    0    0  0.72611513275E+01 -0.11074725663E+02  0.60903042182E+02  0.62326283205E+02  0.10566000000E+00 0.  1.
         22    1    1    0    0    0 -0.71055818076E+01  0.10372411276E+02 -0.41874165044E+02  0.43720955006E+02  0.00000000000E+00 0.  1.
</event>
<event>
 5    1  0.1259474E-009  0.9118800E+02  0.7815553E-02  0.1125453E+00
         25   -1    0    0    0    0  0.00000000000E+00  0.00000000000E+00  0.99999998245E-14  0.12509000000E+03  0.12509000000E+03 0.  0.
        -13    1    3    3    0    0  0.10983867628E+02  0.45889171187E+02 -0.37160585135E+02  0.60061482099E+02  0.10566000000E+00 0. -1.
         23    2    1    0    0    0  0.17529158783E+02  0.25167554213E+02 -0.27699637124E+02  0.83762683495E+02  0.72857669855E+02 0.  0.
         13    1    3    3    0    0  0.65452911551E+01 -0.20721616974E+02  0.94609480108E+01  0.23701201396E+02  0.10566000000E+00 0.  1.
         22    1    1    0    0    0 -0.17529158783E+02 -0.25167554213E+02  0.27699637124E+02  0.41327316505E+02  0.00000000000E+00 0. -1.
</event>
<event>
 5    1  0.1259474E-009  0.9118800E+02  0.7815553E-02  0.1125453E+00
         25   -1    0    0    0    0  0.00000000000E+00  0.00000000000E+00  0.99999998245E-14  0.12509000000E+03  0.12509000000E+03 0.  0.
        -13    1    3    3    0    0 -0.29933214809E+02  0.28339817844E+02 -0.96811256621E+01  0.42342389899E+02  0.10566000000E+00 0. -1.
         23    2    1    0    0    0 -0.10348255503E+01 -0.14130441305E+02 -0.25350533216E+02  0.96048826302E+02  0.91553193632E+02 0.  0.
         13    1    3    3    0    0  0.28898389259E+02 -0.42470259150E+02 -0.15669407554E+02  0.53706436403E+02  0.10566000000E+00 0.  1.
         22    1    1    0    0    0  0.10348255503E+01  0.14130441305E+02  0.25350533216E+02  0.29041173698E+02  0.00000000000E+00 0.  1.
</event>
<event>
 5    1  0.1259474E-009  0.9118800E+02  0.7815553E-02  0.1125453E+00
         25   -1    0    0    0    0  0.00000000000E+00  0.00000000000E+00  0.99999998245E-14  0.12509000000E+03  0.12509000000E+03 0.  0.
        -13    1    3    3    0    0 -0.28626578694E+02 -0.39133002892E+02 -0.10934325546E+02  0.49703556837E+02  0.10566000000E+00 0.  1.
         23    2    1    0    0    0 -0.15094565526E+02  0.15580321753E+01 -0.25857786039E+02  0.95108364429E+02  0.90259085486E+02 0.  0.
         13    1    3    3    0    0  0.13532013168E+02  0.40691035068E+02 -0.14923460493E+02  0.45404807591E+02  0.10566000000E+00 0. -1.
         22    1    1    0    0    0  0.15094565526E+02 -0.15580321753E+01  0.25857786039E+02  0.29981635571E+02  0.00000000000E+00 0.  1.
</event>
<event>
 5    1  0.1259474E-009  0.9118800E+02  0.7815553E-02  0.1125453E+00
         25   -1    0    0    0    0  0.00000000000E+00  0.00000000000E+00  0.99999998245E-14  0.12509000000E+03  0.12509000000E+03 0.  0.
        -13    1    3    3    0    0 -0.10805898415E+02  0.37508482083E+02  0.11804843121E+02  0.40780131852E+02  0.10566000000E+00 0.  1.
         23    2    1    0    0    0 -0.18261011063E+02 -0.19205449041E+01 -0.24213375259E+02  0.94701835211E+02  0.89693907447E+02 0.  0.
         13    1    3    3    0    0 -0.74551126485E+01 -0.39429026987E+02 -0.36018218380E+02  0.53921703359E+02  0.10566000000E+00 0. -1.
         22    1    1    0    0    0  0.18261011063E+02  0.19205449041E+01  0.24213375259E+02  0.30388164789E+02  0.00000000000E+00 0. -1.
</event>
<event>
 5    1  0.1259474E-009  0.9118800E+02  0.7815553E-02  0.1125453E+00
         25   -1    0    0    0    0  0.00000000000E+00  0.00000000000E+00  0.99999998245E-14  0.12509000000E+03  0.12509000000E+03 0.  0.
        -13    1    3    3    0    0 -0.69663639006E+01  0.15958959685E+02 -0.45026615506E+02  0.48276556300E+02  0.10566000000E+00 0. -1.
         23    2    1    0    0    0  0.46624305703E+01 -0.21957152118E+02 -0.18651615484E+02  0.95905457034E+02  0.91357096828E+02 0.  0.
         13    1    3    3    0    0  0.11628794471E+02 -0.37916111802E+02  0.26375000021E+02  0.47628900735E+02  0.10566000000E+00 0.  1.
         22    1    1    0    0    0 -0.46624305703E+01  0.21957152118E+02  0.18651615484E+02  0.29184542966E+02  0.00000000000E+00 0.  1.
</event>
<event>
 5    1  0.1259474E-009  0.9118800E+02  0.7815553E-02  0.1125453E+00
         25   -1    0    0    0    0  0.00000000000E+00  0.00000000000E+00  0.99999998245E-14  0.12509000000E+03  0.12509000000E+03 0.  0.
        -13    1    3    3    0    0  0.49230851096E+02  0.13777536847E+01 -0.13580219423E+02  0.51088241587E+02  0.10566000000E+00 0.  1.
         23    2    1    0    0    0  0.18235129017E+02 -0.17754060530E+02  0.13315342934E+02  0.96366752394E+02  0.91986553441E+02 0.  0.
         13    1    3    3    0    0 -0.30995722079E+02 -0.19131814215E+02  0.26895562357E+02  0.45278510807E+02  0.10566000000E+00 0. -1.
         22    1    1    0    0    0 -0.18235129017E+02  0.17754060530E+02 -0.13315342934E+02  0.28723247606E+02  0.00000000000E+00 0.  1.
</event>
<event>
 5    1  0.1259474E-009  0.9118800E+02  0.7815553E-02  0.1125453E+00
         25   -1    0    0    0    0  0.00000000000E+00  0.00000000000E+00  0.99999998245E-14  0.12509000000E+03  0.12509000000E+03 0.  0.
        -13    1    3    3    0    0  0.20854151327E+02  0.46205199163E+02 -0.73137472424E+00  0.50698738942E+02  0.10566000000E+00 0.  1.
         23    2    1    0    0    0  0.23296602943E+02  0.74787813131E+01  0.18887987282E+02  0.94180131962E+02  0.88963348151E+02 0.  0.
         13    1    3    3    0    0  0.24424516153E+01 -0.38726417850E+02  0.19619362006E+02  0.43481393020E+02  0.10566000000E+00 0. -1.
         22    1    1    0    0    0 -0.23296602943E+02 -0.74787813131E+01 -0.18887987282E+02  0.30909868038E+02  0.00000000000E+00 0.  1.
</event>
<event>
 5    1  0.1259474E-009  0.9118800E+02  0.7815553E-02  0.1125453E+00
         25   -1    0    0    0    0  0.00000000000E+00  0.00000000000E+00  0.99999998245E-14  0.12509000000E+03  0.12509000000E+03 0.  0.
        -13    1    3    3    0    0  0.33240305053E+02 -0.29833789884E+02 -0.26381876635E+02  0.51874728699E+02  0.10566000000E+00 0.  1.
         23    2    1    0    0    0  0.23489471887E+01 -0.31493471544E+02  0.14330511778E+01  0.93476554467E+02  0.87968496045E+02 0.  0.
         13    1    3    3    0    0 -0.30891357864E+02 -0.16596816607E+01  0.27814927813E+02  0.41601825767E+02  0.10566000000E+00 0. -1.
         22    1    1    0    0    0 -0.23489471887E+01  0.31493471544E+02 -0.14330511778E+01  0.31613445533E+02  0.00000000000E+00 0.  1.
</event>
<event>
 5    1  0.1259474E-009  0.9118800E+02  0.7815553E-02  0.1125453E+00
         25   -1    0    0    0    0  0.00000000000E+00  0.00000000000E+00  0.99999998245E-14  0.12509000000E+03  0.12509000000E+03 0.  0.
        -13    1    3    3    0    0  0.19329143503E+02 -0.16865719344E+02  0.46363852297E+02  0.52987604601E+02  0.10566000000E+00 0.  1.
         23    2    1    0    0    0  0.11534045804E+02 -0.28031077643E+02  0.79359025164E+01  0.93757044902E+02  0.88366449479E+02 0.  0.
         13    1    3    3    0    0 -0.77950976992E+01 -0.11165358299E+02 -0.38427949780E+02  0.40769440301E+02  0.10566000000E+00 0. -1.
         22    1    1    0    0    0 -0.11534045804E+02  0.28031077643E+02 -0.79359025164E+01  0.31332955098E+02  0.00000000000E+00 0.  1.
</event>
<event>
 5    1  0.1259474E-009  0.9118800E+02  0.7815553E-02  0.1125453E+00
         25   -1    0    0    0    0  0.00000000000E+00  0.00000000000E+00  0.99999998245E-14  0.12509000000E+03  0.12509000000E+03 0.  0.
        -13    1    3    3    0    0  0.14077521627E+02 -0.50163306813E+02  0.13391667597E+02  0.53794812860E+02  0.10566000000E+00 0. -1.
         23    2    1    0    0    0  0.45327015476E+01 -0.14629530175E+02  0.27833350268E+02  0.93321085577E+02  0.87747142914E+02 0.  0.
         13    1    3    3    0    0 -0.95448200793E+01  0.35533776638E+02  0.14441682671E+02  0.39526272717E+02  0.10566000000E+00 0.  1.
         22    1    1    0    0    0 -0.45327015476E+01  0.14629530175E+02 -0.27833350268E+02  0.31768914423E+02  0.00000000000E+00 0. -1.
</event>
<event>
 5    1  0.1259474E-009  0.9118800E+02  0.7815553E-02  0.1125453E+00
         25   -1    0    0    0    0  0.00000000000E+00  0.00000000000E+00  0.99999998245E-14  0.12509000000E+03  0.12509000000E+03 0.  0.
        -13    1    3    3    0    0  0.62080070920E+01  0.24272391223E+02 -0.17791328374E+02  0.30728339641E+02  0.10566000000E+00 0. -1.
         23    2    1    0    0    0 -0.32120006101E+02 -0.16640984639E+02 -0.11441977225E+02  0.87148782248E+02  0.78456193144E+02 0.  0.
         13    1    3    3    0    0 -0.38328013193E+02 -0.40913375862E+02  0.63493511495E+01  0.56420442606E+02  0.10566000000E+00 0.  1.
         22    1    1    0    0    0  0.32120006101E+02  0.16640984639E+02  0.11441977225E+02  0.37941217752E+02  0.00000000000E+00 0.  1.
</event>
<event>
 5    1  0.1259474E-009  0.9118800E+02  0.7815553E-02  0.1125453E+00
         25   -1    0    0    0    0  0.00000000000E+00  0.00000000000E+00  0.99999998245E-14  0.12509000000E+03  0.12509000000E+03 0.  0.
        -13    1    3    3    0    0 -0.17552715750E+02  0.47318835374E+02 -0.19507581130E+02  0.54108473430E+02  0.10566000000E+00 0.  1.
         23    2    1    0    0    0 -0.22305226341E+02  0.68789016248E+01 -0.19260602830E+02  0.94827593766E+02  0.89869123220E+02 0.  0.
         13    1    3    3    0    0 -0.47525105912E+01 -0.40439933749E+02  0.24697829941E+00  0.40719120335E+02  0.10566000000E+00 0. -1.
         22    1    1    0    0    0  0.22305226341E+02 -0.68789016248E+01  0.19260602830E+02  0.30262406234E+02  0.00000000000E+00 0. -1.
</event>
<event>
 5    1  0.1259474E-009  0.9118800E+02  0.7815553E-02  0.1125453E+00
         25   -1    0    0    0    0  0.00000000000E+00  0.00000000000E+00  0.99999998245E-14  0.12509000000E+03  0.12509000000E+03 0.  0.
        -13    1    3    3    0    0  0.45673173388E+02  0.14311890301E+02  0.38166399941E+02  0.61217270601E+02  0.10566000000E+00 0. -1.
         23    2    1    0    0    0  0.28675119773E+02  0.13571134675E+02  0.14901120765E+02  0.90040298283E+02  0.82938373052E+02 0.  0.
         13    1    3    3    0    0 -0.16998053615E+02 -0.74075562613E+00 -0.23265279176E+02  0.28823027682E+02  0.10566000000E+00 0.  1.
         22    1    1    0    0    0 -0.28675119773E+02 -0.13571134675E+02 -0.14901120765E+02  0.35049701717E+02  0.00000000000E+00 0. -1.
</event>
<event>
 5    1  0.1259474E-009  0.9118800E+02  0.7815553E-02  0.1125453E+00
         25   -1    0    0    0    0  0.00000000000E+00  0.00000000000E+00  0.99999998245E-14  0.12509000000E+03  0.12509000000E+03 0.  0.
        -13    1    3    3    0    0 -0.30727710767E+02  0.25432216314E+01 -0.14655320576E+02  0.34138684369E+02  0.10566000000E+00 0.  1.
         23    2    1    0    0    0  0.15343374948E+02 -0.25968425452E+02  0.95103932352E+01  0.93463652523E+02  0.87950147744E+02 0.  0.
         13    1    3    3    0    0  0.46071085715E+02 -0.28511647083E+02  0.24165713811E+02  0.59324968154E+02  0.10566000000E+00 0. -1.
         22    1    1    0    0    0 -0.15343374948E+02  0.25968425452E+02 -0.95103932352E+01  0.31626347477E+02  0.00000000000E+00 0. -1.
</event>
<event>
 5    1  0.1259474E-009  0.9118800E+02  0.7815553E-02  0.1125453E+00
         25   -1    0    0    0    0  0.00000000000E+00  0.00000000000E+00  0.99999998245E-14  0.12509000000E+03  0.12509000000E+03 0.  0.
        -13    1    3    3    0    0  0.53298948831E+01  0.36150568117E+02 -0.24176538793E+02  0.43815380253E+02  0.10566000000E+00 0. -1.
         23    2    1    0    0    0 -0.18255003514E+02  0.10634200929E+02  0.17200487151E+02  0.97846869839E+02  0.93977772885E+02 0.  0.
         13    1    3    3    0    0 -0.23584898398E+02 -0.25516367188E+02  0.41377025945E+02  0.54031489587E+02  0.10566000000E+00 0.  1.
         22    1    1    0    0    0  0.18255003514E+02 -0.10634200929E+02 -0.17200487151E+02  0.27243130161E+02  0.00000000000E+00 0.  1.
</event>
<event>
 5    1  0.1259474E-009  0.9118800E+02  0.7815553E-02  0.1125453E+00
         25   -1    0    0    0    0  0.00000000000E+00  0.00000000000E+00  0.99999998245E-14  0.12509000000E+03  0.12509000000E+03 0.  0.
        -13    1    3    3    0    0  0.23191687447E+02  0.17755849121E+02  0.30078760421E+02  0.41926930930E+02  0.10566000000E+00 0. -1.
         23    2    1    0    0    0 -0.11497125317E+02 -0.21837588223E+02  0.12508926845E+02  0.97421653450E+02  0.93410069908E+02 0.  0.
         13    1    3    3    0    0 -0.34688812764E+02 -0.39593437345E+02 -0.17569833576E+02  0.55494722521E+02  0.10566000000E+00 0.  1.
         22    1    1    0    0    0  0.11497125317E+02  0.21837588223E+02 -0.12508926845E+02  0.27668346550E+02  0.00000000000E+00 0. -1.
</event>
<event>
 5    1  0.1259474E-009  0.9118800E+02  0.7815553E-02  0.1125453E+00
         25   -1    0    0    0    0  0.00000000000E+00  0.00000000000E+00  0.99999998245E-14  0.12509000000E+03  0.12509000000E+03 0.  0.
        -13    1    3    3    0    0 -0.37489027852E+02  0.35380476716E+02 -0.24094991402E+01  0.51604478412E+02  0.10566000000E+00 0.  1.
         23    2    1    0    0    0 -0.10295161134E+02  0.84608919314E+01 -0.25515525793E+02  0.96304255411E+02  0.91901526205E+02 0.  0.
         13    1    3    3    0    0  0.27193866719E+02 -0.26919584785E+02 -0.23106026653E+02  0.44699777000E+02  0.10566000000E+00 0. -1.
         22    1    1    0    0    0  0.10295161134E+02 -0.84608919314E+01  0.25515525793E+02  0.28785744589E+02  0.00000000000E+00 0.  1.
</event>
<event>
 5    1  0.1259474E-009  0.9118800E+02  0.7815553E-02  0.1125453E+00
         25   -1    0    0    0    0  0.00000000000E+00  0.00000000000E+00  0.99999998245E-14  0.12509000000E+03  0.12509000000E+03 0.  0.
        -13    1    3    3    0    0  0.15845612670E+01  0.10810213548E+01  0.33554883126E+02  0.33609831705E+02  0.10566000000E+00 0.  1.
         23    2    1    0    0    0 -0.11616058407E+02 -0.65807391280E+01 -0.26415656383E+02  0.95492266260E+02  0.90789575795E+02 0.  0.
         13    1    3    3    0    0 -0.13200619674E+02 -0.76617604828E+01 -0.59970539509E+02  0.61882434556E+02  0.10566000000E+00 0. -1.
         22    1    1    0    0    0  0.11616058407E+02  0.65807391280E+01  0.26415656383E+02  0.29597733740E+02  0.00000000000E+00 0. -1.
</event>
<event>
 5    1  0.1259474E-009  0.9118800E+02  0.7815553E-02  0.1125453E+00
         25   -1    0    0    0    0  0.00000000000E+00  0.00000000000E+00  0.99999998245E-14  0.12509000000E+03  0.12509000000E+03 0.  0.
        -13    1    3    3    0    0 -0.29286363954E+01  0.12600354950E+02 -0.22849170084E+02  0.26257219837E+02  0.10566000000E+00 0.  1.
         23    2    1    0    0    0  0.59263891764E+01 -0.29127713105E+02  0.21967051353E+02  0.88129249135E+02  0.80004171444E+02 0.  0.
         13    1    3    3    0    0  0.88550255718E+01 -0.41728068055E+02  0.44816221437E+02  0.61872029298E+02  0.10566000000E+00 0. -1.
         22    1    1    0    0    0 -0.59263891764E+01  0.29127713105E+02 -0.21967051353E+02  0.36960750865E+02  0.00000000000E+00 0. -1.
</event>
<event>
 5    1  0.1259474E-009  0.9118800E+02  0.7815553E-02  0.1125453E+00
         25   -1    0    0    0    0  0.00000000000E+00  0.00000000000E+00  0.99999998245E-14  0.12509000000E+03  0.12509000000E+03 0.  0.
        -13    1    3    3    0    0 -0.52602097355E+02  0.77850413372E-01  0.21501808204E+02  0.56827155717E+02  0.10566000000E+00 0.  1.
         23    2    1    0    0    0 -0.27282055168E+02 -0.14666164544E+02 -0.15029290483E+01  0.94079264563E+02  0.88821406814E+02 0.  0.
         13    1    3    3    0    0  0.25320042187E+02 -0.14744014958E+02 -0.23004737252E+02  0.37252108846E+02  0.10566000000E+00 0. -1.
         22    1    1    0    0    0  0.27282055168E+02  0.14666164544E+02  0.15029290483E+01  0.31010735437E+02  0.00000000000E+00 0.  1.
</event>
<event>
 5    1  0.1259474E-009  0.9118800E+02  0.7815553E-02  0.1125453E+00
         25   -1    0    0    0    0  0.00000000000E+00  0.00000000000E+00  0.99999998245E-14  0.12509000000E+03  0.12509000000E+03 0.  0.
        -13    1    3    3    0    0  0.13231954520E+02  0.43139058028E+02  0.42112964671E+02  0.61721762008E+02  0.10566000000E+00 0.  1.
         23    2    1    0    0    0  0.11295154910E+02  0.15872427822E+02  0.22279810027E+02  0.95494317473E+02  0.90792401914E+02 0.  0.
         13    1    3    3    0    0 -0.19367996101E+01 -0.27266630206E+02 -0.19833154643E+02  0.33772555465E+02  0.10566000000E+00 0. -1.
         22    1    1    0    0    0 -0.11295154910E+02 -0.15872427822E+02 -0.22279810027E+02  0.29595682527E+02  0.00000000000E+00 0.  1.
</event>
<event>
 5    1  0.1259474E-009  0.9118800E+02  0.7815553E-02  0.1125453E+00
         25   -1    0    0    0    0  0.00000000000E+00  0.00000000000E+00  0.99999998245E-14  0.12509000000E+03  0.12509000000E+03 0.  0.
        -13    1    3    3    0    0 -0.74160167725E+01 -0.45783128241E+02  0.24729534142E+02  0.52560947092E+02  0.10566000000E+00 0. -1.
         23    2    1    0    0    0  0.20898153527E+02 -0.18343943247E+02  0.43506095338E+01  0.96944647311E+02  0.92769088409E+02 0.  0.
         13    1    3    3    0    0  0.28314170300E+02  0.27439184994E+02 -0.20378924608E+02  0.44383700219E+02  0.10566000000E+00 0.  1.
         22    1    1    0    0    0 -0.20898153527E+02  0.18343943247E+02 -0.43506095338E+01  0.28145352689E+02  0.00000000000E+00 0. -1.
</event>
<event>
 5    1  0.1259474E-009  0.9118800E+02  0.7815553E-02  0.1125453E+00
         25   -1    0    0    0    0  0.00000000000E+00  0.00000000000E+00  0.99999998245E-14  0.12509000000E+03  0.12509000000E+03 0.  0.
        -13    1    3    3    0    0 -0.16852609788E+02  0.14750171122E+02  0.45617008472E+01  0.22856033852E+02  0.10566000000E+00 0.  1.
         23    2    1    0    0    0  0.34314355943E+02 -0.90602284578E+01  0.23660288968E+02  0.82435902453E+02  0.70542937107E+02 0.  0.
         13    1    3    3    0    0  0.51166965731E+02 -0.23810399580E+02  0.19098588121E+02  0.59579868601E+02  0.10566000000E+00 0. -1.
         22    1    1    0    0    0 -0.34314355943E+02  0.90602284578E+01 -0.23660288968E+02  0.42654097547E+02  0.00000000000E+00 0. -1.
</event>
<event>
 5    1  0.1259474E-009  0.9118800E+02  0.7815553E-02  0.1125453E+00
         25   -1    0    0    0    0  0.00000000000E+00  0.00000000000E+00  0.99999998245E-14  0.12509000000E+03  0.12509000000E+03 0.  0.
        -13    1    3    3    0    0  0.15668144125E+02  0.43211448122E+01 -0.42394166576E+02  0.45403078711E+02  0.10566000000E+00 0. -1.
         23    2    1    0    0    0 -0.63151301447E+01 -0.22999215520E+02  0.10288189065E+01  0.10121735349E+03  0.98361828953E+02 0.  0.
         13    1    3    3    0    0 -0.21983274269E+02 -0.27320360332E+02  0.43422985482E+02  0.55814274774E+02  0.10566000000E+00 0.  1.
         22    1    1    0    0    0  0.63151301447E+01  0.22999215520E+02 -0.10288189065E+01  0.23872646515E+02  0.00000000000E+00 0. -1.
</event>
<event>
 5    1  0.1259474E-009  0.9118800E+02  0.7815553E-02  0.1125453E+00
         25   -1    0    0    0    0  0.00000000000E+00  0.00000000000E+00  0.99999998245E-14  0.12509000000E+03  0.12509000000E+03 0.  0.
        -13    1    3    3    0    0 -0.14237364360E+02 -0.46798332189E+02  0.20944905317E+02  0.53211715461E+02  0.10566000000E+00 0. -1.
         23    2    1    0    0    0 -0.19292043070E+02 -0.15091941901E+02 -0.10762276801E+02  0.98336005194E+02  0.94626601330E+02 0.  0.
         13    1    3    3    0    0 -0.50546787105E+01  0.31706390288E+02 -0.31707182118E+02  0.45124289732E+02  0.10566000000E+00 0.  1.
         22    1    1    0    0    0  0.19292043070E+02  0.15091941901E+02  0.10762276801E+02  0.26753994806E+02  0.00000000000E+00 0.  1.
</event>
<event>
 5    1  0.1259474E-009  0.9118800E+02  0.7815553E-02  0.1125453E+00
         25   -1    0    0    0    0  0.00000000000E+00  0.00000000000E+00  0.99999998245E-14  0.12509000000E+03  0.12509000000E+03 0.  0.
        -13    1    3    3    0    0 -0.17534921222E+02 -0.12025491329E+02 -0.37339189855E+02  0.42968734762E+02  0.10566000000E+00 0.  1.
         23    2    1    0    0    0  0.24164049710E+02  0.97598573826E+01 -0.14513894969E+02  0.95260329172E+02  0.90469448171E+02 0.  0.
         13    1    3    3    0    0  0.41698970932E+02  0.21785348712E+02  0.22825294887E+02  0.52291594410E+02  0.10566000000E+00 0. -1.
         22    1    1    0    0    0 -0.24164049710E+02 -0.97598573826E+01  0.14513894969E+02  0.29829670828E+02  0.00000000000E+00 0. -1.
</event>
<event>
 5    1  0.1259474E-009  0.9118800E+02  0.7815553E-02  0.1125453E+00
         25   -1    0    0    0    0  0.00000000000E+00  0.00000000000E+00  0.99999998245E-14  0.12509000000E+03  0.12509000000E+03 0.  0.
        -13    1    3    3    0    0 -0.10728226681E+02 -0.59498418389E+02  0.12883020452E+02  0.61815370407E+02  0.10566000000E+00 0.  1.
         23    2    1    0    0    0 -0.49493404992E+00 -0.25319187203E+02  0.10813782704E+02  0.97553767565E+02  0.93586823161E+02 0.  0.
         13    1    3    3    0    0  0.10233292631E+02  0.34179231186E+02 -0.20692377471E+01  0.35738397158E+02  0.10566000000E+00 0. -1.
         22    1    1    0    0    0  0.49493404992E+00  0.25319187203E+02 -0.10813782704E+02  0.27536232435E+02  0.00000000000E+00 0.  1.
</event>
<event>
 5    1  0.1259474E-009  0.9118800E+02  0.7815553E-02  0.1125453E+00
         25   -1    0    0    0    0  0.00000000000E+00  0.00000000000E+00  0.99999998245E-14  0.12509000000E+03  0.12509000000E+03 0.  0.
        -13    1    3    3    0    0  0.13497454078E+02  0.25625633006E+02 -0.30569977741E+02  0.42111625909E+02  0.10566000000E+00 0. -1.
         23    2    1    0    0    0  0.21947627459E+02 -0.17853238292E+02  0.14418588773E+01  0.96761296789E+02  0.92521527931E+02 0.  0.
         13    1    3    3    0    0  0.84501733812E+01 -0.43478871298E+02  0.32011836618E+02  0.54649670880E+02  0.10566000000E+00 0.  1.
         22    1    1    0    0    0 -0.21947627459E+02  0.17853238292E+02 -0.14418588773E+01  0.28328703211E+02  0.00000000000E+00 0.  1.
</event>
<event>
 5    1  0.1259474E-009  0.9118800E+02  0.7815553E-02  0.1125453E+00
         25   -1    0    0    0    0  0.00000000000E+00  0.00000000000E+00  0.99999998245E-14  0.12509000000E+03  0.12509000000E+03 0.  0.
        -13    1    3    3    0    0 -0.19980424865E+02 -0.11835178884E+02  0.27405188191E+02  0.35921363293E+02  0.10566000000E+00 0. -1.
         23    2    1    0    0    0  0.25628288430E+02  0.16240166851E+02  0.35803761752E+01  0.94538874313E+02  0.89466348286E+02 0.  0.
         13    1    3    3    0    0  0.45608713295E+02  0.28075345735E+02 -0.23824812016E+02  0.58617511020E+02  0.10566000000E+00 0.  1.
         22    1    1    0    0    0 -0.25628288430E+02 -0.16240166851E+02 -0.35803761752E+01  0.30551125687E+02  0.00000000000E+00 0.  1.
</event>
<event>
 5    1  0.1259474E-009  0.9118800E+02  0.7815553E-02  0.1125453E+00
         25   -1    0    0    0    0  0.00000000000E+00  0.00000000000E+00  0.99999998245E-14  0.12509000000E+03  0.12509000000E+03 0.  0.
        -13    1    3    3    0    0 -0.37428524436E+02 -0.15428318463E+02 -0.85205837248E+01  0.41370750091E+02  0.10566000000E+00 0.  1.
         23    2    1    0    0    0 -0.74814769149E+01  0.21330719379E+02 -0.24830524236E+02  0.91511330879E+02  0.85128119088E+02 0.  0.
         13    1    3    3    0    0  0.29947047521E+02  0.36759037842E+02 -0.16309940511E+02  0.50140580789E+02  0.10566000000E+00 0. -1.
         22    1    1    0    0    0  0.74814769149E+01 -0.21330719379E+02  0.24830524236E+02  0.33578669121E+02  0.00000000000E+00 0.  1.
</event>
<event>
 5    1  0.1259474E-009  0.9118800E+02  0.7815553E-02  0.1125453E+00
         25   -1    0    0    0    0  0.00000000000E+00  0.00000000000E+00  0.99999998245E-14  0.12509000000E+03  0.12509000000E+03 0.  0.
        -13    1    3    3    0    0 -0.44582456899E+02 -0.30563335959E+02  0.22578277096E+02  0.58579029770E+02  0.10566000000E+00 0. -1.
         23    2    1    0    0    0 -0.13150928197E+02 -0.12023085952E+02  0.24117777496E+02  0.95103858208E+02  0.90252840102E+02 0.  0.
         13    1    3    3    0    0  0.31431528702E+02  0.18540250007E+02  0.15395003993E+01  0.36524828438E+02  0.10566000000E+00 0.  1.
         22    1    1    0    0    0  0.13150928197E+02  0.12023085952E+02 -0.24117777496E+02  0.29986141792E+02  0.00000000000E+00 0. -1.
</event>
<event>
 5    1  0.1259474E-009  0.9118800E+02  0.7815553E-02  0.1125453E+00
         25   -1    0    0    0    0  0.00000000000E+00  0.00000000000E+00  0.99999998245E-14  0.12509000000E+03  0.12509000000E+03 0.  0.
        -13    1    3    3    0    0 -0.13400475763E+02 -0.33298688582E+02 -0.18081723430E+02  0.40191234096E+02  0.10566000000E+00 0. -1.
         23    2    1    0    0    0 -0.13092735978E+02  0.22234970356E+02 -0.13640292831E+02  0.95903166827E+02  0.91353960926E+02 0.  0.
         13    1    3    3    0    0  0.30773978509E+00  0.55533658938E+02  0.44414305986E+01  0.55711932731E+02  0.10566000000E+00 0.  1.
         22    1    1    0    0    0  0.13092735978E+02 -0.22234970356E+02  0.13640292831E+02  0.29186833173E+02  0.00000000000E+00 0.  1.
</event>
<event>
 5    1  0.1259474E-009  0.9118800E+02  0.7815553E-02  0.1125453E+00
         25   -1    0    0    0    0  0.00000000000E+00  0.00000000000E+00  0.99999998245E-14  0.12509000000E+03  0.12509000000E+03 0.  0.
        -13    1    3    3    0    0 -0.25920199755E+02  0.18249107519E+02 -0.53818668131E+02  0.62460762756E+02  0.10566000000E+00 0.  1.
         23    2    1    0    0    0 -0.17037642239E+02  0.95767346854E+01 -0.34925569164E+02  0.85067625236E+02  0.75064707963E+02 0.  0.
         13    1    3    3    0    0  0.88825575154E+01 -0.86723728335E+01  0.18893098967E+02  0.22606862480E+02  0.10566000000E+00 0. -1.
         22    1    1    0    0    0  0.17037642239E+02 -0.95767346854E+01  0.34925569164E+02  0.40022374764E+02  0.00000000000E+00 0.  1.
</event>
<event>
 5    1  0.1259474E-009  0.9118800E+02  0.7815553E-02  0.1125453E+00
         25   -1    0    0    0    0  0.00000000000E+00  0.00000000000E+00  0.99999998245E-14  0.12509000000E+03  0.12509000000E+03 0.  0.
        -13    1    3    3    0    0  0.22264455625E+02 -0.24682584769E+02  0.13730115447E+02  0.35964749539E+02  0.10566000000E+00 0. -1.
         23    2    1    0    0    0 -0.90370516179E+00  0.24670962107E+02 -0.13548365139E+02  0.96929189425E+02  0.92748242626E+02 0.  0.
         13    1    3    3    0    0 -0.23168160787E+02  0.49353546876E+02 -0.27278480586E+02  0.60964439886E+02  0.10566000000E+00 0.  1.
         22    1    1    0    0    0  0.90370516179E+00 -0.24670962107E+02  0.13548365139E+02  0.28160810575E+02  0.00000000000E+00 0.  1.
</event>
<event>
 5    1  0.1259474E-009  0.9118800E+02  0.7815553E-02  0.1125453E+00
         25   -1    0    0    0    0  0.00000000000E+00  0.00000000000E+00  0.99999998245E-14  0.12509000000E+03  0.12509000000E+03 0.  0.
        -13    1    3    3    0    0 -0.38565117806E+02  0.11186836649E+01 -0.43942589873E+01  0.38830921192E+02  0.10566000000E+00 0.  1.
         23    2    1    0    0    0  0.14500180247E+02 -0.32777763895E+01 -0.25063717322E+02  0.95949152874E+02  0.91416907440E+02 0.  0.
         13    1    3    3    0    0  0.53065298054E+02 -0.43964600543E+01 -0.20669458334E+02  0.57118231681E+02  0.10566000000E+00 0. -1.
         22    1    1    0    0    0 -0.14500180247E+02  0.32777763895E+01  0.25063717322E+02  0.29140847126E+02  0.00000000000E+00 0. -1.
</event>
<event>
 5    1  0.1259474E-009  0.9118800E+02  0.7815553E-02  0.1125453E+00
         25   -1    0    0    0    0  0.00000000000E+00  0.00000000000E+00  0.99999998245E-14  0.12509000000E+03  0.12509000000E+03 0.  0.
        -13    1    3    3    0    0 -0.20522765410E+02  0.41481363470E+02 -0.93846247460E+01  0.47222555639E+02  0.10566000000E+00 0. -1.
         23    2    1    0    0    0 -0.23436988743E+02 -0.64175755496E+01 -0.16475904605E+02  0.95731301973E+02  0.91118324324E+02 0.  0.
         13    1    3    3    0    0 -0.29142233331E+01 -0.47898939020E+02 -0.70912798586E+01  0.48508746334E+02  0.10566000000E+00 0.  1.
         22    1    1    0    0    0  0.23436988743E+02  0.64175755496E+01  0.16475904605E+02  0.29358698027E+02  0.00000000000E+00 0.  1.
</event>
<event>
 5    1  0.1259474E-009  0.9118800E+02  0.7815553E-02  0.1125453E+00
         25   -1    0    0    0    0  0.00000000000E+00  0.00000000000E+00  0.99999998245E-14  0.12509000000E+03  0.12509000000E+03 0.  0.
        -13    1    3    3    0    0 -0.23261335233E+02 -0.32679104718E+02  0.45147279880E+02  0.60392894008E+02  0.10566000000E+00 0. -1.
         23    2    1    0    0    0 -0.15935766740E+02 -0.52530167233E+01  0.24065006806E+02  0.95752866553E+02  0.91147924026E+02 0.  0.
         13    1    3    3    0    0  0.73255684931E+01  0.27426087995E+02 -0.21082273074E+02  0.35359972546E+02  0.10566000000E+00 0.  1.
         22    1    1    0    0    0  0.15935766740E+02  0.52530167233E+01 -0.24065006806E+02  0.29337133447E+02  0.00000000000E+00 0. -1.
</event>
<event>
 5    1  0.1259474E-009  0.9118800E+02  0.7815553E-02  0.1125453E+00
         25   -1    0    0    0    0  0.00000000000E+00  0.00000000000E+00  0.99999998245E-14  0.12509000000E+03  0.12509000000E+03 0.  0.
        -13    1    3    3    0    0 -0.27449054901E+01 -0.37360356888E+02 -0.69273692547E+01  0.38096330293E+02  0.10566000000E+00 0.  1.
         23    2    1    0    0    0  0.25887695213E+02  0.12433344621E+02 -0.69793011367E+01  0.95535449314E+02  0.90849053982E+02 0.  0.
         13    1    3    3    0    0  0.28632600703E+02  0.49793701509E+02 -0.51931882002E-01  0.57439119021E+02  0.10566000000E+00 0. -1.
         22    1    1    0    0    0 -0.25887695213E+02 -0.12433344621E+02  0.69793011367E+01  0.29554550686E+02  0.00000000000E+00 0. -1.
</event>
<event>
 5    1  0.1259474E-009  0.9118800E+02  0.7815553E-02  0.1125453E+00
         25   -1    0    0    0    0  0.00000000000E+00  0.00000000000E+00  0.99999998245E-14  0.12509000000E+03  0.12509000000E+03 0.  0.
        -13    1    3    3    0    0  0.16416934135E+02 -0.32015919880E+02  0.41605327962E+02  0.55004993692E+02  0.10566000000E+00 0. -1.
         23    2    1    0    0    0  0.24862070706E+02 -0.22708762423E+01  0.13936362226E+02  0.96498014571E+02  0.92164880434E+02 0.  0.
         13    1    3    3    0    0  0.84451365705E+01  0.29745043638E+02 -0.27668965737E+02  0.41493020879E+02  0.10566000000E+00 0.  1.
         22    1    1    0    0    0 -0.24862070706E+02  0.22708762423E+01 -0.13936362226E+02  0.28591985429E+02  0.00000000000E+00 0. -1.
</event>
<event>
 5    1  0.1259474E-009  0.9118800E+02  0.7815553E-02  0.1125453E+00
         25   -1    0    0    0    0  0.00000000000E+00  0.00000000000E+00  0.99999998245E-14  0.12509000000E+03  0.12509000000E+03 0.  0.
        -13    1    3    3    0    0  0.41905451524E+02  0.16738532254E+02  0.13873779879E+02  0.47209514524E+02  0.10566000000E+00 0. -1.
         23    2    1    0    0    0  0.58280925796E+01 -0.13652084510E+02  0.25310363098E+02  0.95747870651E+02  0.91141067469E+02 0.  0.
         13    1    3    3    0    0 -0.36077358945E+02 -0.30390616764E+02  0.11436583219E+02  0.48538356127E+02  0.10566000000E+00 0.  1.
         22    1    1    0    0    0 -0.58280925796E+01  0.13652084510E+02 -0.25310363098E+02  0.29342129349E+02  0.00000000000E+00 0. -1.
</event>
<event>
 5    1  0.1259474E-009  0.9118800E+02  0.7815553E-02  0.1125453E+00
         25   -1    0    0    0    0  0.00000000000E+00  0.00000000000E+00  0.99999998245E-14  0.12509000000E+03  0.12509000000E+03 0.  0.
        -13    1    3    3    0    0 -0.23505476760E+02 -0.54665914456E+02  0.11875931237E+02  0.60678814654E+02  0.10566000000E+00 0.  1.
         23    2    1    0    0    0 -0.19752234544E+02 -0.43706960257E+02  0.19977934624E+00  0.77126586274E+02  0.60398851430E+02 0.  0.
         13    1    3    3    0    0  0.37532422157E+01  0.10958954199E+02 -0.11676151891E+02  0.16447771620E+02  0.10566000000E+00 0. -1.
         22    1    1    0    0    0  0.19752234544E+02  0.43706960257E+02 -0.19977934624E+00  0.47963413726E+02  0.00000000000E+00 0.  1.
</event>
<event>
 5    1  0.1259474E-009  0.9118800E+02  0.7815553E-02  0.1125453E+00
         25   -1    0    0    0    0  0.00000000000E+00  0.00000000000E+00  0.99999998245E-14  0.12509000000E+03  0.12509000000E+03 0.  0.
        -13    1    3    3    0    0 -0.23473778455E+02 -0.30996299672E+02  0.18160408103E+02  0.42913872522E+02  0.10566000000E+00 0.  1.
         23    2    1    0    0    0  0.11422961985E+02 -0.17434119498E+02 -0.19878853948E+02  0.96287197750E+02  0.91878305562E+02 0.  0.
         13    1    3    3    0    0  0.34896740440E+02  0.13562180175E+02 -0.38039262051E+02  0.53373325228E+02  0.10566000000E+00 0. -1.
         22    1    1    0    0    0 -0.11422961985E+02  0.17434119498E+02  0.19878853948E+02  0.28802802250E+02  0.00000000000E+00 0. -1.
</event>
<event>
 5    1  0.1259474E-009  0.9118800E+02  0.7815553E-02  0.1125453E+00
         25   -1    0    0    0    0  0.00000000000E+00  0.00000000000E+00  0.99999998245E-14  0.12509000000E+03  0.12509000000E+03 0.  0.
        -13    1    3    3    0    0 -0.30374946268E+02  0.38235403981E+02 -0.86678173344E+01  0.49595621780E+02  0.10566000000E+00 0. -1.
         23    2    1    0    0    0 -0.93927445230E+01  0.34128852740E+01 -0.28542117116E+02  0.94848904037E+02  0.89898780369E+02 0.  0.
         13    1    3    3    0    0  0.20982201745E+02 -0.34822518707E+02 -0.19874299782E+02  0.45253282257E+02  0.10566000000E+00 0.  1.
         22    1    1    0    0    0  0.93927445230E+01 -0.34128852740E+01  0.28542117116E+02  0.30241095963E+02  0.00000000000E+00 0. -1.
</event>
<event>
 5    1  0.1259474E-009  0.9118800E+02  0.7815553E-02  0.1125453E+00
         25   -1    0    0    0    0  0.00000000000E+00  0.00000000000E+00  0.99999998245E-14  0.12509000000E+03  0.12509000000E+03 0.  0.
        -13    1    3    3    0    0 -0.29816949957E+02  0.37820103474E+02 -0.38749405685E+02  0.61813739059E+02  0.10566000000E+00 0.  1.
         23    2    1    0    0    0 -0.71878979927E+01  0.19068685480E+02 -0.19050011663E+02  0.97194057860E+02  0.93104786641E+02 0.  0.
         13    1    3    3    0    0  0.22629051965E+02 -0.18751417993E+02  0.19699394022E+02  0.35380318801E+02  0.10566000000E+00 0. -1.
         22    1    1    0    0    0  0.71878979927E+01 -0.19068685480E+02  0.19050011663E+02  0.27895942140E+02  0.00000000000E+00 0.  1.
</event>
<event>
 5    1  0.1259474E-009  0.9118800E+02  0.7815553E-02  0.1125453E+00
         25   -1    0    0    0    0  0.00000000000E+00  0.00000000000E+00  0.99999998245E-14  0.12509000000E+03  0.12509000000E+03 0.  0.
        -13    1    3    3    0    0  0.29079231334E+02  0.71205588374E+01  0.34274541316E+01  0.30134078035E+02  0.10566000000E+00 0.  1.
         23    2    1    0    0    0 -0.29762808226E+02 -0.10856390373E+02 -0.72737314807E+01  0.92584721427E+02  0.86691046289E+02 0.  0.
         13    1    3    3    0    0 -0.58842039561E+02 -0.17976949210E+02 -0.10701185612E+02  0.62450643392E+02  0.10566000000E+00 0. -1.
         22    1    1    0    0    0  0.29762808226E+02  0.10856390373E+02  0.72737314807E+01  0.32505278573E+02  0.00000000000E+00 0. -1.
</event>
<event>
 5    1  0.1259474E-009  0.9118800E+02  0.7815553E-02  0.1125453E+00
         25   -1    0    0    0    0  0.00000000000E+00  0.00000000000E+00  0.99999998245E-14  0.12509000000E+03  0.12509000000E+03 0.  0.
        -13    1    3    3    0    0  0.48994399974E+02 -0.34794230710E+02  0.94936126171E+01  0.60837731418E+02  0.10566000000E+00 0.  1.
         23    2    1    0    0    0  0.28797495738E+02 -0.78065777988E+01  0.46935697782E+01  0.94886225154E+02  0.89950695990E+02 0.  0.
         13    1    3    3    0    0 -0.20196904236E+02  0.26987652912E+02 -0.48000428388E+01  0.34048493736E+02  0.10566000000E+00 0. -1.
         22    1    1    0    0    0 -0.28797495738E+02  0.78065777988E+01 -0.46935697782E+01  0.30203774846E+02  0.00000000000E+00 0.  1.
</event>
<event>
 5    1  0.1259474E-009  0.9118800E+02  0.7815553E-02  0.1125453E+00
         25   -1    0    0    0    0  0.00000000000E+00  0.00000000000E+00  0.99999998245E-14  0.12509000000E+03  0.12509000000E+03 0.  0.
        -13    1    3    3    0    0 -0.36423239195E+02 -0.51850125797E+01 -0.43792199189E+01  0.37050309581E+02  0.10566000000E+00 0.  1.
         23    2    1    0    0    0  0.12860911417E+02 -0.14836077281E+01  0.26688632047E+02  0.95427107105E+02  0.90699754992E+02 0.  0.
         13    1    3    3    0    0  0.49284150611E+02  0.37014048516E+01  0.31067851966E+02  0.58376797524E+02  0.10566000000E+00 0. -1.
         22    1    1    0    0    0 -0.12860911417E+02  0.14836077281E+01 -0.26688632047E+02  0.29662892895E+02  0.00000000000E+00 0. -1.
</event>
<event>
 5    1  0.1259474E-009  0.9118800E+02  0.7815553E-02  0.1125453E+00
         25   -1    0    0    0    0  0.00000000000E+00  0.00000000000E+00  0.99999998245E-14  0.12509000000E+03  0.12509000000E+03 0.  0.
        -13    1    3    3    0    0  0.22286075085E+02 -0.28087721841E+02 -0.49601420086E+01  0.36196732362E+02  0.10566000000E+00 0.  1.
         23    2    1    0    0    0 -0.35687080208E+01  0.13974861334E+02  0.26625394846E+02  0.94808915525E+02  0.89843120973E+02 0.  0.
         13    1    3    3    0    0 -0.25854783106E+02  0.42062583174E+02  0.31585536855E+02  0.58612183164E+02  0.10566000000E+00 0. -1.
         22    1    1    0    0    0  0.35687080208E+01 -0.13974861334E+02 -0.26625394846E+02  0.30281084475E+02  0.00000000000E+00 0. -1.
</event>
<event>
 5    1  0.1259474E-009  0.9118800E+02  0.7815553E-02  0.1125453E+00
         25   -1    0    0    0    0  0.00000000000E+00  0.00000000000E+00  0.99999998245E-14  0.12509000000E+03  0.12509000000E+03 0.  0.
        -13    1    3    3    0    0  0.28581354876E+02  0.57892125427E+00  0.48026889111E+02  0.55891164222E+02  0.10566000000E+00 0.  1.
         23    2    1    0    0    0  0.29212974916E+02  0.85528979488E+01  0.12708296593E+02  0.92104385423E+02  0.85995157103E+02 0.  0.
         13    1    3    3    0    0  0.63162003959E+00  0.79739766945E+01 -0.35318592519E+02  0.36213221201E+02  0.10566000000E+00 0. -1.
         22    1    1    0    0    0 -0.29212974916E+02 -0.85528979488E+01 -0.12708296593E+02  0.32985614577E+02  0.00000000000E+00 0.  1.
</event>
<event>
 5    1  0.1259474E-009  0.9118800E+02  0.7815553E-02  0.1125453E+00
         25   -1    0    0    0    0  0.00000000000E+00  0.00000000000E+00  0.99999998245E-14  0.12509000000E+03  0.12509000000E+03 0.  0.
        -13    1    3    3    0    0 -0.82515455710E+01 -0.59377438749E+02 -0.52083842769E+01  0.60173970016E+02  0.10566000000E+00 0. -1.
         23    2    1    0    0    0 -0.75986164829E+01 -0.34849016599E+02 -0.14738502652E+02  0.86497042213E+02  0.77410089270E+02 0.  0.
         13    1    3    3    0    0  0.65292908810E+00  0.24528422150E+02 -0.95301183755E+01  0.26323072197E+02  0.10566000000E+00 0.  1.
         22    1    1    0    0    0  0.75986164829E+01  0.34849016599E+02  0.14738502652E+02  0.38592957787E+02  0.00000000000E+00 0. -1.
</event>
<event>
 5    1  0.1259474E-009  0.9118800E+02  0.7815553E-02  0.1125453E+00
         25   -1    0    0    0    0  0.00000000000E+00  0.00000000000E+00  0.99999998245E-14  0.12509000000E+03  0.12509000000E+03 0.  0.
        -13    1    3    3    0    0 -0.37378905339E+02  0.21405603436E+01 -0.35506444295E+02  0.51599256907E+02  0.10566000000E+00 0.  1.
         23    2    1    0    0    0 -0.81080522280E+01  0.24214093490E+02 -0.55134964135E+01  0.98966036342E+02  0.95455826811E+02 0.  0.
         13    1    3    3    0    0  0.29270853111E+02  0.22073533147E+02  0.29992947881E+02  0.47366779435E+02  0.10566000000E+00 0. -1.
         22    1    1    0    0    0  0.81080522280E+01 -0.24214093490E+02  0.55134964135E+01  0.26123963658E+02  0.00000000000E+00 0.  1.
</event>
<event>
 5    1  0.1259474E-009  0.9118800E+02  0.7815553E-02  0.1125453E+00
         25   -1    0    0    0    0  0.00000000000E+00  0.00000000000E+00  0.99999998245E-14  0.12509000000E+03  0.12509000000E+03 0.  0.
        -13    1    3    3    0    0  0.46472372451E+02 -0.60450179142E+01  0.24354682826E+02  0.52814632275E+02  0.10566000000E+00 0. -1.
         23    2    1    0    0    0  0.31983296356E+02  0.17524458594E+01 -0.10519425837E+02  0.91375602005E+02  0.84928440522E+02 0.  0.
         13    1    3    3    0    0 -0.14489076095E+02  0.77974637736E+01 -0.34874108663E+02  0.38560969729E+02  0.10566000000E+00 0.  1.
         22    1    1    0    0    0 -0.31983296356E+02 -0.17524458594E+01  0.10519425837E+02  0.33714397995E+02  0.00000000000E+00 0.  1.
</event>
<event>
 5    1  0.1259474E-009  0.9118800E+02  0.7815553E-02  0.1125453E+00
         25   -1    0    0    0    0  0.00000000000E+00  0.00000000000E+00  0.99999998245E-14  0.12509000000E+03  0.12509000000E+03 0.  0.
        -13    1    3    3    0    0  0.23447601414E+01  0.14569605929E+02 -0.44659009122E+02  0.47034132041E+02  0.10566000000E+00 0. -1.
         23    2    1    0    0    0  0.23798072458E+02 -0.13965384300E+02 -0.13725428480E+02  0.94271700269E+02  0.89092007909E+02 0.  0.
         13    1    3    3    0    0  0.21453312317E+02 -0.28534990228E+02  0.30933580642E+02  0.47237568228E+02  0.10566000000E+00 0.  1.
         22    1    1    0    0    0 -0.23798072458E+02  0.13965384300E+02  0.13725428480E+02  0.30818299731E+02  0.00000000000E+00 0. -1.
</event>
<event>
 5    1  0.1259474E-009  0.9118800E+02  0.7815553E-02  0.1125453E+00
         25   -1    0    0    0    0  0.00000000000E+00  0.00000000000E+00  0.99999998245E-14  0.12509000000E+03  0.12509000000E+03 0.  0.
        -13    1    3    3    0    0 -0.12582211926E+02 -0.29776353034E+02 -0.36594337089E+02  0.48827245755E+02  0.10566000000E+00 0. -1.
         23    2    1    0    0    0 -0.98775140477E+01 -0.31975821801E+02  0.55935854612E+01  0.91159089875E+02  0.84608941637E+02 0.  0.
         13    1    3    3    0    0  0.27046978782E+01 -0.21994687664E+01  0.42187922550E+02  0.42331844120E+02  0.10566000000E+00 0.  1.
         22    1    1    0    0    0  0.98775140477E+01  0.31975821801E+02 -0.55935854612E+01  0.33930910125E+02  0.00000000000E+00 0. -1.
</event>
<event>
 5    1  0.1259474E-009  0.9118800E+02  0.7815553E-02  0.1125453E+00
         25   -1    0    0    0    0  0.00000000000E+00  0.00000000000E+00  0.99999998245E-14  0.12509000000E+03  0.12509000000E+03 0.  0.
        -13    1    3    3    0    0 -0.18202113731E+02  0.21015842943E+02  0.37667670273E+02  0.46817167222E+02  0.10566000000E+00 0.  1.
         23    2    1    0    0    0  0.20919194703E+02  0.18315806907E+02  0.75034398235E+01  0.96290987884E+02  0.91883465590E+02 0.  0.
         13    1    3    3    0    0  0.39121308434E+02 -0.27000360366E+01 -0.30164230449E+02  0.49473820662E+02  0.10566000000E+00 0. -1.
         22    1    1    0    0    0 -0.20919194703E+02 -0.18315806907E+02 -0.75034398235E+01  0.28799012116E+02  0.00000000000E+00 0.  1.
</event>
<event>
 5    1  0.1259474E-009  0.9118800E+02  0.7815553E-02  0.1125453E+00
         25   -1    0    0    0    0  0.00000000000E+00  0.00000000000E+00  0.99999998245E-14  0.12509000000E+03  0.12509000000E+03 0.  0.
        -13    1    3    3    0    0 -0.40788301179E+02 -0.43063945129E+01  0.41946229507E+02  0.58666241405E+02  0.10566000000E+00 0. -1.
         23    2    1    0    0    0 -0.21658982418E+02 -0.16073873243E+02  0.13445773344E+02  0.94952486147E+02  0.90042794738E+02 0.  0.
         13    1    3    3    0    0  0.19129318761E+02 -0.11767478730E+02 -0.28500456163E+02  0.36286244741E+02  0.10566000000E+00 0.  1.
         22    1    1    0    0    0  0.21658982418E+02  0.16073873243E+02 -0.13445773344E+02  0.30137513853E+02  0.00000000000E+00 0. -1.
</event>
<event>
 5    1  0.1259474E-009  0.9118800E+02  0.7815553E-02  0.1125453E+00
         25   -1    0    0    0    0  0.00000000000E+00  0.00000000000E+00  0.99999998245E-14  0.12509000000E+03  0.12509000000E+03 0.  0.
        -13    1    3    3    0    0  0.10378359421E+01 -0.91643686844E+01 -0.42418128434E+02  0.43409348540E+02  0.10566000000E+00 0. -1.
         23    2    1    0    0    0 -0.20682857536E+02 -0.15966478879E+02  0.71901755023E+01  0.97990043037E+02  0.94168152085E+02 0.  0.
         13    1    3    3    0    0 -0.21720693478E+02 -0.68021101947E+01  0.49608303936E+02  0.54580694497E+02  0.10566000000E+00 0.  1.
         22    1    1    0    0    0  0.20682857536E+02  0.15966478879E+02 -0.71901755023E+01  0.27099956963E+02  0.00000000000E+00 0.  1.
</event>
<event>
 5    1  0.1259474E-009  0.9118800E+02  0.7815553E-02  0.1125453E+00
         25   -1    0    0    0    0  0.00000000000E+00  0.00000000000E+00  0.99999998245E-14  0.12509000000E+03  0.12509000000E+03 0.  0.
        -13    1    3    3    0    0  0.15061416623E+02 -0.31353022943E+02 -0.28747338430E+02  0.45125147636E+02  0.10566000000E+00 0. -1.
         23    2    1    0    0    0  0.17959315838E+02 -0.15361044024E+02  0.18492160719E+02  0.95082355859E+02  0.90223033028E+02 0.  0.
         13    1    3    3    0    0  0.28978992151E+01  0.15991978919E+02  0.47239499148E+02  0.49957208223E+02  0.10566000000E+00 0.  1.
         22    1    1    0    0    0 -0.17959315838E+02  0.15361044024E+02 -0.18492160719E+02  0.30007644141E+02  0.00000000000E+00 0. -1.
</event>
<event>
 5    1  0.1259474E-009  0.9118800E+02  0.7815553E-02  0.1125453E+00
         25   -1    0    0    0    0  0.00000000000E+00  0.00000000000E+00  0.99999998245E-14  0.12509000000E+03  0.12509000000E+03 0.  0.
        -13    1    3    3    0    0  0.31522447496E+02 -0.34808482018E+02  0.33268302692E+02  0.57550727576E+02  0.10566000000E+00 0.  1.
         23    2    1    0    0    0  0.24652147556E+02 -0.17890944743E+02  0.10162102176E+01  0.94613009235E+02  0.89569942226E+02 0.  0.
         13    1    3    3    0    0 -0.68702999403E+01  0.16917537274E+02 -0.32252092475E+02  0.37062281658E+02  0.10566000000E+00 0. -1.
         22    1    1    0    0    0 -0.24652147556E+02  0.17890944743E+02 -0.10162102176E+01  0.30476990765E+02  0.00000000000E+00 0.  1.
</event>
<event>
 5    1  0.1259474E-009  0.9118800E+02  0.7815553E-02  0.1125453E+00
         25   -1    0    0    0    0  0.00000000000E+00  0.00000000000E+00  0.99999998245E-14  0.12509000000E+03  0.12509000000E+03 0.  0.
        -13    1    3    3    0    0 -0.48222447097E+02  0.15649736131E+02 -0.96873443352E+01  0.51615641518E+02  0.10566000000E+00 0. -1.
         23    2    1    0    0    0 -0.45510158420E+01  0.25769597233E+02 -0.11556672341E+02  0.96483347585E+02  0.92144971642E+02 0.  0.
         13    1    3    3    0    0  0.43671431255E+02  0.10119861102E+02 -0.18693280062E+01  0.44867706068E+02  0.10566000000E+00 0.  1.
         22    1    1    0    0    0  0.45510158420E+01 -0.25769597233E+02  0.11556672341E+02  0.28606652415E+02  0.00000000000E+00 0. -1.
</event>
<event>
 5    1  0.1259474E-009  0.9118800E+02  0.7815553E-02  0.1125453E+00
         25   -1    0    0    0    0  0.00000000000E+00  0.00000000000E+00  0.99999998245E-14  0.12509000000E+03  0.12509000000E+03 0.  0.
        -13    1    3    3    0    0  0.19222300177E+02 -0.11768826247E+02 -0.20046006796E+02  0.30163813549E+02  0.10566000000E+00 0. -1.
         23    2    1    0    0    0 -0.18803591330E+02  0.16393280198E+02  0.20750725445E+02  0.92641467074E+02  0.86772888234E+02 0.  0.
         13    1    3    3    0    0 -0.38025891507E+02  0.28162106445E+02  0.40796732241E+02  0.62477653525E+02  0.10566000000E+00 0.  1.
         22    1    1    0    0    0  0.18803591330E+02 -0.16393280198E+02 -0.20750725445E+02  0.32448532926E+02  0.00000000000E+00 0.  1.
</event>
<event>
 5    1  0.1259474E-009  0.9118800E+02  0.7815553E-02  0.1125453E+00
         25   -1    0    0    0    0  0.00000000000E+00  0.00000000000E+00  0.99999998245E-14  0.12509000000E+03  0.12509000000E+03 0.  0.
        -13    1    3    3    0    0  0.31481377535E+02  0.18490894333E+02  0.38340668291E+02  0.52943444483E+02  0.10566000000E+00 0. -1.
         23    2    1    0    0    0 -0.69203227176E+01  0.10057486935E+02  0.29388369986E+02  0.93266734920E+02  0.87669627820E+02 0.  0.
         13    1    3    3    0    0 -0.38401700253E+02 -0.84334073977E+01 -0.89522983051E+01  0.40323290436E+02  0.10566000000E+00 0.  1.
         22    1    1    0    0    0  0.69203227176E+01 -0.10057486935E+02 -0.29388369986E+02  0.31823265080E+02  0.00000000000E+00 0. -1.
</event>
<event>
 5    1  0.1259474E-009  0.9118800E+02  0.7815553E-02  0.1125453E+00
         25   -1    0    0    0    0  0.00000000000E+00  0.00000000000E+00  0.99999998245E-14  0.12509000000E+03  0.12509000000E+03 0.  0.
        -13    1    3    3    0    0 -0.36258933249E+02 -0.33741749439E+02  0.59202967165E+00  0.49533600301E+02  0.10566000000E+00 0. -1.
         23    2    1    0    0    0 -0.25411561091E+02  0.12136672407E+02  0.31913582917E+01  0.96748669369E+02  0.92504453962E+02 0.  0.
         13    1    3    3    0    0  0.10847372158E+02  0.45878421846E+02  0.25993286201E+01  0.47215069068E+02  0.10566000000E+00 0.  1.
         22    1    1    0    0    0  0.25411561091E+02 -0.12136672407E+02 -0.31913582917E+01  0.28341330631E+02  0.00000000000E+00 0. -1.
</event>
<event>
 5    1  0.1259474E-009  0.9118800E+02  0.7815553E-02  0.1125453E+00
         25   -1    0    0    0    0  0.00000000000E+00  0.00000000000E+00  0.99999998245E-14  0.12509000000E+03  0.12509000000E+03 0.  0.
        -13    1    3    3    0    0  0.20593354196E+02  0.34580300211E+02 -0.22160291835E+01  0.40308874322E+02  0.10566000000E+00 0.  1.
         23    2    1    0    0    0 -0.20482483022E+02  0.32088049262E+01 -0.21263071399E+02  0.95392411796E+02  0.90651891779E+02 0.  0.
         13    1    3    3    0    0 -0.41075837218E+02 -0.31371495284E+02 -0.19047042215E+02  0.55083537475E+02  0.10566000000E+00 0. -1.
         22    1    1    0    0    0  0.20482483022E+02 -0.32088049262E+01  0.21263071399E+02  0.29697588204E+02  0.00000000000E+00 0. -1.
</event>
<event>
 5    1  0.1259474E-009  0.9118800E+02  0.7815553E-02  0.1125453E+00
         25   -1    0    0    0    0  0.00000000000E+00  0.00000000000E+00  0.99999998245E-14  0.12509000000E+03  0.12509000000E+03 0.  0.
        -13    1    3    3    0    0 -0.48145351281E+01  0.27903524885E+02 -0.15788484344E+02  0.32420269145E+02  0.10566000000E+00 0.  1.
         23    2    1    0    0    0 -0.67232875320E+00 -0.24121896056E+02  0.18341500309E+02  0.94779465052E+02  0.89802107250E+02 0.  0.
         13    1    3    3    0    0  0.41422063749E+01 -0.52025420941E+02  0.34129984653E+02  0.62359195907E+02  0.10566000000E+00 0. -1.
         22    1    1    0    0    0  0.67232875320E+00  0.24121896056E+02 -0.18341500309E+02  0.30310534948E+02  0.00000000000E+00 0. -1.
</event>
<event>
 5    1  0.1259474E-009  0.9118800E+02  0.7815553E-02  0.1125453E+00
         25   -1    0    0    0    0  0.00000000000E+00  0.00000000000E+00  0.99999998245E-14  0.12509000000E+03  0.12509000000E+03 0.  0.
        -13    1    3    3    0    0  0.83160498465E+01  0.54926971917E+02 -0.25999266025E+02  0.61335975797E+02  0.10566000000E+00 0. -1.
         23    2    1    0    0    0  0.48436148279E+01  0.27832539235E+02 -0.37009187177E+01  0.96597761684E+02  0.92300162070E+02 0.  0.
         13    1    3    3    0    0 -0.34724350186E+01 -0.27094432682E+02  0.22298347307E+02  0.35261785887E+02  0.10566000000E+00 0.  1.
         22    1    1    0    0    0 -0.48436148279E+01 -0.27832539235E+02  0.37009187177E+01  0.28492238316E+02  0.00000000000E+00 0. -1.
</event>
<event>
 5    1  0.1259474E-009  0.9118800E+02  0.7815553E-02  0.1125453E+00
         25   -1    0    0    0    0  0.00000000000E+00  0.00000000000E+00  0.99999998245E-14  0.12509000000E+03  0.12509000000E+03 0.  0.
        -13    1    3    3    0    0 -0.46057590058E+02  0.32247363805E+02 -0.35103771749E+01  0.56334074824E+02  0.10566000000E+00 0.  1.
         23    2    1    0    0    0 -0.11102701042E+02 -0.60537798094E+01  0.88675042997E+01  0.10964490845E+03  0.10855162411E+03 0.  0.
         13    1    3    3    0    0  0.34954889016E+02 -0.38301143615E+02  0.12377881475E+02  0.53310833629E+02  0.10566000000E+00 0. -1.
         22    1    1    0    0    0  0.11102701042E+02  0.60537798094E+01 -0.88675042997E+01  0.15445091547E+02  0.00000000000E+00 0. -1.
</event>
<event>
 5    1  0.1259474E-009  0.9118800E+02  0.7815553E-02  0.1125453E+00
         25   -1    0    0    0    0  0.00000000000E+00  0.00000000000E+00  0.99999998245E-14  0.12509000000E+03  0.12509000000E+03 0.  0.
        -13    1    3    3    0    0  0.56247966139E+02  0.52272124566E+01 -0.10431328534E+02  0.57445463040E+02  0.10566000000E+00 0.  1.
         23    2    1    0    0    0  0.21661972213E+02  0.18241097886E+02  0.26523960457E+01  0.96646830398E+02  0.92366638615E+02 0.  0.
         13    1    3    3    0    0 -0.34585993926E+02  0.13013885430E+02  0.13083724580E+02  0.39201367358E+02  0.10566000000E+00 0. -1.
         22    1    1    0    0    0 -0.21661972213E+02 -0.18241097886E+02 -0.26523960457E+01  0.28443169602E+02  0.00000000000E+00 0.  1.
</event>
<event>
 5    1  0.1259474E-009  0.9118800E+02  0.7815553E-02  0.1125453E+00
         25   -1    0    0    0    0  0.00000000000E+00  0.00000000000E+00  0.99999998245E-14  0.12509000000E+03  0.12509000000E+03 0.  0.
        -13    1    3    3    0    0  0.22239985932E+02  0.26383086561E+02  0.83340689112E+01  0.35498621091E+02  0.10566000000E+00 0.  1.
         23    2    1    0    0    0 -0.22464451637E+02 -0.37520065013E+01 -0.18525021293E+02  0.95731771954E+02  0.91118969525E+02 0.  0.
         13    1    3    3    0    0 -0.44704437569E+02 -0.30135093062E+02 -0.26859090204E+02  0.60233150862E+02  0.10566000000E+00 0. -1.
         22    1    1    0    0    0  0.22464451637E+02  0.37520065013E+01  0.18525021293E+02  0.29358228046E+02  0.00000000000E+00 0. -1.
</event>
<event>
 5    1  0.1259474E-009  0.9118800E+02  0.7815553E-02  0.1125453E+00
         25   -1    0    0    0    0  0.00000000000E+00  0.00000000000E+00  0.99999998245E-14  0.12509000000E+03  0.12509000000E+03 0.  0.
        -13    1    3    3    0    0 -0.20526055012E+02  0.28127105507E+02  0.58275583227E+01  0.35304739039E+02  0.10566000000E+00 0.  1.
         23    2    1    0    0    0  0.22538580973E+01 -0.20926511445E+02 -0.20720917292E+02  0.95554340688E+02  0.90875061779E+02 0.  0.
         13    1    3    3    0    0  0.22779913109E+02 -0.49053616952E+02 -0.26548475615E+02  0.60249601649E+02  0.10566000000E+00 0. -1.
         22    1    1    0    0    0 -0.22538580973E+01  0.20926511445E+02  0.20720917292E+02  0.29535659312E+02  0.00000000000E+00 0. -1.
</event>
<event>
 5    1  0.1259474E-009  0.9118800E+02  0.7815553E-02  0.1125453E+00
         25   -1    0    0    0    0  0.00000000000E+00  0.00000000000E+00  0.99999998245E-14  0.12509000000E+03  0.12509000000E+03 0.  0.
        -13    1    3    3    0    0  0.27271567720E+02  0.27987712172E+02  0.37289409411E+02  0.54014457849E+02  0.10566000000E+00 0. -1.
         23    2    1    0    0    0 -0.68543726433E+01  0.62899043967E+01  0.28106560724E+02  0.95483850683E+02  0.90777980060E+02 0.  0.
         13    1    3    3    0    0 -0.34125940363E+02 -0.21697807775E+02 -0.91828486867E+01  0.41469392833E+02  0.10566000000E+00 0.  1.
         22    1    1    0    0    0  0.68543726433E+01 -0.62899043967E+01 -0.28106560724E+02  0.29606149317E+02  0.00000000000E+00 0. -1.
</event>
<event>
 5    1  0.1259474E-009  0.9118800E+02  0.7815553E-02  0.1125453E+00
         25   -1    0    0    0    0  0.00000000000E+00  0.00000000000E+00  0.99999998245E-14  0.12509000000E+03  0.12509000000E+03 0.  0.
        -13    1    3    3    0    0  0.52001506827E+01  0.32737871801E+02 -0.30366929100E+02  0.44955215094E+02  0.10566000000E+00 0. -1.
         23    2    1    0    0    0  0.10382785041E+02  0.19509014418E+02  0.18763642615E+02  0.96098998759E+02  0.91621719093E+02 0.  0.
         13    1    3    3    0    0  0.51826343585E+01 -0.13228857382E+02  0.49130571715E+02  0.51143783665E+02  0.10566000000E+00 0.  1.
         22    1    1    0    0    0 -0.10382785041E+02 -0.19509014418E+02 -0.18763642615E+02  0.28991001241E+02  0.00000000000E+00 0.  1.
</event>
<event>
 5    1  0.1259474E-009  0.9118800E+02  0.7815553E-02  0.1125453E+00
         25   -1    0    0    0    0  0.00000000000E+00  0.00000000000E+00  0.99999998245E-14  0.12509000000E+03  0.12509000000E+03 0.  0.
        -13    1    3    3    0    0  0.36022577048E+02  0.45291036718E+02  0.13667765886E+02  0.59461946256E+02  0.10566000000E+00 0. -1.
         23    2    1    0    0    0  0.13696109600E+02  0.17553449637E+02  0.19438997432E+02  0.95533585578E+02  0.90846487769E+02 0.  0.
         13    1    3    3    0    0 -0.22326467448E+02 -0.27737587081E+02  0.57712315461E+01  0.36071639322E+02  0.10566000000E+00 0.  1.
         22    1    1    0    0    0 -0.13696109600E+02 -0.17553449637E+02 -0.19438997432E+02  0.29556414422E+02  0.00000000000E+00 0. -1.
</event>
<event>
 5    1  0.1259474E-009  0.9118800E+02  0.7815553E-02  0.1125453E+00
         25   -1    0    0    0    0  0.00000000000E+00  0.00000000000E+00  0.99999998245E-14  0.12509000000E+03  0.12509000000E+03 0.  0.
        -13    1    3    3    0    0 -0.55242933031E+02 -0.23181976442E+02  0.94137831873E+00  0.59917301665E+02  0.10566000000E+00 0. -1.
         23    2    1    0    0    0 -0.20802953004E+02 -0.20447493978E+02  0.72401924533E+01  0.95035328974E+02  0.90157808884E+02 0.  0.
         13    1    3    3    0    0  0.34439980027E+02  0.27344824635E+01  0.62988141346E+01  0.35118027309E+02  0.10566000000E+00 0.  1.
         22    1    1    0    0    0  0.20802953004E+02  0.20447493978E+02 -0.72401924533E+01  0.30054671026E+02  0.00000000000E+00 0. -1.
</event>
<event>
 5    1  0.1259474E-009  0.9118800E+02  0.7815553E-02  0.1125453E+00
         25   -1    0    0    0    0  0.00000000000E+00  0.00000000000E+00  0.99999998245E-14  0.12509000000E+03  0.12509000000E+03 0.  0.
        -13    1    3    3    0    0 -0.97738417199E+01  0.16021783607E+02 -0.49113606182E+02  0.52577400165E+02  0.10566000000E+00 0. -1.
         23    2    1    0    0    0  0.95713738101E+01  0.25397232776E+02 -0.12115471955E+02  0.95367697095E+02  0.90617781695E+02 0.  0.
         13    1    3    3    0    0  0.19345215530E+02  0.93754491690E+01  0.36998134227E+02  0.42790296930E+02  0.10566000000E+00 0.  1.
         22    1    1    0    0    0 -0.95713738101E+01 -0.25397232776E+02  0.12115471955E+02  0.29722302905E+02  0.00000000000E+00 0.  1.
</event>
<event>
 4    1  0.1259474E-009  0.9118800E+02  0.7815553E-02  0.1125453E+00
         25   -1    0    0    0    0  0.00000000000E+00  0.00000000000E+00  0.99999998245E-14  0.12509000000E+03  0.12509000000E+03 0.  0.
        -13    1    1    0    0    0  0.13253326608E+02 -0.12946365009E+02  0.15932663848E+02  0.24436038436E+02  0.10566000000E+00 0.  1.
         13    1    1    0    0    0 -0.12139660649E+02 -0.41666334943E+02 -0.15329037930E+02  0.46026572718E+02  0.10566000000E+00 0. -1.
         22    1    1    0    0    0 -0.11136659588E+01  0.54612699952E+02 -0.60362591755E+00  0.54627388846E+02  0.00000000000E+00 0. -1.
</event>
<event>
 5    1  0.1259474E-009  0.9118800E+02  0.7815553E-02  0.1125453E+00
         25   -1    0    0    0    0  0.00000000000E+00  0.00000000000E+00  0.99999998245E-14  0.12509000000E+03  0.12509000000E+03 0.  0.
        -13    1    3    3    0    0  0.21707131319E+02  0.34738453237E+02  0.40622061676E+02  0.57689884228E+02  0.10566000000E+00 0.  1.
         23    2    1    0    0    0  0.11880695506E+00  0.28032056275E+02  0.10944005623E+02  0.94997117898E+02  0.90104777098E+02 0.  0.
         13    1    3    3    0    0 -0.21588324364E+02 -0.67063969619E+01 -0.29678056052E+02  0.37307233670E+02  0.10566000000E+00 0. -1.
         22    1    1    0    0    0 -0.11880695506E+00 -0.28032056275E+02 -0.10944005623E+02  0.30092882102E+02  0.00000000000E+00 0.  1.
</event>
<event>
 5    1  0.1259474E-009  0.9118800E+02  0.7815553E-02  0.1125453E+00
         25   -1    0    0    0    0  0.00000000000E+00  0.00000000000E+00  0.99999998245E-14  0.12509000000E+03  0.12509000000E+03 0.  0.
        -13    1    3    3    0    0  0.27550226928E+01  0.37903041835E+02  0.37390311211E+02  0.53313012172E+02  0.10566000000E+00 0.  1.
         23    2    1    0    0    0  0.23896970356E+02  0.11968732347E+02  0.10001900626E+02  0.96553115757E+02  0.92239635732E+02 0.  0.
         13    1    3    3    0    0  0.21141947663E+02 -0.25934309488E+02 -0.27388410584E+02  0.43240103585E+02  0.10566000000E+00 0. -1.
         22    1    1    0    0    0 -0.23896970356E+02 -0.11968732347E+02 -0.10001900626E+02  0.28536884243E+02  0.00000000000E+00 0. -1.
</event>
<event>
 5    1  0.1259474E-009  0.9118800E+02  0.7815553E-02  0.1125453E+00
         25   -1    0    0    0    0  0.00000000000E+00  0.00000000000E+00  0.99999998245E-14  0.12509000000E+03  0.12509000000E+03 0.  0.
        -13    1    3    3    0    0 -0.22305334244E+02 -0.20618476229E+02  0.27943590794E+02  0.41273537869E+02  0.10566000000E+00 0.  1.
         23    2    1    0    0    0 -0.17435185549E+02  0.22809016209E+02 -0.49334162161E+01  0.95959680553E+02  0.91431311818E+02 0.  0.
         13    1    3    3    0    0  0.48701486950E+01  0.43427492437E+02 -0.32877007010E+02  0.54686142684E+02  0.10566000000E+00 0. -1.
         22    1    1    0    0    0  0.17435185549E+02 -0.22809016209E+02  0.49334162161E+01  0.29130319447E+02  0.00000000000E+00 0. -1.
</event>
<event>
 5    1  0.1259474E-009  0.9118800E+02  0.7815553E-02  0.1125453E+00
         25   -1    0    0    0    0  0.00000000000E+00  0.00000000000E+00  0.99999998245E-14  0.12509000000E+03  0.12509000000E+03 0.  0.
        -13    1    3    3    0    0  0.25029863281E+02 -0.28587942906E+02 -0.75326573707E+01  0.38736502508E+02  0.10566000000E+00 0.  1.
         23    2    1    0    0    0 -0.21276759494E+02  0.67802610577E+01 -0.16002253334E+02  0.97617385521E+02  0.93671817584E+02 0.  0.
         13    1    3    3    0    0 -0.46306622775E+02  0.35368203964E+02 -0.84695959631E+01  0.58880883012E+02  0.10566000000E+00 0. -1.
         22    1    1    0    0    0  0.21276759494E+02 -0.67802610577E+01  0.16002253334E+02  0.27472614479E+02  0.00000000000E+00 0. -1.
</event>
<event>
 5    1  0.1259474E-009  0.9118800E+02  0.7815553E-02  0.1125453E+00
         25   -1    0    0    0    0  0.00000000000E+00  0.00000000000E+00  0.99999998245E-14  0.12509000000E+03  0.12509000000E+03 0.  0.
        -13    1    3    3    0    0 -0.20503914304E+02  0.23180787061E+02  0.35365269625E+02  0.46994391690E+02  0.10566000000E+00 0. -1.
         23    2    1    0    0    0 -0.27738311525E+02 -0.10629151808E+02  0.15691868460E+01  0.95343485216E+02  0.90584353126E+02 0.  0.
         13    1    3    3    0    0 -0.72343972216E+01 -0.33809938870E+02 -0.33796082779E+02  0.48349093526E+02  0.10566000000E+00 0.  1.
         22    1    1    0    0    0  0.27738311525E+02  0.10629151808E+02 -0.15691868460E+01  0.29746514784E+02  0.00000000000E+00 0.  1.
</event>
<event>
 5    1  0.1259474E-009  0.9118800E+02  0.7815553E-02  0.1125453E+00
         25   -1    0    0    0    0  0.00000000000E+00  0.00000000000E+00  0.99999998245E-14  0.12509000000E+03  0.12509000000E+03 0.  0.
        -13    1    3    3    0    0  0.33434383179E+02  0.42116054633E+02 -0.11962071766E+02  0.55088314200E+02  0.10566000000E+00 0. -1.
         23    2    1    0    0    0  0.20074797027E+02  0.68585081262E+01 -0.22428624820E+02  0.94218009122E+02  0.89016590713E+02 0.  0.
         13    1    3    3    0    0 -0.13359586152E+02 -0.35257546507E+02 -0.10466553055E+02  0.39129694922E+02  0.10566000000E+00 0.  1.
         22    1    1    0    0    0 -0.20074797027E+02 -0.68585081262E+01  0.22428624820E+02  0.30871990878E+02  0.00000000000E+00 0. -1.
</event>
<event>
 5    1  0.1259474E-009  0.9118800E+02  0.7815553E-02  0.1125453E+00
         25   -1    0    0    0    0  0.00000000000E+00  0.00000000000E+00  0.99999998245E-14  0.12509000000E+03  0.12509000000E+03 0.  0.
        -13    1    3    3    0    0  0.33761979713E+02  0.57518442873E+00  0.39930510593E+02  0.52293966683E+02  0.10566000000E+00 0.  1.
         23    2    1    0    0    0  0.42447317396E+01 -0.22346253619E+02  0.20753536113E+02  0.94299058807E+02  0.89130412500E+02 0.  0.
         13    1    3    3    0    0 -0.29517247973E+02 -0.22921438048E+02 -0.19176974480E+02  0.42005092124E+02  0.10566000000E+00 0. -1.
         22    1    1    0    0    0 -0.42447317396E+01  0.22346253619E+02 -0.20753536113E+02  0.30790941193E+02  0.00000000000E+00 0.  1.
</event>
<event>
 5    1  0.1259474E-009  0.9118800E+02  0.7815553E-02  0.1125453E+00
         25   -1    0    0    0    0  0.00000000000E+00  0.00000000000E+00  0.99999998245E-14  0.12509000000E+03  0.12509000000E+03 0.  0.
        -13    1    3    3    0    0  0.19791033888E+01 -0.20395901863E+02 -0.36281935164E+02  0.41668929028E+02  0.10566000000E+00 0.  1.
         23    2    1    0    0    0  0.10953949122E+02 -0.20365722717E+02  0.17434112797E+02  0.96129683148E+02  0.91663602536E+02 0.  0.
         13    1    3    3    0    0  0.89748457332E+01  0.30179145859E-01  0.53716047961E+02  0.54460754120E+02  0.10566000000E+00 0. -1.
         22    1    1    0    0    0 -0.10953949122E+02  0.20365722717E+02 -0.17434112797E+02  0.28960316852E+02  0.00000000000E+00 0. -1.
</event>
<event>
 5    1  0.1259474E-009  0.9118800E+02  0.7815553E-02  0.1125453E+00
         25   -1    0    0    0    0  0.00000000000E+00  0.00000000000E+00  0.99999998245E-14  0.12509000000E+03  0.12509000000E+03 0.  0.
        -13    1    3    3    0    0  0.24054985669E+02 -0.38896906183E+02  0.15411636672E+02  0.48261178550E+02  0.10566000000E+00 0. -1.
         23    2    1    0    0    0  0.55552578314E+01  0.43490496039E+01  0.27395512129E+02  0.96800616711E+02  0.92574673582E+02 0.  0.
         13    1    3    3    0    0 -0.18499727837E+02  0.43245955787E+02  0.11983875457E+02  0.48539438161E+02  0.10566000000E+00 0.  1.
         22    1    1    0    0    0 -0.55552578314E+01 -0.43490496039E+01 -0.27395512129E+02  0.28289383289E+02  0.00000000000E+00 0.  1.
</event>
<event>
 5    1  0.1259474E-009  0.9118800E+02  0.7815553E-02  0.1125453E+00
         25   -1    0    0    0    0  0.00000000000E+00  0.00000000000E+00  0.99999998245E-14  0.12509000000E+03  0.12509000000E+03 0.  0.
        -13    1    3    3    0    0  0.11081161713E+01 -0.35505478777E+02 -0.49117713069E+02  0.60617059032E+02  0.10566000000E+00 0.  1.
         23    2    1    0    0    0  0.90895630454E+01 -0.25621749965E+02 -0.23739409920E+02  0.88997704271E+02  0.81350707154E+02 0.  0.
         13    1    3    3    0    0  0.79814468740E+01  0.98837288114E+01  0.25378303149E+02  0.28380645239E+02  0.10566000000E+00 0. -1.
         22    1    1    0    0    0 -0.90895630454E+01  0.25621749965E+02  0.23739409920E+02  0.36092295729E+02  0.00000000000E+00 0.  1.
</event>
<event>
 4    1  0.1259474E-009  0.9118800E+02  0.7815553E-02  0.1125453E+00
         25   -1    0    0    0    0  0.00000000000E+00  0.00000000000E+00  0.99999998245E-14  0.12509000000E+03  0.12509000000E+03 0.  0.
        -13    1    1    0    0    0  0.21703157861E+02 -0.47355154610E+02  0.22819504161E+02  0.56870718858E+02  0.10566000000E+00 0. -1.
         13    1    1    0    0    0  0.34088042780E+01  0.72472256870E+00 -0.14123873137E+02  0.14547856400E+02  0.10566000000E+00 0.  1.
         22    1    1    0    0    0 -0.25111962139E+02  0.46630432042E+02 -0.86956310231E+01  0.53671424741E+02  0.00000000000E+00 0. -1.
</event>
<event>
 5    1  0.1259474E-009  0.9118800E+02  0.7815553E-02  0.1125453E+00
         25   -1    0    0    0    0  0.00000000000E+00  0.00000000000E+00  0.99999998245E-14  0.12509000000E+03  0.12509000000E+03 0.  0.
        -13    1    3    3    0    0 -0.96546163826E+01  0.36425066960E+02 -0.30951133147E+01  0.37809893030E+02  0.10566000000E+00 0.  1.
         23    2    1    0    0    0 -0.12137727402E+02 -0.19077279336E+02 -0.18952282530E+02  0.95586508233E+02  0.90919329791E+02 0.  0.
         13    1    3    3    0    0 -0.24831110197E+01 -0.55502346296E+02 -0.15857169216E+02  0.57776615202E+02  0.10566000000E+00 0. -1.
         22    1    1    0    0    0  0.12137727402E+02  0.19077279336E+02  0.18952282530E+02  0.29503491767E+02  0.00000000000E+00 0. -1.
</event>
<event>
 5    1  0.1259474E-009  0.9118800E+02  0.7815553E-02  0.1125453E+00
         25   -1    0    0    0    0  0.00000000000E+00  0.00000000000E+00  0.99999998245E-14  0.12509000000E+03  0.12509000000E+03 0.  0.
        -13    1    3    3    0    0 -0.27165948880E+01  0.44126427555E+02  0.15352846253E+02  0.46800027229E+02  0.10566000000E+00 0. -1.
         23    2    1    0    0    0  0.21025883865E+02  0.15398638305E+02 -0.15136291940E+02  0.94951765353E+02  0.90041793385E+02 0.  0.
         13    1    3    3    0    0  0.23742478754E+02 -0.28727789250E+02 -0.30489138193E+02  0.48151738124E+02  0.10566000000E+00 0.  1.
         22    1    1    0    0    0 -0.21025883865E+02 -0.15398638305E+02  0.15136291940E+02  0.30138234647E+02  0.00000000000E+00 0.  1.
</event>
<event>
 5    1  0.1259474E-009  0.9118800E+02  0.7815553E-02  0.1125453E+00
         25   -1    0    0    0    0  0.00000000000E+00  0.00000000000E+00  0.99999998245E-14  0.12509000000E+03  0.12509000000E+03 0.  0.
        -13    1    3    3    0    0 -0.32190213615E+02 -0.26312576640E+02 -0.79547799660E+01  0.42330263764E+02  0.10566000000E+00 0.  1.
         23    2    1    0    0    0  0.20146567332E+02 -0.15424705002E+02 -0.13970059640E+02  0.96125051079E+02  0.91657281102E+02 0.  0.
         13    1    3    3    0    0  0.52336780946E+02  0.10887871639E+02 -0.60152796740E+01  0.53794787315E+02  0.10566000000E+00 0. -1.
         22    1    1    0    0    0 -0.20146567332E+02  0.15424705002E+02  0.13970059640E+02  0.28964948921E+02  0.00000000000E+00 0. -1.
</event>
<event>
 5    1  0.1259474E-009  0.9118800E+02  0.7815553E-02  0.1125453E+00
         25   -1    0    0    0    0  0.00000000000E+00  0.00000000000E+00  0.99999998245E-14  0.12509000000E+03  0.12509000000E+03 0.  0.
        -13    1    3    3    0    0 -0.43549374956E+02 -0.38083843729E+01  0.24319937870E+02  0.50025217567E+02  0.10566000000E+00 0.  1.
         23    2    1    0    0    0  0.17349647598E+01 -0.18567559203E+02  0.19835496808E+02  0.97864804113E+02  0.94001641437E+02 0.  0.
         13    1    3    3    0    0  0.45284339716E+02 -0.14759174830E+02 -0.44844410620E+01  0.47839586546E+02  0.10566000000E+00 0. -1.
         22    1    1    0    0    0 -0.17349647598E+01  0.18567559203E+02 -0.19835496808E+02  0.27225195887E+02  0.00000000000E+00 0.  1.
</event>
<event>
 5    1  0.1259474E-009  0.9118800E+02  0.7815553E-02  0.1125453E+00
         25   -1    0    0    0    0  0.00000000000E+00  0.00000000000E+00  0.99999998245E-14  0.12509000000E+03  0.12509000000E+03 0.  0.
        -13    1    3    3    0    0  0.44697135307E+02 -0.12239348587E+01 -0.71664059895E+01  0.45284660317E+02  0.10566000000E+00 0.  1.
         23    2    1    0    0    0 -0.18723198784E+01 -0.84816874163E+01 -0.27229318408E+02  0.96508880636E+02  0.92179627128E+02 0.  0.
         13    1    3    3    0    0 -0.46569455186E+02 -0.72577525576E+01 -0.20062912418E+02  0.51224220318E+02  0.10566000000E+00 0. -1.
         22    1    1    0    0    0  0.18723198784E+01  0.84816874163E+01  0.27229318408E+02  0.28581119364E+02  0.00000000000E+00 0.  1.
</event>
<event>
 5    1  0.1259474E-009  0.9118800E+02  0.7815553E-02  0.1125453E+00
         25   -1    0    0    0    0  0.00000000000E+00  0.00000000000E+00  0.99999998245E-14  0.12509000000E+03  0.12509000000E+03 0.  0.
        -13    1    3    3    0    0 -0.22687093602E+02 -0.56610784555E+02 -0.86900508209E+01  0.61603679203E+02  0.10566000000E+00 0. -1.
         23    2    1    0    0    0 -0.90762930143E+01 -0.28222106599E+02  0.32324385039E+01  0.95268614143E+02  0.90480902881E+02 0.  0.
         13    1    3    3    0    0  0.13610800588E+02  0.28388677956E+02  0.11922489325E+02  0.33664934939E+02  0.10566000000E+00 0.  1.
         22    1    1    0    0    0  0.90762930143E+01  0.28222106599E+02 -0.32324385039E+01  0.29821385857E+02  0.00000000000E+00 0. -1.
</event>
<event>
 5    1  0.1259474E-009  0.9118800E+02  0.7815553E-02  0.1125453E+00
         25   -1    0    0    0    0  0.00000000000E+00  0.00000000000E+00  0.99999998245E-14  0.12509000000E+03  0.12509000000E+03 0.  0.
        -13    1    3    3    0    0 -0.92868146806E+01  0.39420047234E+02  0.23866166570E+02  0.47008404798E+02  0.10566000000E+00 0. -1.
         23    2    1    0    0    0 -0.25914253820E+01 -0.80750984867E+01  0.28649922380E+02  0.95211232397E+02  0.90401537715E+02 0.  0.
         13    1    3    3    0    0  0.66953892987E+01 -0.47495145721E+02  0.47837558100E+01  0.48202827600E+02  0.10566000000E+00 0.  1.
         22    1    1    0    0    0  0.25914253820E+01  0.80750984867E+01 -0.28649922380E+02  0.29878767603E+02  0.00000000000E+00 0. -1.
</event>
<event>
 5    1  0.1259474E-009  0.9118800E+02  0.7815553E-02  0.1125453E+00
         25   -1    0    0    0    0  0.00000000000E+00  0.00000000000E+00  0.99999998245E-14  0.12509000000E+03  0.12509000000E+03 0.  0.
        -13    1    3    3    0    0  0.21486121201E+02  0.26460723497E+02 -0.38818467292E+02  0.51659537930E+02  0.10566000000E+00 0.  1.
         23    2    1    0    0    0 -0.28214114959E+01 -0.48007239893E+01 -0.32927313403E+02  0.91695160854E+02  0.85397817551E+02 0.  0.
         13    1    3    3    0    0 -0.24307532697E+02 -0.31261447486E+02  0.58911538894E+01  0.40035622924E+02  0.10566000000E+00 0. -1.
         22    1    1    0    0    0  0.28214114959E+01  0.48007239893E+01  0.32927313403E+02  0.33394839146E+02  0.00000000000E+00 0.  1.
</event>
<event>
 5    1  0.1259474E-009  0.9118800E+02  0.7815553E-02  0.1125453E+00
         25   -1    0    0    0    0  0.00000000000E+00  0.00000000000E+00  0.99999998245E-14  0.12509000000E+03  0.12509000000E+03 0.  0.
        -13    1    3    3    0    0 -0.38804457675E+02 -0.88933685614E+01 -0.27212953941E+02  0.48222753614E+02  0.10566000000E+00 0.  1.
         23    2    1    0    0    0 -0.15343429524E+02 -0.34055631567E+02 -0.16502665741E+02  0.84254416895E+02  0.73697095728E+02 0.  0.
         13    1    3    3    0    0  0.23461028151E+02 -0.25162263005E+02  0.10710288200E+02  0.36031663281E+02  0.10566000000E+00 0. -1.
         22    1    1    0    0    0  0.15343429524E+02  0.34055631567E+02  0.16502665741E+02  0.40835583105E+02  0.00000000000E+00 0.  1.
</event>
<event>
 5    1  0.1259474E-009  0.9118800E+02  0.7815553E-02  0.1125453E+00
         25   -1    0    0    0    0  0.00000000000E+00  0.00000000000E+00  0.99999998245E-14  0.12509000000E+03  0.12509000000E+03 0.  0.
        -13    1    3    3    0    0 -0.19789514559E+02  0.74101449196E+01  0.53838988637E+02  0.57837556966E+02  0.10566000000E+00 0. -1.
         23    2    1    0    0    0 -0.49593623626E+01  0.19441867135E+02  0.19607194979E+02  0.97036059676E+02  0.92892267223E+02 0.  0.
         13    1    3    3    0    0  0.14830152196E+02  0.12031722216E+02 -0.34231793659E+02  0.39198502711E+02  0.10566000000E+00 0.  1.
         22    1    1    0    0    0  0.49593623626E+01 -0.19441867135E+02 -0.19607194979E+02  0.28053940324E+02  0.00000000000E+00 0. -1.
</event>
<event>
 5    1  0.1259474E-009  0.9118800E+02  0.7815553E-02  0.1125453E+00
         25   -1    0    0    0    0  0.00000000000E+00  0.00000000000E+00  0.99999998245E-14  0.12509000000E+03  0.12509000000E+03 0.  0.
        -13    1    3    3    0    0  0.37503418330E+02 -0.71332122699E+01  0.23421186886E+02  0.44787858431E+02  0.10566000000E+00 0.  1.
         23    2    1    0    0    0  0.34115718458E-01  0.25961598009E+02  0.13767900051E+02  0.95703594863E+02  0.91080279220E+02 0.  0.
         13    1    3    3    0    0 -0.37469302611E+02  0.33094810279E+02 -0.96532868344E+01  0.50915736431E+02  0.10566000000E+00 0. -1.
         22    1    1    0    0    0 -0.34115718458E-01 -0.25961598009E+02 -0.13767900051E+02  0.29386405137E+02  0.00000000000E+00 0. -1.
</event>
<event>
 5    1  0.1259474E-009  0.9118800E+02  0.7815553E-02  0.1125453E+00
         25   -1    0    0    0    0  0.00000000000E+00  0.00000000000E+00  0.99999998245E-14  0.12509000000E+03  0.12509000000E+03 0.  0.
        -13    1    3    3    0    0 -0.11950205254E+02  0.21444203855E+01  0.36580681827E+02  0.38543007035E+02  0.10566000000E+00 0. -1.
         23    2    1    0    0    0 -0.19018231760E+02  0.54689200147E+01 -0.20757677545E+02  0.96411028567E+02  0.92046743706E+02 0.  0.
         13    1    3    3    0    0 -0.70680265067E+01  0.33244996291E+01 -0.57338359371E+02  0.57868021531E+02  0.10566000000E+00 0.  1.
         22    1    1    0    0    0  0.19018231760E+02 -0.54689200147E+01  0.20757677545E+02  0.28678971433E+02  0.00000000000E+00 0.  1.
</event>
<event>
 5    1  0.1259474E-009  0.9118800E+02  0.7815553E-02  0.1125453E+00
         25   -1    0    0    0    0  0.00000000000E+00  0.00000000000E+00  0.99999998245E-14  0.12509000000E+03  0.12509000000E+03 0.  0.
        -13    1    3    3    0    0  0.46997324959E+02  0.47238389415E+01  0.57335483324E+01  0.47580962035E+02  0.10566000000E+00 0.  1.
         23    2    1    0    0    0  0.14990953462E+02 -0.27844875681E+02  0.29446409289E+01  0.93329384490E+02  0.87758972827E+02 0.  0.
         13    1    3    3    0    0 -0.32006371497E+02 -0.32568714622E+02 -0.27889074035E+01  0.45748422455E+02  0.10566000000E+00 0. -1.
         22    1    1    0    0    0 -0.14990953462E+02  0.27844875681E+02 -0.29446409289E+01  0.31760615510E+02  0.00000000000E+00 0.  1.
</event>
<event>
 5    1  0.1259474E-009  0.9118800E+02  0.7815553E-02  0.1125453E+00
         25   -1    0    0    0    0  0.00000000000E+00  0.00000000000E+00  0.99999998245E-14  0.12509000000E+03  0.12509000000E+03 0.  0.
        -13    1    3    3    0    0 -0.25454105884E+02 -0.37589902543E+02  0.89144625716E+01  0.46264360868E+02  0.10566000000E+00 0. -1.
         23    2    1    0    0    0  0.19142826120E+02 -0.25735939184E+02  0.17020531075E+01  0.92970172131E+02  0.87245455834E+02 0.  0.
         13    1    3    3    0    0  0.44596932003E+02  0.11853963359E+02 -0.72124094641E+01  0.46705811263E+02  0.10566000000E+00 0.  1.
         22    1    1    0    0    0 -0.19142826120E+02  0.25735939184E+02 -0.17020531075E+01  0.32119827869E+02  0.00000000000E+00 0. -1.
</event>
<event>
 5    1  0.1259474E-009  0.9118800E+02  0.7815553E-02  0.1125453E+00
         25   -1    0    0    0    0  0.00000000000E+00  0.00000000000E+00  0.99999998245E-14  0.12509000000E+03  0.12509000000E+03 0.  0.
        -13    1    3    3    0    0  0.19665636684E+02  0.36626248924E+02 -0.40041245353E+02  0.57719423679E+02  0.10566000000E+00 0. -1.
         23    2    1    0    0    0  0.65289458387E+01  0.61266939911E+01 -0.31963397450E+02  0.91896291415E+02  0.85691925444E+02 0.  0.
         13    1    3    3    0    0 -0.13136690845E+02 -0.30499554933E+02  0.80778479023E+01  0.34176867736E+02  0.10566000000E+00 0.  1.
         22    1    1    0    0    0 -0.65289458387E+01 -0.61266939911E+01  0.31963397450E+02  0.33193708585E+02  0.00000000000E+00 0. -1.
</event>
<event>
 5    1  0.1259474E-009  0.9118800E+02  0.7815553E-02  0.1125453E+00
         25   -1    0    0    0    0  0.00000000000E+00  0.00000000000E+00  0.99999998245E-14  0.12509000000E+03  0.12509000000E+03 0.  0.
        -13    1    3    3    0    0  0.10483058190E+02 -0.94459363859E+01 -0.37640302287E+02  0.40198553998E+02  0.10566000000E+00 0.  1.
         23    2    1    0    0    0 -0.29094937378E+02 -0.43558399232E+01  0.87452158846E+00  0.95657815058E+02  0.91017383346E+02 0.  0.
         13    1    3    3    0    0 -0.39577995568E+02  0.50900964627E+01  0.38514823875E+02  0.55459261060E+02  0.10566000000E+00 0. -1.
         22    1    1    0    0    0  0.29094937378E+02  0.43558399232E+01 -0.87452158846E+00  0.29432184942E+02  0.00000000000E+00 0. -1.
</event>
<event>
 5    1  0.1259474E-009  0.9118800E+02  0.7815553E-02  0.1125453E+00
         25   -1    0    0    0    0  0.00000000000E+00  0.00000000000E+00  0.99999998245E-14  0.12509000000E+03  0.12509000000E+03 0.  0.
        -13    1    3    3    0    0  0.56591347266E+01  0.18863235706E+01  0.33046514464E+02  0.33580757953E+02  0.10566000000E+00 0.  1.
         23    2    1    0    0    0 -0.12495885487E+01 -0.32163069527E+02 -0.12235250034E+02  0.90655629724E+02  0.83861298251E+02 0.  0.
         13    1    3    3    0    0 -0.69087232753E+01 -0.34049393098E+02 -0.45281764498E+02  0.57074871771E+02  0.10566000000E+00 0. -1.
         22    1    1    0    0    0  0.12495885487E+01  0.32163069527E+02  0.12235250034E+02  0.34434370276E+02  0.00000000000E+00 0. -1.
</event>
<event>
 5    1  0.1259474E-009  0.9118800E+02  0.7815553E-02  0.1125453E+00
         25   -1    0    0    0    0  0.00000000000E+00  0.00000000000E+00  0.99999998245E-14  0.12509000000E+03  0.12509000000E+03 0.  0.
        -13    1    3    3    0    0 -0.29202586790E+02 -0.44685119644E+02 -0.15895158845E+02  0.55697560374E+02  0.10566000000E+00 0.  1.
         23    2    1    0    0    0 -0.25525597336E+02 -0.15042384280E+02  0.85032403725E+01  0.94265747519E+02  0.89083649534E+02 0.  0.
         13    1    3    3    0    0  0.36769894541E+01  0.29642735364E+02  0.24398399217E+02  0.38568187145E+02  0.10566000000E+00 0. -1.
         22    1    1    0    0    0  0.25525597336E+02  0.15042384280E+02 -0.85032403725E+01  0.30824252481E+02  0.00000000000E+00 0.  1.
</event>
<event>
 5    1  0.1259474E-009  0.9118800E+02  0.7815553E-02  0.1125453E+00
         25   -1    0    0    0    0  0.00000000000E+00  0.00000000000E+00  0.99999998245E-14  0.12509000000E+03  0.12509000000E+03 0.  0.
        -13    1    3    3    0    0 -0.36702381928E+02  0.43534006886E+02 -0.55632746225E+01  0.57212199602E+02  0.10566000000E+00 0.  1.
         23    2    1    0    0    0 -0.25509322372E+02  0.10505301295E+02  0.10453178332E+02  0.95588206488E+02  0.90921666280E+02 0.  0.
         13    1    3    3    0    0  0.11193059556E+02 -0.33028705591E+02  0.16016452955E+02  0.38376006886E+02  0.10566000000E+00 0. -1.
         22    1    1    0    0    0  0.25509322372E+02 -0.10505301295E+02 -0.10453178332E+02  0.29501793512E+02  0.00000000000E+00 0.  1.
</event>
<event>
 5    1  0.1259474E-009  0.9118800E+02  0.7815553E-02  0.1125453E+00
         25   -1    0    0    0    0  0.00000000000E+00  0.00000000000E+00  0.99999998245E-14  0.12509000000E+03  0.12509000000E+03 0.  0.
        -13    1    3    3    0    0 -0.36207092006E+02 -0.31979330144E+01 -0.10942202524E+02  0.37959494823E+02  0.10566000000E+00 0. -1.
         23    2    1    0    0    0  0.25193877614E+01  0.31534125339E+02  0.64398200645E+01  0.92806573012E+02  0.87010576002E+02 0.  0.
         13    1    3    3    0    0  0.38726479767E+02  0.34732058354E+02  0.17382022589E+02  0.54847078190E+02  0.10566000000E+00 0.  1.
         22    1    1    0    0    0 -0.25193877614E+01 -0.31534125339E+02 -0.64398200645E+01  0.32283426988E+02  0.00000000000E+00 0.  1.
</event>
<event>
 5    1  0.1259474E-009  0.9118800E+02  0.7815553E-02  0.1125453E+00
         25   -1    0    0    0    0  0.00000000000E+00  0.00000000000E+00  0.99999998245E-14  0.12509000000E+03  0.12509000000E+03 0.  0.
        -13    1    3    3    0    0 -0.37060076555E+02 -0.18693651692E+02 -0.43400251873E+02  0.60054099897E+02  0.10566000000E+00 0.  1.
         23    2    1    0    0    0 -0.24057379676E+02 -0.88942234996E+01 -0.93624982564E+01  0.97785767688E+02  0.93896407068E+02 0.  0.
         13    1    3    3    0    0  0.13002696879E+02  0.97994281921E+01  0.34037753616E+02  0.37731667791E+02  0.10566000000E+00 0. -1.
         22    1    1    0    0    0  0.24057379676E+02  0.88942234996E+01  0.93624982564E+01  0.27304232312E+02  0.00000000000E+00 0.  1.
</event>
<event>
 5    1  0.1259474E-009  0.9118800E+02  0.7815553E-02  0.1125453E+00
         25   -1    0    0    0    0  0.00000000000E+00  0.00000000000E+00  0.99999998245E-14  0.12509000000E+03  0.12509000000E+03 0.  0.
        -13    1    3    3    0    0  0.23299672842E+02 -0.18449251032E+02 -0.18043285901E+01  0.29774424997E+02  0.10566000000E+00 0. -1.
         23    2    1    0    0    0  0.19490750032E+01  0.10004138687E+02 -0.41079531112E+02  0.82764953507E+02  0.71124032284E+02 0.  0.
         13    1    3    3    0    0 -0.21350597839E+02  0.28453389719E+02 -0.39275202522E+02  0.52990528510E+02  0.10566000000E+00 0.  1.
         22    1    1    0    0    0 -0.19490750032E+01 -0.10004138687E+02  0.41079531112E+02  0.42325046493E+02  0.00000000000E+00 0.  1.
</event>
<event>
 5    1  0.1259474E-009  0.9118800E+02  0.7815553E-02  0.1125453E+00
         25   -1    0    0    0    0  0.00000000000E+00  0.00000000000E+00  0.99999998245E-14  0.12509000000E+03  0.12509000000E+03 0.  0.
        -13    1    3    3    0    0  0.30529507147E+01  0.12051478833E+02  0.31086520210E+02  0.33480465244E+02  0.10566000000E+00 0.  1.
         23    2    1    0    0    0 -0.21395488434E+01  0.55474175492E+01 -0.29683022859E+02  0.94817349691E+02  0.89854863227E+02 0.  0.
         13    1    3    3    0    0 -0.51924995581E+01 -0.65040612841E+01 -0.60769543069E+02  0.61336884447E+02  0.10566000000E+00 0. -1.
         22    1    1    0    0    0  0.21395488434E+01 -0.55474175492E+01  0.29683022859E+02  0.30272650309E+02  0.00000000000E+00 0. -1.
</event>
<event>
 5    1  0.1259474E-009  0.9118800E+02  0.7815553E-02  0.1125453E+00
         25   -1    0    0    0    0  0.00000000000E+00  0.00000000000E+00  0.99999998245E-14  0.12509000000E+03  0.12509000000E+03 0.  0.
        -13    1    3    3    0    0  0.22214445111E+02 -0.45778329007E+02 -0.30895448466E+02  0.59528790331E+02  0.10566000000E+00 0.  1.
         23    2    1    0    0    0 -0.30271418189E+01 -0.24855629961E+02 -0.13411714069E+02  0.96685070804E+02  0.92418412202E+02 0.  0.
         13    1    3    3    0    0 -0.25241586930E+02  0.20922699047E+02  0.17483734397E+02  0.37156280474E+02  0.10566000000E+00 0. -1.
         22    1    1    0    0    0  0.30271418189E+01  0.24855629961E+02  0.13411714069E+02  0.28404929196E+02  0.00000000000E+00 0.  1.
</event>
<event>
 5    1  0.1259474E-009  0.9118800E+02  0.7815553E-02  0.1125453E+00
         25   -1    0    0    0    0  0.00000000000E+00  0.00000000000E+00  0.99999998245E-14  0.12509000000E+03  0.12509000000E+03 0.  0.
        -13    1    3    3    0    0 -0.38026566236E+02  0.15301196402E+02  0.37091628039E+02  0.55280614917E+02  0.10566000000E+00 0.  1.
         23    2    1    0    0    0 -0.21654173616E+02  0.21948514211E+02  0.24604838243E+01  0.94159521638E+02  0.88934363569E+02 0.  0.
         13    1    3    3    0    0  0.16372392621E+02  0.66473178084E+01 -0.34631144214E+02  0.38878906721E+02  0.10566000000E+00 0. -1.
         22    1    1    0    0    0  0.21654173616E+02 -0.21948514211E+02 -0.24604838243E+01  0.30930478362E+02  0.00000000000E+00 0.  1.
</event>
<event>
 5    1  0.1259474E-009  0.9118800E+02  0.7815553E-02  0.1125453E+00
         25   -1    0    0    0    0  0.00000000000E+00  0.00000000000E+00  0.99999998245E-14  0.12509000000E+03  0.12509000000E+03 0.  0.
        -13    1    3    3    0    0  0.33754070848E+02  0.14924880444E+01 -0.10849583335E+02  0.35486468434E+02  0.10566000000E+00 0. -1.
         23    2    1    0    0    0 -0.16184788513E+02  0.94325391784E+01  0.22312129747E+02  0.95956663281E+02  0.91427183702E+02 0.  0.
         13    1    3    3    0    0 -0.49938859360E+02  0.79400511340E+01  0.33161713082E+02  0.60470194847E+02  0.10566000000E+00 0.  1.
         22    1    1    0    0    0  0.16184788513E+02 -0.94325391784E+01 -0.22312129747E+02  0.29133336719E+02  0.00000000000E+00 0.  1.
</event>
<event>
 5    1  0.1259474E-009  0.9118800E+02  0.7815553E-02  0.1125453E+00
         25   -1    0    0    0    0  0.00000000000E+00  0.00000000000E+00  0.99999998245E-14  0.12509000000E+03  0.12509000000E+03 0.  0.
        -13    1    3    3    0    0  0.36802177904E+02  0.10113394982E+01  0.47541117909E+02  0.60129794296E+02  0.10566000000E+00 0.  1.
         23    2    1    0    0    0  0.12824278515E+02 -0.87952944519E+01  0.29638022088E+02  0.91620137778E+02  0.85287853585E+02 0.  0.
         13    1    3    3    0    0 -0.23977899389E+02 -0.98066339501E+01 -0.17903095821E+02  0.31490343481E+02  0.10566000000E+00 0. -1.
         22    1    1    0    0    0 -0.12824278515E+02  0.87952944519E+01 -0.29638022088E+02  0.33469862222E+02  0.00000000000E+00 0.  1.
</event>
<event>
 5    1  0.1259474E-009  0.9118800E+02  0.7815553E-02  0.1125453E+00
         25   -1    0    0    0    0  0.00000000000E+00  0.00000000000E+00  0.99999998245E-14  0.12509000000E+03  0.12509000000E+03 0.  0.
        -13    1    3    3    0    0  0.14724049442E+02 -0.16555264239E+02  0.24084924524E+02  0.32725665147E+02  0.10566000000E+00 0.  1.
         23    2    1    0    0    0 -0.85207034003E+01  0.33177985333E+02  0.83829490703E+01  0.89824507910E+02  0.82612270814E+02 0.  0.
         13    1    3    3    0    0 -0.23244752842E+02  0.49733249572E+02 -0.15701975454E+02  0.57098842763E+02  0.10566000000E+00 0. -1.
         22    1    1    0    0    0  0.85207034003E+01 -0.33177985333E+02 -0.83829490703E+01  0.35265492090E+02  0.00000000000E+00 0. -1.
</event>
<event>
 5    1  0.1259474E-009  0.9118800E+02  0.7815553E-02  0.1125453E+00
         25   -1    0    0    0    0  0.00000000000E+00  0.00000000000E+00  0.99999998245E-14  0.12509000000E+03  0.12509000000E+03 0.  0.
        -13    1    3    3    0    0  0.38634519961E+02  0.45510782748E+02 -0.28594312267E+01  0.59766587571E+02  0.10566000000E+00 0.  1.
         23    2    1    0    0    0  0.15015624124E+02  0.19034823145E+02 -0.14172917996E+02  0.97006818832E+02  0.92852882753E+02 0.  0.
         13    1    3    3    0    0 -0.23618895837E+02 -0.26475959603E+02 -0.11313486769E+02  0.37240231261E+02  0.10566000000E+00 0. -1.
         22    1    1    0    0    0 -0.15015624124E+02 -0.19034823145E+02  0.14172917996E+02  0.28083181168E+02  0.00000000000E+00 0.  1.
</event>
<event>
 5    1  0.1259474E-009  0.9118800E+02  0.7815553E-02  0.1125453E+00
         25   -1    0    0    0    0  0.00000000000E+00  0.00000000000E+00  0.99999998245E-14  0.12509000000E+03  0.12509000000E+03 0.  0.
        -13    1    3    3    0    0  0.15888365256E+02 -0.77074427062E+01  0.49599700046E+02  0.52649655576E+02  0.10566000000E+00 0.  1.
         23    2    1    0    0    0 -0.17819979334E+02 -0.28716063257E+01  0.22955366433E+02  0.95888174124E+02  0.91333429271E+02 0.  0.
         13    1    3    3    0    0 -0.33708344591E+02  0.48358363806E+01 -0.26644333613E+02  0.43238518548E+02  0.10566000000E+00 0. -1.
         22    1    1    0    0    0  0.17819979334E+02  0.28716063257E+01 -0.22955366433E+02  0.29201825876E+02  0.00000000000E+00 0.  1.
</event>
<event>
 5    1  0.1259474E-009  0.9118800E+02  0.7815553E-02  0.1125453E+00
         25   -1    0    0    0    0  0.00000000000E+00  0.00000000000E+00  0.99999998245E-14  0.12509000000E+03  0.12509000000E+03 0.  0.
        -13    1    3    3    0    0 -0.18272440147E+02 -0.25653680485E+02  0.26578197549E+02  0.41211711204E+02  0.10566000000E+00 0.  1.
         23    2    1    0    0    0 -0.25488761368E+02  0.20147134940E+02  0.16459154314E+02  0.88669020289E+02  0.80843722057E+02 0.  0.
         13    1    3    3    0    0 -0.72163212215E+01  0.45800815426E+02 -0.10119043235E+02  0.47457309086E+02  0.10566000000E+00 0. -1.
         22    1    1    0    0    0  0.25488761368E+02 -0.20147134940E+02 -0.16459154314E+02  0.36420979711E+02  0.00000000000E+00 0. -1.
</event>
<event>
 5    1  0.1259474E-009  0.9118800E+02  0.7815553E-02  0.1125453E+00
         25   -1    0    0    0    0  0.00000000000E+00  0.00000000000E+00  0.99999998245E-14  0.12509000000E+03  0.12509000000E+03 0.  0.
        -13    1    3    3    0    0 -0.18025318151E+02 -0.22909782751E+02 -0.33873233096E+02  0.44689789936E+02  0.10566000000E+00 0. -1.
         23    2    1    0    0    0 -0.62453529732E+01  0.23328250103E+02 -0.17979165578E+02  0.94982491277E+02  0.90084469070E+02 0.  0.
         13    1    3    3    0    0  0.11779965178E+02  0.46238032854E+02  0.15894067517E+02  0.50292701340E+02  0.10566000000E+00 0.  1.
         22    1    1    0    0    0  0.62453529732E+01 -0.23328250103E+02  0.17979165578E+02  0.30107508723E+02  0.00000000000E+00 0.  1.
</event>
<event>
 5    1  0.1259474E-009  0.9118800E+02  0.7815553E-02  0.1125453E+00
         25   -1    0    0    0    0  0.00000000000E+00  0.00000000000E+00  0.99999998245E-14  0.12509000000E+03  0.12509000000E+03 0.  0.
        -13    1    3    3    0    0 -0.19281521078E+02  0.10497697615E+02 -0.31395066372E+02  0.38309790744E+02  0.10566000000E+00 0.  1.
         23    2    1    0    0    0  0.73248741987E+01  0.22850289463E+02  0.17542520511E+02  0.95365775259E+02  0.90615128728E+02 0.  0.
         13    1    3    3    0    0  0.26606395276E+02  0.12352591848E+02  0.48937586884E+02  0.57055984515E+02  0.10566000000E+00 0. -1.
         22    1    1    0    0    0 -0.73248741987E+01 -0.22850289463E+02 -0.17542520511E+02  0.29724224741E+02  0.00000000000E+00 0. -1.
</event>
<event>
 5    1  0.1259474E-009  0.9118800E+02  0.7815553E-02  0.1125453E+00
         25   -1    0    0    0    0  0.00000000000E+00  0.00000000000E+00  0.99999998245E-14  0.12509000000E+03  0.12509000000E+03 0.  0.
        -13    1    3    3    0    0 -0.90815979693E+01  0.30024778823E+02  0.23074522414E+02  0.38941077460E+02  0.10566000000E+00 0. -1.
         23    2    1    0    0    0 -0.12562869643E+02 -0.24411751108E+02  0.15195342412E+01  0.97593304378E+02  0.93639653937E+02 0.  0.
         13    1    3    3    0    0 -0.34812716734E+01 -0.54436529931E+02 -0.21554988173E+02  0.58652226919E+02  0.10566000000E+00 0.  1.
         22    1    1    0    0    0  0.12562869643E+02  0.24411751108E+02 -0.15195342412E+01  0.27496695622E+02  0.00000000000E+00 0.  1.
</event>
<event>
 5    1  0.1259474E-009  0.9118800E+02  0.7815553E-02  0.1125453E+00
         25   -1    0    0    0    0  0.00000000000E+00  0.00000000000E+00  0.99999998245E-14  0.12509000000E+03  0.12509000000E+03 0.  0.
        -13    1    3    3    0    0 -0.52228142343E+02 -0.35925472197E+01  0.65124632382E+01  0.52755175951E+02  0.10566000000E+00 0. -1.
         23    2    1    0    0    0 -0.18492572801E+02 -0.20666701865E+02 -0.12021899185E+02  0.94863953702E+02  0.89919718845E+02 0.  0.
         13    1    3    3    0    0  0.33735569542E+02 -0.17074154645E+02 -0.18534362423E+02  0.42108777751E+02  0.10566000000E+00 0.  1.
         22    1    1    0    0    0  0.18492572801E+02  0.20666701865E+02  0.12021899185E+02  0.30226046298E+02  0.00000000000E+00 0. -1.
</event>
<event>
 5    1  0.1259474E-009  0.9118800E+02  0.7815553E-02  0.1125453E+00
         25   -1    0    0    0    0  0.00000000000E+00  0.00000000000E+00  0.99999998245E-14  0.12509000000E+03  0.12509000000E+03 0.  0.
        -13    1    3    3    0    0 -0.31645386160E+02  0.34776514902E+02  0.12838301339E+01  0.47037175061E+02  0.10566000000E+00 0. -1.
         23    2    1    0    0    0 -0.13487689789E+02  0.39806502476E+02  0.24110750059E+02  0.76635859995E+02  0.59373827176E+02 0.  0.
         13    1    3    3    0    0  0.18157696371E+02  0.50299875742E+01  0.22826919925E+02  0.29598684934E+02  0.10566000000E+00 0.  1.
         22    1    1    0    0    0  0.13487689789E+02 -0.39806502476E+02 -0.24110750059E+02  0.48454140005E+02  0.00000000000E+00 0. -1.
</event>
<event>
 5    1  0.1259474E-009  0.9118800E+02  0.7815553E-02  0.1125453E+00
         25   -1    0    0    0    0  0.00000000000E+00  0.00000000000E+00  0.99999998245E-14  0.12509000000E+03  0.12509000000E+03 0.  0.
        -13    1    3    3    0    0  0.58746454574E+02 -0.47420666465E+01 -0.63289325191E+01  0.59276468113E+02  0.10566000000E+00 0.  1.
         23    2    1    0    0    0  0.23841379649E+02 -0.15331447604E+02 -0.74919504390E+01  0.95771166623E+02  0.91173035300E+02 0.  0.
         13    1    3    3    0    0 -0.34905074925E+02 -0.10589380957E+02 -0.11630179199E+01  0.36494698510E+02  0.10566000000E+00 0. -1.
         22    1    1    0    0    0 -0.23841379649E+02  0.15331447604E+02  0.74919504390E+01  0.29318833377E+02  0.00000000000E+00 0.  1.
</event>
<event>
 5    1  0.1259474E-009  0.9118800E+02  0.7815553E-02  0.1125453E+00
         25   -1    0    0    0    0  0.00000000000E+00  0.00000000000E+00  0.99999998245E-14  0.12509000000E+03  0.12509000000E+03 0.  0.
        -13    1    3    3    0    0 -0.40434899964E+02 -0.17076349835E+01  0.16467271672E+02  0.43693012630E+02  0.10566000000E+00 0. -1.
         23    2    1    0    0    0 -0.76721237305E+01 -0.24960943508E+02 -0.15223033546E+02  0.94863340680E+02  0.89918866048E+02 0.  0.
         13    1    3    3    0    0  0.32762776234E+02 -0.23253308524E+02 -0.31690305218E+02  0.51170328049E+02  0.10566000000E+00 0.  1.
         22    1    1    0    0    0  0.76721237305E+01  0.24960943508E+02  0.15223033546E+02  0.30226659320E+02  0.00000000000E+00 0.  1.
</event>
<event>
 5    1  0.1259474E-009  0.9118800E+02  0.7815553E-02  0.1125453E+00
         25   -1    0    0    0    0  0.00000000000E+00  0.00000000000E+00  0.99999998245E-14  0.12509000000E+03  0.12509000000E+03 0.  0.
        -13    1    3    3    0    0  0.33601459631E+02 -0.13982927091E+02 -0.64171910004E+01  0.36956350520E+02  0.10566000000E+00 0. -1.
         23    2    1    0    0    0 -0.72832034224E+01  0.26062281542E+02  0.95868178889E+01  0.96381209561E+02  0.92006211246E+02 0.  0.
         13    1    3    3    0    0 -0.40884663053E+02  0.40045208633E+02  0.16004008889E+02  0.59424859041E+02  0.10566000000E+00 0.  1.
         22    1    1    0    0    0  0.72832034224E+01 -0.26062281542E+02 -0.95868178889E+01  0.28708790439E+02  0.00000000000E+00 0.  1.
</event>
<event>
 5    1  0.1259474E-009  0.9118800E+02  0.7815553E-02  0.1125453E+00
         25   -1    0    0    0    0  0.00000000000E+00  0.00000000000E+00  0.99999998245E-14  0.12509000000E+03  0.12509000000E+03 0.  0.
        -13    1    3    3    0    0 -0.33799738589E+02  0.48631957333E+01  0.14244888861E+02  0.37000013840E+02  0.10566000000E+00 0. -1.
         23    2    1    0    0    0  0.10725295238E+02  0.76650522236E+01 -0.25264446045E+02  0.96593031433E+02  0.92293751164E+02 0.  0.
         13    1    3    3    0    0  0.44525033827E+02  0.28018564903E+01 -0.39509334906E+02  0.59593017593E+02  0.10566000000E+00 0.  1.
         22    1    1    0    0    0 -0.10725295238E+02 -0.76650522236E+01  0.25264446045E+02  0.28496968567E+02  0.00000000000E+00 0.  1.
</event>
<event>
 5    1  0.1259474E-009  0.9118800E+02  0.7815553E-02  0.1125453E+00
         25   -1    0    0    0    0  0.00000000000E+00  0.00000000000E+00  0.99999998245E-14  0.12509000000E+03  0.12509000000E+03 0.  0.
        -13    1    3    3    0    0  0.48086468781E+02  0.37163646032E+02 -0.54313441727E+01  0.61016028466E+02  0.10566000000E+00 0. -1.
         23    2    1    0    0    0  0.25005645111E+02  0.12484741794E+02  0.56472371270E+01  0.96576102472E+02  0.92270803705E+02 0.  0.
         13    1    3    3    0    0 -0.23080823670E+02 -0.24678904237E+02  0.11078581300E+02  0.35560074006E+02  0.10566000000E+00 0.  1.
         22    1    1    0    0    0 -0.25005645111E+02 -0.12484741794E+02 -0.56472371270E+01  0.28513897528E+02  0.00000000000E+00 0. -1.
</event>
<event>
 5    1  0.1259474E-009  0.9118800E+02  0.7815553E-02  0.1125453E+00
         25   -1    0    0    0    0  0.00000000000E+00  0.00000000000E+00  0.99999998245E-14  0.12509000000E+03  0.12509000000E+03 0.  0.
        -13    1    3    3    0    0 -0.14036807302E+02 -0.48318806456E+02 -0.36762191849E+02  0.62315398820E+02  0.10566000000E+00 0. -1.
         23    2    1    0    0    0 -0.85068822267E+01 -0.20763823710E+02 -0.19951262672E+02  0.95064072829E+02  0.90197680903E+02 0.  0.
         13    1    3    3    0    0  0.55299250756E+01  0.27554982746E+02  0.16810929177E+02  0.32748674008E+02  0.10566000000E+00 0.  1.
         22    1    1    0    0    0  0.85068822267E+01  0.20763823710E+02  0.19951262672E+02  0.30025927171E+02  0.00000000000E+00 0. -1.
</event>
<event>
 5    1  0.1259474E-009  0.9118800E+02  0.7815553E-02  0.1125453E+00
         25   -1    0    0    0    0  0.00000000000E+00  0.00000000000E+00  0.99999998245E-14  0.12509000000E+03  0.12509000000E+03 0.  0.
        -13    1    3    3    0    0  0.96258551741E+01 -0.50092209666E+02  0.62942176780E+01  0.51395670024E+02  0.10566000000E+00 0.  1.
         23    2    1    0    0    0  0.11014854813E+02 -0.92239539685E+01  0.24916407159E+02  0.96328294573E+02  0.91934240826E+02 0.  0.
         13    1    3    3    0    0  0.13889996393E+01  0.40868255697E+02  0.18622189481E+02  0.44932624549E+02  0.10566000000E+00 0. -1.
         22    1    1    0    0    0 -0.11014854813E+02  0.92239539685E+01 -0.24916407159E+02  0.28761705427E+02  0.00000000000E+00 0. -1.
</event>
<event>
 5    1  0.1259474E-009  0.9118800E+02  0.7815553E-02  0.1125453E+00
         25   -1    0    0    0    0  0.00000000000E+00  0.00000000000E+00  0.99999998245E-14  0.12509000000E+03  0.12509000000E+03 0.  0.
        -13    1    3    3    0    0  0.27260619405E+02 -0.27553225666E+02 -0.37987722366E+01  0.38945647375E+02  0.10566000000E+00 0.  1.
         23    2    1    0    0    0  0.11028121215E+02  0.26126837465E+02  0.65773968107E+01  0.95978262809E+02  0.91456731243E+02 0.  0.
         13    1    3    3    0    0 -0.16232498189E+02  0.53680063131E+02  0.10376169047E+02  0.57032615434E+02  0.10566000000E+00 0. -1.
         22    1    1    0    0    0 -0.11028121215E+02 -0.26126837465E+02 -0.65773968107E+01  0.29111737191E+02  0.00000000000E+00 0. -1.
</event>
<event>
 5    1  0.1259474E-009  0.9118800E+02  0.7815553E-02  0.1125453E+00
         25   -1    0    0    0    0  0.00000000000E+00  0.00000000000E+00  0.99999998245E-14  0.12509000000E+03  0.12509000000E+03 0.  0.
        -13    1    3    3    0    0  0.71188006842E+01 -0.25315911367E+02  0.40637873376E+02  0.48404758114E+02  0.10566000000E+00 0. -1.
         23    2    1    0    0    0 -0.14220355044E-01  0.18144285845E+02  0.22872616426E+02  0.95894591230E+02  0.91342217698E+02 0.  0.
         13    1    3    3    0    0 -0.71330210393E+01  0.43460197212E+02 -0.17765256950E+02  0.47489833116E+02  0.10566000000E+00 0.  1.
         22    1    1    0    0    0  0.14220355044E-01 -0.18144285845E+02 -0.22872616426E+02  0.29195408770E+02  0.00000000000E+00 0. -1.
</event>
<event>
 5    1  0.1259474E-009  0.9118800E+02  0.7815553E-02  0.1125453E+00
         25   -1    0    0    0    0  0.00000000000E+00  0.00000000000E+00  0.99999998245E-14  0.12509000000E+03  0.12509000000E+03 0.  0.
        -13    1    3    3    0    0  0.28741541753E+02  0.28941109214E+02 -0.10523370881E+02  0.42123823706E+02  0.10566000000E+00 0.  1.
         23    2    1    0    0    0 -0.14985249631E+02  0.35016191618E+02 -0.64700898147E+01  0.86456420770E+02  0.77344419632E+02 0.  0.
         13    1    3    3    0    0 -0.43726791384E+02  0.60750824036E+01  0.40532810662E+01  0.44332597064E+02  0.10566000000E+00 0. -1.
         22    1    1    0    0    0  0.14985249631E+02 -0.35016191618E+02  0.64700898147E+01  0.38633579230E+02  0.00000000000E+00 0.  1.
</event>
<event>
 5    1  0.1259474E-009  0.9118800E+02  0.7815553E-02  0.1125453E+00
         25   -1    0    0    0    0  0.00000000000E+00  0.00000000000E+00  0.99999998245E-14  0.12509000000E+03  0.12509000000E+03 0.  0.
        -13    1    3    3    0    0 -0.52900833723E+01  0.25804329970E+01 -0.33987089093E+02  0.34493144328E+02  0.10566000000E+00 0. -1.
         23    2    1    0    0    0  0.14758308189E+02  0.27219614380E+01  0.24521047409E+02  0.96341113053E+02  0.91951680592E+02 0.  0.
         13    1    3    3    0    0  0.20048391561E+02  0.14152844097E+00  0.58508136502E+02  0.61847968725E+02  0.10566000000E+00 0.  1.
         22    1    1    0    0    0 -0.14758308189E+02 -0.27219614380E+01 -0.24521047409E+02  0.28748886947E+02  0.00000000000E+00 0.  1.
</event>
<event>
 5    1  0.1259474E-009  0.9118800E+02  0.7815553E-02  0.1125453E+00
         25   -1    0    0    0    0  0.00000000000E+00  0.00000000000E+00  0.99999998245E-14  0.12509000000E+03  0.12509000000E+03 0.  0.
        -13    1    3    3    0    0  0.13543571842E+02  0.12851569300E+02 -0.52906038363E+02  0.56103932402E+02  0.10566000000E+00 0.  1.
         23    2    1    0    0    0  0.15978291132E+02 -0.11562466874E+02 -0.24436164880E+02  0.93687411226E+02  0.88267822226E+02 0.  0.
         13    1    3    3    0    0  0.24347192891E+01 -0.24414036174E+02  0.28469873483E+02  0.37583478824E+02  0.10566000000E+00 0. -1.
         22    1    1    0    0    0 -0.15978291132E+02  0.11562466874E+02  0.24436164880E+02  0.31402588774E+02  0.00000000000E+00 0.  1.
</event>
<event>
 5    1  0.1259474E-009  0.9118800E+02  0.7815553E-02  0.1125453E+00
         25   -1    0    0    0    0  0.00000000000E+00  0.00000000000E+00  0.99999998245E-14  0.12509000000E+03  0.12509000000E+03 0.  0.
        -13    1    3    3    0    0 -0.49809993205E+02 -0.19239764525E+01  0.18258164934E+02  0.53085863083E+02  0.10566000000E+00 0.  1.
         23    2    1    0    0    0 -0.22816652362E+02 -0.16062499754E+02 -0.10778473702E+02  0.95177142920E+02  0.90354355267E+02 0.  0.
         13    1    3    3    0    0  0.26993340843E+02 -0.14138523301E+02 -0.29036638636E+02  0.42091279837E+02  0.10566000000E+00 0. -1.
         22    1    1    0    0    0  0.22816652362E+02  0.16062499754E+02  0.10778473702E+02  0.29912857080E+02  0.00000000000E+00 0.  1.
</event>
<event>
 5    1  0.1259474E-009  0.9118800E+02  0.7815553E-02  0.1125453E+00
         25   -1    0    0    0    0  0.00000000000E+00  0.00000000000E+00  0.99999998245E-14  0.12509000000E+03  0.12509000000E+03 0.  0.
        -13    1    3    3    0    0  0.38075516490E+02  0.40674175249E+02  0.13565568698E+02  0.57342561037E+02  0.10566000000E+00 0.  1.
         23    2    1    0    0    0  0.88543629126E+01  0.25199821843E+02  0.20855318746E+02  0.91202316640E+02  0.84672826084E+02 0.  0.
         13    1    3    3    0    0 -0.29221153577E+02 -0.15474353406E+02  0.72897500476E+01  0.33859755603E+02  0.10566000000E+00 0. -1.
         22    1    1    0    0    0 -0.88543629126E+01 -0.25199821843E+02 -0.20855318746E+02  0.33887683360E+02  0.00000000000E+00 0.  1.
</event>
<event>
 5    1  0.1259474E-009  0.9118800E+02  0.7815553E-02  0.1125453E+00
         25   -1    0    0    0    0  0.00000000000E+00  0.00000000000E+00  0.99999998245E-14  0.12509000000E+03  0.12509000000E+03 0.  0.
        -13    1    3    3    0    0  0.48272662953E+00  0.28617164181E+02  0.20803636771E+02  0.35383295179E+02  0.10566000000E+00 0. -1.
         23    2    1    0    0    0 -0.14930344591E+02 -0.16961819495E+02 -0.17196253707E+02  0.96694055717E+02  0.92430572644E+02 0.  0.
         13    1    3    3    0    0 -0.15413071221E+02 -0.45578983676E+02 -0.37999890477E+02  0.61310760538E+02  0.10566000000E+00 0.  1.
         22    1    1    0    0    0  0.14930344591E+02  0.16961819495E+02  0.17196253707E+02  0.28395944283E+02  0.00000000000E+00 0.  1.
</event>
<event>
 5    1  0.1259474E-009  0.9118800E+02  0.7815553E-02  0.1125453E+00
         25   -1    0    0    0    0  0.00000000000E+00  0.00000000000E+00  0.99999998245E-14  0.12509000000E+03  0.12509000000E+03 0.  0.
        -13    1    3    3    0    0  0.37428107287E+02  0.18503302590E+01  0.63072714619E+01  0.38001049649E+02  0.10566000000E+00 0.  1.
         23    2    1    0    0    0 -0.48798662801E+01 -0.22044168282E+02 -0.21439486059E+02  0.93954650113E+02  0.88645734613E+02 0.  0.
         13    1    3    3    0    0 -0.42307973567E+02 -0.23894498541E+02 -0.27746757521E+02  0.55953600463E+02  0.10566000000E+00 0. -1.
         22    1    1    0    0    0  0.48798662801E+01  0.22044168282E+02  0.21439486059E+02  0.31135349887E+02  0.00000000000E+00 0. -1.
</event>
<event>
 5    1  0.1259474E-009  0.9118800E+02  0.7815553E-02  0.1125453E+00
         25   -1    0    0    0    0  0.00000000000E+00  0.00000000000E+00  0.99999998245E-14  0.12509000000E+03  0.12509000000E+03 0.  0.
        -13    1    3    3    0    0  0.10110411527E+02  0.28611157603E+01 -0.58812643609E+02  0.59743992309E+02  0.10566000000E+00 0. -1.
         23    2    1    0    0    0 -0.64956813253E+01 -0.61411556079E+01 -0.25883361266E+02  0.97706500251E+02  0.93790746520E+02 0.  0.
         13    1    3    3    0    0 -0.16606092852E+02 -0.90022713682E+01  0.32929282343E+02  0.37962507942E+02  0.10566000000E+00 0.  1.
         22    1    1    0    0    0  0.64956813253E+01  0.61411556079E+01  0.25883361266E+02  0.27383499749E+02  0.00000000000E+00 0. -1.
</event>
<event>
 5    1  0.1259474E-009  0.9118800E+02  0.7815553E-02  0.1125453E+00
         25   -1    0    0    0    0  0.00000000000E+00  0.00000000000E+00  0.99999998245E-14  0.12509000000E+03  0.12509000000E+03 0.  0.
        -13    1    3    3    0    0  0.34704899028E+02  0.44125320775E+02  0.83195009751E+01  0.56751204485E+02  0.10566000000E+00 0.  1.
         23    2    1    0    0    0  0.27496842406E+02  0.49836603455E+01  0.17428215831E+01  0.97090881446E+02  0.92966061658E+02 0.  0.
         13    1    3    3    0    0 -0.72080566225E+01 -0.39141660429E+02 -0.65766793920E+01  0.40339676961E+02  0.10566000000E+00 0. -1.
         22    1    1    0    0    0 -0.27496842406E+02 -0.49836603455E+01 -0.17428215831E+01  0.27999118554E+02  0.00000000000E+00 0.  1.
</event>
<event>
 5    1  0.1259474E-009  0.9118800E+02  0.7815553E-02  0.1125453E+00
         25   -1    0    0    0    0  0.00000000000E+00  0.00000000000E+00  0.99999998245E-14  0.12509000000E+03  0.12509000000E+03 0.  0.
        -13    1    3    3    0    0  0.26378463807E+02  0.52472775234E+02 -0.62687728285E+01  0.59063729737E+02  0.10566000000E+00 0. -1.
         23    2    1    0    0    0  0.29728889021E+02  0.28755015697E+02 -0.75285159655E+01  0.83050300634E+02  0.71624130797E+02 0.  0.
         13    1    3    3    0    0  0.33504252142E+01 -0.23717759537E+02 -0.12597431370E+01  0.23986570897E+02  0.10566000000E+00 0.  1.
         22    1    1    0    0    0 -0.29728889021E+02 -0.28755015697E+02  0.75285159655E+01  0.42039699366E+02  0.00000000000E+00 0. -1.
</event>
<event>
 5    1  0.1259474E-009  0.9118800E+02  0.7815553E-02  0.1125453E+00
         25   -1    0    0    0    0  0.00000000000E+00  0.00000000000E+00  0.99999998245E-14  0.12509000000E+03  0.12509000000E+03 0.  0.
        -13    1    3    3    0    0  0.20393244274E+02  0.30048704662E+02 -0.69225176444E+01  0.36969466840E+02  0.10566000000E+00 0. -1.
         23    2    1    0    0    0  0.17972496198E+02 -0.25108693342E+02 -0.10952625620E+02  0.92326955134E+02  0.86318303594E+02 0.  0.
         13    1    3    3    0    0 -0.24207480758E+01 -0.55157398004E+02 -0.40301079754E+01  0.55357488293E+02  0.10566000000E+00 0.  1.
         22    1    1    0    0    0 -0.17972496198E+02  0.25108693342E+02  0.10952625620E+02  0.32763044866E+02  0.00000000000E+00 0.  1.
</event>
<event>
 5    1  0.1259474E-009  0.9118800E+02  0.7815553E-02  0.1125453E+00
         25   -1    0    0    0    0  0.00000000000E+00  0.00000000000E+00  0.99999998245E-14  0.12509000000E+03  0.12509000000E+03 0.  0.
        -13    1    3    3    0    0  0.35653595239E+01  0.34730225350E+02  0.36129391135E+02  0.50241859134E+02  0.10566000000E+00 0.  1.
         23    2    1    0    0    0  0.26653562787E+02  0.10185713051E+02  0.49910987957E+01  0.96123256539E+02  0.91654831956E+02 0.  0.
         13    1    3    3    0    0  0.23088203263E+02 -0.24544512299E+02 -0.31138292340E+02  0.45881397404E+02  0.10566000000E+00 0. -1.
         22    1    1    0    0    0 -0.26653562787E+02 -0.10185713051E+02 -0.49910987957E+01  0.28966743461E+02  0.00000000000E+00 0. -1.
</event>
<event>
 5    1  0.1259474E-009  0.9118800E+02  0.7815553E-02  0.1125453E+00
         25   -1    0    0    0    0  0.00000000000E+00  0.00000000000E+00  0.99999998245E-14  0.12509000000E+03  0.12509000000E+03 0.  0.
        -13    1    3    3    0    0 -0.10034628322E+02 -0.21697707058E+02  0.35746243816E+02  0.43003364614E+02  0.10566000000E+00 0. -1.
         23    2    1    0    0    0 -0.14892117108E+02 -0.17597030623E+02 -0.17198566211E+02  0.96328544570E+02  0.91934580983E+02 0.  0.
         13    1    3    3    0    0 -0.48574887859E+01  0.41006764352E+01 -0.52944810027E+02  0.53325179956E+02  0.10566000000E+00 0.  1.
         22    1    1    0    0    0  0.14892117108E+02  0.17597030623E+02  0.17198566211E+02  0.28761455430E+02  0.00000000000E+00 0. -1.
</event>
<event>
 5    1  0.1259474E-009  0.9118800E+02  0.7815553E-02  0.1125453E+00
         25   -1    0    0    0    0  0.00000000000E+00  0.00000000000E+00  0.99999998245E-14  0.12509000000E+03  0.12509000000E+03 0.  0.
        -13    1    3    3    0    0 -0.23912604156E+02 -0.98900590656E+01 -0.22345813443E+02  0.34190239080E+02  0.10566000000E+00 0.  1.
         23    2    1    0    0    0  0.28087912611E+02  0.13066595252E+02 -0.43859310217E+01  0.93802572218E+02  0.88430873666E+02 0.  0.
         13    1    3    3    0    0  0.52000516767E+02  0.22956654317E+02  0.17959882421E+02  0.59612333138E+02  0.10566000000E+00 0. -1.
         22    1    1    0    0    0 -0.28087912611E+02 -0.13066595252E+02  0.43859310217E+01  0.31287427782E+02  0.00000000000E+00 0. -1.
</event>
<event>
 5    1  0.1259474E-009  0.9118800E+02  0.7815553E-02  0.1125453E+00
         25   -1    0    0    0    0  0.00000000000E+00  0.00000000000E+00  0.99999998245E-14  0.12509000000E+03  0.12509000000E+03 0.  0.
        -13    1    3    3    0    0  0.23070029904E+02 -0.33716399606E+01  0.51632066694E+02  0.56652234827E+02  0.10566000000E+00 0.  1.
         23    2    1    0    0    0  0.22680516167E+02  0.12073619015E+02  0.17837200921E+02  0.93811511763E+02  0.88443518207E+02 0.  0.
         13    1    3    3    0    0 -0.38951373734E+00  0.15445258975E+02 -0.33794865773E+02  0.37159276936E+02  0.10566000000E+00 0. -1.
         22    1    1    0    0    0 -0.22680516167E+02 -0.12073619015E+02 -0.17837200921E+02  0.31278488237E+02  0.00000000000E+00 0.  1.
</event>
<event>
 5    1  0.1259474E-009  0.9118800E+02  0.7815553E-02  0.1125453E+00
         25   -1    0    0    0    0  0.00000000000E+00  0.00000000000E+00  0.99999998245E-14  0.12509000000E+03  0.12509000000E+03 0.  0.
        -13    1    3    3    0    0 -0.22259144033E+02 -0.25702537294E+02  0.11784618836E+01  0.34021902546E+02  0.10566000000E+00 0. -1.
         23    2    1    0    0    0  0.10583871132E+02  0.24081530723E+02  0.14385937543E+02  0.95108444852E+02  0.90259196944E+02 0.  0.
         13    1    3    3    0    0  0.32843015165E+02  0.49784068017E+02  0.13207475660E+02  0.61086542305E+02  0.10566000000E+00 0.  1.
         22    1    1    0    0    0 -0.10583871132E+02 -0.24081530723E+02 -0.14385937543E+02  0.29981555148E+02  0.00000000000E+00 0.  1.
</event>
<event>
 5    1  0.1259474E-009  0.9118800E+02  0.7815553E-02  0.1125453E+00
         25   -1    0    0    0    0  0.00000000000E+00  0.00000000000E+00  0.99999998245E-14  0.12509000000E+03  0.12509000000E+03 0.  0.
        -13    1    3    3    0    0 -0.37140831376E+02 -0.11128005003E+02 -0.41466869166E+02  0.56769589158E+02  0.10566000000E+00 0. -1.
         23    2    1    0    0    0 -0.28342570089E+02 -0.10229215717E+02 -0.46898611484E+01  0.94595198295E+02  0.89545064685E+02 0.  0.
         13    1    3    3    0    0  0.87982612874E+01  0.89878928529E+00  0.36777008017E+02  0.37825609137E+02  0.10566000000E+00 0.  1.
         22    1    1    0    0    0  0.28342570089E+02  0.10229215717E+02  0.46898611484E+01  0.30494801705E+02  0.00000000000E+00 0. -1.
</event>
<event>
 5    1  0.1259474E-009  0.9118800E+02  0.7815553E-02  0.1125453E+00
         25   -1    0    0    0    0  0.00000000000E+00  0.00000000000E+00  0.99999998245E-14  0.12509000000E+03  0.12509000000E+03 0.  0.
        -13    1    3    3    0    0 -0.25003896976E+02  0.28915538011E+01 -0.52798431036E+02  0.58491379120E+02  0.10566000000E+00 0. -1.
         23    2    1    0    0    0 -0.24227539739E+02  0.55566336178E+01 -0.15707176001E+02  0.95686509784E+02  0.91056811484E+02 0.  0.
         13    1    3    3    0    0  0.77635723706E+00  0.26650798167E+01  0.37091255035E+02  0.37195130664E+02  0.10566000000E+00 0.  1.
         22    1    1    0    0    0  0.24227539739E+02 -0.55566336178E+01  0.15707176001E+02  0.29403490216E+02  0.00000000000E+00 0. -1.
</event>
<event>
 5    1  0.1259474E-009  0.9118800E+02  0.7815553E-02  0.1125453E+00
         25   -1    0    0    0    0  0.00000000000E+00  0.00000000000E+00  0.99999998245E-14  0.12509000000E+03  0.12509000000E+03 0.  0.
        -13    1    3    3    0    0  0.31449595103E+02  0.52900088462E+02  0.28513526571E+01  0.61608747491E+02  0.10566000000E+00 0.  1.
         23    2    1    0    0    0  0.21417918718E+02  0.21452481684E+02 -0.36235672388E+00  0.94773873680E+02  0.89794318402E+02 0.  0.
         13    1    3    3    0    0 -0.10031676385E+02 -0.31447606778E+02 -0.32137093810E+01  0.33165126189E+02  0.10566000000E+00 0. -1.
         22    1    1    0    0    0 -0.21417918718E+02 -0.21452481684E+02  0.36235672388E+00  0.30316126320E+02  0.00000000000E+00 0.  1.
</event>
<event>
 5    1  0.1259474E-009  0.9118800E+02  0.7815553E-02  0.1125453E+00
         25   -1    0    0    0    0  0.00000000000E+00  0.00000000000E+00  0.99999998245E-14  0.12509000000E+03  0.12509000000E+03 0.  0.
        -13    1    3    3    0    0  0.24206133624E+02 -0.31919917440E+02  0.40327826724E+02  0.56843318048E+02  0.10566000000E+00 0. -1.
         23    2    1    0    0    0  0.26170430123E+02 -0.49003062657E+01  0.12513326638E+02  0.95670826696E+02  0.91035264172E+02 0.  0.
         13    1    3    3    0    0  0.19642964996E+01  0.27019611174E+02 -0.27814500086E+02  0.38827508648E+02  0.10566000000E+00 0.  1.
         22    1    1    0    0    0 -0.26170430123E+02  0.49003062657E+01 -0.12513326638E+02  0.29419173304E+02  0.00000000000E+00 0. -1.
</event>
<event>
 5    1  0.1259474E-009  0.9118800E+02  0.7815553E-02  0.1125453E+00
         25   -1    0    0    0    0  0.00000000000E+00  0.00000000000E+00  0.99999998245E-14  0.12509000000E+03  0.12509000000E+03 0.  0.
        -13    1    3    3    0    0 -0.21398334070E+02 -0.21277089310E+02 -0.20446476499E+02  0.36450964263E+02  0.10566000000E+00 0. -1.
         23    2    1    0    0    0  0.21681331794E+02  0.17598674010E+02 -0.10106965451E+02  0.95392454211E+02  0.90651950308E+02 0.  0.
         13    1    3    3    0    0  0.43079665863E+02  0.38875763319E+02  0.10339511049E+02  0.58941489948E+02  0.10566000000E+00 0.  1.
         22    1    1    0    0    0 -0.21681331794E+02 -0.17598674010E+02  0.10106965451E+02  0.29697545789E+02  0.00000000000E+00 0.  1.
</event>
<event>
 5    1  0.1259474E-009  0.9118800E+02  0.7815553E-02  0.1125453E+00
         25   -1    0    0    0    0  0.00000000000E+00  0.00000000000E+00  0.99999998245E-14  0.12509000000E+03  0.12509000000E+03 0.  0.
        -13    1    3    3    0    0  0.17065679316E+02  0.34673471204E+02 -0.39116864578E+02  0.54987519259E+02  0.10566000000E+00 0.  1.
         23    2    1    0    0    0  0.61250278122E+01  0.30202034779E+02 -0.17006203254E+01  0.94226251362E+02  0.89028172315E+02 0.  0.
         13    1    3    3    0    0 -0.10940651504E+02 -0.44714364246E+01  0.37416244253E+02  0.39238732103E+02  0.10566000000E+00 0. -1.
         22    1    1    0    0    0 -0.61250278122E+01 -0.30202034779E+02  0.17006203254E+01  0.30863748638E+02  0.00000000000E+00 0.  1.
</event>
<event>
 5    1  0.1259474E-009  0.9118800E+02  0.7815553E-02  0.1125453E+00
         25   -1    0    0    0    0  0.00000000000E+00  0.00000000000E+00  0.99999998245E-14  0.12509000000E+03  0.12509000000E+03 0.  0.
        -13    1    3    3    0    0 -0.15626793608E+02 -0.14650948194E+02 -0.45211821140E+02  0.50029660166E+02  0.10566000000E+00 0.  1.
         23    2    1    0    0    0 -0.23926333881E+02 -0.94392819825E+00  0.31144532574E+01  0.10094335898E+03  0.98012761668E+02 0.  0.
         13    1    3    3    0    0 -0.82995402724E+01  0.13707019996E+02  0.48326274397E+02  0.50913698815E+02  0.10566000000E+00 0. -1.
         22    1    1    0    0    0  0.23926333881E+02  0.94392819825E+00 -0.31144532574E+01  0.24146641019E+02  0.00000000000E+00 0. -1.
</event>
<event>
 5    1  0.1259474E-009  0.9118800E+02  0.7815553E-02  0.1125453E+00
         25   -1    0    0    0    0  0.00000000000E+00  0.00000000000E+00  0.99999998245E-14  0.12509000000E+03  0.12509000000E+03 0.  0.
        -13    1    3    3    0    0  0.33097366835E+02 -0.94042508627E+00 -0.63051351660E+01  0.33705874625E+02  0.10566000000E+00 0. -1.
         23    2    1    0    0    0 -0.23374254442E+02  0.17461937406E+02  0.80754318876E+01  0.94816453315E+02  0.89853615344E+02 0.  0.
         13    1    3    3    0    0 -0.56471621277E+02  0.18402362493E+02  0.14380567054E+02  0.61110578690E+02  0.10566000000E+00 0.  1.
         22    1    1    0    0    0  0.23374254442E+02 -0.17461937406E+02 -0.80754318876E+01  0.30273546685E+02  0.00000000000E+00 0.  1.
</event>
<event>
 5    1  0.1259474E-009  0.9118800E+02  0.7815553E-02  0.1125453E+00
         25   -1    0    0    0    0  0.00000000000E+00  0.00000000000E+00  0.99999998245E-14  0.12509000000E+03  0.12509000000E+03 0.  0.
        -13    1    3    3    0    0 -0.32109370064E+02  0.17803872110E+02  0.11143374489E+02  0.38368938832E+02  0.10566000000E+00 0. -1.
         23    2    1    0    0    0  0.18303652666E+02  0.20473224265E+02 -0.13434578562E+02  0.94517716574E+02  0.89436761080E+02 0.  0.
         13    1    3    3    0    0  0.50413022731E+02  0.26693521550E+01 -0.24577953051E+02  0.56148777742E+02  0.10566000000E+00 0.  1.
         22    1    1    0    0    0 -0.18303652666E+02 -0.20473224265E+02  0.13434578562E+02  0.30572283426E+02  0.00000000000E+00 0.  1.
</event>
<event>
 5    1  0.1259474E-009  0.9118800E+02  0.7815553E-02  0.1125453E+00
         25   -1    0    0    0    0  0.00000000000E+00  0.00000000000E+00  0.99999998245E-14  0.12509000000E+03  0.12509000000E+03 0.  0.
        -13    1    3    3    0    0 -0.19163553221E+01  0.58607499020E+02 -0.15790762383E+02  0.60727841224E+02  0.10566000000E+00 0.  1.
         23    2    1    0    0    0 -0.10250797457E+02  0.24081394215E+02 -0.11494701611E+02  0.96504679275E+02  0.92173925602E+02 0.  0.
         13    1    3    3    0    0 -0.83344421351E+01 -0.34526104805E+02  0.42960607723E+01  0.35776838051E+02  0.10566000000E+00 0. -1.
         22    1    1    0    0    0  0.10250797457E+02 -0.24081394215E+02  0.11494701611E+02  0.28585320725E+02  0.00000000000E+00 0.  1.
</event>
<event>
 5    1  0.1259474E-009  0.9118800E+02  0.7815553E-02  0.1125453E+00
         25   -1    0    0    0    0  0.00000000000E+00  0.00000000000E+00  0.99999998245E-14  0.12509000000E+03  0.12509000000E+03 0.  0.
        -13    1    3    3    0    0  0.49031175954E+02  0.12678182210E+02  0.19700321074E+01  0.50682193225E+02  0.10566000000E+00 0. -1.
         23    2    1    0    0    0  0.23489333764E+02 -0.10525191449E+02  0.22557487565E+02  0.90864735925E+02  0.84172629362E+02 0.  0.
         13    1    3    3    0    0 -0.25541842189E+02 -0.23203373659E+02  0.20587455458E+02  0.40182542700E+02  0.10566000000E+00 0.  1.
         22    1    1    0    0    0 -0.23489333764E+02  0.10525191449E+02 -0.22557487565E+02  0.34225264075E+02  0.00000000000E+00 0.  1.
</event>
<event>
 5    1  0.1259474E-009  0.9118800E+02  0.7815553E-02  0.1125453E+00
         25   -1    0    0    0    0  0.00000000000E+00  0.00000000000E+00  0.99999998245E-14  0.12509000000E+03  0.12509000000E+03 0.  0.
        -13    1    3    3    0    0  0.12182534056E+02 -0.52581753370E+01 -0.57893272863E+02  0.59394484178E+02  0.10566000000E+00 0.  1.
         23    2    1    0    0    0 -0.19954615833E+01 -0.14112011549E+02 -0.24242259523E+02  0.96968515621E+02  0.92801266899E+02 0.  0.
         13    1    3    3    0    0 -0.14177995639E+02 -0.88538362124E+01  0.33651013341E+02  0.37574031443E+02  0.10566000000E+00 0. -1.
         22    1    1    0    0    0  0.19954615833E+01  0.14112011549E+02  0.24242259523E+02  0.28121484379E+02  0.00000000000E+00 0.  1.
</event>
<event>
 5    1  0.1259474E-009  0.9118800E+02  0.7815553E-02  0.1125453E+00
         25   -1    0    0    0    0  0.00000000000E+00  0.00000000000E+00  0.99999998245E-14  0.12509000000E+03  0.12509000000E+03 0.  0.
        -13    1    3    3    0    0 -0.47008022859E+01 -0.51611358877E+02  0.12899471729E+02  0.53406342715E+02  0.10566000000E+00 0. -1.
         23    2    1    0    0    0 -0.15826680986E+02 -0.20927593674E+02 -0.13680935523E+02  0.95499190535E+02  0.90799115568E+02 0.  0.
         13    1    3    3    0    0 -0.11125878700E+02  0.30683765202E+02 -0.26580407252E+02  0.42092847820E+02  0.10566000000E+00 0.  1.
         22    1    1    0    0    0  0.15826680986E+02  0.20927593674E+02  0.13680935523E+02  0.29590809465E+02  0.00000000000E+00 0. -1.
</event>
<event>
 5    1  0.1259474E-009  0.9118800E+02  0.7815553E-02  0.1125453E+00
         25   -1    0    0    0    0  0.00000000000E+00  0.00000000000E+00  0.99999998245E-14  0.12509000000E+03  0.12509000000E+03 0.  0.
        -13    1    3    3    0    0  0.91144715744E+01  0.29406688051E+02  0.51949308276E+02  0.60386825456E+02  0.10566000000E+00 0. -1.
         23    2    1    0    0    0 -0.42501156006E+01  0.48693859589E+01  0.25223118346E+02  0.99051948972E+02  0.95568344623E+02 0.  0.
         13    1    3    3    0    0 -0.13364587175E+02 -0.24537302093E+02 -0.26726189930E+02  0.38665123517E+02  0.10566000000E+00 0.  1.
         22    1    1    0    0    0  0.42501156006E+01 -0.48693859589E+01 -0.25223118346E+02  0.26038051028E+02  0.00000000000E+00 0. -1.
</event>
<event>
 5    1  0.1259474E-009  0.9118800E+02  0.7815553E-02  0.1125453E+00
         25   -1    0    0    0    0  0.00000000000E+00  0.00000000000E+00  0.99999998245E-14  0.12509000000E+03  0.12509000000E+03 0.  0.
        -13    1    3    3    0    0  0.11148892333E+02  0.21314232207E+02 -0.51056112968E+02  0.56438746711E+02  0.10566000000E+00 0. -1.
         23    2    1    0    0    0  0.16774499118E+02 -0.59695319048E+01 -0.23321755801E+02  0.95748503354E+02  0.91141935842E+02 0.  0.
         13    1    3    3    0    0  0.56256067842E+01 -0.27283764112E+02  0.27734357167E+02  0.39309756643E+02  0.10566000000E+00 0.  1.
         22    1    1    0    0    0 -0.16774499118E+02  0.59695319048E+01  0.23321755801E+02  0.29341496646E+02  0.00000000000E+00 0. -1.
</event>
<event>
 5    1  0.1259474E-009  0.9118800E+02  0.7815553E-02  0.1125453E+00
         25   -1    0    0    0    0  0.00000000000E+00  0.00000000000E+00  0.99999998245E-14  0.12509000000E+03  0.12509000000E+03 0.  0.
        -13    1    3    3    0    0  0.33289817361E+02 -0.19513895188E+02  0.42653129180E+02  0.57517863645E+02  0.10566000000E+00 0. -1.
         23    2    1    0    0    0  0.28356075943E+01 -0.21545567010E+02  0.20324370630E+02  0.95335468081E+02  0.90573281406E+02 0.  0.
         13    1    3    3    0    0 -0.30454209767E+02 -0.20316718217E+01 -0.22328758550E+02  0.37817604437E+02  0.10566000000E+00 0.  1.
         22    1    1    0    0    0 -0.28356075943E+01  0.21545567010E+02 -0.20324370630E+02  0.29754531919E+02  0.00000000000E+00 0.  1.
</event>
<event>
 5    1  0.1259474E-009  0.9118800E+02  0.7815553E-02  0.1125453E+00
         25   -1    0    0    0    0  0.00000000000E+00  0.00000000000E+00  0.99999998245E-14  0.12509000000E+03  0.12509000000E+03 0.  0.
        -13    1    3    3    0    0  0.60579696464E+02 -0.69493140052E+01 -0.34771048489E+01  0.61076132908E+02  0.10566000000E+00 0. -1.
         23    2    1    0    0    0  0.27768394596E+02 -0.18537642372E+00 -0.10671059680E+02  0.95341224940E+02  0.90581231806E+02 0.  0.
         13    1    3    3    0    0 -0.32811301868E+02  0.67639375815E+01 -0.71939548313E+01  0.34265092033E+02  0.10566000000E+00 0.  1.
         22    1    1    0    0    0 -0.27768394596E+02  0.18537642372E+00  0.10671059680E+02  0.29748775060E+02  0.00000000000E+00 0. -1.
</event>
<event>
 5    1  0.1259474E-009  0.9118800E+02  0.7815553E-02  0.1125453E+00
         25   -1    0    0    0    0  0.00000000000E+00  0.00000000000E+00  0.99999998245E-14  0.12509000000E+03  0.12509000000E+03 0.  0.
        -13    1    3    3    0    0  0.28758406588E+02 -0.32061989147E+02  0.32217074824E+02  0.53786319559E+02  0.10566000000E+00 0. -1.
         23    2    1    0    0    0  0.31066081900E+02 -0.54448292432E+01  0.29523429871E+01  0.93412501058E+02  0.87877365770E+02 0.  0.
         13    1    3    3    0    0  0.23076753124E+01  0.26617159904E+02 -0.29264731836E+02  0.39626181499E+02  0.10566000000E+00 0.  1.
         22    1    1    0    0    0 -0.31066081900E+02  0.54448292432E+01 -0.29523429871E+01  0.31677498942E+02  0.00000000000E+00 0. -1.
</event>
<event>
 5    1  0.1259474E-009  0.9118800E+02  0.7815553E-02  0.1125453E+00
         25   -1    0    0    0    0  0.00000000000E+00  0.00000000000E+00  0.99999998245E-14  0.12509000000E+03  0.12509000000E+03 0.  0.
        -13    1    3    3    0    0  0.81882862953E+01 -0.28494939513E+02  0.54943011983E+02  0.62432005735E+02  0.10566000000E+00 0. -1.
         23    2    1    0    0    0  0.37944319678E+01 -0.12891326484E+02  0.30485139859E+02  0.91774421592E+02  0.85513839195E+02 0.  0.
         13    1    3    3    0    0 -0.43938543275E+01  0.15603613028E+02 -0.24457872125E+02  0.29342415856E+02  0.10566000000E+00 0.  1.
         22    1    1    0    0    0 -0.37944319678E+01  0.12891326484E+02 -0.30485139859E+02  0.33315578408E+02  0.00000000000E+00 0. -1.
</event>
<event>
 5    1  0.1259474E-009  0.9118800E+02  0.7815553E-02  0.1125453E+00
         25   -1    0    0    0    0  0.00000000000E+00  0.00000000000E+00  0.99999998245E-14  0.12509000000E+03  0.12509000000E+03 0.  0.
        -13    1    3    3    0    0  0.20261841533E+02  0.26186283921E+02 -0.12340263750E+02  0.35334925518E+02  0.10566000000E+00 0. -1.
         23    2    1    0    0    0 -0.27684160941E+02 -0.92354509769E+01 -0.19906818123E+01  0.95838177222E+02  0.91264927970E+02 0.  0.
         13    1    3    3    0    0 -0.47946002475E+02 -0.35421734897E+02  0.10349581938E+02  0.60503251704E+02  0.10566000000E+00 0.  1.
         22    1    1    0    0    0  0.27684160941E+02  0.92354509769E+01  0.19906818123E+01  0.29251822778E+02  0.00000000000E+00 0.  1.
</event>
<event>
 5    1  0.1259474E-009  0.9118800E+02  0.7815553E-02  0.1125453E+00
         25   -1    0    0    0    0  0.00000000000E+00  0.00000000000E+00  0.99999998245E-14  0.12509000000E+03  0.12509000000E+03 0.  0.
        -13    1    3    3    0    0 -0.62284167794E+01 -0.48155277541E+02  0.32629146128E+02  0.58501250172E+02  0.10566000000E+00 0.  1.
         23    2    1    0    0    0 -0.14138307178E+02 -0.12946349866E+02  0.21543269499E+02  0.96252313453E+02  0.91830799188E+02 0.  0.
         13    1    3    3    0    0 -0.79098903983E+01  0.35208927675E+02 -0.11085876629E+02  0.37751063281E+02  0.10566000000E+00 0. -1.
         22    1    1    0    0    0  0.14138307178E+02  0.12946349866E+02 -0.21543269499E+02  0.28837686547E+02  0.00000000000E+00 0.  1.
</event>
<event>
 5    1  0.1259474E-009  0.9118800E+02  0.7815553E-02  0.1125453E+00
         25   -1    0    0    0    0  0.00000000000E+00  0.00000000000E+00  0.99999998245E-14  0.12509000000E+03  0.12509000000E+03 0.  0.
        -13    1    3    3    0    0 -0.54177612218E+02 -0.16444434226E+02 -0.24073122224E+02  0.61523649602E+02  0.10566000000E+00 0.  1.
         23    2    1    0    0    0 -0.21052154299E+02 -0.13067431992E+02 -0.15342391209E+02  0.95946562531E+02  0.91413362885E+02 0.  0.
         13    1    3    3    0    0  0.33125457919E+02  0.33770022342E+01  0.87307310150E+01  0.34422912929E+02  0.10566000000E+00 0. -1.
         22    1    1    0    0    0  0.21052154299E+02  0.13067431992E+02  0.15342391209E+02  0.29143437469E+02  0.00000000000E+00 0.  1.
</event>
<event>
 5    1  0.1259474E-009  0.9118800E+02  0.7815553E-02  0.1125453E+00
         25   -1    0    0    0    0  0.00000000000E+00  0.00000000000E+00  0.99999998245E-14  0.12509000000E+03  0.12509000000E+03 0.  0.
        -13    1    3    3    0    0 -0.31627881804E+02  0.31251872131E+02  0.12643317839E+02  0.46226259520E+02  0.10566000000E+00 0.  1.
         23    2    1    0    0    0  0.13451280983E+02  0.10937545325E+02  0.22541772792E+02  0.96652377412E+02  0.92374150502E+02 0.  0.
         13    1    3    3    0    0  0.45079162788E+02 -0.20314326806E+02  0.98984549528E+01  0.50426117893E+02  0.10566000000E+00 0. -1.
         22    1    1    0    0    0 -0.13451280983E+02 -0.10937545325E+02 -0.22541772792E+02  0.28437622588E+02  0.00000000000E+00 0. -1.
</event>
<event>
 5    1  0.1259474E-009  0.9118800E+02  0.7815553E-02  0.1125453E+00
         25   -1    0    0    0    0  0.00000000000E+00  0.00000000000E+00  0.99999998245E-14  0.12509000000E+03  0.12509000000E+03 0.  0.
        -13    1    3    3    0    0  0.33422983117E+02  0.25433316049E+02  0.12653069220E+00  0.41999720710E+02  0.10566000000E+00 0.  1.
         23    2    1    0    0    0 -0.80233894073E+01  0.12830104103E+02 -0.27727402085E+02  0.93502103975E+02  0.88004819598E+02 0.  0.
         13    1    3    3    0    0 -0.41446372524E+02 -0.12603211946E+02 -0.27853932777E+02  0.51502383265E+02  0.10566000000E+00 0. -1.
         22    1    1    0    0    0  0.80233894073E+01 -0.12830104103E+02  0.27727402085E+02  0.31587896025E+02  0.00000000000E+00 0. -1.
</event>
<event>
 5    1  0.1259474E-009  0.9118800E+02  0.7815553E-02  0.1125453E+00
         25   -1    0    0    0    0  0.00000000000E+00  0.00000000000E+00  0.99999998245E-14  0.12509000000E+03  0.12509000000E+03 0.  0.
        -13    1    3    3    0    0 -0.20302684009E+01 -0.53661930911E+02 -0.11854014664E+02  0.54993214550E+02  0.10566000000E+00 0. -1.
         23    2    1    0    0    0  0.18798100867E+02 -0.16972497632E+02 -0.11720723656E+02  0.97182838999E+02  0.93089712433E+02 0.  0.
         13    1    3    3    0    0  0.20828369268E+02  0.36689433278E+02  0.13329100789E+00  0.42189624449E+02  0.10566000000E+00 0.  1.
         22    1    1    0    0    0 -0.18798100867E+02  0.16972497632E+02  0.11720723656E+02  0.27907161001E+02  0.00000000000E+00 0.  1.
</event>
<event>
 5    1  0.1259474E-009  0.9118800E+02  0.7815553E-02  0.1125453E+00
         25   -1    0    0    0    0  0.00000000000E+00  0.00000000000E+00  0.99999998245E-14  0.12509000000E+03  0.12509000000E+03 0.  0.
        -13    1    3    3    0    0  0.58437722701E+02  0.98273061264E+01  0.16676057702E+02  0.61560096205E+02  0.10566000000E+00 0.  1.
         23    2    1    0    0    0  0.28910185554E+02 -0.25667760308E+01  0.50417615259E+01  0.95631443905E+02  0.90981132858E+02 0.  0.
         13    1    3    3    0    0 -0.29527537148E+02 -0.12394082157E+02 -0.11634296176E+02  0.34071347700E+02  0.10566000000E+00 0. -1.
         22    1    1    0    0    0 -0.28910185554E+02  0.25667760308E+01 -0.50417615259E+01  0.29458556095E+02  0.00000000000E+00 0.  1.
</event>
<event>
 5    1  0.1259474E-009  0.9118800E+02  0.7815553E-02  0.1125453E+00
         25   -1    0    0    0    0  0.00000000000E+00  0.00000000000E+00  0.99999998245E-14  0.12509000000E+03  0.12509000000E+03 0.  0.
        -13    1    3    3    0    0 -0.18704434513E+02 -0.40156364198E+02  0.42464312592E+02  0.61364635288E+02  0.10566000000E+00 0.  1.
         23    2    1    0    0    0 -0.78692858743E+00 -0.21801432922E+02  0.20963791329E+02  0.94834384307E+02  0.89878574565E+02 0.  0.
         13    1    3    3    0    0  0.17917505926E+02  0.18354931276E+02 -0.21500521263E+02  0.33469749019E+02  0.10566000000E+00 0. -1.
         22    1    1    0    0    0  0.78692858743E+00  0.21801432922E+02 -0.20963791329E+02  0.30255615693E+02  0.00000000000E+00 0.  1.
</event>
<event>
 4    1  0.1259474E-009  0.9118800E+02  0.7815553E-02  0.1125453E+00
         25   -1    0    0    0    0  0.00000000000E+00  0.00000000000E+00  0.99999998245E-14  0.12509000000E+03  0.12509000000E+03 0.  0.
        -13    1    1    0    0    0 -0.14046173946E+02 -0.14491054557E+02 -0.23468360344E+02  0.30952556695E+02  0.10566000000E+00 0. -1.
         13    1    1    0    0    0 -0.26226411445E+02 -0.19543949733E+02  0.25341105753E+02  0.41376000693E+02  0.10566000000E+00 0.  1.
         22    1    1    0    0    0  0.40272585391E+02  0.34035004291E+02 -0.18727454092E+01  0.52761442612E+02  0.00000000000E+00 0.  1.
</event>
<event>
 5    1  0.1259474E-009  0.9118800E+02  0.7815553E-02  0.1125453E+00
         25   -1    0    0    0    0  0.00000000000E+00  0.00000000000E+00  0.99999998245E-14  0.12509000000E+03  0.12509000000E+03 0.  0.
        -13    1    3    3    0    0  0.34308603283E+02  0.85109063433E+01  0.50554774056E+02  0.61687212045E+02  0.10566000000E+00 0. -1.
         23    2    1    0    0    0  0.13300075230E+02 -0.16529567821E+01  0.27526966004E+02  0.94473695118E+02  0.89375169620E+02 0.  0.
         13    1    3    3    0    0 -0.21008528053E+02 -0.10163863125E+02 -0.23027808052E+02  0.32786483073E+02  0.10566000000E+00 0.  1.
         22    1    1    0    0    0 -0.13300075230E+02  0.16529567821E+01 -0.27526966004E+02  0.30616304882E+02  0.00000000000E+00 0. -1.
</event>
<event>
 5    1  0.1259474E-009  0.9118800E+02  0.7815553E-02  0.1125453E+00
         25   -1    0    0    0    0  0.00000000000E+00  0.00000000000E+00  0.99999998245E-14  0.12509000000E+03  0.12509000000E+03 0.  0.
        -13    1    3    3    0    0 -0.18858216071E+02  0.49343562393E+02  0.22816298753E+02  0.57541412181E+02  0.10566000000E+00 0.  1.
         23    2    1    0    0    0 -0.15258534599E+02  0.23237889852E+02 -0.60625094094E+01  0.96636943517E+02  0.92353248070E+02 0.  0.
         13    1    3    3    0    0  0.35996814720E+01 -0.26105672541E+02 -0.28878808162E+02  0.39095531336E+02  0.10566000000E+00 0. -1.
         22    1    1    0    0    0  0.15258534599E+02 -0.23237889852E+02  0.60625094094E+01  0.28453056483E+02  0.00000000000E+00 0.  1.
</event>
<event>
 5    1  0.1259474E-009  0.9118800E+02  0.7815553E-02  0.1125453E+00
         25   -1    0    0    0    0  0.00000000000E+00  0.00000000000E+00  0.99999998245E-14  0.12509000000E+03  0.12509000000E+03 0.  0.
        -13    1    3    3    0    0 -0.16134500062E+02 -0.26507038356E+02  0.15030053536E+02  0.34479832482E+02  0.10566000000E+00 0.  1.
         23    2    1    0    0    0  0.68100254212E+00  0.29594201829E+02 -0.18473659720E+01  0.95430375805E+02  0.90704262959E+02 0.  0.
         13    1    3    3    0    0  0.16815502604E+02  0.56101240185E+02 -0.16877419508E+02  0.60950543323E+02  0.10566000000E+00 0. -1.
         22    1    1    0    0    0 -0.68100254212E+00 -0.29594201829E+02  0.18473659720E+01  0.29659624195E+02  0.00000000000E+00 0. -1.
</event>
<event>
 5    1  0.1259474E-009  0.9118800E+02  0.7815553E-02  0.1125453E+00
         25   -1    0    0    0    0  0.00000000000E+00  0.00000000000E+00  0.99999998245E-14  0.12509000000E+03  0.12509000000E+03 0.  0.
        -13    1    3    3    0    0 -0.42130896724E+02  0.25476053976E+02 -0.32264643843E+02  0.58864761881E+02  0.10566000000E+00 0. -1.
         23    2    1    0    0    0 -0.23720185540E+02  0.20005400580E+02 -0.29378619403E+01  0.93921196892E+02  0.88598515441E+02 0.  0.
         13    1    3    3    0    0  0.18410711184E+02 -0.54706533959E+01  0.29326781903E+02  0.35056435011E+02  0.10566000000E+00 0.  1.
         22    1    1    0    0    0  0.23720185540E+02 -0.20005400580E+02  0.29378619403E+01  0.31168803108E+02  0.00000000000E+00 0. -1.
</event>
<event>
 5    1  0.1259474E-009  0.9118800E+02  0.7815553E-02  0.1125453E+00
         25   -1    0    0    0    0  0.00000000000E+00  0.00000000000E+00  0.99999998245E-14  0.12509000000E+03  0.12509000000E+03 0.  0.
        -13    1    3    3    0    0  0.28927063149E+02 -0.43458859638E+02  0.25659579281E+02  0.58171063566E+02  0.10566000000E+00 0.  1.
         23    2    1    0    0    0 -0.29560129166E+01 -0.23742898212E+02  0.13698514718E+02  0.97519861565E+02  0.93541492752E+02 0.  0.
         13    1    3    3    0    0 -0.31883076066E+02  0.19715961427E+02 -0.11961064563E+02  0.39348797998E+02  0.10566000000E+00 0. -1.
         22    1    1    0    0    0  0.29560129166E+01  0.23742898212E+02 -0.13698514718E+02  0.27570138435E+02  0.00000000000E+00 0.  1.
</event>
<event>
 5    1  0.1259474E-009  0.9118800E+02  0.7815553E-02  0.1125453E+00
         25   -1    0    0    0    0  0.00000000000E+00  0.00000000000E+00  0.99999998245E-14  0.12509000000E+03  0.12509000000E+03 0.  0.
        -13    1    3    3    0    0  0.84702000767E+01  0.41203158031E+02 -0.25626741157E+01  0.42142887701E+02  0.10566000000E+00 0.  1.
         23    2    1    0    0    0  0.23787802945E+02 -0.42425982034E+01  0.18634076040E+02  0.94576265415E+02  0.89518612487E+02 0.  0.
         13    1    3    3    0    0  0.15317602869E+02 -0.45445756235E+02  0.21196750155E+02  0.52433377714E+02  0.10566000000E+00 0. -1.
         22    1    1    0    0    0 -0.23787802945E+02  0.42425982034E+01 -0.18634076040E+02  0.30513734585E+02  0.00000000000E+00 0.  1.
</event>
<event>
 5    1  0.1259474E-009  0.9118800E+02  0.7815553E-02  0.1125453E+00
         25   -1    0    0    0    0  0.00000000000E+00  0.00000000000E+00  0.99999998245E-14  0.12509000000E+03  0.12509000000E+03 0.  0.
        -13    1    3    3    0    0  0.21717143704E+02  0.23232307201E+02 -0.13003633105E+02  0.34358115002E+02  0.10566000000E+00 0.  1.
         23    2    1    0    0    0 -0.53097226669E+01 -0.28008889586E+02  0.71563914567E+01  0.95697739295E+02  0.91072236806E+02 0.  0.
         13    1    3    3    0    0 -0.27026866371E+02 -0.51241196787E+02  0.20160024562E+02  0.61339624293E+02  0.10566000000E+00 0. -1.
         22    1    1    0    0    0  0.53097226669E+01  0.28008889586E+02 -0.71563914567E+01  0.29392260705E+02  0.00000000000E+00 0. -1.
</event>
<event>
 5    1  0.1259474E-009  0.9118800E+02  0.7815553E-02  0.1125453E+00
         25   -1    0    0    0    0  0.00000000000E+00  0.00000000000E+00  0.99999998245E-14  0.12509000000E+03  0.12509000000E+03 0.  0.
        -13    1    3    3    0    0  0.32343319651E+01  0.28487735716E+02  0.28302431336E+02  0.40287104302E+02  0.10566000000E+00 0. -1.
         23    2    1    0    0    0  0.21958841992E+02  0.11037096778E+02 -0.18969699230E+02  0.94043941703E+02  0.88771646573E+02 0.  0.
         13    1    3    3    0    0  0.18724510026E+02 -0.17450638938E+02 -0.47272130566E+02  0.53756837401E+02  0.10566000000E+00 0.  1.
         22    1    1    0    0    0 -0.21958841992E+02 -0.11037096778E+02  0.18969699230E+02  0.31046058297E+02  0.00000000000E+00 0.  1.
</event>
<event>
 5    1  0.1259474E-009  0.9118800E+02  0.7815553E-02  0.1125453E+00
         25   -1    0    0    0    0  0.00000000000E+00  0.00000000000E+00  0.99999998245E-14  0.12509000000E+03  0.12509000000E+03 0.  0.
        -13    1    3    3    0    0 -0.14107578592E+02 -0.91557437537E+01 -0.42209207511E+02  0.45436546746E+02  0.10566000000E+00 0.  1.
         23    2    1    0    0    0 -0.16719919660E+02  0.25291825825E+02 -0.87411766837E+01  0.93536231020E+02  0.88053314399E+02 0.  0.
         13    1    3    3    0    0 -0.26123410687E+01  0.34447569579E+02  0.33468030828E+02  0.48099684274E+02  0.10566000000E+00 0. -1.
         22    1    1    0    0    0  0.16719919660E+02 -0.25291825825E+02  0.87411766837E+01  0.31553768980E+02  0.00000000000E+00 0.  1.
</event>
<event>
 5    1  0.1259474E-009  0.9118800E+02  0.7815553E-02  0.1125453E+00
         25   -1    0    0    0    0  0.00000000000E+00  0.00000000000E+00  0.99999998245E-14  0.12509000000E+03  0.12509000000E+03 0.  0.
        -13    1    3    3    0    0 -0.21568561757E+02  0.24984251479E+02 -0.24341557787E+02  0.41011440815E+02  0.10566000000E+00 0.  1.
         23    2    1    0    0    0 -0.42721500871E+01  0.15289026589E+02  0.25724793462E+02  0.94861361277E+02  0.89916112373E+02 0.  0.
         13    1    3    3    0    0  0.17296411670E+02 -0.96952248895E+01  0.50066351249E+02  0.53849920461E+02  0.10566000000E+00 0. -1.
         22    1    1    0    0    0  0.42721500871E+01 -0.15289026589E+02 -0.25724793462E+02  0.30228638723E+02  0.00000000000E+00 0. -1.
</event>
<event>
 5    1  0.1259474E-009  0.9118800E+02  0.7815553E-02  0.1125453E+00
         25   -1    0    0    0    0  0.00000000000E+00  0.00000000000E+00  0.99999998245E-14  0.12509000000E+03  0.12509000000E+03 0.  0.
        -13    1    3    3    0    0  0.10884503544E+02 -0.30852110994E+02  0.22413272024E+02  0.39657169554E+02  0.10566000000E+00 0.  1.
         23    2    1    0    0    0  0.19951707712E+02  0.21274640464E+02  0.41517095781E+01  0.95629557710E+02  0.90978539491E+02 0.  0.
         13    1    3    3    0    0  0.90672041679E+01  0.52126751458E+02 -0.18261562446E+02  0.55972388157E+02  0.10566000000E+00 0. -1.
         22    1    1    0    0    0 -0.19951707712E+02 -0.21274640464E+02 -0.41517095781E+01  0.29460442290E+02  0.00000000000E+00 0. -1.
</event>
<event>
 5    1  0.1259474E-009  0.9118800E+02  0.7815553E-02  0.1125453E+00
         25   -1    0    0    0    0  0.00000000000E+00  0.00000000000E+00  0.99999998245E-14  0.12509000000E+03  0.12509000000E+03 0.  0.
        -13    1    3    3    0    0  0.40582400259E+02 -0.19967064624E+02 -0.16092618747E+02  0.48006233164E+02  0.10566000000E+00 0. -1.
         23    2    1    0    0    0  0.91530548821E+01 -0.19779049741E+02  0.19750563682E+02  0.95677859852E+02  0.91044927798E+02 0.  0.
         13    1    3    3    0    0 -0.31429345376E+02  0.18801488322E+00  0.35843182429E+02  0.47671626688E+02  0.10566000000E+00 0.  1.
         22    1    1    0    0    0 -0.91530548821E+01  0.19779049741E+02 -0.19750563682E+02  0.29412140148E+02  0.00000000000E+00 0.  1.
</event>
<event>
 5    1  0.1259474E-009  0.9118800E+02  0.7815553E-02  0.1125453E+00
         25   -1    0    0    0    0  0.00000000000E+00  0.00000000000E+00  0.99999998245E-14  0.12509000000E+03  0.12509000000E+03 0.  0.
        -13    1    3    3    0    0  0.33529998668E+02 -0.34127460188E+01 -0.15989434447E+02  0.37303898242E+02  0.10566000000E+00 0.  1.
         23    2    1    0    0    0 -0.13076225394E+02  0.27353073367E+02 -0.31270542449E+01  0.94611208006E+02  0.89567426662E+02 0.  0.
         13    1    3    3    0    0 -0.46606224063E+02  0.30765819385E+02  0.12862380202E+02  0.57307309764E+02  0.10566000000E+00 0. -1.
         22    1    1    0    0    0  0.13076225394E+02 -0.27353073367E+02  0.31270542449E+01  0.30478791994E+02  0.00000000000E+00 0. -1.
</event>
<event>
 5    1  0.1259474E-009  0.9118800E+02  0.7815553E-02  0.1125453E+00
         25   -1    0    0    0    0  0.00000000000E+00  0.00000000000E+00  0.99999998245E-14  0.12509000000E+03  0.12509000000E+03 0.  0.
        -13    1    3    3    0    0  0.22870055510E+02 -0.47637757177E+02 -0.26780872098E+02  0.59242059571E+02  0.10566000000E+00 0.  1.
         23    2    1    0    0    0  0.13320118854E+02 -0.26320970319E+02  0.10444692990E+01  0.95572040028E+02  0.90899421748E+02 0.  0.
         13    1    3    3    0    0 -0.95499366561E+01  0.21316786858E+02  0.27825341397E+02  0.36329980457E+02  0.10566000000E+00 0. -1.
         22    1    1    0    0    0 -0.13320118854E+02  0.26320970319E+02 -0.10444692990E+01  0.29517959972E+02  0.00000000000E+00 0.  1.
</event>
<event>
 5    1  0.1259474E-009  0.9118800E+02  0.7815553E-02  0.1125453E+00
         25   -1    0    0    0    0  0.00000000000E+00  0.00000000000E+00  0.99999998245E-14  0.12509000000E+03  0.12509000000E+03 0.  0.
        -13    1    3    3    0    0  0.30312133032E+02  0.17264940239E+02  0.13809933974E+02  0.37518382305E+02  0.10566000000E+00 0. -1.
         23    2    1    0    0    0 -0.25033225087E+02 -0.28907953305E+01  0.13673108779E+02  0.96419929202E+02  0.92058838726E+02 0.  0.
         13    1    3    3    0    0 -0.55345358119E+02 -0.20155735569E+02 -0.13682519412E+00  0.58901546897E+02  0.10566000000E+00 0.  1.
         22    1    1    0    0    0  0.25033225087E+02  0.28907953305E+01 -0.13673108779E+02  0.28670070798E+02  0.00000000000E+00 0.  1.
</event>
<event>
 5    1  0.1259474E-009  0.9118800E+02  0.7815553E-02  0.1125453E+00
         25   -1    0    0    0    0  0.00000000000E+00  0.00000000000E+00  0.99999998245E-14  0.12509000000E+03  0.12509000000E+03 0.  0.
        -13    1    3    3    0    0 -0.36498501811E+02 -0.14224618411E+02  0.20889628715E+02  0.44394460863E+02  0.10566000000E+00 0. -1.
         23    2    1    0    0    0 -0.15287162874E+02  0.10052774228E+02 -0.20989804789E+02  0.97245296311E+02  0.93173602115E+02 0.  0.
         13    1    3    3    0    0  0.21211338937E+02  0.24277392640E+02 -0.41879433504E+02  0.52850835448E+02  0.10566000000E+00 0.  1.
         22    1    1    0    0    0  0.15287162874E+02 -0.10052774228E+02  0.20989804789E+02  0.27844703689E+02  0.00000000000E+00 0.  1.
</event>
<event>
 5    1  0.1259474E-009  0.9118800E+02  0.7815553E-02  0.1125453E+00
         25   -1    0    0    0    0  0.00000000000E+00  0.00000000000E+00  0.99999998245E-14  0.12509000000E+03  0.12509000000E+03 0.  0.
        -13    1    3    3    0    0 -0.15640195502E+02  0.27204496021E+02 -0.46483944933E+02  0.56084477529E+02  0.10566000000E+00 0.  1.
         23    2    1    0    0    0 -0.13080767028E+01 -0.54366032536E+01 -0.28563312705E+02  0.95984492750E+02  0.91465251851E+02 0.  0.
         13    1    3    3    0    0  0.14332118799E+02 -0.32641099275E+02  0.17920632228E+02  0.39900015221E+02  0.10566000000E+00 0. -1.
         22    1    1    0    0    0  0.13080767028E+01  0.54366032536E+01  0.28563312705E+02  0.29105507250E+02  0.00000000000E+00 0.  1.
</event>
<event>
 5    1  0.1259474E-009  0.9118800E+02  0.7815553E-02  0.1125453E+00
         25   -1    0    0    0    0  0.00000000000E+00  0.00000000000E+00  0.99999998245E-14  0.12509000000E+03  0.12509000000E+03 0.  0.
        -13    1    3    3    0    0 -0.89835197330E+01 -0.47136526673E+02 -0.34751271764E+02  0.59247091295E+02  0.10566000000E+00 0.  1.
         23    2    1    0    0    0  0.84697246992E+01 -0.16361554465E+02 -0.20866708296E+02  0.97253760741E+02  0.93184965322E+02 0.  0.
         13    1    3    3    0    0  0.17453244432E+02  0.30774972209E+02  0.13884563468E+02  0.38006669446E+02  0.10566000000E+00 0. -1.
         22    1    1    0    0    0 -0.84697246992E+01  0.16361554465E+02  0.20866708296E+02  0.27836239259E+02  0.00000000000E+00 0.  1.
</event>
<event>
 5    1  0.1259474E-009  0.9118800E+02  0.7815553E-02  0.1125453E+00
         25   -1    0    0    0    0  0.00000000000E+00  0.00000000000E+00  0.99999998245E-14  0.12509000000E+03  0.12509000000E+03 0.  0.
        -13    1    3    3    0    0 -0.30726153440E+02 -0.17578874691E+02  0.36018581300E+01  0.35582269274E+02  0.10566000000E+00 0.  1.
         23    2    1    0    0    0  0.23962825342E+02 -0.21941649610E+02 -0.79333665390E+01  0.91644652183E+02  0.85323800801E+02 0.  0.
         13    1    3    3    0    0  0.54688978782E+02 -0.43627749187E+01 -0.11535224669E+02  0.56062382909E+02  0.10566000000E+00 0. -1.
         22    1    1    0    0    0 -0.23962825342E+02  0.21941649610E+02  0.79333665390E+01  0.33445347817E+02  0.00000000000E+00 0. -1.
</event>
<event>
 5    1  0.1259474E-009  0.9118800E+02  0.7815553E-02  0.1125453E+00
         25   -1    0    0    0    0  0.00000000000E+00  0.00000000000E+00  0.99999998245E-14  0.12509000000E+03  0.12509000000E+03 0.  0.
        -13    1    3    3    0    0 -0.35534106377E+02 -0.19509122779E+02  0.32773841407E+02  0.52128825349E+02  0.10566000000E+00 0.  1.
         23    2    1    0    0    0 -0.20773847593E+02 -0.20501623060E+02 -0.74334991986E+01  0.94971464142E+02  0.90069155648E+02 0.  0.
         13    1    3    3    0    0  0.14760258784E+02 -0.99250028041E+00 -0.40207340606E+02  0.42842638794E+02  0.10566000000E+00 0. -1.
         22    1    1    0    0    0  0.20773847593E+02  0.20501623060E+02  0.74334991986E+01  0.30118535858E+02  0.00000000000E+00 0.  1.
</event>
<event>
 5    1  0.1259474E-009  0.9118800E+02  0.7815553E-02  0.1125453E+00
         25   -1    0    0    0    0  0.00000000000E+00  0.00000000000E+00  0.99999998245E-14  0.12509000000E+03  0.12509000000E+03 0.  0.
        -13    1    3    3    0    0 -0.19441874131E+02 -0.21492273172E+02 -0.53145882064E+02  0.60534289624E+02  0.10566000000E+00 0.  1.
         23    2    1    0    0    0 -0.54632860873E+01  0.37206155879E+00 -0.27609717307E+02  0.96942488308E+02  0.92766177160E+02 0.  0.
         13    1    3    3    0    0  0.13978588044E+02  0.21864334730E+02  0.25536164757E+02  0.36408198684E+02  0.10566000000E+00 0. -1.
         22    1    1    0    0    0  0.54632860873E+01 -0.37206155879E+00  0.27609717307E+02  0.28147511692E+02  0.00000000000E+00 0.  1.
</event>
<event>
 5    1  0.1259474E-009  0.9118800E+02  0.7815553E-02  0.1125453E+00
         25   -1    0    0    0    0  0.00000000000E+00  0.00000000000E+00  0.99999998245E-14  0.12509000000E+03  0.12509000000E+03 0.  0.
        -13    1    3    3    0    0  0.64609476021E+01  0.32807089506E+02 -0.25095439945E+02  0.41807191197E+02  0.10566000000E+00 0. -1.
         23    2    1    0    0    0 -0.18112783598E+02 -0.16356240599E+02 -0.64407762620E+01  0.99849494160E+02  0.96606616487E+02 0.  0.
         13    1    3    3    0    0 -0.24573731200E+02 -0.49163330105E+02  0.18654663683E+02  0.58042302963E+02  0.10566000000E+00 0.  1.
         22    1    1    0    0    0  0.18112783598E+02  0.16356240599E+02  0.64407762620E+01  0.25240505840E+02  0.00000000000E+00 0.  1.
</event>
<event>
 5    1  0.1259474E-009  0.9118800E+02  0.7815553E-02  0.1125453E+00
         25   -1    0    0    0    0  0.00000000000E+00  0.00000000000E+00  0.99999998245E-14  0.12509000000E+03  0.12509000000E+03 0.  0.
        -13    1    3    3    0    0  0.16249324347E+01 -0.39176406826E+02 -0.63562947638E+01  0.39722095922E+02  0.10566000000E+00 0.  1.
         23    2    1    0    0    0 -0.25695383997E+02 -0.46927275783E+01  0.21040015886E+02  0.91549625533E+02  0.85184371900E+02 0.  0.
         13    1    3    3    0    0 -0.27320316432E+02  0.34483679248E+02  0.27396310649E+02  0.51827529612E+02  0.10566000000E+00 0. -1.
         22    1    1    0    0    0  0.25695383997E+02  0.46927275783E+01 -0.21040015886E+02  0.33540374467E+02  0.00000000000E+00 0. -1.
</event>
<event>
 5    1  0.1259474E-009  0.9118800E+02  0.7815553E-02  0.1125453E+00
         25   -1    0    0    0    0  0.00000000000E+00  0.00000000000E+00  0.99999998245E-14  0.12509000000E+03  0.12509000000E+03 0.  0.
        -13    1    3    3    0    0 -0.43182449249E+02  0.19804123710E+02  0.27280841346E+02  0.54783051281E+02  0.10566000000E+00 0.  1.
         23    2    1    0    0    0 -0.13584971399E+02 -0.82257044202E+01  0.24823646842E+02  0.95620912744E+02  0.90966652408E+02 0.  0.
         13    1    3    3    0    0  0.29597477849E+02 -0.28029828131E+02 -0.24571945035E+01  0.40837861464E+02  0.10566000000E+00 0. -1.
         22    1    1    0    0    0  0.13584971399E+02  0.82257044202E+01 -0.24823646842E+02  0.29469087256E+02  0.00000000000E+00 0.  1.
</event>
<event>
 5    1  0.1259474E-009  0.9118800E+02  0.7815553E-02  0.1125453E+00
         25   -1    0    0    0    0  0.00000000000E+00  0.00000000000E+00  0.99999998245E-14  0.12509000000E+03  0.12509000000E+03 0.  0.
        -13    1    3    3    0    0  0.34544655150E+02 -0.25434259194E+01 -0.59665659557E+01  0.35148446455E+02  0.10566000000E+00 0. -1.
         23    2    1    0    0    0 -0.22123855780E+02 -0.17110009029E+02  0.92964966455E+01  0.95617262539E+02  0.90961632802E+02 0.  0.
         13    1    3    3    0    0 -0.56668510931E+02 -0.14566583110E+02  0.15263062601E+02  0.60468816084E+02  0.10566000000E+00 0.  1.
         22    1    1    0    0    0  0.22123855780E+02  0.17110009029E+02 -0.92964966455E+01  0.29472737461E+02  0.00000000000E+00 0.  1.
</event>
<event>
 5    1  0.1259474E-009  0.9118800E+02  0.7815553E-02  0.1125453E+00
         25   -1    0    0    0    0  0.00000000000E+00  0.00000000000E+00  0.99999998245E-14  0.12509000000E+03  0.12509000000E+03 0.  0.
        -13    1    3    3    0    0 -0.56932291238E+02  0.30740705204E+00 -0.63535175796E+01  0.57286635740E+02  0.10566000000E+00 0.  1.
         23    2    1    0    0    0 -0.21259246963E+02  0.14766523786E+02 -0.12632413848E+02  0.96287505563E+02  0.91878724642E+02 0.  0.
         13    1    3    3    0    0  0.35673044275E+02  0.14459116734E+02 -0.62788962682E+01  0.39000869823E+02  0.10566000000E+00 0. -1.
         22    1    1    0    0    0  0.21259246963E+02 -0.14766523786E+02  0.12632413848E+02  0.28802494437E+02  0.00000000000E+00 0.  1.
</event>
<event>
 5    1  0.1259474E-009  0.9118800E+02  0.7815553E-02  0.1125453E+00
         25   -1    0    0    0    0  0.00000000000E+00  0.00000000000E+00  0.99999998245E-14  0.12509000000E+03  0.12509000000E+03 0.  0.
        -13    1    3    3    0    0  0.32618100401E+02 -0.17820683622E+02  0.10672057678E+02  0.38670676457E+02  0.10566000000E+00 0.  1.
         23    2    1    0    0    0  0.53221062963E+01  0.94887294727E+01 -0.29051723641E+02  0.94068016683E+02  0.88805564655E+02 0.  0.
         13    1    3    3    0    0 -0.27295994105E+02  0.27309413095E+02 -0.39723781319E+02  0.55397340225E+02  0.10566000000E+00 0. -1.
         22    1    1    0    0    0 -0.53221062963E+01 -0.94887294727E+01  0.29051723641E+02  0.31021983317E+02  0.00000000000E+00 0.  1.
</event>
<event>
 5    1  0.1259474E-009  0.9118800E+02  0.7815553E-02  0.1125453E+00
         25   -1    0    0    0    0  0.00000000000E+00  0.00000000000E+00  0.99999998245E-14  0.12509000000E+03  0.12509000000E+03 0.  0.
        -13    1    3    3    0    0  0.23584657616E+01  0.38537968420E+02  0.43688235551E+02  0.58304463468E+02  0.10566000000E+00 0. -1.
         23    2    1    0    0    0 -0.15121485374E+02  0.17075674439E+02  0.18693894242E+02  0.95599329282E+02  0.90936967729E+02 0.  0.
         13    1    3    3    0    0 -0.17479951136E+02 -0.21462293980E+02 -0.24994341309E+02  0.37294865814E+02  0.10566000000E+00 0.  1.
         22    1    1    0    0    0  0.15121485374E+02 -0.17075674439E+02 -0.18693894242E+02  0.29490670718E+02  0.00000000000E+00 0. -1.
</event>
<event>
 5    1  0.1259474E-009  0.9118800E+02  0.7815553E-02  0.1125453E+00
         25   -1    0    0    0    0  0.00000000000E+00  0.00000000000E+00  0.99999998245E-14  0.12509000000E+03  0.12509000000E+03 0.  0.
        -13    1    3    3    0    0 -0.19509554917E+02  0.25979622758E+02  0.32910807714E+02  0.46246037238E+02  0.10566000000E+00 0.  1.
         23    2    1    0    0    0  0.90308306790E+01  0.23242870534E+02 -0.10305757827E+02  0.98108606822E+02  0.94325516987E+02 0.  0.
         13    1    3    3    0    0  0.28540385596E+02 -0.27367522237E+01 -0.43216565541E+02  0.51862569585E+02  0.10566000000E+00 0. -1.
         22    1    1    0    0    0 -0.90308306790E+01 -0.23242870534E+02  0.10305757827E+02  0.26981393178E+02  0.00000000000E+00 0. -1.
</event>
<event>
 5    1  0.1259474E-009  0.9118800E+02  0.7815553E-02  0.1125453E+00
         25   -1    0    0    0    0  0.00000000000E+00  0.00000000000E+00  0.99999998245E-14  0.12509000000E+03  0.12509000000E+03 0.  0.
        -13    1    3    3    0    0  0.25376966557E+02  0.31173322446E+01  0.26496892471E+02  0.36821252920E+02  0.10566000000E+00 0. -1.
         23    2    1    0    0    0 -0.28319812677E+02  0.66620329006E+01  0.20578223912E+01  0.95924453453E+02  0.91383103826E+02 0.  0.
         13    1    3    3    0    0 -0.53696779233E+02  0.35447006560E+01 -0.24439070080E+02  0.59103200533E+02  0.10566000000E+00 0.  1.
         22    1    1    0    0    0  0.28319812677E+02 -0.66620329006E+01 -0.20578223912E+01  0.29165546547E+02  0.00000000000E+00 0.  1.
</event>
<event>
 5    1  0.1259474E-009  0.9118800E+02  0.7815553E-02  0.1125453E+00
         25   -1    0    0    0    0  0.00000000000E+00  0.00000000000E+00  0.99999998245E-14  0.12509000000E+03  0.12509000000E+03 0.  0.
        -13    1    3    3    0    0  0.28262891017E+02  0.24438802249E+02  0.10177132343E+02  0.38725072638E+02  0.10566000000E+00 0. -1.
         23    2    1    0    0    0  0.11078008426E+02 -0.27769689798E+02 -0.23542697661E+01  0.95099659416E+02  0.90247020409E+02 0.  0.
         13    1    3    3    0    0 -0.17184882591E+02 -0.52208492048E+02 -0.12531402110E+02  0.56374586778E+02  0.10566000000E+00 0.  1.
         22    1    1    0    0    0 -0.11078008426E+02  0.27769689798E+02  0.23542697661E+01  0.29990340584E+02  0.00000000000E+00 0.  1.
</event>
<event>
 5    1  0.1259474E-009  0.9118800E+02  0.7815553E-02  0.1125453E+00
         25   -1    0    0    0    0  0.00000000000E+00  0.00000000000E+00  0.99999998245E-14  0.12509000000E+03  0.12509000000E+03 0.  0.
        -13    1    3    3    0    0 -0.20093335599E+02  0.24557125221E+02  0.36028039683E+02  0.48008596543E+02  0.10566000000E+00 0. -1.
         23    2    1    0    0    0 -0.18190285380E+01  0.28142412638E+02 -0.79688840173E+01  0.95784584692E+02  0.91191443119E+02 0.  0.
         13    1    3    3    0    0  0.18274307061E+02  0.35852874170E+01 -0.43996923701E+02  0.47775988148E+02  0.10566000000E+00 0.  1.
         22    1    1    0    0    0  0.18190285380E+01 -0.28142412638E+02  0.79688840173E+01  0.29305415308E+02  0.00000000000E+00 0. -1.
</event>
<event>
 5    1  0.1259474E-009  0.9118800E+02  0.7815553E-02  0.1125453E+00
         25   -1    0    0    0    0  0.00000000000E+00  0.00000000000E+00  0.99999998245E-14  0.12509000000E+03  0.12509000000E+03 0.  0.
        -13    1    3    3    0    0  0.37176762804E+02 -0.30051158323E+02 -0.11877908085E+02  0.49257280413E+02  0.10566000000E+00 0. -1.
         23    2    1    0    0    0  0.27747935143E+02  0.12059597280E+02  0.24712721702E+01  0.94733963081E+02  0.89738702819E+02 0.  0.
         13    1    3    3    0    0 -0.94288276604E+01  0.42110755603E+02  0.14349180255E+02  0.45476682669E+02  0.10566000000E+00 0.  1.
         22    1    1    0    0    0 -0.27747935143E+02 -0.12059597280E+02 -0.24712721702E+01  0.30356036919E+02  0.00000000000E+00 0.  1.
</event>
<event>
 5    1  0.1259474E-009  0.9118800E+02  0.7815553E-02  0.1125453E+00
         25   -1    0    0    0    0  0.00000000000E+00  0.00000000000E+00  0.99999998245E-14  0.12509000000E+03  0.12509000000E+03 0.  0.
        -13    1    3    3    0    0 -0.40616236717E+02 -0.36642139636E+02 -0.75652432246E+01  0.55222904227E+02  0.10566000000E+00 0. -1.
         23    2    1    0    0    0 -0.16945628999E+02 -0.69871479620E+01 -0.22560265932E+02  0.96022145285E+02  0.91516731844E+02 0.  0.
         13    1    3    3    0    0  0.23670607717E+02  0.29654991674E+02 -0.14995022707E+02  0.40799241058E+02  0.10566000000E+00 0.  1.
         22    1    1    0    0    0  0.16945628999E+02  0.69871479620E+01  0.22560265932E+02  0.29067854715E+02  0.00000000000E+00 0. -1.
</event>
<event>
 5    1  0.1259474E-009  0.9118800E+02  0.7815553E-02  0.1125453E+00
         25   -1    0    0    0    0  0.00000000000E+00  0.00000000000E+00  0.99999998245E-14  0.12509000000E+03  0.12509000000E+03 0.  0.
        -13    1    3    3    0    0 -0.25531865852E+02  0.31297861520E+02  0.13696171235E+02  0.42650071280E+02  0.10566000000E+00 0.  1.
         23    2    1    0    0    0  0.20586795409E+01 -0.72604692088E+01  0.31047622424E+02  0.93138357902E+02  0.87486263379E+02 0.  0.
         13    1    3    3    0    0  0.27590545393E+02 -0.38558330729E+02  0.17351451189E+02  0.50488286623E+02  0.10566000000E+00 0. -1.
         22    1    1    0    0    0 -0.20586795409E+01  0.72604692088E+01 -0.31047622424E+02  0.31951642098E+02  0.00000000000E+00 0.  1.
</event>
<event>
 5    1  0.1259474E-009  0.9118800E+02  0.7815553E-02  0.1125453E+00
         25   -1    0    0    0    0  0.00000000000E+00  0.00000000000E+00  0.99999998245E-14  0.12509000000E+03  0.12509000000E+03 0.  0.
        -13    1    3    3    0    0 -0.33243895834E+02 -0.11482517388E+02 -0.73389545560E+00  0.35178893990E+02  0.10566000000E+00 0. -1.
         23    2    1    0    0    0  0.26848216919E+02 -0.11700429900E+02  0.43308144673E+01  0.95484548381E+02  0.90778941468E+02 0.  0.
         13    1    3    3    0    0  0.60092112753E+02 -0.21791251230E+00  0.50647099229E+01  0.60305654392E+02  0.10566000000E+00 0.  1.
         22    1    1    0    0    0 -0.26848216919E+02  0.11700429900E+02 -0.43308144673E+01  0.29605451619E+02  0.00000000000E+00 0.  1.
</event>
<event>
 5    1  0.1259474E-009  0.9118800E+02  0.7815553E-02  0.1125453E+00
         25   -1    0    0    0    0  0.00000000000E+00  0.00000000000E+00  0.99999998245E-14  0.12509000000E+03  0.12509000000E+03 0.  0.
        -13    1    3    3    0    0  0.26738778468E+02  0.31839559014E+02 -0.37106425682E+02  0.55728069974E+02  0.10566000000E+00 0.  1.
         23    2    1    0    0    0  0.25978975995E+02  0.13828768964E+02 -0.15194946965E+01  0.95620508845E+02  0.90966096996E+02 0.  0.
         13    1    3    3    0    0 -0.75980247254E+00 -0.18010790050E+02  0.35586930986E+02  0.39892438870E+02  0.10566000000E+00 0. -1.
         22    1    1    0    0    0 -0.25978975995E+02 -0.13828768964E+02  0.15194946965E+01  0.29469491155E+02  0.00000000000E+00 0.  1.
</event>
<event>
 5    1  0.1259474E-009  0.9118800E+02  0.7815553E-02  0.1125453E+00
         25   -1    0    0    0    0  0.00000000000E+00  0.00000000000E+00  0.99999998245E-14  0.12509000000E+03  0.12509000000E+03 0.  0.
        -13    1    3    3    0    0  0.86290628908E+00 -0.41350907519E+02 -0.33282742897E+02  0.53088551484E+02  0.10566000000E+00 0.  1.
         23    2    1    0    0    0  0.60876600949E+01  0.79201502961E+00 -0.28630980364E+02  0.95808266277E+02  0.91223922066E+02 0.  0.
         13    1    3    3    0    0  0.52247538058E+01  0.42142922548E+02  0.46517625326E+01  0.42719714793E+02  0.10566000000E+00 0. -1.
         22    1    1    0    0    0 -0.60876600949E+01 -0.79201502961E+00  0.28630980364E+02  0.29281733723E+02  0.00000000000E+00 0. -1.
</event>
<event>
 5    1  0.1259474E-009  0.9118800E+02  0.7815553E-02  0.1125453E+00
         25   -1    0    0    0    0  0.00000000000E+00  0.00000000000E+00  0.99999998245E-14  0.12509000000E+03  0.12509000000E+03 0.  0.
        -13    1    3    3    0    0  0.28565970491E+02  0.15575630367E+02  0.12572185904E+02  0.34881025699E+02  0.10566000000E+00 0. -1.
         23    2    1    0    0    0 -0.13486633701E+02  0.42591772937E+01 -0.27567123204E+02  0.94106517924E+02  0.88859780296E+02 0.  0.
         13    1    3    3    0    0 -0.42052604192E+02 -0.11316453073E+02 -0.40139309109E+02  0.59225492224E+02  0.10566000000E+00 0.  1.
         22    1    1    0    0    0  0.13486633701E+02 -0.42591772937E+01  0.27567123204E+02  0.30983482076E+02  0.00000000000E+00 0.  1.
</event>
<event>
 5    1  0.1259474E-009  0.9118800E+02  0.7815553E-02  0.1125453E+00
         25   -1    0    0    0    0  0.00000000000E+00  0.00000000000E+00  0.99999998245E-14  0.12509000000E+03  0.12509000000E+03 0.  0.
        -13    1    3    3    0    0 -0.65495560069E+01  0.14684523828E+02  0.28349962891E+02  0.32592383833E+02  0.10566000000E+00 0. -1.
         23    2    1    0    0    0  0.20790951859E+02 -0.28622291052E+02  0.34327224083E+01  0.89547310071E+02  0.82191471173E+02 0.  0.
         13    1    3    3    0    0  0.27340507866E+02 -0.43306814880E+02 -0.24917240483E+02  0.56954926238E+02  0.10566000000E+00 0.  1.
         22    1    1    0    0    0 -0.20790951859E+02  0.28622291052E+02 -0.34327224083E+01  0.35542689929E+02  0.00000000000E+00 0.  1.
</event>
<event>
 5    1  0.1259474E-009  0.9118800E+02  0.7815553E-02  0.1125453E+00
         25   -1    0    0    0    0  0.00000000000E+00  0.00000000000E+00  0.99999998245E-14  0.12509000000E+03  0.12509000000E+03 0.  0.
        -13    1    3    3    0    0  0.12845682643E+02  0.13417022801E+02 -0.33891191060E+02  0.38647795007E+02  0.10566000000E+00 0.  1.
         23    2    1    0    0    0 -0.25263486105E+02  0.28561058677E+02 -0.20565147860E+02  0.81766760169E+02  0.69346232480E+02 0.  0.
         13    1    3    3    0    0 -0.38109168748E+02  0.15144035876E+02  0.13326043200E+02  0.43118965162E+02  0.10566000000E+00 0. -1.
         22    1    1    0    0    0  0.25263486105E+02 -0.28561058677E+02  0.20565147860E+02  0.43323239831E+02  0.00000000000E+00 0.  1.
</event>
<event>
 5    1  0.1259474E-009  0.9118800E+02  0.7815553E-02  0.1125453E+00
         25   -1    0    0    0    0  0.00000000000E+00  0.00000000000E+00  0.99999998245E-14  0.12509000000E+03  0.12509000000E+03 0.  0.
        -13    1    3    3    0    0 -0.25455902894E+02 -0.22357983971E+02 -0.46501280207E+02  0.57534882153E+02  0.10566000000E+00 0.  1.
         23    2    1    0    0    0 -0.17819853876E+02  0.63635037282E+01 -0.22162267743E+02  0.95948835243E+02  0.91416472811E+02 0.  0.
         13    1    3    3    0    0  0.76360490175E+01  0.28721487699E+02  0.24339012464E+02  0.38413953090E+02  0.10566000000E+00 0. -1.
         22    1    1    0    0    0  0.17819853876E+02 -0.63635037282E+01  0.22162267743E+02  0.29141164757E+02  0.00000000000E+00 0.  1.
</event>
<event>
 5    1  0.1259474E-009  0.9118800E+02  0.7815553E-02  0.1125453E+00
         25   -1    0    0    0    0  0.00000000000E+00  0.00000000000E+00  0.99999998245E-14  0.12509000000E+03  0.12509000000E+03 0.  0.
        -13    1    3    3    0    0  0.13410917857E+02  0.11707178992E+02 -0.31011616943E+02  0.35758108272E+02  0.10566000000E+00 0. -1.
         23    2    1    0    0    0 -0.24318590530E+02 -0.14031995896E+02  0.80775651619E+01  0.95874630533E+02  0.91314878123E+02 0.  0.
         13    1    3    3    0    0 -0.37729508387E+02 -0.25739174888E+02  0.39089182105E+02  0.60116522261E+02  0.10566000000E+00 0.  1.
         22    1    1    0    0    0  0.24318590530E+02  0.14031995896E+02 -0.80775651619E+01  0.29215369467E+02  0.00000000000E+00 0.  1.
</event>
<event>
 5    1  0.1259474E-009  0.9118800E+02  0.7815553E-02  0.1125453E+00
         25   -1    0    0    0    0  0.00000000000E+00  0.00000000000E+00  0.99999998245E-14  0.12509000000E+03  0.12509000000E+03 0.  0.
        -13    1    3    3    0    0 -0.23604685181E+02 -0.21365836232E+02  0.48996054427E+02  0.58432051426E+02  0.10566000000E+00 0.  1.
         23    2    1    0    0    0 -0.23991497843E+02 -0.11730529603E+02  0.13595243934E+02  0.95122885506E+02  0.90279207993E+02 0.  0.
         13    1    3    3    0    0 -0.38681266130E+00  0.96353066294E+01 -0.35400810493E+02  0.36690834080E+02  0.10566000000E+00 0. -1.
         22    1    1    0    0    0  0.23991497843E+02  0.11730529603E+02 -0.13595243934E+02  0.29967114494E+02  0.00000000000E+00 0.  1.
</event>
<event>
 5    1  0.1259474E-009  0.9118800E+02  0.7815553E-02  0.1125453E+00
         25   -1    0    0    0    0  0.00000000000E+00  0.00000000000E+00  0.99999998245E-14  0.12509000000E+03  0.12509000000E+03 0.  0.
        -13    1    3    3    0    0 -0.14103544021E+01 -0.56539947570E+02 -0.76360873994E+01  0.57070796083E+02  0.10566000000E+00 0. -1.
         23    2    1    0    0    0  0.11564863549E+02 -0.25697940521E+02  0.10362493944E+02  0.95064818956E+02  0.90198715659E+02 0.  0.
         13    1    3    3    0    0  0.12975217951E+02  0.30842007049E+02  0.17998581344E+02  0.37994022873E+02  0.10566000000E+00 0.  1.
         22    1    1    0    0    0 -0.11564863549E+02  0.25697940521E+02 -0.10362493944E+02  0.30025181044E+02  0.00000000000E+00 0. -1.
</event>
<event>
 5    1  0.1259474E-009  0.9118800E+02  0.7815553E-02  0.1125453E+00
         25   -1    0    0    0    0  0.00000000000E+00  0.00000000000E+00  0.99999998245E-14  0.12509000000E+03  0.12509000000E+03 0.  0.
        -13    1    3    3    0    0 -0.33190104078E+01 -0.34577846553E+02 -0.24605678332E+02  0.42568695922E+02  0.10566000000E+00 0.  1.
         23    2    1    0    0    0 -0.28315843656E+02  0.72569316258E+01 -0.35955431019E+01  0.95638718384E+02  0.90991133994E+02 0.  0.
         13    1    3    3    0    0 -0.24996833249E+02  0.41834778178E+02  0.21010135230E+02  0.53070022462E+02  0.10566000000E+00 0. -1.
         22    1    1    0    0    0  0.28315843656E+02 -0.72569316258E+01  0.35955431019E+01  0.29451281616E+02  0.00000000000E+00 0. -1.
</event>
<event>
 5    1  0.1259474E-009  0.9118800E+02  0.7815553E-02  0.1125453E+00
         25   -1    0    0    0    0  0.00000000000E+00  0.00000000000E+00  0.99999998245E-14  0.12509000000E+03  0.12509000000E+03 0.  0.
        -13    1    3    3    0    0 -0.32623475168E+02 -0.20255536083E+02  0.34781083283E+02  0.51810354104E+02  0.10566000000E+00 0.  1.
         23    2    1    0    0    0 -0.18943389273E+02 -0.30706717789E+02  0.18586658649E+01  0.88962321506E+02  0.81296282168E+02 0.  0.
         13    1    3    3    0    0  0.13680085894E+02 -0.10451181706E+02 -0.32922417418E+02  0.37151967402E+02  0.10566000000E+00 0. -1.
         22    1    1    0    0    0  0.18943389273E+02  0.30706717789E+02 -0.18586658649E+01  0.36127678494E+02  0.00000000000E+00 0.  1.
</event>
<event>
 5    1  0.1259474E-009  0.9118800E+02  0.7815553E-02  0.1125453E+00
         25   -1    0    0    0    0  0.00000000000E+00  0.00000000000E+00  0.99999998245E-14  0.12509000000E+03  0.12509000000E+03 0.  0.
        -13    1    3    3    0    0 -0.32371327616E+01  0.55091153377E+02 -0.27156657108E+02  0.61506173659E+02  0.10566000000E+00 0.  1.
         23    2    1    0    0    0 -0.72984115733E+01  0.28059426221E+02 -0.75986118171E+01  0.95117727599E+02  0.90272060964E+02 0.  0.
         13    1    3    3    0    0 -0.40612788116E+01 -0.27031727156E+02  0.19558045291E+02  0.33611553940E+02  0.10566000000E+00 0. -1.
         22    1    1    0    0    0  0.72984115733E+01 -0.28059426221E+02  0.75986118171E+01  0.29972272401E+02  0.00000000000E+00 0.  1.
</event>
<event>
 5    1  0.1259474E-009  0.9118800E+02  0.7815553E-02  0.1125453E+00
         25   -1    0    0    0    0  0.00000000000E+00  0.00000000000E+00  0.99999998245E-14  0.12509000000E+03  0.12509000000E+03 0.  0.
        -13    1    3    3    0    0  0.24105560251E+02 -0.80487075220E+01 -0.23693810950E+02  0.34745756132E+02  0.10566000000E+00 0.  1.
         23    2    1    0    0    0 -0.66521668525E+01  0.16652961650E+02  0.23033795025E+02  0.95898765548E+02  0.91347934103E+02 0.  0.
         13    1    3    3    0    0 -0.30757727104E+02  0.24701669172E+02  0.46727605975E+02  0.61153009416E+02  0.10566000000E+00 0. -1.
         22    1    1    0    0    0  0.66521668525E+01 -0.16652961650E+02 -0.23033795025E+02  0.29191234452E+02  0.00000000000E+00 0. -1.
</event>
<event>
 5    1  0.1259474E-009  0.9118800E+02  0.7815553E-02  0.1125453E+00
         25   -1    0    0    0    0  0.00000000000E+00  0.00000000000E+00  0.99999998245E-14  0.12509000000E+03  0.12509000000E+03 0.  0.
        -13    1    3    3    0    0  0.52735435489E+01  0.55324233437E+02 -0.18860593570E+02  0.58688280098E+02  0.10566000000E+00 0.  1.
         23    2    1    0    0    0 -0.12930180439E+02  0.24399230018E+02 -0.58178282826E+01  0.96870164466E+02  0.92668601187E+02 0.  0.
         13    1    3    3    0    0 -0.18203723988E+02 -0.30925003419E+02  0.13042765288E+02  0.38181884368E+02  0.10566000000E+00 0. -1.
         22    1    1    0    0    0  0.12930180439E+02 -0.24399230018E+02  0.58178282826E+01  0.28219835534E+02  0.00000000000E+00 0.  1.
</event>
<event>
 5    1  0.1259474E-009  0.9118800E+02  0.7815553E-02  0.1125453E+00
         25   -1    0    0    0    0  0.00000000000E+00  0.00000000000E+00  0.99999998245E-14  0.12509000000E+03  0.12509000000E+03 0.  0.
        -13    1    3    3    0    0  0.32348863448E+02  0.48379417043E+02  0.20165020727E+02  0.61592663400E+02  0.10566000000E+00 0. -1.
         23    2    1    0    0    0  0.17131998614E+02  0.18150997383E+02  0.15381971886E+02  0.95771590398E+02  0.91173616719E+02 0.  0.
         13    1    3    3    0    0 -0.15216864833E+02 -0.30228419659E+02 -0.47830488415E+01  0.34178926998E+02  0.10566000000E+00 0.  1.
         22    1    1    0    0    0 -0.17131998614E+02 -0.18150997383E+02 -0.15381971886E+02  0.29318409602E+02  0.00000000000E+00 0. -1.
</event>
<event>
 5    1  0.1259474E-009  0.9118800E+02  0.7815553E-02  0.1125453E+00
         25   -1    0    0    0    0  0.00000000000E+00  0.00000000000E+00  0.99999998245E-14  0.12509000000E+03  0.12509000000E+03 0.  0.
        -13    1    3    3    0    0  0.10960865698E+01  0.34812434027E+02 -0.48991620160E+02  0.60110706023E+02  0.10566000000E+00 0.  1.
         23    2    1    0    0    0 -0.11386776539E+02  0.11469855385E+02 -0.17012180737E+02  0.10162448155E+03  0.98878231655E+02 0.  0.
         13    1    3    3    0    0 -0.12482863109E+02 -0.23342578642E+02  0.31979439423E+02  0.41513775532E+02  0.10566000000E+00 0. -1.
         22    1    1    0    0    0  0.11386776539E+02 -0.11469855385E+02  0.17012180737E+02  0.23465518446E+02  0.00000000000E+00 0.  1.
</event>
<event>
 5    1  0.1259474E-009  0.9118800E+02  0.7815553E-02  0.1125453E+00
         25   -1    0    0    0    0  0.00000000000E+00  0.00000000000E+00  0.99999998245E-14  0.12509000000E+03  0.12509000000E+03 0.  0.
        -13    1    3    3    0    0  0.38880360303E+02  0.42457512922E+02 -0.44342185353E+01  0.57740767910E+02  0.10566000000E+00 0. -1.
         23    2    1    0    0    0  0.21968740918E+02  0.15098222299E+02  0.14173150538E+02  0.94899602681E+02  0.89969297534E+02 0.  0.
         13    1    3    3    0    0 -0.16911619385E+02 -0.27359290624E+02  0.18607369073E+02  0.37158834770E+02  0.10566000000E+00 0.  1.
         22    1    1    0    0    0 -0.21968740918E+02 -0.15098222299E+02 -0.14173150538E+02  0.30190397319E+02  0.00000000000E+00 0. -1.
</event>
<event>
 5    1  0.1259474E-009  0.9118800E+02  0.7815553E-02  0.1125453E+00
         25   -1    0    0    0    0  0.00000000000E+00  0.00000000000E+00  0.99999998245E-14  0.12509000000E+03  0.12509000000E+03 0.  0.
        -13    1    3    3    0    0  0.15360316157E+02  0.51906179886E+02 -0.10442409684E+02  0.55129356126E+02  0.10566000000E+00 0.  1.
         23    2    1    0    0    0 -0.13283115045E+01  0.16672267668E+02 -0.23501331991E+02  0.96244869977E+02  0.91820659282E+02 0.  0.
         13    1    3    3    0    0 -0.16688627662E+02 -0.35233912218E+02 -0.13058922308E+02  0.41115513852E+02  0.10566000000E+00 0. -1.
         22    1    1    0    0    0  0.13283115045E+01 -0.16672267668E+02  0.23501331991E+02  0.28845130023E+02  0.00000000000E+00 0.  1.
</event>
<event>
 5    1  0.1259474E-009  0.9118800E+02  0.7815553E-02  0.1125453E+00
         25   -1    0    0    0    0  0.00000000000E+00  0.00000000000E+00  0.99999998245E-14  0.12509000000E+03  0.12509000000E+03 0.  0.
        -13    1    3    3    0    0  0.13231858202E+02 -0.35462271001E+02  0.23756913291E+02  0.44688441785E+02  0.10566000000E+00 0. -1.
         23    2    1    0    0    0 -0.25965952514E+02 -0.13976653342E+02 -0.60270408943E+00  0.95595241469E+02  0.90931344489E+02 0.  0.
         13    1    3    3    0    0 -0.39197810716E+02  0.21485617659E+02 -0.24359617380E+02  0.50906799684E+02  0.10566000000E+00 0.  1.
         22    1    1    0    0    0  0.25965952514E+02  0.13976653342E+02  0.60270408943E+00  0.29494758531E+02  0.00000000000E+00 0.  1.
</event>
<event>
 5    1  0.1259474E-009  0.9118800E+02  0.7815553E-02  0.1125453E+00
         25   -1    0    0    0    0  0.00000000000E+00  0.00000000000E+00  0.99999998245E-14  0.12509000000E+03  0.12509000000E+03 0.  0.
        -13    1    3    3    0    0  0.43065898406E+02  0.33038642126E+02 -0.20117143293E+02  0.57887253324E+02  0.10566000000E+00 0. -1.
         23    2    1    0    0    0  0.28413470640E+02  0.16382110476E+02  0.55640956419E+01  0.91823530128E+02  0.85585645218E+02 0.  0.
         13    1    3    3    0    0 -0.14652427767E+02 -0.16656531650E+02  0.25681238935E+02  0.33936276804E+02  0.10566000000E+00 0.  1.
         22    1    1    0    0    0 -0.28413470640E+02 -0.16382110476E+02 -0.55640956419E+01  0.33266469872E+02  0.00000000000E+00 0. -1.
</event>
<event>
 5    1  0.1259474E-009  0.9118800E+02  0.7815553E-02  0.1125453E+00
         25   -1    0    0    0    0  0.00000000000E+00  0.00000000000E+00  0.99999998245E-14  0.12509000000E+03  0.12509000000E+03 0.  0.
        -13    1    3    3    0    0  0.62486401044E+01  0.39394847968E+02  0.45005829882E+02  0.60137637441E+02  0.10566000000E+00 0. -1.
         23    2    1    0    0    0 -0.87201886702E+01  0.17058279635E+02  0.24694127058E+02  0.93835776194E+02  0.88477829925E+02 0.  0.
         13    1    3    3    0    0 -0.14968828775E+02 -0.22336568334E+02 -0.20311702824E+02  0.33698138753E+02  0.10566000000E+00 0.  1.
         22    1    1    0    0    0  0.87201886702E+01 -0.17058279635E+02 -0.24694127058E+02  0.31254223806E+02  0.00000000000E+00 0. -1.
</event>
<event>
 5    1  0.1259474E-009  0.9118800E+02  0.7815553E-02  0.1125453E+00
         25   -1    0    0    0    0  0.00000000000E+00  0.00000000000E+00  0.99999998245E-14  0.12509000000E+03  0.12509000000E+03 0.  0.
        -13    1    3    3    0    0  0.46044135903E+02  0.20404779942E+02 -0.31878369554E+02  0.59604186975E+02  0.10566000000E+00 0.  1.
         23    2    1    0    0    0  0.13269947691E+02  0.76562407775E+01 -0.25495971778E+02  0.95345183452E+02  0.90586698229E+02 0.  0.
         13    1    3    3    0    0 -0.32774188212E+02 -0.12748539165E+02  0.63823977761E+01  0.35740996477E+02  0.10566000000E+00 0. -1.
         22    1    1    0    0    0 -0.13269947691E+02 -0.76562407775E+01  0.25495971778E+02  0.29744816548E+02  0.00000000000E+00 0.  1.
</event>
<event>
 5    1  0.1259474E-009  0.9118800E+02  0.7815553E-02  0.1125453E+00
         25   -1    0    0    0    0  0.00000000000E+00  0.00000000000E+00  0.99999998245E-14  0.12509000000E+03  0.12509000000E+03 0.  0.
        -13    1    3    3    0    0  0.35917337427E+02 -0.43287099861E+02 -0.13100435531E+02  0.57753447666E+02  0.10566000000E+00 0.  1.
         23    2    1    0    0    0  0.26894718262E+02 -0.60558919971E+01 -0.78891237695E+01  0.96415307811E+02  0.92052558944E+02 0.  0.
         13    1    3    3    0    0 -0.90226191646E+01  0.37231207864E+02  0.52113117618E+01  0.38661860145E+02  0.10566000000E+00 0. -1.
         22    1    1    0    0    0 -0.26894718262E+02  0.60558919971E+01  0.78891237695E+01  0.28674692189E+02  0.00000000000E+00 0.  1.
</event>
<event>
 5    1  0.1259474E-009  0.9118800E+02  0.7815553E-02  0.1125453E+00
         25   -1    0    0    0    0  0.00000000000E+00  0.00000000000E+00  0.99999998245E-14  0.12509000000E+03  0.12509000000E+03 0.  0.
        -13    1    3    3    0    0 -0.16859441160E+02 -0.45107728867E+01  0.32190966768E+02  0.36617718850E+02  0.10566000000E+00 0.  1.
         23    2    1    0    0    0 -0.25819193149E+02  0.46726667553E+01 -0.21092752328E+02  0.91424457524E+02  0.85000368724E+02 0.  0.
         13    1    3    3    0    0 -0.89597519892E+01  0.91834396419E+01 -0.53283719096E+02  0.54806738674E+02  0.10566000000E+00 0. -1.
         22    1    1    0    0    0  0.25819193149E+02 -0.46726667553E+01  0.21092752328E+02  0.33665542476E+02  0.00000000000E+00 0. -1.
</event>
<event>
 5    1  0.1259474E-009  0.9118800E+02  0.7815553E-02  0.1125453E+00
         25   -1    0    0    0    0  0.00000000000E+00  0.00000000000E+00  0.99999998245E-14  0.12509000000E+03  0.12509000000E+03 0.  0.
        -13    1    3    3    0    0 -0.20327489026E+01 -0.33779468503E+02 -0.10783633437E+02  0.35517354555E+02  0.10566000000E+00 0.  1.
         23    2    1    0    0    0  0.91069755290E+01  0.26291486312E+02 -0.36440189293E+01  0.97028315629E+02  0.92881838397E+02 0.  0.
         13    1    3    3    0    0  0.11139724432E+02  0.60070954815E+02  0.71396145077E+01  0.61510961074E+02  0.10566000000E+00 0. -1.
         22    1    1    0    0    0 -0.91069755290E+01 -0.26291486312E+02  0.36440189293E+01  0.28061684371E+02  0.00000000000E+00 0. -1.
</event>
<event>
 5    1  0.1259474E-009  0.9118800E+02  0.7815553E-02  0.1125453E+00
         25   -1    0    0    0    0  0.00000000000E+00  0.00000000000E+00  0.99999998245E-14  0.12509000000E+03  0.12509000000E+03 0.  0.
        -13    1    3    3    0    0  0.21428481249E+02  0.15886458831E+02 -0.22286224679E+02  0.34759838281E+02  0.10566000000E+00 0.  1.
         23    2    1    0    0    0 -0.18241681994E+02 -0.18765477050E+02  0.10597442701E+02  0.96855130022E+02  0.92648304512E+02 0.  0.
         13    1    3    3    0    0 -0.39670163243E+02 -0.34651935881E+02  0.32883667380E+02  0.62095291741E+02  0.10566000000E+00 0. -1.
         22    1    1    0    0    0  0.18241681994E+02  0.18765477050E+02 -0.10597442701E+02  0.28234869978E+02  0.00000000000E+00 0. -1.
</event>
<event>
 5    1  0.1259474E-009  0.9118800E+02  0.7815553E-02  0.1125453E+00
         25   -1    0    0    0    0  0.00000000000E+00  0.00000000000E+00  0.99999998245E-14  0.12509000000E+03  0.12509000000E+03 0.  0.
        -13    1    3    3    0    0  0.18770684491E+02  0.23880775938E+02  0.39504027631E+02  0.49831811313E+02  0.10566000000E+00 0. -1.
         23    2    1    0    0    0  0.21220949576E+02 -0.14432174986E+02  0.15571422786E+02  0.95071912398E+02  0.90208552497E+02 0.  0.
         13    1    3    3    0    0  0.24502650850E+01 -0.38312950924E+02 -0.23932604845E+02  0.45240101085E+02  0.10566000000E+00 0.  1.
         22    1    1    0    0    0 -0.21220949576E+02  0.14432174986E+02 -0.15571422786E+02  0.30018087602E+02  0.00000000000E+00 0.  1.
</event>
<event>
 5    1  0.1259474E-009  0.9118800E+02  0.7815553E-02  0.1125453E+00
         25   -1    0    0    0    0  0.00000000000E+00  0.00000000000E+00  0.99999998245E-14  0.12509000000E+03  0.12509000000E+03 0.  0.
        -13    1    3    3    0    0 -0.20900156570E+02  0.15065133963E+02  0.19012553817E+02  0.32019730990E+02  0.10566000000E+00 0. -1.
         23    2    1    0    0    0  0.27576078225E+02 -0.79786420144E+01 -0.11961657510E+02  0.93990481209E+02  0.88696282271E+02 0.  0.
         13    1    3    3    0    0  0.48476234795E+02 -0.23043775978E+02 -0.30974211327E+02  0.61970750218E+02  0.10566000000E+00 0.  1.
         22    1    1    0    0    0 -0.27576078225E+02  0.79786420144E+01  0.11961657510E+02  0.31099518791E+02  0.00000000000E+00 0.  1.
</event>
<event>
 5    1  0.1259474E-009  0.9118800E+02  0.7815553E-02  0.1125453E+00
         25   -1    0    0    0    0  0.00000000000E+00  0.00000000000E+00  0.99999998245E-14  0.12509000000E+03  0.12509000000E+03 0.  0.
        -13    1    3    3    0    0 -0.14588499922E+02  0.41684391912E+02 -0.42344094632E+01  0.44366138513E+02  0.10566000000E+00 0. -1.
         23    2    1    0    0    0  0.50148909052E+00 -0.43126270709E+01 -0.26916438473E+02  0.97825647749E+02  0.93949520776E+02 0.  0.
         13    1    3    3    0    0  0.15089989013E+02 -0.45997018983E+02 -0.22682029010E+02  0.53459509236E+02  0.10566000000E+00 0.  1.
         22    1    1    0    0    0 -0.50148909052E+00  0.43126270709E+01  0.26916438473E+02  0.27264352251E+02  0.00000000000E+00 0.  1.
</event>
<event>
 5    1  0.1259474E-009  0.9118800E+02  0.7815553E-02  0.1125453E+00
         25   -1    0    0    0    0  0.00000000000E+00  0.00000000000E+00  0.99999998245E-14  0.12509000000E+03  0.12509000000E+03 0.  0.
        -13    1    3    3    0    0  0.28548089936E+02 -0.74039386003E+01 -0.32361871480E+02  0.43784856234E+02  0.10566000000E+00 0. -1.
         23    2    1    0    0    0 -0.12687683057E+02  0.19750443815E+02 -0.18877102131E+02  0.94966880687E+02  0.90062789821E+02 0.  0.
         13    1    3    3    0    0 -0.41235772993E+02  0.27154382416E+02  0.13484769349E+02  0.51182024453E+02  0.10566000000E+00 0.  1.
         22    1    1    0    0    0  0.12687683057E+02 -0.19750443815E+02  0.18877102131E+02  0.30123119313E+02  0.00000000000E+00 0.  1.
</event>
<event>
 5    1  0.1259474E-009  0.9118800E+02  0.7815553E-02  0.1125453E+00
         25   -1    0    0    0    0  0.00000000000E+00  0.00000000000E+00  0.99999998245E-14  0.12509000000E+03  0.12509000000E+03 0.  0.
        -13    1    3    3    0    0 -0.35814704176E+02  0.37860808974E+02 -0.15173276030E+01  0.52138731654E+02  0.10566000000E+00 0.  1.
         23    2    1    0    0    0 -0.10994826894E+02  0.12542811910E+02  0.24029730309E+02  0.95838738698E+02  0.91265697539E+02 0.  0.
         13    1    3    3    0    0  0.24819877282E+02 -0.25317997063E+02  0.25547057912E+02  0.43700007044E+02  0.10566000000E+00 0. -1.
         22    1    1    0    0    0  0.10994826894E+02 -0.12542811910E+02 -0.24029730309E+02  0.29251261302E+02  0.00000000000E+00 0.  1.
</event>
<event>
 5    1  0.1259474E-009  0.9118800E+02  0.7815553E-02  0.1125453E+00
         25   -1    0    0    0    0  0.00000000000E+00  0.00000000000E+00  0.99999998245E-14  0.12509000000E+03  0.12509000000E+03 0.  0.
        -13    1    3    3    0    0  0.27530986872E+02 -0.28886952319E+02 -0.11712814572E+02  0.41588609518E+02  0.10566000000E+00 0.  1.
         23    2    1    0    0    0  0.18524122293E+02  0.19231298883E+02  0.11800635517E+02  0.95896833641E+02  0.91345288550E+02 0.  0.
         13    1    3    3    0    0 -0.90068645785E+01  0.48118251202E+02  0.23513450089E+02  0.54308224123E+02  0.10566000000E+00 0. -1.
         22    1    1    0    0    0 -0.18524122293E+02 -0.19231298883E+02 -0.11800635517E+02  0.29193166359E+02  0.00000000000E+00 0. -1.
</event>
<event>
 5    1  0.1259474E-009  0.9118800E+02  0.7815553E-02  0.1125453E+00
         25   -1    0    0    0    0  0.00000000000E+00  0.00000000000E+00  0.99999998245E-14  0.12509000000E+03  0.12509000000E+03 0.  0.
        -13    1    3    3    0    0  0.31134150462E+02 -0.32550928706E+02 -0.52406363188E+01  0.45347257003E+02  0.10566000000E+00 0. -1.
         23    2    1    0    0    0  0.14132658443E+02  0.10125521500E+02 -0.24407297164E+02  0.95123779431E+02  0.90280446599E+02 0.  0.
         13    1    3    3    0    0 -0.17001492019E+02  0.42676450207E+02 -0.19166660845E+02  0.49776522429E+02  0.10566000000E+00 0.  1.
         22    1    1    0    0    0 -0.14132658443E+02 -0.10125521500E+02  0.24407297164E+02  0.29966220569E+02  0.00000000000E+00 0. -1.
</event>
<event>
 5    1  0.1259474E-009  0.9118800E+02  0.7815553E-02  0.1125453E+00
         25   -1    0    0    0    0  0.00000000000E+00  0.00000000000E+00  0.99999998245E-14  0.12509000000E+03  0.12509000000E+03 0.  0.
        -13    1    3    3    0    0 -0.21415268614E+02  0.15643482116E+02 -0.23483133622E+02  0.35423170260E+02  0.10566000000E+00 0.  1.
         23    2    1    0    0    0  0.13105958381E+02  0.15463286694E+01  0.25138959608E+02  0.96697667098E+02  0.92435459941E+02 0.  0.
         13    1    3    3    0    0  0.34521226996E+02 -0.14097153447E+02  0.48622093230E+02  0.61274496838E+02  0.10566000000E+00 0. -1.
         22    1    1    0    0    0 -0.13105958381E+02 -0.15463286694E+01 -0.25138959608E+02  0.28392332902E+02  0.00000000000E+00 0. -1.
</event>
<event>
 5    1  0.1259474E-009  0.9118800E+02  0.7815553E-02  0.1125453E+00
         25   -1    0    0    0    0  0.00000000000E+00  0.00000000000E+00  0.99999998245E-14  0.12509000000E+03  0.12509000000E+03 0.  0.
        -13    1    3    3    0    0  0.64602237960E+01  0.45497154508E+01 -0.43541162852E+02  0.44252439806E+02  0.10566000000E+00 0.  1.
         23    2    1    0    0    0 -0.28638269511E+02  0.11373116894E+02 -0.11703767100E+02  0.92128258044E+02  0.86029875610E+02 0.  0.
         13    1    3    3    0    0 -0.35098493307E+02  0.68234014433E+01  0.31837395753E+02  0.47875818238E+02  0.10566000000E+00 0. -1.
         22    1    1    0    0    0  0.28638269511E+02 -0.11373116894E+02  0.11703767100E+02  0.32961741956E+02  0.00000000000E+00 0. -1.
</event>
<event>
 5    1  0.1259474E-009  0.9118800E+02  0.7815553E-02  0.1125453E+00
         25   -1    0    0    0    0  0.00000000000E+00  0.00000000000E+00  0.99999998245E-14  0.12509000000E+03  0.12509000000E+03 0.  0.
        -13    1    3    3    0    0 -0.26418086781E+02  0.35747666334E+02 -0.42072496600E+02  0.61203897684E+02  0.10566000000E+00 0.  1.
         23    2    1    0    0    0 -0.17251060402E+02  0.97245783360E+01 -0.22969556750E+02  0.94762338598E+02  0.89778247758E+02 0.  0.
         13    1    3    3    0    0  0.91670263790E+01 -0.26023087998E+02  0.19102939850E+02  0.33558440914E+02  0.10566000000E+00 0. -1.
         22    1    1    0    0    0  0.17251060402E+02 -0.97245783360E+01  0.22969556750E+02  0.30327661402E+02  0.00000000000E+00 0.  1.
</event>
<event>
 5    1  0.1259474E-009  0.9118800E+02  0.7815553E-02  0.1125453E+00
         25   -1    0    0    0    0  0.00000000000E+00  0.00000000000E+00  0.99999998245E-14  0.12509000000E+03  0.12509000000E+03 0.  0.
        -13    1    3    3    0    0 -0.42507211605E+02  0.21638367006E+02 -0.10003071914E+02  0.48735557624E+02  0.10566000000E+00 0.  1.
         23    2    1    0    0    0 -0.10304741489E+02 -0.66593533735E+01 -0.27452857798E+02  0.95020179818E+02  0.90136787644E+02 0.  0.
         13    1    3    3    0    0  0.32202470116E+02 -0.28297720379E+02 -0.17449785884E+02  0.46284622194E+02  0.10566000000E+00 0. -1.
         22    1    1    0    0    0  0.10304741489E+02  0.66593533735E+01  0.27452857798E+02  0.30069820182E+02  0.00000000000E+00 0.  1.
</event>
<event>
 5    1  0.1259474E-009  0.9118800E+02  0.7815553E-02  0.1125453E+00
         25   -1    0    0    0    0  0.00000000000E+00  0.00000000000E+00  0.99999998245E-14  0.12509000000E+03  0.12509000000E+03 0.  0.
        -13    1    3    3    0    0  0.29395667758E+02  0.21602985163E+02  0.13558019918E+02  0.38918187509E+02  0.10566000000E+00 0. -1.
         23    2    1    0    0    0  0.14956925155E+01 -0.56104775180E+01 -0.28351924186E+02  0.96149610246E+02  0.91690792293E+02 0.  0.
         13    1    3    3    0    0 -0.27899975242E+02 -0.27213462681E+02 -0.41909944104E+02  0.57231422736E+02  0.10566000000E+00 0.  1.
         22    1    1    0    0    0 -0.14956925155E+01  0.56104775180E+01  0.28351924186E+02  0.28940389754E+02  0.00000000000E+00 0.  1.
</event>
<event>
 5    1  0.1259474E-009  0.9118800E+02  0.7815553E-02  0.1125453E+00
         25   -1    0    0    0    0  0.00000000000E+00  0.00000000000E+00  0.99999998245E-14  0.12509000000E+03  0.12509000000E+03 0.  0.
        -13    1    3    3    0    0  0.44776737318E+02  0.12854828058E+02 -0.89126401192E+01  0.47430466234E+02  0.10566000000E+00 0. -1.
         23    2    1    0    0    0  0.56496274131E+01  0.19756731376E+02  0.19880791013E+02  0.96498172919E+02  0.92165095350E+02 0.  0.
         13    1    3    3    0    0 -0.39127109905E+02  0.69019033179E+01  0.28793431132E+02  0.49067706685E+02  0.10566000000E+00 0.  1.
         22    1    1    0    0    0 -0.56496274131E+01 -0.19756731376E+02 -0.19880791013E+02  0.28591827081E+02  0.00000000000E+00 0. -1.
</event>
<event>
 5    1  0.1259474E-009  0.9118800E+02  0.7815553E-02  0.1125453E+00
         25   -1    0    0    0    0  0.00000000000E+00  0.00000000000E+00  0.99999998245E-14  0.12509000000E+03  0.12509000000E+03 0.  0.
        -13    1    3    3    0    0 -0.21132775301E+02 -0.27283415874E+02  0.15000750104E+02  0.37629943414E+02  0.10566000000E+00 0.  1.
         23    2    1    0    0    0  0.24653190939E+02  0.85461138236E+01  0.13322945261E+02  0.95792956542E+02  0.91202926310E+02 0.  0.
         13    1    3    3    0    0  0.45785966240E+02  0.35829529697E+02 -0.16778048430E+01  0.58163013127E+02  0.10566000000E+00 0. -1.
         22    1    1    0    0    0 -0.24653190939E+02 -0.85461138236E+01 -0.13322945261E+02  0.29297043458E+02  0.00000000000E+00 0. -1.
</event>
<event>
 5    1  0.1259474E-009  0.9118800E+02  0.7815553E-02  0.1125453E+00
         25   -1    0    0    0    0  0.00000000000E+00  0.00000000000E+00  0.99999998245E-14  0.12509000000E+03  0.12509000000E+03 0.  0.
        -13    1    3    3    0    0  0.63133209232E+01 -0.39613854556E+01 -0.41128301592E+02  0.41798312785E+02  0.10566000000E+00 0.  1.
         23    2    1    0    0    0  0.15403446602E+02 -0.29033179421E+02  0.16205148999E+01  0.92183803881E+02  0.86110603034E+02 0.  0.
         13    1    3    3    0    0  0.90901256789E+01 -0.25071793965E+02  0.42748816492E+02  0.50385491096E+02  0.10566000000E+00 0. -1.
         22    1    1    0    0    0 -0.15403446602E+02  0.29033179421E+02 -0.16205148999E+01  0.32906196119E+02  0.00000000000E+00 0. -1.
</event>
<event>
 5    1  0.1259474E-009  0.9118800E+02  0.7815553E-02  0.1125453E+00
         25   -1    0    0    0    0  0.00000000000E+00  0.00000000000E+00  0.99999998245E-14  0.12509000000E+03  0.12509000000E+03 0.  0.
        -13    1    3    3    0    0 -0.26595159904E+02 -0.11796250669E+02  0.34290926424E+02  0.44970355338E+02  0.10566000000E+00 0. -1.
         23    2    1    0    0    0 -0.22431543456E+02 -0.13287445733E+02 -0.15368081717E+02  0.94826023203E+02  0.89866937106E+02 0.  0.
         13    1    3    3    0    0  0.41636164481E+01 -0.14911950644E+01 -0.49659008141E+02  0.49855667865E+02  0.10566000000E+00 0.  1.
         22    1    1    0    0    0  0.22431543456E+02  0.13287445733E+02  0.15368081717E+02  0.30263976797E+02  0.00000000000E+00 0. -1.
</event>
<event>
 5    1  0.1259474E-009  0.9118800E+02  0.7815553E-02  0.1125453E+00
         25   -1    0    0    0    0  0.00000000000E+00  0.00000000000E+00  0.99999998245E-14  0.12509000000E+03  0.12509000000E+03 0.  0.
        -13    1    3    3    0    0  0.34944919912E+02 -0.32337414039E+02  0.16669650445E+02  0.50445457520E+02  0.10566000000E+00 0.  1.
         23    2    1    0    0    0  0.11056358638E+02  0.47155652105E+01  0.26832784846E+02  0.95687993875E+02  0.91058850244E+02 0.  0.
         13    1    3    3    0    0 -0.23888561274E+02  0.37052979250E+02  0.10163134401E+02  0.45242536356E+02  0.10566000000E+00 0. -1.
         22    1    1    0    0    0 -0.11056358638E+02 -0.47155652105E+01 -0.26832784846E+02  0.29402006125E+02  0.00000000000E+00 0. -1.
</event>
<event>
 5    1  0.1259474E-009  0.9118800E+02  0.7815553E-02  0.1125453E+00
         25   -1    0    0    0    0  0.00000000000E+00  0.00000000000E+00  0.99999998245E-14  0.12509000000E+03  0.12509000000E+03 0.  0.
        -13    1    3    3    0    0 -0.24980565070E+02 -0.46427133911E+01  0.27303076209E+02  0.37296816933E+02  0.10566000000E+00 0.  1.
         23    2    1    0    0    0 -0.74672508418E+01  0.15085957265E+02 -0.24461702638E+02  0.95396215504E+02  0.90657140341E+02 0.  0.
         13    1    3    3    0    0  0.17513314228E+02  0.19728670656E+02 -0.51764778847E+02  0.58099398571E+02  0.10566000000E+00 0. -1.
         22    1    1    0    0    0  0.74672508418E+01 -0.15085957265E+02  0.24461702638E+02  0.29693784496E+02  0.00000000000E+00 0. -1.
</event>
<event>
 5    1  0.1259474E-009  0.9118800E+02  0.7815553E-02  0.1125453E+00
         25   -1    0    0    0    0  0.00000000000E+00  0.00000000000E+00  0.99999998245E-14  0.12509000000E+03  0.12509000000E+03 0.  0.
        -13    1    3    3    0    0  0.10157544945E+02  0.36188127875E+02  0.32667187809E+01  0.37728489686E+02  0.10566000000E+00 0. -1.
         23    2    1    0    0    0  0.14994847110E+02 -0.17879621016E+02 -0.17576118377E+02  0.95876198044E+02  0.91317025393E+02 0.  0.
         13    1    3    3    0    0  0.48373021653E+01 -0.54067748891E+02 -0.20842837158E+02  0.58147708357E+02  0.10566000000E+00 0.  1.
         22    1    1    0    0    0 -0.14994847110E+02  0.17879621016E+02  0.17576118377E+02  0.29213801956E+02  0.00000000000E+00 0.  1.
</event>
<event>
 5    1  0.1259474E-009  0.9118800E+02  0.7815553E-02  0.1125453E+00
         25   -1    0    0    0    0  0.00000000000E+00  0.00000000000E+00  0.99999998245E-14  0.12509000000E+03  0.12509000000E+03 0.  0.
        -13    1    3    3    0    0  0.43995857131E+02  0.32205884212E+02 -0.25507994978E+02  0.60195709103E+02  0.10566000000E+00 0.  1.
         23    2    1    0    0    0  0.27721521450E+02  0.90516999581E+01 -0.41883477779E+01  0.95628868306E+02  0.90977591596E+02 0.  0.
         13    1    3    3    0    0 -0.16274335681E+02 -0.23154184254E+02  0.21319647200E+02  0.35433159203E+02  0.10566000000E+00 0. -1.
         22    1    1    0    0    0 -0.27721521450E+02 -0.90516999581E+01  0.41883477779E+01  0.29461131694E+02  0.00000000000E+00 0.  1.
</event>
<event>
 5    1  0.1259474E-009  0.9118800E+02  0.7815553E-02  0.1125453E+00
         25   -1    0    0    0    0  0.00000000000E+00  0.00000000000E+00  0.99999998245E-14  0.12509000000E+03  0.12509000000E+03 0.  0.
        -13    1    3    3    0    0 -0.48897830278E+02  0.48449446326E+01  0.10753733767E+02  0.50300350380E+02  0.10566000000E+00 0. -1.
         23    2    1    0    0    0 -0.19077830328E+02 -0.18224708016E+02 -0.13821909048E+02  0.95304957412E+02  0.90531133569E+02 0.  0.
         13    1    3    3    0    0  0.29819999950E+02 -0.23069652648E+02 -0.24575642814E+02  0.45004607032E+02  0.10566000000E+00 0.  1.
         22    1    1    0    0    0  0.19077830328E+02  0.18224708016E+02  0.13821909048E+02  0.29785042588E+02  0.00000000000E+00 0.  1.
</event>
<event>
 5    1  0.1259474E-009  0.9118800E+02  0.7815553E-02  0.1125453E+00
         25   -1    0    0    0    0  0.00000000000E+00  0.00000000000E+00  0.99999998245E-14  0.12509000000E+03  0.12509000000E+03 0.  0.
        -13    1    3    3    0    0  0.22250804576E+02  0.12549556416E+02 -0.31593990367E+02  0.40629805093E+02  0.10566000000E+00 0.  1.
         23    2    1    0    0    0 -0.29240890242E+01  0.34838060921E+02  0.43626466696E+01  0.89858288839E+02  0.82663405457E+02 0.  0.
         13    1    3    3    0    0 -0.25174893600E+02  0.22288504506E+02  0.35956637037E+02  0.49228483746E+02  0.10566000000E+00 0. -1.
         22    1    1    0    0    0  0.29240890242E+01 -0.34838060921E+02 -0.43626466696E+01  0.35231711161E+02  0.00000000000E+00 0.  1.
</event>
<event>
 5    1  0.1259474E-009  0.9118800E+02  0.7815553E-02  0.1125453E+00
         25   -1    0    0    0    0  0.00000000000E+00  0.00000000000E+00  0.99999998245E-14  0.12509000000E+03  0.12509000000E+03 0.  0.
        -13    1    3    3    0    0  0.91133540500E+00  0.36707685373E+02 -0.21190496149E+02  0.42394964191E+02  0.10566000000E+00 0.  1.
         23    2    1    0    0    0  0.19192824106E+02  0.83882142048E+01  0.20346869115E+02  0.95888600761E+02  0.91334013589E+02 0.  0.
         13    1    3    3    0    0  0.18281488701E+02 -0.28319471168E+02  0.41537365264E+02  0.53493636570E+02  0.10566000000E+00 0. -1.
         22    1    1    0    0    0 -0.19192824106E+02 -0.83882142048E+01 -0.20346869115E+02  0.29201399239E+02  0.00000000000E+00 0. -1.
</event>
<event>
 5    1  0.1259474E-009  0.9118800E+02  0.7815553E-02  0.1125453E+00
         25   -1    0    0    0    0  0.00000000000E+00  0.00000000000E+00  0.99999998245E-14  0.12509000000E+03  0.12509000000E+03 0.  0.
        -13    1    3    3    0    0  0.89492923079E+00  0.49340189175E+02 -0.14973812209E+02  0.51570159805E+02  0.10566000000E+00 0. -1.
         23    2    1    0    0    0 -0.23308639809E+02  0.11658081336E+02 -0.11838802712E+02  0.96465520968E+02  0.92120768211E+02 0.  0.
         13    1    3    3    0    0 -0.24203569040E+02 -0.37682107839E+02  0.31350094969E+01  0.44895361164E+02  0.10566000000E+00 0.  1.
         22    1    1    0    0    0  0.23308639809E+02 -0.11658081336E+02  0.11838802712E+02  0.28624479032E+02  0.00000000000E+00 0. -1.
</event>
<event>
 5    1  0.1259474E-009  0.9118800E+02  0.7815553E-02  0.1125453E+00
         25   -1    0    0    0    0  0.00000000000E+00  0.00000000000E+00  0.99999998245E-14  0.12509000000E+03  0.12509000000E+03 0.  0.
        -13    1    3    3    0    0  0.42966713563E+02 -0.31761220160E+01 -0.39262152960E+01  0.43262599968E+02  0.10566000000E+00 0.  1.
         23    2    1    0    0    0  0.65552617474E+00 -0.23970454470E+02  0.17852376060E+02  0.95194854357E+02  0.90378872326E+02 0.  0.
         13    1    3    3    0    0 -0.42311187388E+02 -0.20794332454E+02  0.21778591356E+02  0.51932254388E+02  0.10566000000E+00 0. -1.
         22    1    1    0    0    0 -0.65552617474E+00  0.23970454470E+02 -0.17852376060E+02  0.29895145643E+02  0.00000000000E+00 0. -1.
</event>
<event>
 5    1  0.1259474E-009  0.9118800E+02  0.7815553E-02  0.1125453E+00
         25   -1    0    0    0    0  0.00000000000E+00  0.00000000000E+00  0.99999998245E-14  0.12509000000E+03  0.12509000000E+03 0.  0.
        -13    1    3    3    0    0  0.43246350819E+02  0.36049411476E+02  0.42147638004E+01  0.56458678030E+02  0.10566000000E+00 0. -1.
         23    2    1    0    0    0  0.37261771991E+02  0.22123804331E+02 -0.13431824178E+02  0.79721329414E+02  0.65552834361E+02 0.  0.
         13    1    3    3    0    0 -0.59845788280E+01 -0.13925607145E+02 -0.17646587979E+02  0.23262651384E+02  0.10566000000E+00 0.  1.
         22    1    1    0    0    0 -0.37261771991E+02 -0.22123804331E+02  0.13431824178E+02  0.45368670586E+02  0.00000000000E+00 0. -1.
</event>
<event>
 5    1  0.1259474E-009  0.9118800E+02  0.7815553E-02  0.1125453E+00
         25   -1    0    0    0    0  0.00000000000E+00  0.00000000000E+00  0.99999998245E-14  0.12509000000E+03  0.12509000000E+03 0.  0.
        -13    1    3    3    0    0  0.30732986257E+02  0.20186748489E+02  0.13497689556E+02  0.39169121081E+02  0.10566000000E+00 0.  1.
         23    2    1    0    0    0 -0.25046307446E+02  0.55624126490E+01 -0.32792553042E+01  0.99224744028E+02  0.95794250146E+02 0.  0.
         13    1    3    3    0    0 -0.55779293703E+02 -0.14624335840E+02 -0.16776944861E+02  0.60055622948E+02  0.10566000000E+00 0. -1.
         22    1    1    0    0    0  0.25046307446E+02 -0.55624126490E+01  0.32792553042E+01  0.25865255972E+02  0.00000000000E+00 0. -1.
</event>
<event>
 5    1  0.1259474E-009  0.9118800E+02  0.7815553E-02  0.1125453E+00
         25   -1    0    0    0    0  0.00000000000E+00  0.00000000000E+00  0.99999998245E-14  0.12509000000E+03  0.12509000000E+03 0.  0.
        -13    1    3    3    0    0  0.16912885647E+02  0.35270864410E+02  0.61031106078E+01  0.39589628696E+02  0.10566000000E+00 0.  1.
         23    2    1    0    0    0  0.16991692913E+02 -0.18925667833E+02  0.16497237435E+02  0.94774040936E+02  0.89794551402E+02 0.  0.
         13    1    3    3    0    0  0.78807266499E-01 -0.54196532243E+02  0.10394126827E+02  0.55184412240E+02  0.10566000000E+00 0. -1.
         22    1    1    0    0    0 -0.16991692913E+02  0.18925667833E+02 -0.16497237435E+02  0.30315959064E+02  0.00000000000E+00 0. -1.
</event>
<event>
 5    1  0.1259474E-009  0.9118800E+02  0.7815553E-02  0.1125453E+00
         25   -1    0    0    0    0  0.00000000000E+00  0.00000000000E+00  0.99999998245E-14  0.12509000000E+03  0.12509000000E+03 0.  0.
        -13    1    3    3    0    0  0.17478017512E+02  0.34981205482E+02  0.21275352668E+02  0.44517610317E+02  0.10566000000E+00 0.  1.
         23    2    1    0    0    0 -0.25929512791E+02  0.11605912359E+02  0.81148456776E+01  0.95545329489E+02  0.90862656969E+02 0.  0.
         13    1    3    3    0    0 -0.43407530303E+02 -0.23375293123E+02 -0.13160506991E+02  0.51027719172E+02  0.10566000000E+00 0. -1.
         22    1    1    0    0    0  0.25929512791E+02 -0.11605912359E+02 -0.81148456776E+01  0.29544670511E+02  0.00000000000E+00 0.  1.
</event>
<event>
 5    1  0.1259474E-009  0.9118800E+02  0.7815553E-02  0.1125453E+00
         25   -1    0    0    0    0  0.00000000000E+00  0.00000000000E+00  0.99999998245E-14  0.12509000000E+03  0.12509000000E+03 0.  0.
        -13    1    3    3    0    0 -0.23064285178E+02 -0.23425628505E+02  0.36986094571E+02  0.49484378114E+02  0.10566000000E+00 0. -1.
         23    2    1    0    0    0 -0.25099374335E+02  0.95628204178E+01  0.11918220946E+01  0.98204193963E+02  0.94452195029E+02 0.  0.
         13    1    3    3    0    0 -0.20350891564E+01  0.32988448923E+02 -0.35794272477E+02  0.48719815849E+02  0.10566000000E+00 0.  1.
         22    1    1    0    0    0  0.25099374335E+02 -0.95628204178E+01 -0.11918220946E+01  0.26885806037E+02  0.00000000000E+00 0.  1.
</event>
<event>
 5    1  0.1259474E-009  0.9118800E+02  0.7815553E-02  0.1125453E+00
         25   -1    0    0    0    0  0.00000000000E+00  0.00000000000E+00  0.99999998245E-14  0.12509000000E+03  0.12509000000E+03 0.  0.
        -13    1    3    3    0    0 -0.43944903349E+01 -0.23157078560E+02  0.29140084621E+02  0.37479561477E+02  0.10566000000E+00 0. -1.
         23    2    1    0    0    0 -0.99307592919E+01  0.54807012604E+01 -0.24250344343E+02  0.98318050741E+02  0.94602863774E+02 0.  0.
         13    1    3    3    0    0 -0.55362689570E+01  0.28637779820E+02 -0.53390428963E+02  0.60838489264E+02  0.10566000000E+00 0.  1.
         22    1    1    0    0    0  0.99307592919E+01 -0.54807012604E+01  0.24250344343E+02  0.26771949259E+02  0.00000000000E+00 0.  1.
</event>
<event>
 5    1  0.1259474E-009  0.9118800E+02  0.7815553E-02  0.1125453E+00
         25   -1    0    0    0    0  0.00000000000E+00  0.00000000000E+00  0.99999998245E-14  0.12509000000E+03  0.12509000000E+03 0.  0.
        -13    1    3    3    0    0  0.99886543778E+01  0.26159387697E+02 -0.55159123960E+02  0.61859735701E+02  0.10566000000E+00 0. -1.
         23    2    1    0    0    0  0.51012001982E+01  0.17972068143E+02 -0.22698270674E+02  0.95692228513E+02  0.91064667294E+02 0.  0.
         13    1    3    3    0    0 -0.48874541796E+01 -0.81873195543E+01  0.32460853285E+02  0.33832492812E+02  0.10566000000E+00 0.  1.
         22    1    1    0    0    0 -0.51012001982E+01 -0.17972068143E+02  0.22698270674E+02  0.29397771487E+02  0.00000000000E+00 0. -1.
</event>
<event>
 5    1  0.1259474E-009  0.9118800E+02  0.7815553E-02  0.1125453E+00
         25   -1    0    0    0    0  0.00000000000E+00  0.00000000000E+00  0.99999998245E-14  0.12509000000E+03  0.12509000000E+03 0.  0.
        -13    1    3    3    0    0  0.18277313370E+02 -0.28179158762E+02 -0.17893310689E+02  0.38056627596E+02  0.10566000000E+00 0.  1.
         23    2    1    0    0    0 -0.83099843159E+01 -0.58431502459E+01  0.27825877266E+02  0.95467750090E+02  0.90755791096E+02 0.  0.
         13    1    3    3    0    0 -0.26587297686E+02  0.22336008516E+02  0.45719187955E+02  0.57411122494E+02  0.10566000000E+00 0. -1.
         22    1    1    0    0    0  0.83099843159E+01  0.58431502459E+01 -0.27825877266E+02  0.29622249910E+02  0.00000000000E+00 0. -1.
</event>
<event>
 5    1  0.1259474E-009  0.9118800E+02  0.7815553E-02  0.1125453E+00
         25   -1    0    0    0    0  0.00000000000E+00  0.00000000000E+00  0.99999998245E-14  0.12509000000E+03  0.12509000000E+03 0.  0.
        -13    1    3    3    0    0 -0.36674564861E+02 -0.39558111996E+02 -0.44755402290E+01  0.54128638971E+02  0.10566000000E+00 0.  1.
         23    2    1    0    0    0 -0.86369013407E+01 -0.14522993795E+02 -0.23411845157E+02  0.96217384823E+02  0.91783207805E+02 0.  0.
         13    1    3    3    0    0  0.28037663521E+02  0.25035118201E+02 -0.18936304928E+02  0.42088745852E+02  0.10566000000E+00 0. -1.
         22    1    1    0    0    0  0.86369013407E+01  0.14522993795E+02  0.23411845157E+02  0.28872615177E+02  0.00000000000E+00 0.  1.
</event>
<event>
 5    1  0.1259474E-009  0.9118800E+02  0.7815553E-02  0.1125453E+00
         25   -1    0    0    0    0  0.00000000000E+00  0.00000000000E+00  0.99999998245E-14  0.12509000000E+03  0.12509000000E+03 0.  0.
        -13    1    3    3    0    0  0.33115871166E+02 -0.58271737230E+01  0.54777144540E+01  0.34068070041E+02  0.10566000000E+00 0.  1.
         23    2    1    0    0    0 -0.26643454226E+02 -0.12737044117E+02 -0.50205950295E+01  0.95134828153E+02  0.90295754093E+02 0.  0.
         13    1    3    3    0    0 -0.59759325392E+02 -0.69098703939E+01 -0.10498309483E+02  0.61066758111E+02  0.10566000000E+00 0. -1.
         22    1    1    0    0    0  0.26643454226E+02  0.12737044117E+02  0.50205950295E+01  0.29955171847E+02  0.00000000000E+00 0. -1.
</event>
<event>
 5    1  0.1259474E-009  0.9118800E+02  0.7815553E-02  0.1125453E+00
         25   -1    0    0    0    0  0.00000000000E+00  0.00000000000E+00  0.99999998245E-14  0.12509000000E+03  0.12509000000E+03 0.  0.
        -13    1    3    3    0    0  0.19815098454E+02 -0.46229359007E+02  0.28457518091E+02  0.57789560137E+02  0.10566000000E+00 0. -1.
         23    2    1    0    0    0  0.63622597365E+01 -0.10573699339E+02  0.26392868215E+02  0.95954712816E+02  0.91424515051E+02 0.  0.
         13    1    3    3    0    0 -0.13452838717E+02  0.35655659667E+02 -0.20646498764E+01  0.38165152679E+02  0.10566000000E+00 0.  1.
         22    1    1    0    0    0 -0.63622597365E+01  0.10573699339E+02 -0.26392868215E+02  0.29135287184E+02  0.00000000000E+00 0. -1.
</event>
<event>
 5    1  0.1259474E-009  0.9118800E+02  0.7815553E-02  0.1125453E+00
         25   -1    0    0    0    0  0.00000000000E+00  0.00000000000E+00  0.99999998245E-14  0.12509000000E+03  0.12509000000E+03 0.  0.
        -13    1    3    3    0    0  0.32272697504E+02  0.17598874701E+02  0.82764362812E+01  0.37679675642E+02  0.10566000000E+00 0.  1.
         23    2    1    0    0    0 -0.25582449710E+02  0.99931961475E+01  0.94506387282E+01  0.96044513693E+02  0.91547301084E+02 0.  0.
         13    1    3    3    0    0 -0.57855147214E+02 -0.76056785536E+01  0.11742024470E+01  0.58364838052E+02  0.10566000000E+00 0. -1.
         22    1    1    0    0    0  0.25582449710E+02 -0.99931961475E+01 -0.94506387282E+01  0.29045486307E+02  0.00000000000E+00 0. -1.
</event>
<event>
 5    1  0.1259474E-009  0.9118800E+02  0.7815553E-02  0.1125453E+00
         25   -1    0    0    0    0  0.00000000000E+00  0.00000000000E+00  0.99999998245E-14  0.12509000000E+03  0.12509000000E+03 0.  0.
        -13    1    3    3    0    0  0.33224273271E+02 -0.12561839429E+02 -0.51231123489E+02  0.62340126100E+02  0.10566000000E+00 0.  1.
         23    2    1    0    0    0  0.18777721738E+02 -0.63444533247E+01 -0.22418180362E+02  0.95166268074E+02  0.90339298462E+02 0.  0.
         13    1    3    3    0    0 -0.14446551534E+02  0.62173861045E+01  0.28812943127E+02  0.32826141973E+02  0.10566000000E+00 0. -1.
         22    1    1    0    0    0 -0.18777721738E+02  0.63444533247E+01  0.22418180362E+02  0.29923731926E+02  0.00000000000E+00 0.  1.
</event>
<event>
 5    1  0.1259474E-009  0.9118800E+02  0.7815553E-02  0.1125453E+00
         25   -1    0    0    0    0  0.00000000000E+00  0.00000000000E+00  0.99999998245E-14  0.12509000000E+03  0.12509000000E+03 0.  0.
        -13    1    3    3    0    0  0.17710899255E+02 -0.45822411716E+02 -0.74527649833E+01  0.49688270626E+02  0.10566000000E+00 0.  1.
         23    2    1    0    0    0  0.28859546739E+02 -0.11778851579E+02  0.13425294598E+02  0.91151035408E+02  0.84597032681E+02 0.  0.
         13    1    3    3    0    0  0.11148647484E+02  0.34043560136E+02  0.20878059582E+02  0.41462764782E+02  0.10566000000E+00 0. -1.
         22    1    1    0    0    0 -0.28859546739E+02  0.11778851579E+02 -0.13425294598E+02  0.33938964592E+02  0.00000000000E+00 0. -1.
</event>
<event>
 5    1  0.1259474E-009  0.9118800E+02  0.7815553E-02  0.1125453E+00
         25   -1    0    0    0    0  0.00000000000E+00  0.00000000000E+00  0.99999998245E-14  0.12509000000E+03  0.12509000000E+03 0.  0.
        -13    1    3    3    0    0  0.10314922688E+02 -0.18839005554E+02  0.38624288725E+02  0.44194486125E+02  0.10566000000E+00 0.  1.
         23    2    1    0    0    0 -0.25573586224E+02 -0.16252971779E+02  0.33135653974E+01  0.94608085368E+02  0.89563065475E+02 0.  0.
         13    1    3    3    0    0 -0.35888508913E+02  0.25860337754E+01 -0.35310723327E+02  0.50413599243E+02  0.10566000000E+00 0. -1.
         22    1    1    0    0    0  0.25573586224E+02  0.16252971779E+02 -0.33135653974E+01  0.30481914632E+02  0.00000000000E+00 0. -1.
</event>
<event>
 5    1  0.1259474E-009  0.9118800E+02  0.7815553E-02  0.1125453E+00
         25   -1    0    0    0    0  0.00000000000E+00  0.00000000000E+00  0.99999998245E-14  0.12509000000E+03  0.12509000000E+03 0.  0.
        -13    1    3    3    0    0  0.34491637277E+02 -0.29241868854E+02 -0.25278733671E+02  0.51805264947E+02  0.10566000000E+00 0. -1.
         23    2    1    0    0    0  0.63804926307E+00 -0.28397506497E+02  0.37886699663E+01  0.96433770272E+02  0.92077644119E+02 0.  0.
         13    1    3    3    0    0 -0.33853588014E+02  0.84436235645E+00  0.29067403638E+02  0.44628505325E+02  0.10566000000E+00 0.  1.
         22    1    1    0    0    0 -0.63804926307E+00  0.28397506497E+02 -0.37886699663E+01  0.28656229728E+02  0.00000000000E+00 0. -1.
</event>
<event>
 5    1  0.1259474E-009  0.9118800E+02  0.7815553E-02  0.1125453E+00
         25   -1    0    0    0    0  0.00000000000E+00  0.00000000000E+00  0.99999998245E-14  0.12509000000E+03  0.12509000000E+03 0.  0.
        -13    1    3    3    0    0  0.40585239155E+01  0.18193309418E+01  0.35753879187E+02  0.36029607581E+02  0.10566000000E+00 0.  1.
         23    2    1    0    0    0  0.22873253777E+01  0.18160118083E+02 -0.22227743886E+02  0.96296001590E+02  0.91890290988E+02 0.  0.
         13    1    3    3    0    0 -0.17711985378E+01  0.16340787141E+02 -0.57981623073E+02  0.60266394009E+02  0.10566000000E+00 0. -1.
         22    1    1    0    0    0 -0.22873253777E+01 -0.18160118083E+02  0.22227743886E+02  0.28793998410E+02  0.00000000000E+00 0. -1.
</event>
<event>
 5    1  0.1259474E-009  0.9118800E+02  0.7815553E-02  0.1125453E+00
         25   -1    0    0    0    0  0.00000000000E+00  0.00000000000E+00  0.99999998245E-14  0.12509000000E+03  0.12509000000E+03 0.  0.
        -13    1    3    3    0    0  0.59349583917E+01 -0.53004504052E+02 -0.29724989968E+01  0.53418611881E+02  0.10566000000E+00 0.  1.
         23    2    1    0    0    0 -0.14835638826E+02 -0.21533219437E+02  0.14732830780E+02  0.95076136179E+02  0.90214409321E+02 0.  0.
         13    1    3    3    0    0 -0.20770597218E+02  0.31471284615E+02  0.17705329777E+02  0.41657524298E+02  0.10566000000E+00 0. -1.
         22    1    1    0    0    0  0.14835638826E+02  0.21533219437E+02 -0.14732830780E+02  0.30013863821E+02  0.00000000000E+00 0. -1.
</event>
<event>
 5    1  0.1259474E-009  0.9118800E+02  0.7815553E-02  0.1125453E+00
         25   -1    0    0    0    0  0.00000000000E+00  0.00000000000E+00  0.99999998245E-14  0.12509000000E+03  0.12509000000E+03 0.  0.
        -13    1    3    3    0    0  0.21583502119E+02 -0.32451785579E+02  0.10546128598E+01  0.38988322909E+02  0.10566000000E+00 0.  1.
         23    2    1    0    0    0 -0.24147626292E+02 -0.84322781986E+01 -0.17746413753E+02  0.93958884179E+02  0.88651709199E+02 0.  0.
         13    1    3    3    0    0 -0.45731128411E+02  0.24019507380E+02 -0.18801026613E+02  0.54970561269E+02  0.10566000000E+00 0. -1.
         22    1    1    0    0    0  0.24147626292E+02  0.84322781986E+01  0.17746413753E+02  0.31131115821E+02  0.00000000000E+00 0.  1.
</event>
<event>
 5    1  0.1259474E-009  0.9118800E+02  0.7815553E-02  0.1125453E+00
         25   -1    0    0    0    0  0.00000000000E+00  0.00000000000E+00  0.99999998245E-14  0.12509000000E+03  0.12509000000E+03 0.  0.
        -13    1    3    3    0    0 -0.20562858256E+02  0.23547547601E+02 -0.18017005636E+02  0.36082430542E+02  0.10566000000E+00 0. -1.
         23    2    1    0    0    0  0.26089861056E+02 -0.11798330868E+02 -0.57263661867E+01  0.95889439545E+02  0.91335162372E+02 0.  0.
         13    1    3    3    0    0  0.46652719311E+02 -0.35345878469E+02  0.12290639449E+02  0.59807009004E+02  0.10566000000E+00 0.  1.
         22    1    1    0    0    0 -0.26089861056E+02  0.11798330868E+02  0.57263661867E+01  0.29200560455E+02  0.00000000000E+00 0.  1.
</event>
<event>
 5    1  0.1259474E-009  0.9118800E+02  0.7815553E-02  0.1125453E+00
         25   -1    0    0    0    0  0.00000000000E+00  0.00000000000E+00  0.99999998245E-14  0.12509000000E+03  0.12509000000E+03 0.  0.
        -13    1    3    3    0    0 -0.46549674924E+02  0.99778764385E+01 -0.40213364297E+02  0.62318184231E+02  0.10566000000E+00 0.  1.
         23    2    1    0    0    0 -0.29577035251E+02  0.80737353061E+01 -0.29871588658E+02  0.82284649575E+02  0.70274216685E+02 0.  0.
         13    1    3    3    0    0  0.16972639673E+02 -0.19041411324E+01  0.10341775639E+02  0.19966465344E+02  0.10566000000E+00 0. -1.
         22    1    1    0    0    0  0.29577035251E+02 -0.80737353061E+01  0.29871588658E+02  0.42805350425E+02  0.00000000000E+00 0.  1.
</event>
<event>
 5    1  0.1259474E-009  0.9118800E+02  0.7815553E-02  0.1125453E+00
         25   -1    0    0    0    0  0.00000000000E+00  0.00000000000E+00  0.99999998245E-14  0.12509000000E+03  0.12509000000E+03 0.  0.
        -13    1    3    3    0    0 -0.13075372929E+02  0.18175905969E+02 -0.55283006395E+02  0.59645208484E+02  0.10566000000E+00 0.  1.
         23    2    1    0    0    0 -0.13134118203E+02 -0.30053033541E+01 -0.26254873399E+02  0.95579742691E+02  0.90910021045E+02 0.  0.
         13    1    3    3    0    0 -0.58745274431E-01 -0.21181209323E+02  0.29028132996E+02  0.35934534207E+02  0.10566000000E+00 0. -1.
         22    1    1    0    0    0  0.13134118203E+02  0.30053033541E+01  0.26254873399E+02  0.29510257309E+02  0.00000000000E+00 0.  1.
</event>
<event>
 5    1  0.1259474E-009  0.9118800E+02  0.7815553E-02  0.1125453E+00
         25   -1    0    0    0    0  0.00000000000E+00  0.00000000000E+00  0.99999998245E-14  0.12509000000E+03  0.12509000000E+03 0.  0.
        -13    1    3    3    0    0 -0.32981629166E+02 -0.16571801817E+02  0.17399120493E+02  0.40806286720E+02  0.10566000000E+00 0.  1.
         23    2    1    0    0    0 -0.19049825814E+02  0.27397319653E+02 -0.36800108729E+01  0.91518412791E+02  0.85138524841E+02 0.  0.
         13    1    3    3    0    0  0.13931803352E+02  0.43969121470E+02 -0.21079131366E+02  0.50712126071E+02  0.10566000000E+00 0. -1.
         22    1    1    0    0    0  0.19049825814E+02 -0.27397319653E+02  0.36800108729E+01  0.33571587209E+02  0.00000000000E+00 0. -1.
</event>
<event>
 5    1  0.1259474E-009  0.9118800E+02  0.7815553E-02  0.1125453E+00
         25   -1    0    0    0    0  0.00000000000E+00  0.00000000000E+00  0.99999998245E-14  0.12509000000E+03  0.12509000000E+03 0.  0.
        -13    1    3    3    0    0 -0.34936935104E+02  0.46232900102E+02 -0.22246318243E+02  0.62072379733E+02  0.10566000000E+00 0.  1.
         23    2    1    0    0    0 -0.16348550911E+02  0.18060313326E+02 -0.14630402767E+02  0.96673478055E+02  0.92402719872E+02 0.  0.
         13    1    3    3    0    0  0.18588384193E+02 -0.28172586775E+02  0.76159154758E+01  0.34601098322E+02  0.10566000000E+00 0. -1.
         22    1    1    0    0    0  0.16348550911E+02 -0.18060313326E+02  0.14630402767E+02  0.28416521945E+02  0.00000000000E+00 0.  1.
</event>
<event>
 5    1  0.1259474E-009  0.9118800E+02  0.7815553E-02  0.1125453E+00
         25   -1    0    0    0    0  0.00000000000E+00  0.00000000000E+00  0.99999998245E-14  0.12509000000E+03  0.12509000000E+03 0.  0.
        -13    1    3    3    0    0 -0.38950613530E+02 -0.14675591889E+02  0.26420658220E+01  0.41707492942E+02  0.10566000000E+00 0. -1.
         23    2    1    0    0    0  0.17525543867E+02 -0.38987756382E+01  0.16341852563E+02  0.10081241189E+03  0.97845496096E+02 0.  0.
         13    1    3    3    0    0  0.56476157397E+02  0.10776816251E+02  0.13699786741E+02  0.59104918946E+02  0.10566000000E+00 0.  1.
         22    1    1    0    0    0 -0.17525543867E+02  0.38987756382E+01 -0.16341852563E+02  0.24277588111E+02  0.00000000000E+00 0.  1.
</event>
<event>
 5    1  0.1259474E-009  0.9118800E+02  0.7815553E-02  0.1125453E+00
         25   -1    0    0    0    0  0.00000000000E+00  0.00000000000E+00  0.99999998245E-14  0.12509000000E+03  0.12509000000E+03 0.  0.
        -13    1    3    3    0    0 -0.67262139386E+01  0.38914708329E+02 -0.15996831983E+02  0.42608758205E+02  0.10566000000E+00 0. -1.
         23    2    1    0    0    0  0.14835875944E+02  0.68328636941E+01  0.22581273954E+02  0.97220569172E+02  0.93140398836E+02 0.  0.
         13    1    3    3    0    0  0.21562089883E+02 -0.32081844635E+02  0.38578105937E+02  0.54611810966E+02  0.10566000000E+00 0.  1.
         22    1    1    0    0    0 -0.14835875944E+02 -0.68328636941E+01 -0.22581273954E+02  0.27869430828E+02  0.00000000000E+00 0. -1.
</event>
<event>
 5    1  0.1259474E-009  0.9118800E+02  0.7815553E-02  0.1125453E+00
         25   -1    0    0    0    0  0.00000000000E+00  0.00000000000E+00  0.99999998245E-14  0.12509000000E+03  0.12509000000E+03 0.  0.
        -13    1    3    3    0    0 -0.12412640015E+02  0.26014752912E+02 -0.16650336284E+02  0.33287923690E+02  0.10566000000E+00 0.  1.
         23    2    1    0    0    0  0.13266210466E+02 -0.27594870634E+02 -0.26461556735E+01  0.94357747149E+02  0.89212740580E+02 0.  0.
         13    1    3    3    0    0  0.25678850480E+02 -0.53609623546E+02  0.14004180610E+02  0.61069823459E+02  0.10566000000E+00 0. -1.
         22    1    1    0    0    0 -0.13266210466E+02  0.27594870634E+02  0.26461556735E+01  0.30732252851E+02  0.00000000000E+00 0. -1.
</event>
<event>
 5    1  0.1259474E-009  0.9118800E+02  0.7815553E-02  0.1125453E+00
         25   -1    0    0    0    0  0.00000000000E+00  0.00000000000E+00  0.99999998245E-14  0.12509000000E+03  0.12509000000E+03 0.  0.
        -13    1    3    3    0    0  0.21958200782E+02 -0.28232026595E+02 -0.28905216777E+01  0.35882811858E+02  0.10566000000E+00 0.  1.
         23    2    1    0    0    0 -0.91033863747E+01  0.21740265241E+02 -0.16554545150E+02  0.96287851792E+02  0.91879196021E+02 0.  0.
         13    1    3    3    0    0 -0.31061587156E+02  0.49972291836E+02 -0.13664023473E+02  0.60405039935E+02  0.10566000000E+00 0. -1.
         22    1    1    0    0    0  0.91033863747E+01 -0.21740265241E+02  0.16554545150E+02  0.28802148208E+02  0.00000000000E+00 0. -1.
</event>
<event>
 5    1  0.1259474E-009  0.9118800E+02  0.7815553E-02  0.1125453E+00
         25   -1    0    0    0    0  0.00000000000E+00  0.00000000000E+00  0.99999998245E-14  0.12509000000E+03  0.12509000000E+03 0.  0.
        -13    1    3    3    0    0 -0.40055174343E+02  0.91546199711E+01 -0.29357485002E+02  0.50498486593E+02  0.10566000000E+00 0.  1.
         23    2    1    0    0    0 -0.93933353994E-01 -0.13438618878E+02 -0.25121711042E+02  0.96599551311E+02  0.92302587434E+02 0.  0.
         13    1    3    3    0    0  0.39961240989E+02 -0.22593238849E+02  0.42357739603E+01  0.46101064718E+02  0.10566000000E+00 0. -1.
         22    1    1    0    0    0  0.93933353994E-01  0.13438618878E+02  0.25121711042E+02  0.28490448689E+02  0.00000000000E+00 0.  1.
</event>
<event>
 5    1  0.1259474E-009  0.9118800E+02  0.7815553E-02  0.1125453E+00
         25   -1    0    0    0    0  0.00000000000E+00  0.00000000000E+00  0.99999998245E-14  0.12509000000E+03  0.12509000000E+03 0.  0.
        -13    1    3    3    0    0 -0.25573615744E+02 -0.12325445474E+02  0.22816644724E+02  0.36421653846E+02  0.10566000000E+00 0. -1.
         23    2    1    0    0    0  0.27431515008E+02 -0.29240165193E+01 -0.50584880427E+01  0.97043142966E+02  0.92901805188E+02 0.  0.
         13    1    3    3    0    0  0.53005130751E+02  0.94014289549E+01 -0.27875132767E+02  0.60621489120E+02  0.10566000000E+00 0.  1.
         22    1    1    0    0    0 -0.27431515008E+02  0.29240165193E+01  0.50584880427E+01  0.28046857034E+02  0.00000000000E+00 0.  1.
</event>
<event>
 5    1  0.1259474E-009  0.9118800E+02  0.7815553E-02  0.1125453E+00
         25   -1    0    0    0    0  0.00000000000E+00  0.00000000000E+00  0.99999998245E-14  0.12509000000E+03  0.12509000000E+03 0.  0.
        -13    1    3    3    0    0  0.22840708737E+02  0.12166963732E+01  0.58196353128E+02  0.62530032841E+02  0.10566000000E+00 0.  1.
         23    2    1    0    0    0  0.11045436768E+02  0.13167966657E+01  0.26515622717E+02  0.96335628595E+02  0.91944219295E+02 0.  0.
         13    1    3    3    0    0 -0.11795271969E+02  0.10010029244E+00 -0.31680730411E+02  0.33805595754E+02  0.10566000000E+00 0. -1.
         22    1    1    0    0    0 -0.11045436768E+02 -0.13167966657E+01 -0.26515622717E+02  0.28754371405E+02  0.00000000000E+00 0.  1.
</event>
<event>
 5    1  0.1259474E-009  0.9118800E+02  0.7815553E-02  0.1125453E+00
         25   -1    0    0    0    0  0.00000000000E+00  0.00000000000E+00  0.99999998245E-14  0.12509000000E+03  0.12509000000E+03 0.  0.
        -13    1    3    3    0    0 -0.27716430957E+02 -0.28072732318E+02  0.73886670751E+01  0.40135799605E+02  0.10566000000E+00 0. -1.
         23    2    1    0    0    0 -0.62602907870E+01  0.20665459101E+02  0.20861457120E+02  0.95065795868E+02  0.90200070455E+02 0.  0.
         13    1    3    3    0    0  0.21456140170E+02  0.48738191419E+02  0.13472790045E+02  0.54929996263E+02  0.10566000000E+00 0.  1.
         22    1    1    0    0    0  0.62602907870E+01 -0.20665459101E+02 -0.20861457120E+02  0.30024204132E+02  0.00000000000E+00 0.  1.
</event>
<event>
 5    1  0.1259474E-009  0.9118800E+02  0.7815553E-02  0.1125453E+00
         25   -1    0    0    0    0  0.00000000000E+00  0.00000000000E+00  0.99999998245E-14  0.12509000000E+03  0.12509000000E+03 0.  0.
        -13    1    3    3    0    0  0.37972419547E+02 -0.24190305824E+02  0.31082089346E+02  0.54709989803E+02  0.10566000000E+00 0.  1.
         23    2    1    0    0    0  0.93177752392E+01  0.51961106334E+01  0.27121902520E+02  0.95945221781E+02  0.91411528185E+02 0.  0.
         13    1    3    3    0    0 -0.28654644308E+02  0.29386416457E+02 -0.39601868256E+01  0.41235231978E+02  0.10566000000E+00 0. -1.
         22    1    1    0    0    0 -0.93177752392E+01 -0.51961106334E+01 -0.27121902520E+02  0.29144778219E+02  0.00000000000E+00 0.  1.
</event>
<event>
 5    1  0.1259474E-009  0.9118800E+02  0.7815553E-02  0.1125453E+00
         25   -1    0    0    0    0  0.00000000000E+00  0.00000000000E+00  0.99999998245E-14  0.12509000000E+03  0.12509000000E+03 0.  0.
        -13    1    3    3    0    0 -0.87777216753E+01 -0.38800985981E+02 -0.67153212410E+01  0.40344412430E+02  0.10566000000E+00 0.  1.
         23    2    1    0    0    0  0.29087875916E+02  0.14468612309E+01 -0.41026316922E+00  0.95963272607E+02  0.91436226086E+02 0.  0.
         13    1    3    3    0    0  0.37865597592E+02  0.40247847212E+02  0.63050580717E+01  0.55618860178E+02  0.10566000000E+00 0. -1.
         22    1    1    0    0    0 -0.29087875916E+02 -0.14468612309E+01  0.41026316922E+00  0.29126727393E+02  0.00000000000E+00 0.  1.
</event>
<event>
 5    1  0.1259474E-009  0.9118800E+02  0.7815553E-02  0.1125453E+00
         25   -1    0    0    0    0  0.00000000000E+00  0.00000000000E+00  0.99999998245E-14  0.12509000000E+03  0.12509000000E+03 0.  0.
        -13    1    3    3    0    0  0.32410372407E+02  0.24424591427E+02 -0.84683638888E+01  0.41457414981E+02  0.10566000000E+00 0.  1.
         23    2    1    0    0    0  0.14523946079E+02 -0.21176546165E+02  0.14545422509E+02  0.95577961217E+02  0.90907569747E+02 0.  0.
         13    1    3    3    0    0 -0.17886426328E+02 -0.45601137592E+02  0.23013786398E+02  0.54120546236E+02  0.10566000000E+00 0. -1.
         22    1    1    0    0    0 -0.14523946079E+02  0.21176546165E+02 -0.14545422509E+02  0.29512038783E+02  0.00000000000E+00 0. -1.
</event>
<event>
 5    1  0.1259474E-009  0.9118800E+02  0.7815553E-02  0.1125453E+00
         25   -1    0    0    0    0  0.00000000000E+00  0.00000000000E+00  0.99999998245E-14  0.12509000000E+03  0.12509000000E+03 0.  0.
        -13    1    3    3    0    0 -0.19832864387E+02 -0.24658515248E+02  0.21140512325E+02  0.38056764306E+02  0.10566000000E+00 0. -1.
         23    2    1    0    0    0  0.28220862889E+02  0.16809007510E-01 -0.19457413167E+01  0.96802135217E+02  0.92576725415E+02 0.  0.
         13    1    3    3    0    0  0.48053727276E+02  0.24675324255E+02 -0.23086253642E+02  0.58745370911E+02  0.10566000000E+00 0.  1.
         22    1    1    0    0    0 -0.28220862889E+02 -0.16809007510E-01  0.19457413167E+01  0.28287864783E+02  0.00000000000E+00 0.  1.
</event>
<event>
 5    1  0.1259474E-009  0.9118800E+02  0.7815553E-02  0.1125453E+00
         25   -1    0    0    0    0  0.00000000000E+00  0.00000000000E+00  0.99999998245E-14  0.12509000000E+03  0.12509000000E+03 0.  0.
        -13    1    3    3    0    0 -0.10097710063E+02  0.49945306057E+02  0.26895924777E+02  0.57618567141E+02  0.10566000000E+00 0. -1.
         23    2    1    0    0    0 -0.16574904565E+02  0.14159400469E+02  0.21656983336E+02  0.94361495152E+02  0.89217995702E+02 0.  0.
         13    1    3    3    0    0 -0.64771945016E+01 -0.35785905588E+02 -0.52389414406E+01  0.36742928011E+02  0.10566000000E+00 0.  1.
         22    1    1    0    0    0  0.16574904565E+02 -0.14159400469E+02 -0.21656983336E+02  0.30728504848E+02  0.00000000000E+00 0. -1.
</event>
<event>
 5    1  0.1259474E-009  0.9118800E+02  0.7815553E-02  0.1125453E+00
         25   -1    0    0    0    0  0.00000000000E+00  0.00000000000E+00  0.99999998245E-14  0.12509000000E+03  0.12509000000E+03 0.  0.
        -13    1    3    3    0    0 -0.57294276893E+02 -0.71759476125E+01 -0.34691130311E+01  0.57846126042E+02  0.10566000000E+00 0. -1.
         23    2    1    0    0    0 -0.23976596704E+02  0.12207842208E+02 -0.88504823100E+01  0.96766164843E+02  0.92528109352E+02 0.  0.
         13    1    3    3    0    0  0.33317680188E+02  0.19383789820E+02 -0.53813692790E+01  0.38920038801E+02  0.10566000000E+00 0.  1.
         22    1    1    0    0    0  0.23976596704E+02 -0.12207842208E+02  0.88504823100E+01  0.28323835157E+02  0.00000000000E+00 0. -1.
</event>
<event>
 5    1  0.1259474E-009  0.9118800E+02  0.7815553E-02  0.1125453E+00
         25   -1    0    0    0    0  0.00000000000E+00  0.00000000000E+00  0.99999998245E-14  0.12509000000E+03  0.12509000000E+03 0.  0.
        -13    1    3    3    0    0  0.85966440138E+01 -0.66983687585E+01  0.32861088954E+02  0.34621276169E+02  0.10566000000E+00 0. -1.
         23    2    1    0    0    0 -0.16899844093E+02  0.12149901912E+02 -0.19975432960E+02  0.96241381857E+02  0.91815907189E+02 0.  0.
         13    1    3    3    0    0 -0.25496488107E+02  0.18848270670E+02 -0.52836521913E+02  0.61620105688E+02  0.10566000000E+00 0.  1.
         22    1    1    0    0    0  0.16899844093E+02 -0.12149901912E+02  0.19975432960E+02  0.28848618143E+02  0.00000000000E+00 0.  1.
</event>
<event>
 5    1  0.1259474E-009  0.9118800E+02  0.7815553E-02  0.1125453E+00
         25   -1    0    0    0    0  0.00000000000E+00  0.00000000000E+00  0.99999998245E-14  0.12509000000E+03  0.12509000000E+03 0.  0.
        -13    1    3    3    0    0 -0.29136469020E+02 -0.80968751374E+01  0.47907268419E+02  0.56653426599E+02  0.10566000000E+00 0.  1.
         23    2    1    0    0    0  0.41026529008E+01 -0.94515402449E+01  0.27601868839E+02  0.95627709912E+02  0.90975998844E+02 0.  0.
         13    1    3    3    0    0  0.33239121921E+02 -0.13546651075E+01 -0.20305399580E+02  0.38974283313E+02  0.10566000000E+00 0. -1.
         22    1    1    0    0    0 -0.41026529008E+01  0.94515402449E+01 -0.27601868839E+02  0.29462290088E+02  0.00000000000E+00 0.  1.
</event>
<event>
 5    1  0.1259474E-009  0.9118800E+02  0.7815553E-02  0.1125453E+00
         25   -1    0    0    0    0  0.00000000000E+00  0.00000000000E+00  0.99999998245E-14  0.12509000000E+03  0.12509000000E+03 0.  0.
        -13    1    3    3    0    0 -0.32926602331E+02 -0.44521009268E+02  0.19053560336E+02  0.58560487813E+02  0.10566000000E+00 0.  1.
         23    2    1    0    0    0 -0.12578594924E+02 -0.24920492128E+02 -0.62451593605E+01  0.96484860713E+02  0.92147025743E+02 0.  0.
         13    1    3    3    0    0  0.20348007407E+02  0.19600517140E+02 -0.25298719696E+02  0.37924372901E+02  0.10566000000E+00 0. -1.
         22    1    1    0    0    0  0.12578594924E+02  0.24920492128E+02  0.62451593605E+01  0.28605139287E+02  0.00000000000E+00 0.  1.
</event>
<event>
 5    1  0.1259474E-009  0.9118800E+02  0.7815553E-02  0.1125453E+00
         25   -1    0    0    0    0  0.00000000000E+00  0.00000000000E+00  0.99999998245E-14  0.12509000000E+03  0.12509000000E+03 0.  0.
        -13    1    3    3    0    0  0.24000440137E+02  0.38774693532E+02 -0.21208847098E+02  0.50292388534E+02  0.10566000000E+00 0.  1.
         23    2    1    0    0    0  0.27413066150E+02  0.24597959020E+01  0.73323491095E+01  0.96606844714E+02  0.92312471045E+02 0.  0.
         13    1    3    3    0    0  0.34126260130E+01 -0.36314897630E+02  0.28541196208E+02  0.46314456179E+02  0.10566000000E+00 0. -1.
         22    1    1    0    0    0 -0.27413066150E+02 -0.24597959020E+01 -0.73323491095E+01  0.28483155286E+02  0.00000000000E+00 0. -1.
</event>
<event>
 5    1  0.1259474E-009  0.9118800E+02  0.7815553E-02  0.1125453E+00
         25   -1    0    0    0    0  0.00000000000E+00  0.00000000000E+00  0.99999998245E-14  0.12509000000E+03  0.12509000000E+03 0.  0.
        -13    1    3    3    0    0  0.17300336809E+02  0.14764681707E+00  0.32734491878E+02  0.37025417970E+02  0.10566000000E+00 0.  1.
         23    2    1    0    0    0 -0.27220199587E+02  0.53065175744E+00 -0.73028806124E+01  0.96902184865E+02  0.92711814293E+02 0.  0.
         13    1    3    3    0    0 -0.44520536396E+02  0.38300494037E+00 -0.40037372491E+02  0.59876766895E+02  0.10566000000E+00 0. -1.
         22    1    1    0    0    0  0.27220199587E+02 -0.53065175744E+00  0.73028806124E+01  0.28187815135E+02  0.00000000000E+00 0. -1.
</event>
<event>
 5    1  0.1259474E-009  0.9118800E+02  0.7815553E-02  0.1125453E+00
         25   -1    0    0    0    0  0.00000000000E+00  0.00000000000E+00  0.99999998245E-14  0.12509000000E+03  0.12509000000E+03 0.  0.
        -13    1    3    3    0    0 -0.35776249996E+02  0.49574540882E+02 -0.89288005730E+01  0.61784381612E+02  0.10566000000E+00 0. -1.
         23    2    1    0    0    0 -0.26935895278E+02  0.30611525666E+02 -0.58140726342E+00  0.84310765181E+02  0.73792676690E+02 0.  0.
         13    1    3    3    0    0  0.88403547179E+01 -0.18963015216E+02  0.83473933096E+01  0.22526383570E+02  0.10566000000E+00 0.  1.
         22    1    1    0    0    0  0.26935895278E+02 -0.30611525666E+02  0.58140726342E+00  0.40779234819E+02  0.00000000000E+00 0. -1.
</event>
<event>
 5    1  0.1259474E-009  0.9118800E+02  0.7815553E-02  0.1125453E+00
         25   -1    0    0    0    0  0.00000000000E+00  0.00000000000E+00  0.99999998245E-14  0.12509000000E+03  0.12509000000E+03 0.  0.
        -13    1    3    3    0    0 -0.26339238227E+02  0.97387349960E+01 -0.38880623632E+02  0.47961573033E+02  0.10566000000E+00 0.  1.
         23    2    1    0    0    0 -0.27066301461E+02  0.78724294160E+01  0.87042893218E+01  0.95588737785E+02  0.90922397235E+02 0.  0.
         13    1    3    3    0    0 -0.72706323385E+00 -0.18663055800E+01  0.47584912954E+02  0.47627164752E+02  0.10566000000E+00 0. -1.
         22    1    1    0    0    0  0.27066301461E+02 -0.78724294160E+01 -0.87042893218E+01  0.29501262215E+02  0.00000000000E+00 0. -1.
</event>
<event>
 5    1  0.1259474E-009  0.9118800E+02  0.7815553E-02  0.1125453E+00
         25   -1    0    0    0    0  0.00000000000E+00  0.00000000000E+00  0.99999998245E-14  0.12509000000E+03  0.12509000000E+03 0.  0.
        -13    1    3    3    0    0 -0.21668630316E+02 -0.25736555293E+02 -0.48071422105E+02  0.58675144698E+02  0.10566000000E+00 0. -1.
         23    2    1    0    0    0 -0.48556163047E+01 -0.25355621270E+02 -0.16486216230E+02  0.94458645716E+02  0.89354103908E+02 0.  0.
         13    1    3    3    0    0  0.16813014012E+02  0.38093402299E+00  0.31585205875E+02  0.35783501018E+02  0.10566000000E+00 0.  1.
         22    1    1    0    0    0  0.48556163047E+01  0.25355621270E+02  0.16486216230E+02  0.30631354284E+02  0.00000000000E+00 0. -1.
</event>
<event>
 5    1  0.1259474E-009  0.9118800E+02  0.7815553E-02  0.1125453E+00
         25   -1    0    0    0    0  0.00000000000E+00  0.00000000000E+00  0.99999998245E-14  0.12509000000E+03  0.12509000000E+03 0.  0.
        -13    1    3    3    0    0 -0.55667826114E+02 -0.20155767442E+02 -0.10784725609E+01  0.59214323374E+02  0.10566000000E+00 0. -1.
         23    2    1    0    0    0 -0.19711145014E+02 -0.14759773100E+02  0.11795777644E+02  0.97785778533E+02  0.93896421515E+02 0.  0.
         13    1    3    3    0    0  0.35956681101E+02  0.53959943419E+01  0.12874250205E+02  0.38571455159E+02  0.10566000000E+00 0.  1.
         22    1    1    0    0    0  0.19711145014E+02  0.14759773100E+02 -0.11795777644E+02  0.27304221467E+02  0.00000000000E+00 0. -1.
</event>
<event>
 5    1  0.1259474E-009  0.9118800E+02  0.7815553E-02  0.1125453E+00
         25   -1    0    0    0    0  0.00000000000E+00  0.00000000000E+00  0.99999998245E-14  0.12509000000E+03  0.12509000000E+03 0.  0.
        -13    1    3    3    0    0  0.45389716853E+02 -0.11467278475E+02  0.41021758905E+02  0.62245648357E+02  0.10566000000E+00 0. -1.
         23    2    1    0    0    0  0.21687004043E+02 -0.11346049739E+01  0.19933070378E+02  0.95612198734E+02  0.90954668815E+02 0.  0.
         13    1    3    3    0    0 -0.23702712810E+02  0.10332673501E+02 -0.21088688527E+02  0.33366550377E+02  0.10566000000E+00 0.  1.
         22    1    1    0    0    0 -0.21687004043E+02  0.11346049739E+01 -0.19933070378E+02  0.29477801266E+02  0.00000000000E+00 0. -1.
</event>
<event>
 5    1  0.1259474E-009  0.9118800E+02  0.7815553E-02  0.1125453E+00
         25   -1    0    0    0    0  0.00000000000E+00  0.00000000000E+00  0.99999998245E-14  0.12509000000E+03  0.12509000000E+03 0.  0.
        -13    1    3    3    0    0  0.21439854600E+02 -0.29283223164E+02  0.36224577816E+02  0.51277731289E+02  0.10566000000E+00 0. -1.
         23    2    1    0    0    0  0.25659578425E+02  0.72208404279E+01  0.92057284379E+01  0.96888937299E+02  0.92693938493E+02 0.  0.
         13    1    3    3    0    0  0.42197238248E+01  0.36504063592E+02 -0.27018849378E+02  0.45611206010E+02  0.10566000000E+00 0.  1.
         22    1    1    0    0    0 -0.25659578425E+02 -0.72208404279E+01 -0.92057284379E+01  0.28201062701E+02  0.00000000000E+00 0. -1.
</event>
<event>
 5    1  0.1259474E-009  0.9118800E+02  0.7815553E-02  0.1125453E+00
         25   -1    0    0    0    0  0.00000000000E+00  0.00000000000E+00  0.99999998245E-14  0.12509000000E+03  0.12509000000E+03 0.  0.
        -13    1    3    3    0    0  0.45616021258E+02 -0.56585540110E+01 -0.37917686486E+02  0.59586934318E+02  0.10566000000E+00 0. -1.
         23    2    1    0    0    0  0.27403385296E+02 -0.57917016463E+01 -0.58336813280E+01  0.96480190992E+02  0.92140686357E+02 0.  0.
         13    1    3    3    0    0 -0.18212635962E+02 -0.13314763529E+00  0.32084005158E+02  0.36893256674E+02  0.10566000000E+00 0.  1.
         22    1    1    0    0    0 -0.27403385296E+02  0.57917016463E+01  0.58336813280E+01  0.28609809008E+02  0.00000000000E+00 0. -1.
</event>
<event>
 5    1  0.1259474E-009  0.9118800E+02  0.7815553E-02  0.1125453E+00
         25   -1    0    0    0    0  0.00000000000E+00  0.00000000000E+00  0.99999998245E-14  0.12509000000E+03  0.12509000000E+03 0.  0.
        -13    1    3    3    0    0 -0.19975790877E+02 -0.56204579834E+02 -0.54915730968E-01  0.59648983187E+02  0.10566000000E+00 0. -1.
         23    2    1    0    0    0  0.35125173609E+01 -0.30080264298E+02 -0.93231375844E+00  0.94791001875E+02  0.89818176051E+02 0.  0.
         13    1    3    3    0    0  0.23488308238E+02  0.26124315537E+02 -0.87739802747E+00  0.35142018688E+02  0.10566000000E+00 0.  1.
         22    1    1    0    0    0 -0.35125173609E+01  0.30080264298E+02  0.93231375844E+00  0.30298998125E+02  0.00000000000E+00 0. -1.
</event>
<event>
 5    1  0.1259474E-009  0.9118800E+02  0.7815553E-02  0.1125453E+00
         25   -1    0    0    0    0  0.00000000000E+00  0.00000000000E+00  0.99999998245E-14  0.12509000000E+03  0.12509000000E+03 0.  0.
        -13    1    3    3    0    0  0.19839789593E+02  0.12006101717E+02  0.38870805609E+02  0.45262726633E+02  0.10566000000E+00 0. -1.
         23    2    1    0    0    0  0.21287207389E+02 -0.20531388866E+02  0.61039139976E+00  0.95508659516E+02  0.90812159635E+02 0.  0.
         13    1    3    3    0    0  0.14474177961E+01 -0.32537490583E+02 -0.38260414209E+02  0.50245932882E+02  0.10566000000E+00 0.  1.
         22    1    1    0    0    0 -0.21287207389E+02  0.20531388866E+02 -0.61039139976E+00  0.29581340484E+02  0.00000000000E+00 0.  1.
</event>
<event>
 4    1  0.1259474E-009  0.9118800E+02  0.7815553E-02  0.1125453E+00
         25   -1    0    0    0    0  0.00000000000E+00  0.00000000000E+00  0.99999998245E-14  0.12509000000E+03  0.12509000000E+03 0.  0.
        -13    1    1    0    0    0 -0.11420188422E+02 -0.19873630282E+02 -0.37395321349E+02  0.43861179955E+02  0.10566000000E+00 0.  1.
         13    1    1    0    0    0  0.23424449824E+02  0.12411822300E+02 -0.12543976884E+02  0.29327814485E+02  0.10566000000E+00 0. -1.
         22    1    1    0    0    0 -0.12004261401E+02  0.74618079823E+01  0.49939298233E+02  0.51901005560E+02  0.00000000000E+00 0. -1.
</event>
<event>
 5    1  0.1259474E-009  0.9118800E+02  0.7815553E-02  0.1125453E+00
         25   -1    0    0    0    0  0.00000000000E+00  0.00000000000E+00  0.99999998245E-14  0.12509000000E+03  0.12509000000E+03 0.  0.
        -13    1    3    3    0    0 -0.37599006293E+01 -0.25622055326E+02 -0.23077616688E+02  0.34687377069E+02  0.10566000000E+00 0. -1.
         23    2    1    0    0    0  0.34554778316E+01  0.98745285236E+01  0.26794312164E+02  0.96325754747E+02  0.91930784956E+02 0.  0.
         13    1    3    3    0    0  0.72153784609E+01  0.35496583850E+02  0.49871928852E+02  0.61638377678E+02  0.10566000000E+00 0.  1.
         22    1    1    0    0    0 -0.34554778316E+01 -0.98745285236E+01 -0.26794312164E+02  0.28764245253E+02  0.00000000000E+00 0.  1.
</event>
<event>
 5    1  0.1259474E-009  0.9118800E+02  0.7815553E-02  0.1125453E+00
         25   -1    0    0    0    0  0.00000000000E+00  0.00000000000E+00  0.99999998245E-14  0.12509000000E+03  0.12509000000E+03 0.  0.
        -13    1    3    3    0    0 -0.32910558332E+02  0.19328869024E+02 -0.34264885669E+01  0.38320516899E+02  0.10566000000E+00 0. -1.
         23    2    1    0    0    0  0.17724143485E+02 -0.15837635659E+02 -0.76667543908E+01  0.10011491064E+03  0.96949678929E+02 0.  0.
         13    1    3    3    0    0  0.50634701817E+02 -0.35166504683E+02 -0.42402658239E+01  0.61794393743E+02  0.10566000000E+00 0.  1.
         22    1    1    0    0    0 -0.17724143485E+02  0.15837635659E+02  0.76667543908E+01  0.24975089358E+02  0.00000000000E+00 0.  1.
</event>
<event>
 5    1  0.1259474E-009  0.9118800E+02  0.7815553E-02  0.1125453E+00
         25   -1    0    0    0    0  0.00000000000E+00  0.00000000000E+00  0.99999998245E-14  0.12509000000E+03  0.12509000000E+03 0.  0.
        -13    1    3    3    0    0 -0.26793676480E+02 -0.13220263387E+02 -0.26556004547E+02  0.39973854016E+02  0.10566000000E+00 0.  1.
         23    2    1    0    0    0 -0.11180596261E+02  0.17443348035E+02  0.18941117939E+02  0.97017912935E+02  0.92867827357E+02 0.  0.
         13    1    3    3    0    0  0.15613080220E+02  0.30663611423E+02  0.45497122486E+02  0.57044058919E+02  0.10566000000E+00 0. -1.
         22    1    1    0    0    0  0.11180596261E+02 -0.17443348035E+02 -0.18941117939E+02  0.28072087065E+02  0.00000000000E+00 0. -1.
</event>
<event>
 5    1  0.1259474E-009  0.9118800E+02  0.7815553E-02  0.1125453E+00
         25   -1    0    0    0    0  0.00000000000E+00  0.00000000000E+00  0.99999998245E-14  0.12509000000E+03  0.12509000000E+03 0.  0.
        -13    1    3    3    0    0 -0.59250839198E+01  0.45712955554E+02 -0.72620344830E+01  0.46664003620E+02  0.10566000000E+00 0. -1.
         23    2    1    0    0    0  0.23833898894E+02  0.10232243395E+02  0.11612825431E+02  0.96671498001E+02  0.92400039339E+02 0.  0.
         13    1    3    3    0    0  0.29758982814E+02 -0.35480712159E+02  0.18874859914E+02  0.50007494381E+02  0.10566000000E+00 0.  1.
         22    1    1    0    0    0 -0.23833898894E+02 -0.10232243395E+02 -0.11612825431E+02  0.28418501999E+02  0.00000000000E+00 0. -1.
</event>
<event>
 5    1  0.1259474E-009  0.9118800E+02  0.7815553E-02  0.1125453E+00
         25   -1    0    0    0    0  0.00000000000E+00  0.00000000000E+00  0.99999998245E-14  0.12509000000E+03  0.12509000000E+03 0.  0.
        -13    1    3    3    0    0 -0.17868749313E+02  0.55870044385E+02 -0.43546255039E+01  0.58819452471E+02  0.10566000000E+00 0.  1.
         23    2    1    0    0    0 -0.73916461141E+01  0.24676779770E+02  0.13232106998E+02  0.96130225351E+02  0.91664342458E+02 0.  0.
         13    1    3    3    0    0  0.10477103199E+02 -0.31193264615E+02  0.17586732502E+02  0.37310772880E+02  0.10566000000E+00 0. -1.
         22    1    1    0    0    0  0.73916461141E+01 -0.24676779770E+02 -0.13232106998E+02  0.28959774649E+02  0.00000000000E+00 0.  1.
</event>
<event>
 5    1  0.1259474E-009  0.9118800E+02  0.7815553E-02  0.1125453E+00
         25   -1    0    0    0    0  0.00000000000E+00  0.00000000000E+00  0.99999998245E-14  0.12509000000E+03  0.12509000000E+03 0.  0.
        -13    1    3    3    0    0  0.54879348194E+02 -0.15726918508E+02 -0.19086926947E+02  0.60194690532E+02  0.10566000000E+00 0.  1.
         23    2    1    0    0    0  0.26561047830E+02 -0.15413063947E+02  0.61274464927E-01  0.94380790361E+02  0.89245044863E+02 0.  0.
         13    1    3    3    0    0 -0.28318300364E+02  0.31385456069E+00  0.19148201412E+02  0.34186099829E+02  0.10566000000E+00 0. -1.
         22    1    1    0    0    0 -0.26561047830E+02  0.15413063947E+02 -0.61274464927E-01  0.30709209639E+02  0.00000000000E+00 0.  1.
</event>
<event>
 5    1  0.1259474E-009  0.9118800E+02  0.7815553E-02  0.1125453E+00
         25   -1    0    0    0    0  0.00000000000E+00  0.00000000000E+00  0.99999998245E-14  0.12509000000E+03  0.12509000000E+03 0.  0.
        -13    1    3    3    0    0 -0.12183318128E+02 -0.14026921015E+02  0.32666211245E+02  0.37580317653E+02  0.10566000000E+00 0. -1.
         23    2    1    0    0    0  0.24537885333E+02  0.16641707986E+02  0.12666693262E+00  0.95440880185E+02  0.90718748363E+02 0.  0.
         13    1    3    3    0    0  0.36721203461E+02  0.30668629001E+02 -0.32539544312E+02  0.57860562532E+02  0.10566000000E+00 0.  1.
         22    1    1    0    0    0 -0.24537885333E+02 -0.16641707986E+02 -0.12666693262E+00  0.29649119815E+02  0.00000000000E+00 0.  1.
</event>
<event>
 5    1  0.1259474E-009  0.9118800E+02  0.7815553E-02  0.1125453E+00
         25   -1    0    0    0    0  0.00000000000E+00  0.00000000000E+00  0.99999998245E-14  0.12509000000E+03  0.12509000000E+03 0.  0.
        -13    1    3    3    0    0 -0.27640441171E+02 -0.35623833248E+02 -0.11391673583E+02  0.46506267045E+02  0.10566000000E+00 0.  1.
         23    2    1    0    0    0  0.10418196526E+02 -0.24658516739E+02  0.15289895051E+02  0.94262055578E+02  0.89078465211E+02 0.  0.
         13    1    3    3    0    0  0.38058637698E+02  0.10965316509E+02  0.26681568634E+02  0.47755788532E+02  0.10566000000E+00 0. -1.
         22    1    1    0    0    0 -0.10418196526E+02  0.24658516739E+02 -0.15289895051E+02  0.30827944422E+02  0.00000000000E+00 0. -1.
</event>
<event>
 5    1  0.1259474E-009  0.9118800E+02  0.7815553E-02  0.1125453E+00
         25   -1    0    0    0    0  0.00000000000E+00  0.00000000000E+00  0.99999998245E-14  0.12509000000E+03  0.12509000000E+03 0.  0.
        -13    1    3    3    0    0 -0.11566948566E+02  0.25828718146E+02 -0.10370202102E+02  0.30140823410E+02  0.10566000000E+00 0.  1.
         23    2    1    0    0    0 -0.57175403494E+01 -0.29018161269E+02  0.16203261687E+02  0.91366274815E+02  0.84914701514E+02 0.  0.
         13    1    3    3    0    0  0.58494082166E+01 -0.54846879414E+02  0.26573463788E+02  0.61225451405E+02  0.10566000000E+00 0. -1.
         22    1    1    0    0    0  0.57175403494E+01  0.29018161269E+02 -0.16203261687E+02  0.33723725185E+02  0.00000000000E+00 0. -1.
</event>
<event>
 5    1  0.1259474E-009  0.9118800E+02  0.7815553E-02  0.1125453E+00
         25   -1    0    0    0    0  0.00000000000E+00  0.00000000000E+00  0.99999998245E-14  0.12509000000E+03  0.12509000000E+03 0.  0.
        -13    1    3    3    0    0 -0.30236919054E+02  0.15213473092E+02 -0.21347850513E+02  0.40018282359E+02  0.10566000000E+00 0. -1.
         23    2    1    0    0    0  0.23682958896E+02  0.15509139632E+02 -0.51812767637E+01  0.96310465899E+02  0.91909979102E+02 0.  0.
         13    1    3    3    0    0  0.53919877950E+02  0.29566654021E+00  0.16166573750E+02  0.56292183540E+02  0.10566000000E+00 0.  1.
         22    1    1    0    0    0 -0.23682958896E+02 -0.15509139632E+02  0.51812767637E+01  0.28779534101E+02  0.00000000000E+00 0. -1.
</event>
<event>
 5    1  0.1259474E-009  0.9118800E+02  0.7815553E-02  0.1125453E+00
         25   -1    0    0    0    0  0.00000000000E+00  0.00000000000E+00  0.99999998245E-14  0.12509000000E+03  0.12509000000E+03 0.  0.
        -13    1    3    3    0    0 -0.11798361210E+02  0.15697579560E+02 -0.30977232428E+02  0.36677178521E+02  0.10566000000E+00 0. -1.
         23    2    1    0    0    0  0.26084290931E+02 -0.50537260936E+00  0.12139127499E+02  0.96314940464E+02  0.91916068809E+02 0.  0.
         13    1    3    3    0    0  0.37882652141E+02 -0.16202952169E+02  0.43116359927E+02  0.59637761944E+02  0.10566000000E+00 0.  1.
         22    1    1    0    0    0 -0.26084290931E+02  0.50537260936E+00 -0.12139127499E+02  0.28775059536E+02  0.00000000000E+00 0.  1.
</event>
<event>
 5    1  0.1259474E-009  0.9118800E+02  0.7815553E-02  0.1125453E+00
         25   -1    0    0    0    0  0.00000000000E+00  0.00000000000E+00  0.99999998245E-14  0.12509000000E+03  0.12509000000E+03 0.  0.
        -13    1    3    3    0    0 -0.14624922856E+02 -0.56836421988E+02  0.79576549988E+00  0.58693369640E+02  0.10566000000E+00 0. -1.
         23    2    1    0    0    0 -0.21043569967E+02 -0.20397743306E+02  0.20202675736E+01  0.95713457487E+02  0.91093823578E+02 0.  0.
         13    1    3    3    0    0 -0.64186471109E+01  0.36438678682E+02  0.12245020737E+01  0.37020087847E+02  0.10566000000E+00 0.  1.
         22    1    1    0    0    0  0.21043569967E+02  0.20397743306E+02 -0.20202675736E+01  0.29376542513E+02  0.00000000000E+00 0.  1.
</event>
<event>
 5    1  0.1259474E-009  0.9118800E+02  0.7815553E-02  0.1125453E+00
         25   -1    0    0    0    0  0.00000000000E+00  0.00000000000E+00  0.99999998245E-14  0.12509000000E+03  0.12509000000E+03 0.  0.
        -13    1    3    3    0    0 -0.39519180404E+02  0.76769235741E+01  0.33478581002E+02  0.52359596306E+02  0.10566000000E+00 0.  1.
         23    2    1    0    0    0 -0.20390351746E+02 -0.19507180831E+02  0.43868039076E+01  0.96532328582E+02  0.92211441072E+02 0.  0.
         13    1    3    3    0    0  0.19128828657E+02 -0.27184104405E+02 -0.29091777095E+02  0.44172732276E+02  0.10566000000E+00 0. -1.
         22    1    1    0    0    0  0.20390351746E+02  0.19507180831E+02 -0.43868039076E+01  0.28557671418E+02  0.00000000000E+00 0.  1.
</event>
<event>
 5    1  0.1259474E-009  0.9118800E+02  0.7815553E-02  0.1125453E+00
         25   -1    0    0    0    0  0.00000000000E+00  0.00000000000E+00  0.99999998245E-14  0.12509000000E+03  0.12509000000E+03 0.  0.
        -13    1    3    3    0    0  0.21831598180E+02  0.50758846407E+01 -0.28888513342E+01  0.22599555528E+02  0.10566000000E+00 0.  1.
         23    2    1    0    0    0 -0.22369564951E+02  0.21460392393E+02  0.31457600498E+02  0.80925234555E+02  0.67811260723E+02 0.  0.
         13    1    3    3    0    0 -0.44201163131E+02  0.16384507752E+02  0.34346451832E+02  0.58325679027E+02  0.10566000000E+00 0. -1.
         22    1    1    0    0    0  0.22369564951E+02 -0.21460392393E+02 -0.31457600498E+02  0.44164765445E+02  0.00000000000E+00 0. -1.
</event>
<event>
 5    1  0.1259474E-009  0.9118800E+02  0.7815553E-02  0.1125453E+00
         25   -1    0    0    0    0  0.00000000000E+00  0.00000000000E+00  0.99999998245E-14  0.12509000000E+03  0.12509000000E+03 0.  0.
        -13    1    3    3    0    0 -0.16550357260E+02  0.12096313149E+02  0.25033311572E+02  0.32356034515E+02  0.10566000000E+00 0. -1.
         23    2    1    0    0    0  0.13529660373E+02 -0.32645847280E+02  0.85705831862E+01  0.88727135006E+02  0.80933593370E+02 0.  0.
         13    1    3    3    0    0  0.30080017633E+02 -0.44742160429E+02 -0.16462728386E+02  0.56371100491E+02  0.10566000000E+00 0.  1.
         22    1    1    0    0    0 -0.13529660373E+02  0.32645847280E+02 -0.85705831862E+01  0.36362864994E+02  0.00000000000E+00 0.  1.
</event>
<event>
 5    1  0.1259474E-009  0.9118800E+02  0.7815553E-02  0.1125453E+00
         25   -1    0    0    0    0  0.00000000000E+00  0.00000000000E+00  0.99999998245E-14  0.12509000000E+03  0.12509000000E+03 0.  0.
        -13    1    3    3    0    0 -0.22282832683E+02 -0.51782100084E+02  0.16624152163E+02  0.58773158165E+02  0.10566000000E+00 0.  1.
         23    2    1    0    0    0 -0.17572164506E+02 -0.19531507163E+02 -0.56064098037E+01  0.98225663634E+02  0.94480624617E+02 0.  0.
         13    1    3    3    0    0  0.47106681766E+01  0.32250592921E+02 -0.22230561966E+02  0.39452505469E+02  0.10566000000E+00 0. -1.
         22    1    1    0    0    0  0.17572164506E+02  0.19531507163E+02  0.56064098037E+01  0.26864336366E+02  0.00000000000E+00 0.  1.
</event>
<event>
 5    1  0.1259474E-009  0.9118800E+02  0.7815553E-02  0.1125453E+00
         25   -1    0    0    0    0  0.00000000000E+00  0.00000000000E+00  0.99999998245E-14  0.12509000000E+03  0.12509000000E+03 0.  0.
        -13    1    3    3    0    0 -0.27851485748E+02  0.63147359529E+01 -0.40926932249E+02  0.49905972547E+02  0.10566000000E+00 0.  1.
         23    2    1    0    0    0 -0.22159474207E+02 -0.17648069403E+02 -0.10915628171E+01  0.96740605647E+02  0.92493549077E+02 0.  0.
         13    1    3    3    0    0  0.56920115408E+01 -0.23962805356E+02  0.39835369431E+02  0.46834633101E+02  0.10566000000E+00 0. -1.
         22    1    1    0    0    0  0.22159474207E+02  0.17648069403E+02  0.10915628171E+01  0.28349394353E+02  0.00000000000E+00 0.  1.
</event>
<event>
 5    1  0.1259474E-009  0.9118800E+02  0.7815553E-02  0.1125453E+00
         25   -1    0    0    0    0  0.00000000000E+00  0.00000000000E+00  0.99999998245E-14  0.12509000000E+03  0.12509000000E+03 0.  0.
        -13    1    3    3    0    0  0.14597300926E+02 -0.18004527403E+02  0.86189968342E+01  0.24729384784E+02  0.10566000000E+00 0. -1.
         23    2    1    0    0    0  0.85524146929E+01  0.34447568224E+02  0.26847095023E+02  0.80586682542E+02  0.67183838371E+02 0.  0.
         13    1    3    3    0    0 -0.60448862331E+01  0.52452095627E+02  0.18228098189E+02  0.55857297758E+02  0.10566000000E+00 0.  1.
         22    1    1    0    0    0 -0.85524146929E+01 -0.34447568224E+02 -0.26847095023E+02  0.44503317458E+02  0.00000000000E+00 0.  1.
</event>
<event>
 5    1  0.1259474E-009  0.9118800E+02  0.7815553E-02  0.1125453E+00
         25   -1    0    0    0    0  0.00000000000E+00  0.00000000000E+00  0.99999998245E-14  0.12509000000E+03  0.12509000000E+03 0.  0.
        -13    1    3    3    0    0 -0.48983718784E+02  0.17597380937E+02  0.28963542551E+02  0.59564842675E+02  0.10566000000E+00 0.  1.
         23    2    1    0    0    0 -0.15695683299E+02  0.96605811675E+01  0.25022850283E+02  0.94012285493E+02  0.88727027926E+02 0.  0.
         13    1    3    3    0    0  0.33288035486E+02 -0.79367997699E+01 -0.39406922680E+01  0.34447442817E+02  0.10566000000E+00 0. -1.
         22    1    1    0    0    0  0.15695683299E+02 -0.96605811675E+01 -0.25022850283E+02  0.31077714507E+02  0.00000000000E+00 0.  1.
</event>
<event>
 5    1  0.1259474E-009  0.9118800E+02  0.7815553E-02  0.1125453E+00
         25   -1    0    0    0    0  0.00000000000E+00  0.00000000000E+00  0.99999998245E-14  0.12509000000E+03  0.12509000000E+03 0.  0.
        -13    1    3    3    0    0  0.30664912976E+02 -0.40106117578E+02 -0.18595580816E+02  0.53801899082E+02  0.10566000000E+00 0. -1.
         23    2    1    0    0    0 -0.66011939714E+01 -0.27813218856E+02 -0.19192267576E+01  0.96439793433E+02  0.92085826386E+02 0.  0.
         13    1    3    3    0    0 -0.37266106947E+02  0.12292898722E+02  0.16676354058E+02  0.42637894351E+02  0.10566000000E+00 0.  1.
         22    1    1    0    0    0  0.66011939714E+01  0.27813218856E+02  0.19192267576E+01  0.28650206567E+02  0.00000000000E+00 0.  1.
</event>
<event>
 5    1  0.1259474E-009  0.9118800E+02  0.7815553E-02  0.1125453E+00
         25   -1    0    0    0    0  0.00000000000E+00  0.00000000000E+00  0.99999998245E-14  0.12509000000E+03  0.12509000000E+03 0.  0.
        -13    1    3    3    0    0 -0.26405936010E+02  0.16846421244E+02 -0.28284528000E+02  0.42203092938E+02  0.10566000000E+00 0.  1.
         23    2    1    0    0    0  0.10939029197E+02  0.25808650204E+02  0.89195898118E+01  0.95673884221E+02  0.91039465367E+02 0.  0.
         13    1    3    3    0    0  0.37344965206E+02  0.89622289604E+01  0.37204117812E+02  0.53470791283E+02  0.10566000000E+00 0. -1.
         22    1    1    0    0    0 -0.10939029197E+02 -0.25808650204E+02 -0.89195898118E+01  0.29416115779E+02  0.00000000000E+00 0.  1.
</event>
<event>
 4    1  0.1259474E-009  0.9118800E+02  0.7815553E-02  0.1125453E+00
         25   -1    0    0    0    0  0.00000000000E+00  0.00000000000E+00  0.99999998245E-14  0.12509000000E+03  0.12509000000E+03 0.  0.
        -13    1    1    0    0    0 -0.20695181578E+01 -0.10625798259E+02  0.86308068617E+01  0.13845305528E+02  0.10566000000E+00 0. -1.
         13    1    1    0    0    0  0.28624423399E+00  0.33890333291E+02  0.42903105571E+02  0.54674713150E+02  0.10566000000E+00 0.  1.
         22    1    1    0    0    0  0.17832739238E+01 -0.23264535032E+02 -0.51533912433E+02  0.56569981322E+02  0.00000000000E+00 0.  1.
</event>
<event>
 5    1  0.1259474E-009  0.9118800E+02  0.7815553E-02  0.1125453E+00
         25   -1    0    0    0    0  0.00000000000E+00  0.00000000000E+00  0.99999998245E-14  0.12509000000E+03  0.12509000000E+03 0.  0.
        -13    1    3    3    0    0  0.11578748406E+02 -0.18719051006E+02 -0.35009645285E+02  0.41354041063E+02  0.10566000000E+00 0. -1.
         23    2    1    0    0    0 -0.14086316148E+02  0.22982976920E+02 -0.14902931923E+02  0.94288394350E+02  0.89115444220E+02 0.  0.
         13    1    3    3    0    0 -0.25665064554E+02  0.41702027926E+02  0.20106713362E+02  0.52934353287E+02  0.10566000000E+00 0.  1.
         22    1    1    0    0    0  0.14086316148E+02 -0.22982976920E+02  0.14902931923E+02  0.30801605650E+02  0.00000000000E+00 0.  1.
</event>
<event>
 5    1  0.1259474E-009  0.9118800E+02  0.7815553E-02  0.1125453E+00
         25   -1    0    0    0    0  0.00000000000E+00  0.00000000000E+00  0.99999998245E-14  0.12509000000E+03  0.12509000000E+03 0.  0.
        -13    1    3    3    0    0  0.47425431613E+02 -0.22660344377E+02  0.22571146731E+02  0.57202540151E+02  0.10566000000E+00 0.  1.
         23    2    1    0    0    0  0.91359694141E+01 -0.63799098993E+01  0.23781626141E+02  0.98827194945E+02  0.95273708500E+02 0.  0.
         13    1    3    3    0    0 -0.38289462199E+02  0.16280434478E+02  0.12104794092E+01  0.41624654794E+02  0.10566000000E+00 0. -1.
         22    1    1    0    0    0 -0.91359694141E+01  0.63799098993E+01 -0.23781626141E+02  0.26262805055E+02  0.00000000000E+00 0.  1.
</event>
<event>
 5    1  0.1259474E-009  0.9118800E+02  0.7815553E-02  0.1125453E+00
         25   -1    0    0    0    0  0.00000000000E+00  0.00000000000E+00  0.99999998245E-14  0.12509000000E+03  0.12509000000E+03 0.  0.
        -13    1    3    3    0    0 -0.39944885166E+02 -0.22138476744E+02  0.41251762198E+02  0.61542059211E+02  0.10566000000E+00 0. -1.
         23    2    1    0    0    0 -0.24098844117E+02 -0.45444336380E+01  0.18596135724E+02  0.94313021125E+02  0.89150005748E+02 0.  0.
         13    1    3    3    0    0  0.15846041049E+02  0.17594043106E+02 -0.22655626475E+02  0.32770961913E+02  0.10566000000E+00 0.  1.
         22    1    1    0    0    0  0.24098844117E+02  0.45444336380E+01 -0.18596135724E+02  0.30776978875E+02  0.00000000000E+00 0. -1.
</event>
<event>
 5    1  0.1259474E-009  0.9118800E+02  0.7815553E-02  0.1125453E+00
         25   -1    0    0    0    0  0.00000000000E+00  0.00000000000E+00  0.99999998245E-14  0.12509000000E+03  0.12509000000E+03 0.  0.
        -13    1    3    3    0    0 -0.61914163568E-01 -0.16793872683E+02  0.41890943613E+02  0.45132032016E+02  0.10566000000E+00 0.  1.
         23    2    1    0    0    0 -0.18260415382E+02  0.19764377575E+02  0.12666740093E+02  0.95349124165E+02  0.90592139745E+02 0.  0.
         13    1    3    3    0    0 -0.18198501218E+02  0.36558250258E+02 -0.29224203520E+02  0.50217092149E+02  0.10566000000E+00 0. -1.
         22    1    1    0    0    0  0.18260415382E+02 -0.19764377575E+02 -0.12666740093E+02  0.29740875835E+02  0.00000000000E+00 0. -1.
</event>
<event>
 5    1  0.1259474E-009  0.9118800E+02  0.7815553E-02  0.1125453E+00
         25   -1    0    0    0    0  0.00000000000E+00  0.00000000000E+00  0.99999998245E-14  0.12509000000E+03  0.12509000000E+03 0.  0.
        -13    1    3    3    0    0  0.78640236061E+01 -0.38737346215E+02 -0.80340075033E+01  0.40335856253E+02  0.10566000000E+00 0.  1.
         23    2    1    0    0    0 -0.26971689155E+02  0.12026795393E+01  0.99720934395E+01  0.96308736972E+02  0.91907625992E+02 0.  0.
         13    1    3    3    0    0 -0.34835712761E+02  0.39940025754E+02  0.18006100943E+02  0.55972880719E+02  0.10566000000E+00 0. -1.
         22    1    1    0    0    0  0.26971689155E+02 -0.12026795393E+01 -0.99720934395E+01  0.28781263028E+02  0.00000000000E+00 0. -1.
</event>
<event>
 5    1  0.1259474E-009  0.9118800E+02  0.7815553E-02  0.1125453E+00
         25   -1    0    0    0    0  0.00000000000E+00  0.00000000000E+00  0.99999998245E-14  0.12509000000E+03  0.12509000000E+03 0.  0.
        -13    1    3    3    0    0  0.17445245128E+02  0.26509127585E+02  0.31805724305E+02  0.44929786172E+02  0.10566000000E+00 0. -1.
         23    2    1    0    0    0 -0.30443962312E+01 -0.20170046170E+02  0.63696699652E+00  0.10468154984E+03  0.10267288853E+03 0.  0.
         13    1    3    3    0    0 -0.20489641360E+02 -0.46679173755E+02 -0.31168757308E+02  0.59751763670E+02  0.10566000000E+00 0.  1.
         22    1    1    0    0    0  0.30443962312E+01  0.20170046170E+02 -0.63696699652E+00  0.20408450158E+02  0.00000000000E+00 0.  1.
</event>
<event>
 5    1  0.1259474E-009  0.9118800E+02  0.7815553E-02  0.1125453E+00
         25   -1    0    0    0    0  0.00000000000E+00  0.00000000000E+00  0.99999998245E-14  0.12509000000E+03  0.12509000000E+03 0.  0.
        -13    1    3    3    0    0 -0.64333800227E+01  0.48637971105E+02  0.88927662154E+01  0.49861137840E+02  0.10566000000E+00 0. -1.
         23    2    1    0    0    0  0.21912951401E+02  0.16411660481E+02  0.16022749888E+02  0.93368578960E+02  0.87814822121E+02 0.  0.
         13    1    3    3    0    0  0.28346331423E+02 -0.32226310624E+02  0.71299836726E+01  0.43507441120E+02  0.10566000000E+00 0.  1.
         22    1    1    0    0    0 -0.21912951401E+02 -0.16411660481E+02 -0.16022749888E+02  0.31721421040E+02  0.00000000000E+00 0. -1.
</event>
<event>
 5    1  0.1259474E-009  0.9118800E+02  0.7815553E-02  0.1125453E+00
         25   -1    0    0    0    0  0.00000000000E+00  0.00000000000E+00  0.99999998245E-14  0.12509000000E+03  0.12509000000E+03 0.  0.
        -13    1    3    3    0    0  0.10110168123E+02 -0.31174023063E+02 -0.12506830028E+02  0.35078015548E+02  0.10566000000E+00 0.  1.
         23    2    1    0    0    0 -0.18207188965E+02  0.21681505432E+02  0.17867513413E+01  0.96721322058E+02  0.92467465913E+02 0.  0.
         13    1    3    3    0    0 -0.28317357089E+02  0.52855528496E+02  0.14293581369E+02  0.61643306509E+02  0.10566000000E+00 0. -1.
         22    1    1    0    0    0  0.18207188965E+02 -0.21681505432E+02 -0.17867513413E+01  0.28368677942E+02  0.00000000000E+00 0. -1.
</event>
<event>
 5    1  0.1259474E-009  0.9118800E+02  0.7815553E-02  0.1125453E+00
         25   -1    0    0    0    0  0.00000000000E+00  0.00000000000E+00  0.99999998245E-14  0.12509000000E+03  0.12509000000E+03 0.  0.
        -13    1    3    3    0    0  0.32411627408E+02 -0.30915647108E+02 -0.16975829432E+02  0.47900738786E+02  0.10566000000E+00 0.  1.
         23    2    1    0    0    0  0.24338117196E+02  0.26962612390E+01  0.16132588341E+02  0.95766388696E+02  0.91166479717E+02 0.  0.
         13    1    3    3    0    0 -0.80735102124E+01  0.33611908347E+02  0.33108417773E+02  0.47865649910E+02  0.10566000000E+00 0. -1.
         22    1    1    0    0    0 -0.24338117196E+02 -0.26962612390E+01 -0.16132588341E+02  0.29323611304E+02  0.00000000000E+00 0.  1.
</event>
<event>
 5    1  0.1259474E-009  0.9118800E+02  0.7815553E-02  0.1125453E+00
         25   -1    0    0    0    0  0.00000000000E+00  0.00000000000E+00  0.99999998245E-14  0.12509000000E+03  0.12509000000E+03 0.  0.
        -13    1    3    3    0    0 -0.19251664783E+02  0.13828483255E+02 -0.51295809843E+02  0.56507741217E+02  0.10566000000E+00 0.  1.
         23    2    1    0    0    0 -0.75788069105E+01  0.24052197238E+02 -0.15583675029E+02  0.95445482234E+02  0.90725093801E+02 0.  0.
         13    1    3    3    0    0  0.11672857872E+02  0.10223713983E+02  0.35712134813E+02  0.38937741016E+02  0.10566000000E+00 0. -1.
         22    1    1    0    0    0  0.75788069105E+01 -0.24052197238E+02  0.15583675029E+02  0.29644517766E+02  0.00000000000E+00 0.  1.
</event>
<event>
 5    1  0.1259474E-009  0.9118800E+02  0.7815553E-02  0.1125453E+00
         25   -1    0    0    0    0  0.00000000000E+00  0.00000000000E+00  0.99999998245E-14  0.12509000000E+03  0.12509000000E+03 0.  0.
        -13    1    3    3    0    0  0.17089566755E+02 -0.32229930833E+02 -0.14045116845E+02  0.39090896697E+02  0.10566000000E+00 0.  1.
         23    2    1    0    0    0 -0.28442384655E+02  0.89219916546E+00 -0.65175092396E+01  0.95896795467E+02  0.91345236274E+02 0.  0.
         13    1    3    3    0    0 -0.45531951410E+02  0.33122129998E+02  0.75276076050E+01  0.56805898770E+02  0.10566000000E+00 0. -1.
         22    1    1    0    0    0  0.28442384655E+02 -0.89219916546E+00  0.65175092396E+01  0.29193204533E+02  0.00000000000E+00 0. -1.
</event>
<event>
 5    1  0.1259474E-009  0.9118800E+02  0.7815553E-02  0.1125453E+00
         25   -1    0    0    0    0  0.00000000000E+00  0.00000000000E+00  0.99999998245E-14  0.12509000000E+03  0.12509000000E+03 0.  0.
        -13    1    3    3    0    0  0.11666870630E+02  0.39983089286E+02  0.63673078735E+01  0.42134511659E+02  0.10566000000E+00 0. -1.
         23    2    1    0    0    0 -0.25504875955E+02  0.79190868449E+01 -0.13588317294E+02  0.95125804686E+02  0.90283252690E+02 0.  0.
         13    1    3    3    0    0 -0.37171746585E+02 -0.32064002441E+02 -0.19955625167E+02  0.52991293026E+02  0.10566000000E+00 0.  1.
         22    1    1    0    0    0  0.25504875955E+02 -0.79190868449E+01  0.13588317294E+02  0.29964195314E+02  0.00000000000E+00 0.  1.
</event>
<event>
 5    1  0.1259474E-009  0.9118800E+02  0.7815553E-02  0.1125453E+00
         25   -1    0    0    0    0  0.00000000000E+00  0.00000000000E+00  0.99999998245E-14  0.12509000000E+03  0.12509000000E+03 0.  0.
        -13    1    3    3    0    0  0.82744767085E+01  0.54304668736E+02  0.38512804485E+01  0.55066392078E+02  0.10566000000E+00 0.  1.
         23    2    1    0    0    0 -0.60927313883E+00  0.18730183925E+02  0.22174857567E+02  0.96056996164E+02  0.91564355512E+02 0.  0.
         13    1    3    3    0    0 -0.88837498474E+01 -0.35574484811E+02  0.18323577118E+02  0.40990604086E+02  0.10566000000E+00 0. -1.
         22    1    1    0    0    0  0.60927313883E+00 -0.18730183925E+02 -0.22174857567E+02  0.29033003836E+02  0.00000000000E+00 0.  1.
</event>
<event>
 5    1  0.1259474E-009  0.9118800E+02  0.7815553E-02  0.1125453E+00
         25   -1    0    0    0    0  0.00000000000E+00  0.00000000000E+00  0.99999998245E-14  0.12509000000E+03  0.12509000000E+03 0.  0.
        -13    1    3    3    0    0 -0.19669794552E+02 -0.14759905397E+02 -0.42965102455E+02  0.49505220109E+02  0.10566000000E+00 0.  1.
         23    2    1    0    0    0 -0.23387619629E+02  0.65412169172E+01  0.33072691781E+01  0.10058068952E+03  0.97548802169E+02 0.  0.
         13    1    3    3    0    0 -0.37178250773E+01  0.21301122315E+02  0.46272371633E+02  0.51075469413E+02  0.10566000000E+00 0. -1.
         22    1    1    0    0    0  0.23387619629E+02 -0.65412169172E+01 -0.33072691781E+01  0.24509310478E+02  0.00000000000E+00 0.  1.
</event>
<event>
 5    1  0.1259474E-009  0.9118800E+02  0.7815553E-02  0.1125453E+00
         25   -1    0    0    0    0  0.00000000000E+00  0.00000000000E+00  0.99999998245E-14  0.12509000000E+03  0.12509000000E+03 0.  0.
        -13    1    3    3    0    0  0.83381994509E+01  0.18109671088E+02 -0.51343894972E+02  0.55078965784E+02  0.10566000000E+00 0. -1.
         23    2    1    0    0    0 -0.17270406953E+02  0.38368015144E+01 -0.24790995966E+02  0.94633777595E+02  0.89598941840E+02 0.  0.
         13    1    3    3    0    0 -0.25608606403E+02 -0.14272869573E+02  0.26552899006E+02  0.39554811811E+02  0.10566000000E+00 0.  1.
         22    1    1    0    0    0  0.17270406953E+02 -0.38368015144E+01  0.24790995966E+02  0.30456222405E+02  0.00000000000E+00 0. -1.
</event>
<event>
 5    1  0.1259474E-009  0.9118800E+02  0.7815553E-02  0.1125453E+00
         25   -1    0    0    0    0  0.00000000000E+00  0.00000000000E+00  0.99999998245E-14  0.12509000000E+03  0.12509000000E+03 0.  0.
        -13    1    3    3    0    0 -0.27638876177E+02 -0.13107852171E+02 -0.48937736036E+02  0.57711666387E+02  0.10566000000E+00 0. -1.
         23    2    1    0    0    0  0.56159644225E+00 -0.17607028945E+02 -0.21250686001E+02  0.97487200969E+02  0.93497806597E+02 0.  0.
         13    1    3    3    0    0  0.28200472619E+02 -0.44991767738E+01  0.27687050035E+02  0.39775534582E+02  0.10566000000E+00 0.  1.
         22    1    1    0    0    0 -0.56159644225E+00  0.17607028945E+02  0.21250686001E+02  0.27602799031E+02  0.00000000000E+00 0.  1.
</event>
<event>
 5    1  0.1259474E-009  0.9118800E+02  0.7815553E-02  0.1125453E+00
         25   -1    0    0    0    0  0.00000000000E+00  0.00000000000E+00  0.99999998245E-14  0.12509000000E+03  0.12509000000E+03 0.  0.
        -13    1    3    3    0    0 -0.23883194705E+02 -0.50089272598E+01  0.42695867332E+02  0.49177683891E+02  0.10566000000E+00 0. -1.
         23    2    1    0    0    0  0.17556878691E+02  0.61692191583E+01  0.20154471632E+02  0.97658157533E+02  0.93726249000E+02 0.  0.
         13    1    3    3    0    0  0.41440073396E+02  0.11178146418E+02 -0.22541395700E+02  0.48480473642E+02  0.10566000000E+00 0.  1.
         22    1    1    0    0    0 -0.17556878691E+02 -0.61692191583E+01 -0.20154471632E+02  0.27431842467E+02  0.00000000000E+00 0. -1.
</event>
<event>
 5    1  0.1259474E-009  0.9118800E+02  0.7815553E-02  0.1125453E+00
         25   -1    0    0    0    0  0.00000000000E+00  0.00000000000E+00  0.99999998245E-14  0.12509000000E+03  0.12509000000E+03 0.  0.
        -13    1    3    3    0    0 -0.29629075141E+02 -0.84811439558E+01 -0.17094882873E+02  0.35242844394E+02  0.10566000000E+00 0. -1.
         23    2    1    0    0    0  0.14273876386E+02  0.32765950248E+01  0.24299656220E+02  0.96718307868E+02  0.92463388227E+02 0.  0.
         13    1    3    3    0    0  0.43902951526E+02  0.11757738981E+02  0.41394539093E+02  0.61475463474E+02  0.10566000000E+00 0.  1.
         22    1    1    0    0    0 -0.14273876386E+02 -0.32765950248E+01 -0.24299656220E+02  0.28371692132E+02  0.00000000000E+00 0.  1.
</event>
<event>
 5    1  0.1259474E-009  0.9118800E+02  0.7815553E-02  0.1125453E+00
         25   -1    0    0    0    0  0.00000000000E+00  0.00000000000E+00  0.99999998245E-14  0.12509000000E+03  0.12509000000E+03 0.  0.
        -13    1    3    3    0    0  0.25715551275E+02 -0.25756748944E-01  0.23756224508E+02  0.35009421699E+02  0.10566000000E+00 0.  1.
         23    2    1    0    0    0 -0.28536354934E+02 -0.65804665362E+00 -0.45185035989E+01  0.96190632306E+02  0.91746739944E+02 0.  0.
         13    1    3    3    0    0 -0.54251906209E+02 -0.63228990468E+00 -0.28274728107E+02  0.61181210607E+02  0.10566000000E+00 0. -1.
         22    1    1    0    0    0  0.28536354934E+02  0.65804665362E+00  0.45185035989E+01  0.28899367694E+02  0.00000000000E+00 0. -1.
</event>
<event>
 5    1  0.1259474E-009  0.9118800E+02  0.7815553E-02  0.1125453E+00
         25   -1    0    0    0    0  0.00000000000E+00  0.00000000000E+00  0.99999998245E-14  0.12509000000E+03  0.12509000000E+03 0.  0.
        -13    1    3    3    0    0  0.19135561499E+02 -0.47888738599E+02  0.29964214448E+02  0.59643661105E+02  0.10566000000E+00 0. -1.
         23    2    1    0    0    0 -0.22161201736E+01 -0.26355226933E+02  0.68616508184E+01  0.97766174732E+02  0.93870301451E+02 0.  0.
         13    1    3    3    0    0 -0.21351681673E+02  0.21533511666E+02 -0.23102563630E+02  0.38122513627E+02  0.10566000000E+00 0.  1.
         22    1    1    0    0    0  0.22161201736E+01  0.26355226933E+02 -0.68616508184E+01  0.27323825268E+02  0.00000000000E+00 0. -1.
</event>
<event>
 5    1  0.1259474E-009  0.9118800E+02  0.7815553E-02  0.1125453E+00
         25   -1    0    0    0    0  0.00000000000E+00  0.00000000000E+00  0.99999998245E-14  0.12509000000E+03  0.12509000000E+03 0.  0.
        -13    1    3    3    0    0  0.38694523258E+02  0.38729703885E+02 -0.71792089527E+01  0.55216014872E+02  0.10566000000E+00 0.  1.
         23    2    1    0    0    0  0.25903419412E+02  0.45640085385E+01 -0.17940312396E+02  0.93251782084E+02  0.87648290011E+02 0.  0.
         13    1    3    3    0    0 -0.12791103846E+02 -0.34165695346E+02 -0.10761103443E+02  0.38035767212E+02  0.10566000000E+00 0. -1.
         22    1    1    0    0    0 -0.25903419412E+02 -0.45640085385E+01  0.17940312396E+02  0.31838217916E+02  0.00000000000E+00 0.  1.
</event>
<event>
 5    1  0.1259474E-009  0.9118800E+02  0.7815553E-02  0.1125453E+00
         25   -1    0    0    0    0  0.00000000000E+00  0.00000000000E+00  0.99999998245E-14  0.12509000000E+03  0.12509000000E+03 0.  0.
        -13    1    3    3    0    0  0.11691342350E+02  0.39260184205E+01 -0.44741704746E+02  0.46410477419E+02  0.10566000000E+00 0.  1.
         23    2    1    0    0    0  0.23370534206E+02  0.11034078095E+02  0.56594291984E+01  0.98633207161E+02  0.95018670099E+02 0.  0.
         13    1    3    3    0    0  0.11679191857E+02  0.71080596743E+01  0.50401133945E+02  0.52222729742E+02  0.10566000000E+00 0. -1.
         22    1    1    0    0    0 -0.23370534206E+02 -0.11034078095E+02 -0.56594291984E+01  0.26456792839E+02  0.00000000000E+00 0. -1.
</event>
<event>
 5    1  0.1259474E-009  0.9118800E+02  0.7815553E-02  0.1125453E+00
         25   -1    0    0    0    0  0.00000000000E+00  0.00000000000E+00  0.99999998245E-14  0.12509000000E+03  0.12509000000E+03 0.  0.
        -13    1    3    3    0    0 -0.34262222115E+02  0.14235830933E+02  0.10428654068E+02  0.38539936901E+02  0.10566000000E+00 0. -1.
         23    2    1    0    0    0  0.17939279974E+02  0.19671374613E+02 -0.12335687820E+02  0.95748051545E+02  0.91141315743E+02 0.  0.
         13    1    3    3    0    0  0.52201502089E+02  0.54355436803E+01 -0.22764341888E+02  0.57208114644E+02  0.10566000000E+00 0.  1.
         22    1    1    0    0    0 -0.17939279974E+02 -0.19671374613E+02  0.12335687820E+02  0.29341948455E+02  0.00000000000E+00 0.  1.
</event>
<event>
 5    1  0.1259474E-009  0.9118800E+02  0.7815553E-02  0.1125453E+00
         25   -1    0    0    0    0  0.00000000000E+00  0.00000000000E+00  0.99999998245E-14  0.12509000000E+03  0.12509000000E+03 0.  0.
        -13    1    3    3    0    0  0.13884953127E+02 -0.53335956428E+02  0.13330541464E+01  0.55129886348E+02  0.10566000000E+00 0. -1.
         23    2    1    0    0    0  0.21811763910E+02 -0.10425942788E+02  0.87260894998E+01  0.99387899583E+02  0.96007065458E+02 0.  0.
         13    1    3    3    0    0  0.79268107826E+01  0.42910013640E+02  0.73930353534E+01  0.44258013235E+02  0.10566000000E+00 0.  1.
         22    1    1    0    0    0 -0.21811763910E+02  0.10425942788E+02 -0.87260894998E+01  0.25702100417E+02  0.00000000000E+00 0. -1.
</event>
<event>
 5    1  0.1259474E-009  0.9118800E+02  0.7815553E-02  0.1125453E+00
         25   -1    0    0    0    0  0.00000000000E+00  0.00000000000E+00  0.99999998245E-14  0.12509000000E+03  0.12509000000E+03 0.  0.
        -13    1    3    3    0    0  0.16502573789E+02  0.18473803922E+02 -0.19832057812E+02  0.31732287250E+02  0.10566000000E+00 0.  1.
         23    2    1    0    0    0 -0.37193877553E+01  0.59258043756E+01  0.33887631206E+02  0.90487679969E+02  0.83610404105E+02 0.  0.
         13    1    3    3    0    0 -0.20221961545E+02 -0.12547999547E+02  0.53719689018E+02  0.58755392719E+02  0.10566000000E+00 0. -1.
         22    1    1    0    0    0  0.37193877553E+01 -0.59258043756E+01 -0.33887631206E+02  0.34602320031E+02  0.00000000000E+00 0. -1.
</event>
<event>
 5    1  0.1259474E-009  0.9118800E+02  0.7815553E-02  0.1125453E+00
         25   -1    0    0    0    0  0.00000000000E+00  0.00000000000E+00  0.99999998245E-14  0.12509000000E+03  0.12509000000E+03 0.  0.
        -13    1    3    3    0    0  0.70548834737E+01 -0.15077394384E+02  0.35932706763E+02  0.39601386107E+02  0.10566000000E+00 0.  1.
         23    2    1    0    0    0  0.11055152338E+02  0.25471174723E+02 -0.44506267347E+01  0.96968740901E+02  0.92801570561E+02 0.  0.
         13    1    3    3    0    0  0.40002688639E+01  0.40548569107E+02 -0.40383333498E+02  0.57367354794E+02  0.10566000000E+00 0. -1.
         22    1    1    0    0    0 -0.11055152338E+02 -0.25471174723E+02  0.44506267347E+01  0.28121259099E+02  0.00000000000E+00 0. -1.
</event>
<event>
 5    1  0.1259474E-009  0.9118800E+02  0.7815553E-02  0.1125453E+00
         25   -1    0    0    0    0  0.00000000000E+00  0.00000000000E+00  0.99999998245E-14  0.12509000000E+03  0.12509000000E+03 0.  0.
        -13    1    3    3    0    0 -0.22070772457E+02  0.21684105460E+02  0.21676404525E+02  0.37778262316E+02  0.10566000000E+00 0. -1.
         23    2    1    0    0    0  0.11339429512E+02  0.19496027523E+02 -0.22515173923E+02  0.93221350709E+02  0.87604848156E+02 0.  0.
         13    1    3    3    0    0  0.33410201969E+02 -0.21880779372E+01 -0.44191578449E+02  0.55443088393E+02  0.10566000000E+00 0.  1.
         22    1    1    0    0    0 -0.11339429512E+02 -0.19496027523E+02  0.22515173923E+02  0.31868649291E+02  0.00000000000E+00 0.  1.
</event>
<event>
 5    1  0.1259474E-009  0.9118800E+02  0.7815553E-02  0.1125453E+00
         25   -1    0    0    0    0  0.00000000000E+00  0.00000000000E+00  0.99999998245E-14  0.12509000000E+03  0.12509000000E+03 0.  0.
        -13    1    3    3    0    0  0.33650806698E+01  0.27720393744E+02  0.15564638071E+02  0.31968939919E+02  0.10566000000E+00 0.  1.
         23    2    1    0    0    0  0.86746208959E+00 -0.15473758142E+02 -0.27822432394E+02  0.93242277541E+02  0.87634724255E+02 0.  0.
         13    1    3    3    0    0 -0.24976185802E+01 -0.43194151886E+02 -0.43387070465E+02  0.61273337622E+02  0.10566000000E+00 0. -1.
         22    1    1    0    0    0 -0.86746208959E+00  0.15473758142E+02  0.27822432394E+02  0.31847722459E+02  0.00000000000E+00 0. -1.
</event>
<event>
 5    1  0.1259474E-009  0.9118800E+02  0.7815553E-02  0.1125453E+00
         25   -1    0    0    0    0  0.00000000000E+00  0.00000000000E+00  0.99999998245E-14  0.12509000000E+03  0.12509000000E+03 0.  0.
        -13    1    3    3    0    0 -0.55749856434E+02 -0.13489069927E+02  0.99406957985E+01  0.58213659023E+02  0.10566000000E+00 0.  1.
         23    2    1    0    0    0 -0.22293685259E+02 -0.18700058426E+02 -0.55809443314E+01  0.95461508185E+02  0.90747187382E+02 0.  0.
         13    1    3    3    0    0  0.33456171175E+02 -0.52109884995E+01 -0.15521640130E+02  0.37247849162E+02  0.10566000000E+00 0. -1.
         22    1    1    0    0    0  0.22293685259E+02  0.18700058426E+02  0.55809443314E+01  0.29628491815E+02  0.00000000000E+00 0.  1.
</event>
<event>
 5    1  0.1259474E-009  0.9118800E+02  0.7815553E-02  0.1125453E+00
         25   -1    0    0    0    0  0.00000000000E+00  0.00000000000E+00  0.99999998245E-14  0.12509000000E+03  0.12509000000E+03 0.  0.
        -13    1    3    3    0    0 -0.43890727795E+02  0.66122771087E+01 -0.23886766740E+02  0.50405426139E+02  0.10566000000E+00 0.  1.
         23    2    1    0    0    0  0.65426177845E+00  0.19430429279E+02 -0.20431742218E+02  0.96886707098E+02  0.92690928800E+02 0.  0.
         13    1    3    3    0    0  0.44544989573E+02  0.12818152171E+02  0.34550245225E+01  0.46481280959E+02  0.10566000000E+00 0. -1.
         22    1    1    0    0    0 -0.65426177845E+00 -0.19430429279E+02  0.20431742218E+02  0.28203292902E+02  0.00000000000E+00 0.  1.
</event>
<event>
 5    1  0.1259474E-009  0.9118800E+02  0.7815553E-02  0.1125453E+00
         25   -1    0    0    0    0  0.00000000000E+00  0.00000000000E+00  0.99999998245E-14  0.12509000000E+03  0.12509000000E+03 0.  0.
        -13    1    3    3    0    0 -0.10587910137E+01 -0.65952530926E+01 -0.42153392670E+02  0.42679480777E+02  0.10566000000E+00 0.  1.
         23    2    1    0    0    0 -0.26795250340E+02  0.64553557025E+01  0.41287657697E+01  0.97220594466E+02  0.93140432807E+02 0.  0.
         13    1    3    3    0    0 -0.25736459327E+02  0.13050608795E+02  0.46282158439E+02  0.54541113689E+02  0.10566000000E+00 0. -1.
         22    1    1    0    0    0  0.26795250340E+02 -0.64553557025E+01 -0.41287657697E+01  0.27869405534E+02  0.00000000000E+00 0. -1.
</event>
<event>
 5    1  0.1259474E-009  0.9118800E+02  0.7815553E-02  0.1125453E+00
         25   -1    0    0    0    0  0.00000000000E+00  0.00000000000E+00  0.99999998245E-14  0.12509000000E+03  0.12509000000E+03 0.  0.
        -13    1    3    3    0    0  0.48728049146E+02  0.31391505212E+02 -0.56363698570E+01  0.58237695716E+02  0.10566000000E+00 0. -1.
         23    2    1    0    0    0  0.24205888100E+02  0.49663224496E+01 -0.15882300909E+02  0.95715915171E+02  0.91097198406E+02 0.  0.
         13    1    3    3    0    0 -0.24522161046E+02 -0.26425182763E+02 -0.10245931052E+02  0.37478219455E+02  0.10566000000E+00 0.  1.
         22    1    1    0    0    0 -0.24205888100E+02 -0.49663224496E+01  0.15882300909E+02  0.29374084829E+02  0.00000000000E+00 0. -1.
</event>
<event>
 5    1  0.1259474E-009  0.9118800E+02  0.7815553E-02  0.1125453E+00
         25   -1    0    0    0    0  0.00000000000E+00  0.00000000000E+00  0.99999998245E-14  0.12509000000E+03  0.12509000000E+03 0.  0.
        -13    1    3    3    0    0  0.18500197396E+02 -0.30872017815E+02  0.18863950880E+02  0.40634943023E+02  0.10566000000E+00 0.  1.
         23    2    1    0    0    0  0.28187285443E+02  0.62521622182E+01 -0.15656229254E+02  0.92245973032E+02  0.86200866777E+02 0.  0.
         13    1    3    3    0    0  0.96870880468E+01  0.37124180033E+02 -0.34520180134E+02  0.51611030008E+02  0.10566000000E+00 0. -1.
         22    1    1    0    0    0 -0.28187285443E+02 -0.62521622182E+01  0.15656229254E+02  0.32844026968E+02  0.00000000000E+00 0. -1.
</event>
<event>
 5    1  0.1259474E-009  0.9118800E+02  0.7815553E-02  0.1125453E+00
         25   -1    0    0    0    0  0.00000000000E+00  0.00000000000E+00  0.99999998245E-14  0.12509000000E+03  0.12509000000E+03 0.  0.
        -13    1    3    3    0    0 -0.91517740602E+01 -0.14123498811E+02 -0.34438858500E+02  0.38331114332E+02  0.10566000000E+00 0. -1.
         23    2    1    0    0    0  0.13272476456E+02  0.27567210626E+02 -0.49698315314E+01  0.94093081469E+02  0.88840863469E+02 0.  0.
         13    1    3    3    0    0  0.22424250516E+02  0.41690709436E+02  0.29469026969E+02  0.55761967137E+02  0.10566000000E+00 0.  1.
         22    1    1    0    0    0 -0.13272476456E+02 -0.27567210626E+02  0.49698315314E+01  0.30996918531E+02  0.00000000000E+00 0.  1.
</event>
<event>
 5    1  0.1259474E-009  0.9118800E+02  0.7815553E-02  0.1125453E+00
         25   -1    0    0    0    0  0.00000000000E+00  0.00000000000E+00  0.99999998245E-14  0.12509000000E+03  0.12509000000E+03 0.  0.
        -13    1    3    3    0    0  0.42173427932E+02  0.35086587986E+02  0.24359903910E+02  0.60025684190E+02  0.10566000000E+00 0. -1.
         23    2    1    0    0    0  0.22774428646E+02  0.18039967715E+02 -0.72392572785E+00  0.96027324559E+02  0.91523810881E+02 0.  0.
         13    1    3    3    0    0 -0.19398999285E+02 -0.17046620271E+02 -0.25083829638E+02  0.36001640369E+02  0.10566000000E+00 0.  1.
         22    1    1    0    0    0 -0.22774428646E+02 -0.18039967715E+02  0.72392572785E+00  0.29062675441E+02  0.00000000000E+00 0. -1.
</event>
<event>
 5    1  0.1259474E-009  0.9118800E+02  0.7815553E-02  0.1125453E+00
         25   -1    0    0    0    0  0.00000000000E+00  0.00000000000E+00  0.99999998245E-14  0.12509000000E+03  0.12509000000E+03 0.  0.
        -13    1    3    3    0    0 -0.15584881497E+02 -0.40835730744E+01 -0.34050131746E+02  0.37669440350E+02  0.10566000000E+00 0.  1.
         23    2    1    0    0    0 -0.72384573618E+01  0.27887497213E+02  0.11606417368E+02  0.94028501487E+02  0.88749886772E+02 0.  0.
         13    1    3    3    0    0  0.83464241347E+01  0.31971070287E+02  0.45656549114E+02  0.56359061137E+02  0.10566000000E+00 0. -1.
         22    1    1    0    0    0  0.72384573618E+01 -0.27887497213E+02 -0.11606417368E+02  0.31061498513E+02  0.00000000000E+00 0. -1.
</event>
<event>
 5    1  0.1259474E-009  0.9118800E+02  0.7815553E-02  0.1125453E+00
         25   -1    0    0    0    0  0.00000000000E+00  0.00000000000E+00  0.99999998245E-14  0.12509000000E+03  0.12509000000E+03 0.  0.
        -13    1    3    3    0    0  0.11359483250E+02 -0.10881690453E+02  0.60309619091E+02  0.62327444723E+02  0.10566000000E+00 0.  1.
         23    2    1    0    0    0  0.84182043313E+01 -0.30271939443E+01  0.28963416915E+02  0.94776478484E+02  0.89797947009E+02 0.  0.
         13    1    3    3    0    0 -0.29412789186E+01  0.78544965092E+01 -0.31346202176E+02  0.32449033760E+02  0.10566000000E+00 0. -1.
         22    1    1    0    0    0 -0.84182043313E+01  0.30271939443E+01 -0.28963416915E+02  0.30313521516E+02  0.00000000000E+00 0.  1.
</event>
<event>
 5    1  0.1259474E-009  0.9118800E+02  0.7815553E-02  0.1125453E+00
         25   -1    0    0    0    0  0.00000000000E+00  0.00000000000E+00  0.99999998245E-14  0.12509000000E+03  0.12509000000E+03 0.  0.
        -13    1    3    3    0    0  0.33868666997E+02 -0.29720163078E+02  0.11739059796E+02  0.46563842050E+02  0.10566000000E+00 0.  1.
         23    2    1    0    0    0 -0.10489285075E+02 -0.17496184364E+02  0.23416397076E+02  0.94034095236E+02  0.88757770625E+02 0.  0.
         13    1    3    3    0    0 -0.44357952072E+02  0.12223978714E+02  0.11677337280E+02  0.47470253187E+02  0.10566000000E+00 0. -1.
         22    1    1    0    0    0  0.10489285075E+02  0.17496184364E+02 -0.23416397076E+02  0.31055904764E+02  0.00000000000E+00 0. -1.
</event>
<event>
 5    1  0.1259474E-009  0.9118800E+02  0.7815553E-02  0.1125453E+00
         25   -1    0    0    0    0  0.00000000000E+00  0.00000000000E+00  0.99999998245E-14  0.12509000000E+03  0.12509000000E+03 0.  0.
        -13    1    3    3    0    0 -0.26612591792E+02  0.16897096233E+02  0.28191200447E+02  0.42290623662E+02  0.10566000000E+00 0. -1.
         23    2    1    0    0    0 -0.22069190600E+02 -0.10274447327E+02 -0.17126821865E+02  0.95325231081E+02  0.90559142067E+02 0.  0.
         13    1    3    3    0    0  0.45434011919E+01 -0.27171543560E+02 -0.45318022312E+02  0.53034607419E+02  0.10566000000E+00 0.  1.
         22    1    1    0    0    0  0.22069190600E+02  0.10274447327E+02  0.17126821865E+02  0.29764768919E+02  0.00000000000E+00 0.  1.
</event>
<event>
 5    1  0.1259474E-009  0.9118800E+02  0.7815553E-02  0.1125453E+00
         25   -1    0    0    0    0  0.00000000000E+00  0.00000000000E+00  0.99999998245E-14  0.12509000000E+03  0.12509000000E+03 0.  0.
        -13    1    3    3    0    0 -0.17588374808E+01 -0.13973175747E+02  0.34825831432E+02  0.37565846839E+02  0.10566000000E+00 0.  1.
         23    2    1    0    0    0  0.23725651202E+02  0.19516843962E+02 -0.30933039653E+01  0.94213111352E+02  0.89009707886E+02 0.  0.
         13    1    3    3    0    0  0.25484488683E+02  0.33490019708E+02 -0.37919135397E+02  0.56647264513E+02  0.10566000000E+00 0. -1.
         22    1    1    0    0    0 -0.23725651202E+02 -0.19516843962E+02  0.30933039653E+01  0.30876888648E+02  0.00000000000E+00 0. -1.
</event>
<event>
 5    1  0.1259474E-009  0.9118800E+02  0.7815553E-02  0.1125453E+00
         25   -1    0    0    0    0  0.00000000000E+00  0.00000000000E+00  0.99999998245E-14  0.12509000000E+03  0.12509000000E+03 0.  0.
        -13    1    3    3    0    0  0.18093826317E+02 -0.14588549010E+02 -0.53434598677E+02  0.58270745772E+02  0.10566000000E+00 0. -1.
         23    2    1    0    0    0  0.19886300485E+02  0.48168800972E+01 -0.24294764351E+02  0.93326768808E+02  0.87755244404E+02 0.  0.
         13    1    3    3    0    0  0.17924741685E+01  0.19405429108E+02  0.29139834326E+02  0.35056023036E+02  0.10566000000E+00 0.  1.
         22    1    1    0    0    0 -0.19886300485E+02 -0.48168800972E+01  0.24294764351E+02  0.31763231192E+02  0.00000000000E+00 0. -1.
</event>
<event>
 5    1  0.1259474E-009  0.9118800E+02  0.7815553E-02  0.1125453E+00
         25   -1    0    0    0    0  0.00000000000E+00  0.00000000000E+00  0.99999998245E-14  0.12509000000E+03  0.12509000000E+03 0.  0.
        -13    1    3    3    0    0 -0.19078471585E+02  0.40462502888E+02 -0.27750996389E+02  0.52643434373E+02  0.10566000000E+00 0. -1.
         23    2    1    0    0    0 -0.18091603314E+01  0.24638308609E+01 -0.30466429024E+02  0.94470613639E+02  0.89370856661E+02 0.  0.
         13    1    3    3    0    0  0.17269311253E+02 -0.37998672027E+02 -0.27154326352E+01  0.41827179267E+02  0.10566000000E+00 0.  1.
         22    1    1    0    0    0  0.18091603314E+01 -0.24638308609E+01  0.30466429024E+02  0.30619386361E+02  0.00000000000E+00 0. -1.
</event>
<event>
 5    1  0.1259474E-009  0.9118800E+02  0.7815553E-02  0.1125453E+00
         25   -1    0    0    0    0  0.00000000000E+00  0.00000000000E+00  0.99999998245E-14  0.12509000000E+03  0.12509000000E+03 0.  0.
        -13    1    3    3    0    0 -0.22489789981E+02 -0.25346809151E+02  0.10045815974E+02  0.35343754330E+02  0.10566000000E+00 0.  1.
         23    2    1    0    0    0 -0.14011602713E+01  0.21291600935E+02 -0.20953931789E+02  0.95184101286E+02  0.90363988180E+02 0.  0.
         13    1    3    3    0    0  0.21088629710E+02  0.46638410086E+02 -0.30999747762E+02  0.59840346956E+02  0.10566000000E+00 0. -1.
         22    1    1    0    0    0  0.14011602713E+01 -0.21291600935E+02  0.20953931789E+02  0.29905898714E+02  0.00000000000E+00 0. -1.
</event>
<event>
 5    1  0.1259474E-009  0.9118800E+02  0.7815553E-02  0.1125453E+00
         25   -1    0    0    0    0  0.00000000000E+00  0.00000000000E+00  0.99999998245E-14  0.12509000000E+03  0.12509000000E+03 0.  0.
        -13    1    3    3    0    0 -0.41688631084E+02  0.33814843580E+02 -0.79896618023E+01  0.54269986804E+02  0.10566000000E+00 0.  1.
         23    2    1    0    0    0 -0.13201325282E+02  0.11826597208E+02 -0.25296841131E+02  0.94201918772E+02  0.88993976978E+02 0.  0.
         13    1    3    3    0    0  0.28487305801E+02 -0.21988246372E+02 -0.17307179329E+02  0.39931931968E+02  0.10566000000E+00 0. -1.
         22    1    1    0    0    0  0.13201325282E+02 -0.11826597208E+02  0.25296841131E+02  0.30888081228E+02  0.00000000000E+00 0.  1.
</event>
<event>
 5    1  0.1259474E-009  0.9118800E+02  0.7815553E-02  0.1125453E+00
         25   -1    0    0    0    0  0.00000000000E+00  0.00000000000E+00  0.99999998245E-14  0.12509000000E+03  0.12509000000E+03 0.  0.
        -13    1    3    3    0    0 -0.24589619655E+02 -0.24602404302E+02  0.12273019541E+02  0.36885849114E+02  0.10566000000E+00 0.  1.
         23    2    1    0    0    0 -0.49733437051E+01  0.18522868019E+02 -0.22404242598E+02  0.95597952366E+02  0.90935073668E+02 0.  0.
         13    1    3    3    0    0  0.19616275950E+02  0.43125272320E+02 -0.34677262138E+02  0.58712103252E+02  0.10566000000E+00 0. -1.
         22    1    1    0    0    0  0.49733437051E+01 -0.18522868019E+02  0.22404242598E+02  0.29492047634E+02  0.00000000000E+00 0. -1.
</event>
<event>
 5    1  0.1259474E-009  0.9118800E+02  0.7815553E-02  0.1125453E+00
         25   -1    0    0    0    0  0.00000000000E+00  0.00000000000E+00  0.99999998245E-14  0.12509000000E+03  0.12509000000E+03 0.  0.
        -13    1    3    3    0    0 -0.92246035270E+01 -0.11709824562E+02  0.47888153503E+02  0.50154757616E+02  0.10566000000E+00 0.  1.
         23    2    1    0    0    0  0.64415262355E+00  0.22036864609E+02  0.22987304273E+02  0.93239497772E+02  0.87630756317E+02 0.  0.
         13    1    3    3    0    0  0.98687561505E+01  0.33746689171E+02 -0.24900849230E+02  0.43084740157E+02  0.10566000000E+00 0. -1.
         22    1    1    0    0    0 -0.64415262355E+00 -0.22036864609E+02 -0.22987304273E+02  0.31850502228E+02  0.00000000000E+00 0.  1.
</event>
<event>
 5    1  0.1259474E-009  0.9118800E+02  0.7815553E-02  0.1125453E+00
         25   -1    0    0    0    0  0.00000000000E+00  0.00000000000E+00  0.99999998245E-14  0.12509000000E+03  0.12509000000E+03 0.  0.
        -13    1    3    3    0    0 -0.95886711943E+00 -0.10653970560E+01 -0.33857831814E+02  0.33888323007E+02  0.10566000000E+00 0. -1.
         23    2    1    0    0    0  0.18133605660E+01  0.28929356478E+01  0.28476378116E+02  0.96409667648E+02  0.92044894221E+02 0.  0.
         13    1    3    3    0    0  0.27722276855E+01  0.39583327039E+01  0.62334209930E+02  0.62521344641E+02  0.10566000000E+00 0.  1.
         22    1    1    0    0    0 -0.18133605660E+01 -0.28929356478E+01 -0.28476378116E+02  0.28680332352E+02  0.00000000000E+00 0.  1.
</event>
<event>
 5    1  0.1259474E-009  0.9118800E+02  0.7815553E-02  0.1125453E+00
         25   -1    0    0    0    0  0.00000000000E+00  0.00000000000E+00  0.99999998245E-14  0.12509000000E+03  0.12509000000E+03 0.  0.
        -13    1    3    3    0    0 -0.19280320043E+01 -0.63435861871E+01  0.39975647501E+02  0.40521870025E+02  0.10566000000E+00 0. -1.
         23    2    1    0    0    0 -0.16602560843E+02  0.23748057473E+02 -0.40511325239E+01  0.95832062017E+02  0.91256545932E+02 0.  0.
         13    1    3    3    0    0 -0.14674528839E+02  0.30091643660E+02 -0.44026780025E+02  0.55310191992E+02  0.10566000000E+00 0.  1.
         22    1    1    0    0    0  0.16602560843E+02 -0.23748057473E+02  0.40511325239E+01  0.29257937983E+02  0.00000000000E+00 0.  1.
</event>
<event>
 5    1  0.1259474E-009  0.9118800E+02  0.7815553E-02  0.1125453E+00
         25   -1    0    0    0    0  0.00000000000E+00  0.00000000000E+00  0.99999998245E-14  0.12509000000E+03  0.12509000000E+03 0.  0.
        -13    1    3    3    0    0 -0.58207203275E+01  0.16695425750E+02 -0.55182744692E+02  0.57946220773E+02  0.10566000000E+00 0.  1.
         23    2    1    0    0    0 -0.15862156772E+02  0.16176149043E+02 -0.18932742578E+02  0.95565018089E+02  0.90889758089E+02 0.  0.
         13    1    3    3    0    0 -0.10041436444E+02 -0.51927670656E+00  0.36250002114E+02  0.37618797316E+02  0.10566000000E+00 0. -1.
         22    1    1    0    0    0  0.15862156772E+02 -0.16176149043E+02  0.18932742578E+02  0.29524981911E+02  0.00000000000E+00 0.  1.
</event>
<event>
 5    1  0.1259474E-009  0.9118800E+02  0.7815553E-02  0.1125453E+00
         25   -1    0    0    0    0  0.00000000000E+00  0.00000000000E+00  0.99999998245E-14  0.12509000000E+03  0.12509000000E+03 0.  0.
        -13    1    3    3    0    0  0.53956163451E+02  0.21139034660E+01  0.71238322791E+01  0.54465551614E+02  0.10566000000E+00 0.  1.
         23    2    1    0    0    0  0.23204118025E+02 -0.13131146110E+02 -0.14208754537E+02  0.94878300330E+02  0.89939674652E+02 0.  0.
         13    1    3    3    0    0 -0.30752045427E+02 -0.15245049576E+02 -0.21332586817E+02  0.40412748716E+02  0.10566000000E+00 0. -1.
         22    1    1    0    0    0 -0.23204118025E+02  0.13131146110E+02  0.14208754537E+02  0.30211699670E+02  0.00000000000E+00 0.  1.
</event>
<event>
 5    1  0.1259474E-009  0.9118800E+02  0.7815553E-02  0.1125453E+00
         25   -1    0    0    0    0  0.00000000000E+00  0.00000000000E+00  0.99999998245E-14  0.12509000000E+03  0.12509000000E+03 0.  0.
        -13    1    3    3    0    0 -0.32533871768E+02 -0.14122937519E+02  0.23388617853E+02  0.42484688836E+02  0.10566000000E+00 0. -1.
         23    2    1    0    0    0 -0.10119682591E+01  0.27050762399E+02  0.11463951142E+02  0.95692891266E+02  0.91065577674E+02 0.  0.
         13    1    3    3    0    0  0.31521903508E+02  0.41173699918E+02 -0.11924666710E+02  0.53208202431E+02  0.10566000000E+00 0.  1.
         22    1    1    0    0    0  0.10119682591E+01 -0.27050762399E+02 -0.11463951142E+02  0.29397108734E+02  0.00000000000E+00 0.  1.
</event>
<event>
 5    1  0.1259474E-009  0.9118800E+02  0.7815553E-02  0.1125453E+00
         25   -1    0    0    0    0  0.00000000000E+00  0.00000000000E+00  0.99999998245E-14  0.12509000000E+03  0.12509000000E+03 0.  0.
        -13    1    3    3    0    0  0.47207306500E+02 -0.24796838459E+02 -0.31197309208E+02  0.61779416074E+02  0.10566000000E+00 0.  1.
         23    2    1    0    0    0  0.15972014268E+02 -0.14074317350E+02 -0.17500338608E+02  0.97531816097E+02  0.93557477794E+02 0.  0.
         13    1    3    3    0    0 -0.31235292232E+02  0.10722521109E+02  0.13696970600E+02  0.35752400023E+02  0.10566000000E+00 0. -1.
         22    1    1    0    0    0 -0.15972014268E+02  0.14074317350E+02  0.17500338608E+02  0.27558183903E+02  0.00000000000E+00 0.  1.
</event>
<event>
 5    1  0.1259474E-009  0.9118800E+02  0.7815553E-02  0.1125453E+00
         25   -1    0    0    0    0  0.00000000000E+00  0.00000000000E+00  0.99999998245E-14  0.12509000000E+03  0.12509000000E+03 0.  0.
        -13    1    3    3    0    0  0.30615571060E+02  0.83528726767E+01 -0.28568842466E+02  0.42699807929E+02  0.10566000000E+00 0. -1.
         23    2    1    0    0    0  0.96869955586E+01  0.33270852311E+02  0.57164396254E+01  0.89969277079E+02  0.82831187603E+02 0.  0.
         13    1    3    3    0    0 -0.20928575502E+02  0.24917979635E+02  0.34285282092E+02  0.47269469150E+02  0.10566000000E+00 0.  1.
         22    1    1    0    0    0 -0.96869955586E+01 -0.33270852311E+02 -0.57164396254E+01  0.35120722921E+02  0.00000000000E+00 0.  1.
</event>
<event>
 5    1  0.1259474E-009  0.9118800E+02  0.7815553E-02  0.1125453E+00
         25   -1    0    0    0    0  0.00000000000E+00  0.00000000000E+00  0.99999998245E-14  0.12509000000E+03  0.12509000000E+03 0.  0.
        -13    1    3    3    0    0 -0.77862485266E+01 -0.67519724308E+01 -0.42812936512E+02  0.44036047673E+02  0.10566000000E+00 0. -1.
         23    2    1    0    0    0  0.91629310786E+01  0.26996401082E+02 -0.29463730105E+02  0.84091507722E+02  0.73420060624E+02 0.  0.
         13    1    3    3    0    0  0.16949179605E+02  0.33748373513E+02  0.13349206407E+02  0.40055460050E+02  0.10566000000E+00 0.  1.
         22    1    1    0    0    0 -0.91629310786E+01 -0.26996401082E+02  0.29463730105E+02  0.40998492278E+02  0.00000000000E+00 0. -1.
</event>
<event>
 5    1  0.1259474E-009  0.9118800E+02  0.7815553E-02  0.1125453E+00
         25   -1    0    0    0    0  0.00000000000E+00  0.00000000000E+00  0.99999998245E-14  0.12509000000E+03  0.12509000000E+03 0.  0.
        -13    1    3    3    0    0  0.22941000250E+02  0.21374350684E+01  0.29585757150E+02  0.37499150808E+02  0.10566000000E+00 0. -1.
         23    2    1    0    0    0 -0.17166979216E+01  0.22939330556E+02 -0.18614041668E+02  0.95498743093E+02  0.90798499145E+02 0.  0.
         13    1    3    3    0    0 -0.24657698172E+02  0.20801895488E+02 -0.48199798818E+02  0.57999592285E+02  0.10566000000E+00 0.  1.
         22    1    1    0    0    0  0.17166979216E+01 -0.22939330556E+02  0.18614041668E+02  0.29591256907E+02  0.00000000000E+00 0.  1.
</event>
<event>
 5    1  0.1259474E-009  0.9118800E+02  0.7815553E-02  0.1125453E+00
         25   -1    0    0    0    0  0.00000000000E+00  0.00000000000E+00  0.99999998245E-14  0.12509000000E+03  0.12509000000E+03 0.  0.
        -13    1    3    3    0    0 -0.20641860841E+02 -0.13406051636E+02 -0.81257298456E+01  0.25920017149E+02  0.10566000000E+00 0. -1.
         23    2    1    0    0    0  0.37189808407E+02 -0.55671240946E+01  0.83668349221E+01  0.86566258663E+02  0.77521858158E+02 0.  0.
         13    1    3    3    0    0  0.57831669248E+02  0.78389275417E+01  0.16492564768E+02  0.60646241513E+02  0.10566000000E+00 0.  1.
         22    1    1    0    0    0 -0.37189808407E+02  0.55671240946E+01 -0.83668349221E+01  0.38523741337E+02  0.00000000000E+00 0.  1.
</event>
<event>
 5    1  0.1259474E-009  0.9118800E+02  0.7815553E-02  0.1125453E+00
         25   -1    0    0    0    0  0.00000000000E+00  0.00000000000E+00  0.99999998245E-14  0.12509000000E+03  0.12509000000E+03 0.  0.
        -13    1    3    3    0    0  0.17002607629E+02  0.17565097385E+02 -0.11687288591E+02  0.27096590025E+02  0.10566000000E+00 0. -1.
         23    2    1    0    0    0 -0.26165469349E+02 -0.18011275071E-01  0.26867051376E+02  0.87587059311E+02  0.79151894471E+02 0.  0.
         13    1    3    3    0    0 -0.43168076978E+02 -0.17583108660E+02  0.38554339967E+02  0.60490469286E+02  0.10566000000E+00 0.  1.
         22    1    1    0    0    0  0.26165469349E+02  0.18011275071E-01 -0.26867051376E+02  0.37502940689E+02  0.00000000000E+00 0.  1.
</event>
<event>
 5    1  0.1259474E-009  0.9118800E+02  0.7815553E-02  0.1125453E+00
         25   -1    0    0    0    0  0.00000000000E+00  0.00000000000E+00  0.99999998245E-14  0.12509000000E+03  0.12509000000E+03 0.  0.
        -13    1    3    3    0    0 -0.25851511942E+02 -0.26761241412E+01 -0.20251158819E+02  0.32948185195E+02  0.10566000000E+00 0.  1.
         23    2    1    0    0    0  0.14610858198E+02 -0.21463496516E+02  0.19435071863E+02  0.92657286912E+02  0.86795690789E+02 0.  0.
         13    1    3    3    0    0  0.40462370139E+02 -0.18787372375E+02  0.39686230682E+02  0.59709101717E+02  0.10566000000E+00 0. -1.
         22    1    1    0    0    0 -0.14610858198E+02  0.21463496516E+02 -0.19435071863E+02  0.32432713088E+02  0.00000000000E+00 0. -1.
</event>
<event>
 5    1  0.1259474E-009  0.9118800E+02  0.7815553E-02  0.1125453E+00
         25   -1    0    0    0    0  0.00000000000E+00  0.00000000000E+00  0.99999998245E-14  0.12509000000E+03  0.12509000000E+03 0.  0.
        -13    1    3    3    0    0  0.17010635321E+02  0.27429116458E+02  0.21360989330E+02  0.38704278483E+02  0.10566000000E+00 0. -1.
         23    2    1    0    0    0  0.12355337569E+02 -0.83708582888E+01 -0.24092114251E+02  0.96749999929E+02  0.92506253206E+02 0.  0.
         13    1    3    3    0    0 -0.46552977526E+01 -0.35799974747E+02 -0.45453103581E+02  0.58045721446E+02  0.10566000000E+00 0.  1.
         22    1    1    0    0    0 -0.12355337569E+02  0.83708582888E+01  0.24092114251E+02  0.28340000071E+02  0.00000000000E+00 0.  1.
</event>
<event>
 5    1  0.1259474E-009  0.9118800E+02  0.7815553E-02  0.1125453E+00
         25   -1    0    0    0    0  0.00000000000E+00  0.00000000000E+00  0.99999998245E-14  0.12509000000E+03  0.12509000000E+03 0.  0.
        -13    1    3    3    0    0  0.28420450559E+02 -0.17380585054E+02  0.46611089018E+02  0.57292333957E+02  0.10566000000E+00 0. -1.
         23    2    1    0    0    0  0.99347779055E+01 -0.26388956071E+02  0.31511282751E+02  0.82804804539E+02  0.71194086128E+02 0.  0.
         13    1    3    3    0    0 -0.18485672654E+02 -0.90083710168E+01 -0.15099806267E+02  0.25512470581E+02  0.10566000000E+00 0.  1.
         22    1    1    0    0    0 -0.99347779055E+01  0.26388956071E+02 -0.31511282751E+02  0.42285195461E+02  0.00000000000E+00 0. -1.
</event>
<event>
 5    1  0.1259474E-009  0.9118800E+02  0.7815553E-02  0.1125453E+00
         25   -1    0    0    0    0  0.00000000000E+00  0.00000000000E+00  0.99999998245E-14  0.12509000000E+03  0.12509000000E+03 0.  0.
        -13    1    3    3    0    0 -0.25065220971E+02 -0.55480257067E+01  0.21255344185E+02  0.33329367111E+02  0.10566000000E+00 0. -1.
         23    2    1    0    0    0  0.19973694475E+02  0.74075109240E+01 -0.20076921630E+02  0.95817103471E+02  0.91236039187E+02 0.  0.
         13    1    3    3    0    0  0.45038915446E+02  0.12955536631E+02 -0.41332265815E+02  0.62487736360E+02  0.10566000000E+00 0.  1.
         22    1    1    0    0    0 -0.19973694475E+02 -0.74075109240E+01  0.20076921630E+02  0.29272896529E+02  0.00000000000E+00 0.  1.
</event>
<event>
 5    1  0.1259474E-009  0.9118800E+02  0.7815553E-02  0.1125453E+00
         25   -1    0    0    0    0  0.00000000000E+00  0.00000000000E+00  0.99999998245E-14  0.12509000000E+03  0.12509000000E+03 0.  0.
        -13    1    3    3    0    0 -0.19068740853E+02  0.65688406369E+01  0.25359271509E+02  0.32401703049E+02  0.10566000000E+00 0.  1.
         23    2    1    0    0    0  0.16592146324E+02 -0.23705798829E+01 -0.25145508084E+02  0.94870543595E+02  0.89928885774E+02 0.  0.
         13    1    3    3    0    0  0.35660887176E+02 -0.89394205199E+01 -0.50504779592E+02  0.62468840546E+02  0.10566000000E+00 0. -1.
         22    1    1    0    0    0 -0.16592146324E+02  0.23705798829E+01  0.25145508084E+02  0.30219456405E+02  0.00000000000E+00 0. -1.
</event>
<event>
 5    1  0.1259474E-009  0.9118800E+02  0.7815553E-02  0.1125453E+00
         25   -1    0    0    0    0  0.00000000000E+00  0.00000000000E+00  0.99999998245E-14  0.12509000000E+03  0.12509000000E+03 0.  0.
        -13    1    3    3    0    0  0.98799251271E+01 -0.39087217640E+02 -0.99247913026E+01  0.41520310088E+02  0.10566000000E+00 0.  1.
         23    2    1    0    0    0 -0.13301546873E+02  0.76274510742E+01 -0.24961568256E+02  0.95795136135E+02  0.91205915697E+02 0.  0.
         13    1    3    3    0    0 -0.23181472001E+02  0.46714668714E+02 -0.15036776953E+02  0.54274826047E+02  0.10566000000E+00 0. -1.
         22    1    1    0    0    0  0.13301546873E+02 -0.76274510742E+01  0.24961568256E+02  0.29294863865E+02  0.00000000000E+00 0. -1.
</event>
<event>
 5    1  0.1259474E-009  0.9118800E+02  0.7815553E-02  0.1125453E+00
         25   -1    0    0    0    0  0.00000000000E+00  0.00000000000E+00  0.99999998245E-14  0.12509000000E+03  0.12509000000E+03 0.  0.
        -13    1    3    3    0    0 -0.25151546729E+02 -0.21369566170E+02  0.35770137734E+02  0.48670037792E+02  0.10566000000E+00 0. -1.
         23    2    1    0    0    0  0.17091507527E+02 -0.18325953602E+02  0.15511417928E+02  0.95618585187E+02  0.90963451683E+02 0.  0.
         13    1    3    3    0    0  0.42243054255E+02  0.30436125684E+01 -0.20258719806E+02  0.46948547395E+02  0.10566000000E+00 0.  1.
         22    1    1    0    0    0 -0.17091507527E+02  0.18325953602E+02 -0.15511417928E+02  0.29471414813E+02  0.00000000000E+00 0.  1.
</event>
<event>
 5    1  0.1259474E-009  0.9118800E+02  0.7815553E-02  0.1125453E+00
         25   -1    0    0    0    0  0.00000000000E+00  0.00000000000E+00  0.99999998245E-14  0.12509000000E+03  0.12509000000E+03 0.  0.
        -13    1    3    3    0    0  0.27060333966E+02  0.31941195739E+02 -0.68482764055E+01  0.42419473280E+02  0.10566000000E+00 0. -1.
         23    2    1    0    0    0  0.29235470346E+02 -0.92997316946E+01  0.16905149785E+02  0.90061699653E+02  0.82970644924E+02 0.  0.
         13    1    3    3    0    0  0.21751363803E+01 -0.41240927434E+02  0.23753426191E+02  0.47642226372E+02  0.10566000000E+00 0.  1.
         22    1    1    0    0    0 -0.29235470346E+02  0.92997316946E+01 -0.16905149785E+02  0.35028300347E+02  0.00000000000E+00 0.  1.
</event>
<event>
 5    1  0.1259474E-009  0.9118800E+02  0.7815553E-02  0.1125453E+00
         25   -1    0    0    0    0  0.00000000000E+00  0.00000000000E+00  0.99999998245E-14  0.12509000000E+03  0.12509000000E+03 0.  0.
        -13    1    3    3    0    0 -0.16233598669E+02  0.58031921386E+02  0.10702730316E+02  0.61202885764E+02  0.10566000000E+00 0.  1.
         23    2    1    0    0    0  0.13547265280E+01  0.28907734280E+02  0.57528931408E+01  0.95584268952E+02  0.90916248858E+02 0.  0.
         13    1    3    3    0    0  0.17588325197E+02 -0.29124187106E+02 -0.49498371753E+01  0.34381383188E+02  0.10566000000E+00 0. -1.
         22    1    1    0    0    0 -0.13547265280E+01 -0.28907734280E+02 -0.57528931408E+01  0.29505731048E+02  0.00000000000E+00 0.  1.
</event>
<event>
 5    1  0.1259474E-009  0.9118800E+02  0.7815553E-02  0.1125453E+00
         25   -1    0    0    0    0  0.00000000000E+00  0.00000000000E+00  0.99999998245E-14  0.12509000000E+03  0.12509000000E+03 0.  0.
        -13    1    3    3    0    0  0.11949183052E+02 -0.29523797981E+02  0.11554298975E+02  0.33881419859E+02  0.10566000000E+00 0.  1.
         23    2    1    0    0    0  0.56718030614E+00  0.28090830498E+02 -0.81637110549E+01  0.95831452022E+02  0.91255709777E+02 0.  0.
         13    1    3    3    0    0 -0.11382002745E+02  0.57614628480E+02 -0.19718010030E+02  0.61950032163E+02  0.10566000000E+00 0. -1.
         22    1    1    0    0    0 -0.56718030614E+00 -0.28090830498E+02  0.81637110549E+01  0.29258547978E+02  0.00000000000E+00 0. -1.
</event>
<event>
 5    1  0.1259474E-009  0.9118800E+02  0.7815553E-02  0.1125453E+00
         25   -1    0    0    0    0  0.00000000000E+00  0.00000000000E+00  0.99999998245E-14  0.12509000000E+03  0.12509000000E+03 0.  0.
        -13    1    3    3    0    0  0.27419018510E+02 -0.29378574218E+02  0.45141778120E+02  0.60437525554E+02  0.10566000000E+00 0.  1.
         23    2    1    0    0    0  0.22293240722E+01 -0.17622209468E+02  0.23307662490E+02  0.95785405085E+02  0.91192568471E+02 0.  0.
         13    1    3    3    0    0 -0.25189694438E+02  0.11756364750E+02 -0.21834115630E+02  0.35347879532E+02  0.10566000000E+00 0. -1.
         22    1    1    0    0    0 -0.22293240722E+01  0.17622209468E+02 -0.23307662490E+02  0.29304594915E+02  0.00000000000E+00 0.  1.
</event>
<event>
 5    1  0.1259474E-009  0.9118800E+02  0.7815553E-02  0.1125453E+00
         25   -1    0    0    0    0  0.00000000000E+00  0.00000000000E+00  0.99999998245E-14  0.12509000000E+03  0.12509000000E+03 0.  0.
        -13    1    3    3    0    0  0.94950355299E+01 -0.54561414976E+02  0.21088561066E+02  0.59260798811E+02  0.10566000000E+00 0. -1.
         23    2    1    0    0    0  0.13543164215E+02 -0.25470850156E+02 -0.13325945108E+01  0.96211680923E+02  0.91775433713E+02 0.  0.
         13    1    3    3    0    0  0.40481286849E+01  0.29090564820E+02 -0.22421155577E+02  0.36950882112E+02  0.10566000000E+00 0.  1.
         22    1    1    0    0    0 -0.13543164215E+02  0.25470850156E+02  0.13325945108E+01  0.28878319077E+02  0.00000000000E+00 0. -1.
</event>
<event>
 5    1  0.1259474E-009  0.9118800E+02  0.7815553E-02  0.1125453E+00
         25   -1    0    0    0    0  0.00000000000E+00  0.00000000000E+00  0.99999998245E-14  0.12509000000E+03  0.12509000000E+03 0.  0.
        -13    1    3    3    0    0  0.27903651248E+02  0.25520084078E+02  0.42787414495E+02  0.57102210532E+02  0.10566000000E+00 0. -1.
         23    2    1    0    0    0  0.10836321845E+02  0.27576075419E+02  0.10546229225E+02  0.93640218482E+02  0.88200917002E+02 0.  0.
         13    1    3    3    0    0 -0.17067329403E+02  0.20559913405E+01 -0.32241185270E+02  0.36538007951E+02  0.10566000000E+00 0.  1.
         22    1    1    0    0    0 -0.10836321845E+02 -0.27576075419E+02 -0.10546229225E+02  0.31449781518E+02  0.00000000000E+00 0. -1.
</event>
<event>
 5    1  0.1259474E-009  0.9118800E+02  0.7815553E-02  0.1125453E+00
         25   -1    0    0    0    0  0.00000000000E+00  0.00000000000E+00  0.99999998245E-14  0.12509000000E+03  0.12509000000E+03 0.  0.
        -13    1    3    3    0    0  0.43799355019E+02 -0.32492384000E-01  0.34790785197E+02  0.55935627774E+02  0.10566000000E+00 0.  1.
         23    2    1    0    0    0  0.13575131275E+02  0.19478450119E+02  0.15200950782E+02  0.96898456714E+02  0.92706784005E+02 0.  0.
         13    1    3    3    0    0 -0.30224223744E+02  0.19510942503E+02 -0.19589834414E+02  0.40962828939E+02  0.10566000000E+00 0. -1.
         22    1    1    0    0    0 -0.13575131275E+02 -0.19478450119E+02 -0.15200950782E+02  0.28191543286E+02  0.00000000000E+00 0.  1.
</event>
<event>
 5    1  0.1259474E-009  0.9118800E+02  0.7815553E-02  0.1125453E+00
         25   -1    0    0    0    0  0.00000000000E+00  0.00000000000E+00  0.99999998245E-14  0.12509000000E+03  0.12509000000E+03 0.  0.
        -13    1    3    3    0    0  0.45528086740E+02 -0.18105877528E+02  0.25944927433E+02  0.55441680231E+02  0.10566000000E+00 0. -1.
         23    2    1    0    0    0  0.84609674935E+01 -0.13565467681E+01  0.27639364640E+02  0.96152780580E+02  0.91695117348E+02 0.  0.
         13    1    3    3    0    0 -0.37067119247E+02  0.16749330760E+02  0.16944372073E+01  0.40711100349E+02  0.10566000000E+00 0.  1.
         22    1    1    0    0    0 -0.84609674935E+01  0.13565467681E+01 -0.27639364640E+02  0.28937219420E+02  0.00000000000E+00 0. -1.
</event>
<event>
 5    1  0.1259474E-009  0.9118800E+02  0.7815553E-02  0.1125453E+00
         25   -1    0    0    0    0  0.00000000000E+00  0.00000000000E+00  0.99999998245E-14  0.12509000000E+03  0.12509000000E+03 0.  0.
        -13    1    3    3    0    0  0.29607975553E+02 -0.51879133918E+02 -0.62058794298E+01  0.60054981941E+02  0.10566000000E+00 0. -1.
         23    2    1    0    0    0  0.11976726463E+02 -0.28873916605E+02  0.86926851218E+01  0.92644540972E+02  0.86777319389E+02 0.  0.
         13    1    3    3    0    0 -0.17631249090E+02  0.23005217313E+02  0.14898564552E+02  0.32589559031E+02  0.10566000000E+00 0.  1.
         22    1    1    0    0    0 -0.11976726463E+02  0.28873916605E+02 -0.86926851218E+01  0.32445459028E+02  0.00000000000E+00 0. -1.
</event>
<event>
 5    1  0.1259474E-009  0.9118800E+02  0.7815553E-02  0.1125453E+00
         25   -1    0    0    0    0  0.00000000000E+00  0.00000000000E+00  0.99999998245E-14  0.12509000000E+03  0.12509000000E+03 0.  0.
        -13    1    3    3    0    0 -0.28975500494E+02 -0.45214468022E+02  0.26853267873E+02  0.60041959552E+02  0.10566000000E+00 0.  1.
         23    2    1    0    0    0 -0.34391646841E+01 -0.21192733308E+02  0.19965253104E+02  0.95771556482E+02  0.91173570188E+02 0.  0.
         13    1    3    3    0    0  0.25536335810E+02  0.24021734714E+02 -0.68880147689E+01  0.35729596930E+02  0.10566000000E+00 0. -1.
         22    1    1    0    0    0  0.34391646841E+01  0.21192733308E+02 -0.19965253104E+02  0.29318443518E+02  0.00000000000E+00 0.  1.
</event>
<event>
 5    1  0.1259474E-009  0.9118800E+02  0.7815553E-02  0.1125453E+00
         25   -1    0    0    0    0  0.00000000000E+00  0.00000000000E+00  0.99999998245E-14  0.12509000000E+03  0.12509000000E+03 0.  0.
        -13    1    3    3    0    0 -0.64257999994E+01  0.56772621750E+02  0.16775703259E+02  0.59547097914E+02  0.10566000000E+00 0. -1.
         23    2    1    0    0    0 -0.16330960022E+02  0.23324502612E+02  0.72670156132E+01  0.95703911569E+02  0.91080714185E+02 0.  0.
         13    1    3    3    0    0 -0.99051600221E+01 -0.33448119138E+02 -0.95086876461E+01  0.36156813656E+02  0.10566000000E+00 0.  1.
         22    1    1    0    0    0  0.16330960022E+02 -0.23324502612E+02 -0.72670156132E+01  0.29386088431E+02  0.00000000000E+00 0. -1.
</event>
<event>
 5    1  0.1259474E-009  0.9118800E+02  0.7815553E-02  0.1125453E+00
         25   -1    0    0    0    0  0.00000000000E+00  0.00000000000E+00  0.99999998245E-14  0.12509000000E+03  0.12509000000E+03 0.  0.
        -13    1    3    3    0    0  0.49348800626E+02  0.28373854843E+02 -0.14833124649E+02  0.58825271039E+02  0.10566000000E+00 0.  1.
         23    2    1    0    0    0  0.14081671669E+02  0.18457463060E+02  0.61892758321E+01  0.10106337820E+03  0.98165818181E+02 0.  0.
         13    1    3    3    0    0 -0.35267128957E+02 -0.99163917831E+01  0.21022400481E+02  0.42238107165E+02  0.10566000000E+00 0. -1.
         22    1    1    0    0    0 -0.14081671669E+02 -0.18457463060E+02 -0.61892758321E+01  0.24026621796E+02  0.00000000000E+00 0.  1.
</event>
<event>
 5    1  0.1259474E-009  0.9118800E+02  0.7815553E-02  0.1125453E+00
         25   -1    0    0    0    0  0.00000000000E+00  0.00000000000E+00  0.99999998245E-14  0.12509000000E+03  0.12509000000E+03 0.  0.
        -13    1    3    3    0    0  0.24058452386E+02  0.29715595357E+02 -0.27899856380E+02  0.47331161920E+02  0.10566000000E+00 0.  1.
         23    2    1    0    0    0  0.21414953985E+02 -0.16023530164E+02 -0.11156602651E+02  0.96110290619E+02  0.91637134433E+02 0.  0.
         13    1    3    3    0    0 -0.26434984019E+01 -0.45739125521E+02  0.16743253729E+02  0.48779128699E+02  0.10566000000E+00 0. -1.
         22    1    1    0    0    0 -0.21414953985E+02  0.16023530164E+02  0.11156602651E+02  0.28979709381E+02  0.00000000000E+00 0.  1.
</event>
<event>
 5    1  0.1259474E-009  0.9118800E+02  0.7815553E-02  0.1125453E+00
         25   -1    0    0    0    0  0.00000000000E+00  0.00000000000E+00  0.99999998245E-14  0.12509000000E+03  0.12509000000E+03 0.  0.
        -13    1    3    3    0    0  0.37215144634E+02  0.11712600624E+02 -0.16754875799E+02  0.42460440772E+02  0.10566000000E+00 0.  1.
         23    2    1    0    0    0 -0.11003189259E+02 -0.71652673497E+01 -0.26835166819E+02  0.95214635428E+02  0.90406246418E+02 0.  0.
         13    1    3    3    0    0 -0.48218333894E+02 -0.18877867973E+02 -0.10080291021E+02  0.52754194656E+02  0.10566000000E+00 0. -1.
         22    1    1    0    0    0  0.11003189259E+02  0.71652673497E+01  0.26835166819E+02  0.29875364572E+02  0.00000000000E+00 0. -1.
</event>
<event>
 5    1  0.1259474E-009  0.9118800E+02  0.7815553E-02  0.1125453E+00
         25   -1    0    0    0    0  0.00000000000E+00  0.00000000000E+00  0.99999998245E-14  0.12509000000E+03  0.12509000000E+03 0.  0.
        -13    1    3    3    0    0 -0.24207616313E+02 -0.14186943051E+02  0.35668171489E+02  0.45381798798E+02  0.10566000000E+00 0.  1.
         23    2    1    0    0    0  0.18307161226E+02 -0.21124850660E+02  0.10795776233E+02  0.95124015083E+02  0.90280773111E+02 0.  0.
         13    1    3    3    0    0  0.42514777539E+02 -0.69379076082E+01 -0.24872395256E+02  0.49742216285E+02  0.10566000000E+00 0. -1.
         22    1    1    0    0    0 -0.18307161226E+02  0.21124850660E+02 -0.10795776233E+02  0.29965984917E+02  0.00000000000E+00 0. -1.
</event>
<event>
 5    1  0.1259474E-009  0.9118800E+02  0.7815553E-02  0.1125453E+00
         25   -1    0    0    0    0  0.00000000000E+00  0.00000000000E+00  0.99999998245E-14  0.12509000000E+03  0.12509000000E+03 0.  0.
        -13    1    3    3    0    0  0.90377975262E+01  0.48770660980E+01  0.59378904823E+02  0.60260543143E+02  0.10566000000E+00 0.  1.
         23    2    1    0    0    0  0.70579006497E+01 -0.92735930620E+01  0.29162865948E+02  0.93684805522E+02  0.88264129439E+02 0.  0.
         13    1    3    3    0    0 -0.19798968765E+01 -0.14150659160E+02 -0.30216038875E+02  0.33424262380E+02  0.10566000000E+00 0. -1.
         22    1    1    0    0    0 -0.70579006497E+01  0.92735930620E+01 -0.29162865948E+02  0.31405194478E+02  0.00000000000E+00 0.  1.
</event>
<event>
 5    1  0.1259474E-009  0.9118800E+02  0.7815553E-02  0.1125453E+00
         25   -1    0    0    0    0  0.00000000000E+00  0.00000000000E+00  0.99999998245E-14  0.12509000000E+03  0.12509000000E+03 0.  0.
        -13    1    3    3    0    0  0.43284159303E+02  0.70613497489E+01  0.18276191267E+02  0.47512224091E+02  0.10566000000E+00 0.  1.
         23    2    1    0    0    0  0.14631363032E+02  0.16732041921E+02 -0.19235321383E+02  0.95695517530E+02  0.91069185104E+02 0.  0.
         13    1    3    3    0    0 -0.28652796271E+02  0.96706921721E+01 -0.37511512650E+02  0.48183293438E+02  0.10566000000E+00 0. -1.
         22    1    1    0    0    0 -0.14631363032E+02 -0.16732041921E+02  0.19235321383E+02  0.29394482470E+02  0.00000000000E+00 0. -1.
</event>
<event>
 5    1  0.1259474E-009  0.9118800E+02  0.7815553E-02  0.1125453E+00
         25   -1    0    0    0    0  0.00000000000E+00  0.00000000000E+00  0.99999998245E-14  0.12509000000E+03  0.12509000000E+03 0.  0.
        -13    1    3    3    0    0 -0.12120637463E+02 -0.47425931440E+02 -0.13618805372E+02  0.50809564545E+02  0.10566000000E+00 0.  1.
         23    2    1    0    0    0  0.19803606068E+02 -0.14317341295E+02 -0.14240015316E+02  0.96806663718E+02  0.92582844139E+02 0.  0.
         13    1    3    3    0    0  0.31924243532E+02  0.33108590145E+02 -0.62120994409E+00  0.45997099173E+02  0.10566000000E+00 0. -1.
         22    1    1    0    0    0 -0.19803606068E+02  0.14317341295E+02  0.14240015316E+02  0.28283336282E+02  0.00000000000E+00 0.  1.
</event>
<event>
 5    1  0.1259474E-009  0.9118800E+02  0.7815553E-02  0.1125453E+00
         25   -1    0    0    0    0  0.00000000000E+00  0.00000000000E+00  0.99999998245E-14  0.12509000000E+03  0.12509000000E+03 0.  0.
        -13    1    3    3    0    0  0.31161191653E+02 -0.18231956377E+02 -0.27233228009E+02  0.45222604639E+02  0.10566000000E+00 0. -1.
         23    2    1    0    0    0 -0.11053373779E+02  0.11775152935E+02 -0.22724045783E+02  0.97211449907E+02  0.93128150619E+02 0.  0.
         13    1    3    3    0    0 -0.42214565432E+02  0.30007109313E+02  0.45091822263E+01  0.51988845268E+02  0.10566000000E+00 0.  1.
         22    1    1    0    0    0  0.11053373779E+02 -0.11775152935E+02  0.22724045783E+02  0.27878550093E+02  0.00000000000E+00 0.  1.
</event>
<event>
 5    1  0.1259474E-009  0.9118800E+02  0.7815553E-02  0.1125453E+00
         25   -1    0    0    0    0  0.00000000000E+00  0.00000000000E+00  0.99999998245E-14  0.12509000000E+03  0.12509000000E+03 0.  0.
        -13    1    3    3    0    0  0.36071322163E+02  0.13746660453E+02  0.19233308404E+02  0.43128207387E+02  0.10566000000E+00 0. -1.
         23    2    1    0    0    0 -0.46032878953E+01 -0.15160794934E+02  0.27151954338E+02  0.93653260557E+02  0.88219411844E+02 0.  0.
         13    1    3    3    0    0 -0.40674610059E+02 -0.28907455387E+02  0.79186459342E+01  0.50525053170E+02  0.10566000000E+00 0.  1.
         22    1    1    0    0    0  0.46032878953E+01  0.15160794934E+02 -0.27151954338E+02  0.31436739443E+02  0.00000000000E+00 0.  1.
</event>
<event>
 5    1  0.1259474E-009  0.9118800E+02  0.7815553E-02  0.1125453E+00
         25   -1    0    0    0    0  0.00000000000E+00  0.00000000000E+00  0.99999998245E-14  0.12509000000E+03  0.12509000000E+03 0.  0.
        -13    1    3    3    0    0 -0.31271742478E+02 -0.45104250615E+01 -0.50065765585E+02  0.59201840001E+02  0.10566000000E+00 0.  1.
         23    2    1    0    0    0 -0.48670863020E+01  0.99163226050E+01 -0.22570461206E+02  0.99961376836E+02  0.96751378061E+02 0.  0.
         13    1    3    3    0    0  0.26404656176E+02  0.14426747666E+02  0.27495304379E+02  0.40759536834E+02  0.10566000000E+00 0. -1.
         22    1    1    0    0    0  0.48670863020E+01 -0.99163226050E+01  0.22570461206E+02  0.25128623164E+02  0.00000000000E+00 0.  1.
</event>
<event>
 5    1  0.1259474E-009  0.9118800E+02  0.7815553E-02  0.1125453E+00
         25   -1    0    0    0    0  0.00000000000E+00  0.00000000000E+00  0.99999998245E-14  0.12509000000E+03  0.12509000000E+03 0.  0.
        -13    1    3    3    0    0  0.27553184148E+02 -0.24136073406E+02  0.17780651223E+02  0.40717204203E+02  0.10566000000E+00 0.  1.
         23    2    1    0    0    0  0.62471348821E+01 -0.22144010923E+01 -0.28304601342E+02  0.96019727838E+02  0.91513427487E+02 0.  0.
         13    1    3    3    0    0 -0.21306049266E+02  0.21921672314E+02 -0.46085252565E+02  0.55302523635E+02  0.10566000000E+00 0. -1.
         22    1    1    0    0    0 -0.62471348821E+01  0.22144010923E+01  0.28304601342E+02  0.29070272162E+02  0.00000000000E+00 0. -1.
</event>
<event>
 5    1  0.1259474E-009  0.9118800E+02  0.7815553E-02  0.1125453E+00
         25   -1    0    0    0    0  0.00000000000E+00  0.00000000000E+00  0.99999998245E-14  0.12509000000E+03  0.12509000000E+03 0.  0.
        -13    1    3    3    0    0  0.33689293728E+02 -0.30550910055E+01 -0.26375353212E+02  0.42894900793E+02  0.10566000000E+00 0.  1.
         23    2    1    0    0    0  0.58234188971E+01  0.26324348225E+02  0.90030727805E+01  0.96665735074E+02  0.92392237232E+02 0.  0.
         13    1    3    3    0    0 -0.27865874831E+02  0.29379439230E+02  0.35378425993E+02  0.53770834281E+02  0.10566000000E+00 0. -1.
         22    1    1    0    0    0 -0.58234188971E+01 -0.26324348225E+02 -0.90030727805E+01  0.28424264926E+02  0.00000000000E+00 0. -1.
</event>
<event>
 5    1  0.1259474E-009  0.9118800E+02  0.7815553E-02  0.1125453E+00
         25   -1    0    0    0    0  0.00000000000E+00  0.00000000000E+00  0.99999998245E-14  0.12509000000E+03  0.12509000000E+03 0.  0.
        -13    1    3    3    0    0  0.63619791368E+01 -0.24508325878E+02 -0.22864748430E+02  0.34116575161E+02  0.10566000000E+00 0. -1.
         23    2    1    0    0    0  0.38217630631E+01  0.12318339923E+02  0.26418208426E+02  0.95691545826E+02  0.91063729523E+02 0.  0.
         13    1    3    3    0    0 -0.25402160737E+01  0.36826665802E+02  0.49282956857E+02  0.61574970665E+02  0.10566000000E+00 0.  1.
         22    1    1    0    0    0 -0.38217630631E+01 -0.12318339923E+02 -0.26418208426E+02  0.29398454174E+02  0.00000000000E+00 0.  1.
</event>
<event>
 5    1  0.1259474E-009  0.9118800E+02  0.7815553E-02  0.1125453E+00
         25   -1    0    0    0    0  0.00000000000E+00  0.00000000000E+00  0.99999998245E-14  0.12509000000E+03  0.12509000000E+03 0.  0.
        -13    1    3    3    0    0 -0.57714283321E+02  0.16439046123E+02  0.14497048194E+02  0.61736183127E+02  0.10566000000E+00 0. -1.
         23    2    1    0    0    0 -0.24794920763E+02  0.14377558090E+02  0.76753875676E+01  0.95418231489E+02  0.90687513219E+02 0.  0.
         13    1    3    3    0    0  0.32919362558E+02 -0.20614880333E+01 -0.68216606260E+01  0.33682048362E+02  0.10566000000E+00 0.  1.
         22    1    1    0    0    0  0.24794920763E+02 -0.14377558090E+02 -0.76753875676E+01  0.29671768511E+02  0.00000000000E+00 0. -1.
</event>
<event>
 5    1  0.1259474E-009  0.9118800E+02  0.7815553E-02  0.1125453E+00
         25   -1    0    0    0    0  0.00000000000E+00  0.00000000000E+00  0.99999998245E-14  0.12509000000E+03  0.12509000000E+03 0.  0.
        -13    1    3    3    0    0  0.37903641399E+02 -0.37426983579E+02  0.18762708762E+02  0.56475796012E+02  0.10566000000E+00 0.  1.
         23    2    1    0    0    0  0.30054491481E+01 -0.20356006128E+02  0.21383770757E+02  0.95413993499E+02  0.90681667352E+02 0.  0.
         13    1    3    3    0    0 -0.34898192251E+02  0.17070977451E+02  0.26210619949E+01  0.38938197487E+02  0.10566000000E+00 0. -1.
         22    1    1    0    0    0 -0.30054491481E+01  0.20356006128E+02 -0.21383770757E+02  0.29676006501E+02  0.00000000000E+00 0.  1.
</event>
<event>
 5    1  0.1259474E-009  0.9118800E+02  0.7815553E-02  0.1125453E+00
         25   -1    0    0    0    0  0.00000000000E+00  0.00000000000E+00  0.99999998245E-14  0.12509000000E+03  0.12509000000E+03 0.  0.
        -13    1    3    3    0    0 -0.25277697202E+02 -0.19706817570E+02  0.52676039868E+02  0.61661146395E+02  0.10566000000E+00 0.  1.
         23    2    1    0    0    0 -0.40694466442E+01 -0.51955934522E+01  0.24146280461E+02  0.10005807144E+03  0.96876313993E+02 0.  0.
         13    1    3    3    0    0  0.21208250557E+02  0.14511224118E+02 -0.28529759406E+02  0.38396925045E+02  0.10566000000E+00 0. -1.
         22    1    1    0    0    0  0.40694466442E+01  0.51955934522E+01 -0.24146280461E+02  0.25031928560E+02  0.00000000000E+00 0.  1.
</event>
<event>
 5    1  0.1259474E-009  0.9118800E+02  0.7815553E-02  0.1125453E+00
         25   -1    0    0    0    0  0.00000000000E+00  0.00000000000E+00  0.99999998245E-14  0.12509000000E+03  0.12509000000E+03 0.  0.
        -13    1    3    3    0    0  0.12516403855E+02 -0.30558741664E+02  0.16308990282E+02  0.36830576775E+02  0.10566000000E+00 0.  1.
         23    2    1    0    0    0 -0.16632617600E+02  0.20554336912E+02  0.12633452483E+02  0.95785924246E+02  0.91193280607E+02 0.  0.
         13    1    3    3    0    0 -0.29149021455E+02  0.51113078576E+02 -0.36755377991E+01  0.58955347471E+02  0.10566000000E+00 0. -1.
         22    1    1    0    0    0  0.16632617600E+02 -0.20554336912E+02 -0.12633452483E+02  0.29304075754E+02  0.00000000000E+00 0. -1.
</event>
<event>
 5    1  0.1259474E-009  0.9118800E+02  0.7815553E-02  0.1125453E+00
         25   -1    0    0    0    0  0.00000000000E+00  0.00000000000E+00  0.99999998245E-14  0.12509000000E+03  0.12509000000E+03 0.  0.
        -13    1    3    3    0    0  0.43562405637E+02  0.11863957486E+02  0.39101551027E+00  0.45150866318E+02  0.10566000000E+00 0. -1.
         23    2    1    0    0    0  0.96344731660E+01 -0.26553903403E+02  0.41308141360E+01  0.96541856723E+02  0.92224365625E+02 0.  0.
         13    1    3    3    0    0 -0.33927932471E+02 -0.38417860889E+02  0.37397986257E+01  0.51390990405E+02  0.10566000000E+00 0.  1.
         22    1    1    0    0    0 -0.96344731660E+01  0.26553903403E+02 -0.41308141360E+01  0.28548143277E+02  0.00000000000E+00 0.  1.
</event>
<event>
 5    1  0.1259474E-009  0.9118800E+02  0.7815553E-02  0.1125453E+00
         25   -1    0    0    0    0  0.00000000000E+00  0.00000000000E+00  0.99999998245E-14  0.12509000000E+03  0.12509000000E+03 0.  0.
        -13    1    3    3    0    0 -0.28375629108E+01 -0.25012785712E+02 -0.23499009723E+02  0.34436983525E+02  0.10566000000E+00 0. -1.
         23    2    1    0    0    0 -0.13243885665E+02  0.11210762828E+02  0.24252158374E+02  0.95269723400E+02  0.90482436419E+02 0.  0.
         13    1    3    3    0    0 -0.10406322754E+02  0.36223548540E+02  0.47751168097E+02  0.60832739875E+02  0.10566000000E+00 0.  1.
         22    1    1    0    0    0  0.13243885665E+02 -0.11210762828E+02 -0.24252158374E+02  0.29820276600E+02  0.00000000000E+00 0.  1.
</event>
<event>
 5    1  0.1259474E-009  0.9118800E+02  0.7815553E-02  0.1125453E+00
         25   -1    0    0    0    0  0.00000000000E+00  0.00000000000E+00  0.99999998245E-14  0.12509000000E+03  0.12509000000E+03 0.  0.
        -13    1    3    3    0    0  0.24765232396E+02  0.36686109292E+02  0.20702118418E+02  0.48864877178E+02  0.10566000000E+00 0.  1.
         23    2    1    0    0    0  0.19662299519E+02 -0.88141159698E+01 -0.70667481140E+01  0.10241328085E+03  0.99871149497E+02 0.  0.
         13    1    3    3    0    0 -0.51029328768E+01 -0.45500225262E+02 -0.27768866532E+02  0.53548403667E+02  0.10566000000E+00 0. -1.
         22    1    1    0    0    0 -0.19662299519E+02  0.88141159698E+01  0.70667481140E+01  0.22676719155E+02  0.00000000000E+00 0. -1.
</event>
<event>
 5    1  0.1259474E-009  0.9118800E+02  0.7815553E-02  0.1125453E+00
         25   -1    0    0    0    0  0.00000000000E+00  0.00000000000E+00  0.99999998245E-14  0.12509000000E+03  0.12509000000E+03 0.  0.
        -13    1    3    3    0    0 -0.21849059454E+00 -0.29685492034E+01 -0.31348194767E+02  0.31489371249E+02  0.10566000000E+00 0.  1.
         23    2    1    0    0    0 -0.20737886626E+02 -0.66746556184E+01  0.25211246059E+02  0.91770067569E+02  0.85507469875E+02 0.  0.
         13    1    3    3    0    0 -0.20519396031E+02 -0.37061064149E+01  0.56559440826E+02  0.60280696320E+02  0.10566000000E+00 0. -1.
         22    1    1    0    0    0  0.20737886626E+02  0.66746556184E+01 -0.25211246059E+02  0.33319932431E+02  0.00000000000E+00 0. -1.
</event>
<event>
 5    1  0.1259474E-009  0.9118800E+02  0.7815553E-02  0.1125453E+00
         25   -1    0    0    0    0  0.00000000000E+00  0.00000000000E+00  0.99999998245E-14  0.12509000000E+03  0.12509000000E+03 0.  0.
        -13    1    3    3    0    0 -0.63415842456E+01 -0.51119503281E+02 -0.19525390478E+02  0.55087851145E+02  0.10566000000E+00 0.  1.
         23    2    1    0    0    0 -0.11173879875E+01 -0.10998090753E+02 -0.26711536399E+02  0.96181303507E+02  0.91734019924E+02 0.  0.
         13    1    3    3    0    0  0.52241962581E+01  0.40121412528E+02 -0.71861459207E+01  0.41093452362E+02  0.10566000000E+00 0. -1.
         22    1    1    0    0    0  0.11173879875E+01  0.10998090753E+02  0.26711536399E+02  0.28908696493E+02  0.00000000000E+00 0.  1.
</event>
<event>
 5    1  0.1259474E-009  0.9118800E+02  0.7815553E-02  0.1125453E+00
         25   -1    0    0    0    0  0.00000000000E+00  0.00000000000E+00  0.99999998245E-14  0.12509000000E+03  0.12509000000E+03 0.  0.
        -13    1    3    3    0    0  0.19894473291E+02  0.55324376728E+00  0.49898443794E+02  0.53721150428E+02  0.10566000000E+00 0.  1.
         23    2    1    0    0    0  0.28198999026E+02 -0.19595683147E+01  0.91563267368E+01  0.95377010023E+02  0.90630636474E+02 0.  0.
         13    1    3    3    0    0  0.83045257350E+01 -0.25128120820E+01 -0.40742117058E+02  0.41655859595E+02  0.10566000000E+00 0. -1.
         22    1    1    0    0    0 -0.28198999026E+02  0.19595683147E+01 -0.91563267368E+01  0.29712989977E+02  0.00000000000E+00 0.  1.
</event>
<event>
 5    1  0.1259474E-009  0.9118800E+02  0.7815553E-02  0.1125453E+00
         25   -1    0    0    0    0  0.00000000000E+00  0.00000000000E+00  0.99999998245E-14  0.12509000000E+03  0.12509000000E+03 0.  0.
        -13    1    3    3    0    0 -0.24139864558E+02  0.44816775334E+02 -0.19899802211E+02  0.54656103999E+02  0.10566000000E+00 0.  1.
         23    2    1    0    0    0 -0.27121463542E+02  0.69091129735E+01 -0.15926688663E+02  0.92887996359E+02  0.87127554936E+02 0.  0.
         13    1    3    3    0    0 -0.29815989840E+01 -0.37907662361E+02  0.39731135480E+01  0.38231892360E+02  0.10566000000E+00 0. -1.
         22    1    1    0    0    0  0.27121463542E+02 -0.69091129735E+01  0.15926688663E+02  0.32202003641E+02  0.00000000000E+00 0.  1.
</event>
<event>
 5    1  0.1259474E-009  0.9118800E+02  0.7815553E-02  0.1125453E+00
         25   -1    0    0    0    0  0.00000000000E+00  0.00000000000E+00  0.99999998245E-14  0.12509000000E+03  0.12509000000E+03 0.  0.
        -13    1    3    3    0    0 -0.42268243104E+02  0.20465555064E+01  0.34003459898E+01  0.42454284606E+02  0.10566000000E+00 0.  1.
         23    2    1    0    0    0  0.65598901463E+01  0.26509174179E+02  0.60015604374E+01  0.97129542170E+02  0.93018066848E+02 0.  0.
         13    1    3    3    0    0  0.48828133250E+02  0.24462618673E+02  0.26012144476E+01  0.54675257564E+02  0.10566000000E+00 0. -1.
         22    1    1    0    0    0 -0.65598901463E+01 -0.26509174179E+02 -0.60015604374E+01  0.27960457830E+02  0.00000000000E+00 0. -1.
</event>
<event>
 5    1  0.1259474E-009  0.9118800E+02  0.7815553E-02  0.1125453E+00
         25   -1    0    0    0    0  0.00000000000E+00  0.00000000000E+00  0.99999998245E-14  0.12509000000E+03  0.12509000000E+03 0.  0.
        -13    1    3    3    0    0 -0.37967573174E+02 -0.98716094737E+01 -0.14348528985E+02  0.41771721707E+02  0.10566000000E+00 0. -1.
         23    2    1    0    0    0  0.13370789540E+02 -0.24323016942E+02 -0.11076311063E+02  0.95205692532E+02  0.90393871792E+02 0.  0.
         13    1    3    3    0    0  0.51338362714E+02 -0.14451407468E+02  0.32722179212E+01  0.53433970825E+02  0.10566000000E+00 0.  1.
         22    1    1    0    0    0 -0.13370789540E+02  0.24323016942E+02  0.11076311063E+02  0.29884307468E+02  0.00000000000E+00 0.  1.
</event>
<event>
 5    1  0.1259474E-009  0.9118800E+02  0.7815553E-02  0.1125453E+00
         25   -1    0    0    0    0  0.00000000000E+00  0.00000000000E+00  0.99999998245E-14  0.12509000000E+03  0.12509000000E+03 0.  0.
        -13    1    3    3    0    0 -0.45208870098E+02  0.37375636833E+01 -0.15436455695E+02  0.47917707022E+02  0.10566000000E+00 0.  1.
         23    2    1    0    0    0 -0.10985540091E+02 -0.27044951172E+02 -0.98297493271E+01  0.94288450578E+02  0.89115523146E+02 0.  0.
         13    1    3    3    0    0  0.34223330007E+02 -0.30782514855E+02  0.56067063678E+01  0.46370743556E+02  0.10566000000E+00 0. -1.
         22    1    1    0    0    0  0.10985540091E+02  0.27044951172E+02  0.98297493271E+01  0.30801549422E+02  0.00000000000E+00 0.  1.
</event>
<event>
 5    1  0.1259474E-009  0.9118800E+02  0.7815553E-02  0.1125453E+00
         25   -1    0    0    0    0  0.00000000000E+00  0.00000000000E+00  0.99999998245E-14  0.12509000000E+03  0.12509000000E+03 0.  0.
        -13    1    3    3    0    0  0.25828591417E+02 -0.30159864853E+02 -0.16736680692E+02  0.43091312665E+02  0.10566000000E+00 0.  1.
         23    2    1    0    0    0 -0.21833562794E+02 -0.12050774494E+02  0.67894498336E+01  0.99243873419E+02  0.95819226421E+02 0.  0.
         13    1    3    3    0    0 -0.47662154211E+02  0.18109090359E+02  0.23526130526E+02  0.56152560754E+02  0.10566000000E+00 0. -1.
         22    1    1    0    0    0  0.21833562794E+02  0.12050774494E+02 -0.67894498336E+01  0.25846126581E+02  0.00000000000E+00 0. -1.
</event>
<event>
 5    1  0.1259474E-009  0.9118800E+02  0.7815553E-02  0.1125453E+00
         25   -1    0    0    0    0  0.00000000000E+00  0.00000000000E+00  0.99999998245E-14  0.12509000000E+03  0.12509000000E+03 0.  0.
        -13    1    3    3    0    0  0.14036395933E+01 -0.15769215008E+02 -0.43702112280E+02  0.46481438530E+02  0.10566000000E+00 0.  1.
         23    2    1    0    0    0  0.15719423055E+02 -0.25304290541E+02  0.19203411900E+01  0.95238784091E+02  0.90439653382E+02 0.  0.
         13    1    3    3    0    0  0.14315783461E+02 -0.95350755327E+01  0.45622453470E+02  0.48757345561E+02  0.10566000000E+00 0. -1.
         22    1    1    0    0    0 -0.15719423055E+02  0.25304290541E+02 -0.19203411900E+01  0.29851215909E+02  0.00000000000E+00 0. -1.
</event>
<event>
 5    1  0.1259474E-009  0.9118800E+02  0.7815553E-02  0.1125453E+00
         25   -1    0    0    0    0  0.00000000000E+00  0.00000000000E+00  0.99999998245E-14  0.12509000000E+03  0.12509000000E+03 0.  0.
        -13    1    3    3    0    0 -0.16383768092E+02 -0.33637441580E+02 -0.49630842634E+02  0.62154139343E+02  0.10566000000E+00 0.  1.
         23    2    1    0    0    0 -0.38764313395E+01 -0.18847797914E+02 -0.22609106534E+02  0.95400980070E+02  0.90663714318E+02 0.  0.
         13    1    3    3    0    0  0.12507336752E+02  0.14789643665E+02  0.27021736100E+02  0.33246840726E+02  0.10566000000E+00 0. -1.
         22    1    1    0    0    0  0.38764313395E+01  0.18847797914E+02  0.22609106534E+02  0.29689019930E+02  0.00000000000E+00 0.  1.
</event>
<event>
 5    1  0.1259474E-009  0.9118800E+02  0.7815553E-02  0.1125453E+00
         25   -1    0    0    0    0  0.00000000000E+00  0.00000000000E+00  0.99999998245E-14  0.12509000000E+03  0.12509000000E+03 0.  0.
        -13    1    3    3    0    0  0.49560186274E+02 -0.29962244237E+02  0.15452292531E+02  0.59939408170E+02  0.10566000000E+00 0.  1.
         23    2    1    0    0    0  0.17562834249E+02 -0.18262163284E+02  0.17855450423E+02  0.94093599169E+02  0.88841592399E+02 0.  0.
         13    1    3    3    0    0 -0.31997352025E+02  0.11700080953E+02  0.24031578912E+01  0.34154190999E+02  0.10566000000E+00 0. -1.
         22    1    1    0    0    0 -0.17562834249E+02  0.18262163284E+02 -0.17855450423E+02  0.30996400831E+02  0.00000000000E+00 0.  1.
</event>
<event>
 4    1  0.1259474E-009  0.9118800E+02  0.7815553E-02  0.1125453E+00
         25   -1    0    0    0    0  0.00000000000E+00  0.00000000000E+00  0.99999998245E-14  0.12509000000E+03  0.12509000000E+03 0.  0.
        -13    1    1    0    0    0 -0.60898376979E+02 -0.56426787966E+01  0.12240684276E+02  0.62372250707E+02  0.10566000000E+00 0. -1.
         13    1    1    0    0    0  0.99561711945E+01 -0.12277873414E+01 -0.31628123718E+01  0.10518904541E+02  0.10566000000E+00 0.  1.
         22    1    1    0    0    0  0.50942205784E+02  0.68704661380E+01 -0.90778719038E+01  0.52198844752E+02  0.00000000000E+00 0. -1.
</event>
<event>
 5    1  0.1259474E-009  0.9118800E+02  0.7815553E-02  0.1125453E+00
         25   -1    0    0    0    0  0.00000000000E+00  0.00000000000E+00  0.99999998245E-14  0.12509000000E+03  0.12509000000E+03 0.  0.
        -13    1    3    3    0    0 -0.57785276883E+01  0.25668765425E+02  0.50813814007E+02  0.57221776962E+02  0.10566000000E+00 0.  1.
         23    2    1    0    0    0 -0.13516950145E+02 -0.31356158570E+01  0.24194201524E+02  0.97199151763E+02  0.93111630251E+02 0.  0.
         13    1    3    3    0    0 -0.77384224569E+01 -0.28804381281E+02 -0.26619612484E+02  0.39977374801E+02  0.10566000000E+00 0. -1.
         22    1    1    0    0    0  0.13516950145E+02  0.31356158570E+01 -0.24194201524E+02  0.27890848237E+02  0.00000000000E+00 0.  1.
</event>
<event>
 5    1  0.1259474E-009  0.9118800E+02  0.7815553E-02  0.1125453E+00
         25   -1    0    0    0    0  0.00000000000E+00  0.00000000000E+00  0.99999998245E-14  0.12509000000E+03  0.12509000000E+03 0.  0.
        -13    1    3    3    0    0 -0.43680175836E+01 -0.23677313337E+02  0.56338918504E+02  0.61268096484E+02  0.10566000000E+00 0. -1.
         23    2    1    0    0    0 -0.10187533910E+02 -0.14015124323E+02  0.24217153229E+02  0.95312826402E+02  0.90542005773E+02 0.  0.
         13    1    3    3    0    0 -0.58195163261E+01  0.96621890137E+01 -0.32121765275E+02  0.34044729919E+02  0.10566000000E+00 0.  1.
         22    1    1    0    0    0  0.10187533910E+02  0.14015124323E+02 -0.24217153229E+02  0.29777173598E+02  0.00000000000E+00 0. -1.
</event>
<event>
 5    1  0.1259474E-009  0.9118800E+02  0.7815553E-02  0.1125453E+00
         25   -1    0    0    0    0  0.00000000000E+00  0.00000000000E+00  0.99999998245E-14  0.12509000000E+03  0.12509000000E+03 0.  0.
        -13    1    3    3    0    0  0.44593882019E+00  0.35406505545E+02 -0.64155350566E+01  0.35985966021E+02  0.10566000000E+00 0. -1.
         23    2    1    0    0    0  0.15068369778E+02 -0.21714027382E+02 -0.13567839516E+02  0.95380724983E+02  0.90635763781E+02 0.  0.
         13    1    3    3    0    0  0.14622430958E+02 -0.57120532927E+02 -0.71523044591E+01  0.59394758962E+02  0.10566000000E+00 0.  1.
         22    1    1    0    0    0 -0.15068369778E+02  0.21714027382E+02  0.13567839516E+02  0.29709275017E+02  0.00000000000E+00 0.  1.
</event>
<event>
 5    1  0.1259474E-009  0.9118800E+02  0.7815553E-02  0.1125453E+00
         25   -1    0    0    0    0  0.00000000000E+00  0.00000000000E+00  0.99999998245E-14  0.12509000000E+03  0.12509000000E+03 0.  0.
        -13    1    3    3    0    0  0.43332397858E+02 -0.19304176663E+02 -0.31691843011E+02  0.57050258704E+02  0.10566000000E+00 0.  1.
         23    2    1    0    0    0  0.30115606766E+02 -0.26828905268E+01 -0.41841761166E+00  0.94852229815E+02  0.89903407917E+02 0.  0.
         13    1    3    3    0    0 -0.13216791092E+02  0.16621286136E+02  0.31273425399E+02  0.37801971111E+02  0.10566000000E+00 0. -1.
         22    1    1    0    0    0 -0.30115606766E+02  0.26828905268E+01  0.41841761166E+00  0.30237770185E+02  0.00000000000E+00 0. -1.
</event>
<event>
 5    1  0.1259474E-009  0.9118800E+02  0.7815553E-02  0.1125453E+00
         25   -1    0    0    0    0  0.00000000000E+00  0.00000000000E+00  0.99999998245E-14  0.12509000000E+03  0.12509000000E+03 0.  0.
        -13    1    3    3    0    0  0.25124026987E+02  0.18441959791E+02 -0.11182161928E+02  0.33111546663E+02  0.10566000000E+00 0.  1.
         23    2    1    0    0    0 -0.25311548941E+02 -0.10626198063E+02  0.11149322886E+02  0.95460656506E+02  0.90746013382E+02 0.  0.
         13    1    3    3    0    0 -0.50435575928E+02 -0.29068157854E+02  0.22331484814E+02  0.62349109843E+02  0.10566000000E+00 0. -1.
         22    1    1    0    0    0  0.25311548941E+02  0.10626198063E+02 -0.11149322886E+02  0.29629343494E+02  0.00000000000E+00 0. -1.
</event>
<event>
 5    1  0.1259474E-009  0.9118800E+02  0.7815553E-02  0.1125453E+00
         25   -1    0    0    0    0  0.00000000000E+00  0.00000000000E+00  0.99999998245E-14  0.12509000000E+03  0.12509000000E+03 0.  0.
        -13    1    3    3    0    0 -0.14080487689E+02  0.40063203098E+01  0.33870851568E+02  0.36899274870E+02  0.10566000000E+00 0.  1.
         23    2    1    0    0    0 -0.16646743271E+02 -0.26667270370E+01 -0.24303572576E+02  0.95511475112E+02  0.90816037920E+02 0.  0.
         13    1    3    3    0    0 -0.25662555817E+01 -0.66730473468E+01 -0.58174424144E+02  0.58612200241E+02  0.10566000000E+00 0. -1.
         22    1    1    0    0    0  0.16646743271E+02  0.26667270370E+01  0.24303572576E+02  0.29578524888E+02  0.00000000000E+00 0. -1.
</event>
<event>
 5    1  0.1259474E-009  0.9118800E+02  0.7815553E-02  0.1125453E+00
         25   -1    0    0    0    0  0.00000000000E+00  0.00000000000E+00  0.99999998245E-14  0.12509000000E+03  0.12509000000E+03 0.  0.
        -13    1    3    3    0    0  0.28000545456E+02  0.11384298331E+02 -0.89017382480E+01  0.31510076201E+02  0.10566000000E+00 0.  1.
         23    2    1    0    0    0 -0.21849617700E+02 -0.16953080041E+02  0.14994157660E+02  0.93631495896E+02  0.88188545420E+02 0.  0.
         13    1    3    3    0    0 -0.49850163156E+02 -0.28337378372E+02  0.23895895908E+02  0.62121419695E+02  0.10566000000E+00 0. -1.
         22    1    1    0    0    0  0.21849617700E+02  0.16953080041E+02 -0.14994157660E+02  0.31458504104E+02  0.00000000000E+00 0. -1.
</event>
<event>
 5    1  0.1259474E-009  0.9118800E+02  0.7815553E-02  0.1125453E+00
         25   -1    0    0    0    0  0.00000000000E+00  0.00000000000E+00  0.99999998245E-14  0.12509000000E+03  0.12509000000E+03 0.  0.
        -13    1    3    3    0    0 -0.12981974312E+02  0.24090535543E+02 -0.53119224816E+02  0.59754069057E+02  0.10566000000E+00 0.  1.
         23    2    1    0    0    0 -0.14569497004E+02  0.16184207089E+02 -0.15169894027E+02  0.98550887603E+02  0.94910236331E+02 0.  0.
         13    1    3    3    0    0 -0.15875226921E+01 -0.79063284547E+01  0.37949330788E+02  0.38796818546E+02  0.10566000000E+00 0. -1.
         22    1    1    0    0    0  0.14569497004E+02 -0.16184207089E+02  0.15169894027E+02  0.26539112397E+02  0.00000000000E+00 0.  1.
</event>
<event>
 5    1  0.1259474E-009  0.9118800E+02  0.7815553E-02  0.1125453E+00
         25   -1    0    0    0    0  0.00000000000E+00  0.00000000000E+00  0.99999998245E-14  0.12509000000E+03  0.12509000000E+03 0.  0.
        -13    1    3    3    0    0  0.25229076209E+02 -0.17985024150E+02 -0.14960823350E+02  0.34406464209E+02  0.10566000000E+00 0. -1.
         23    2    1    0    0    0 -0.94468320596E+01  0.10410793084E+02  0.26263070618E+02  0.95301140893E+02  0.90525860000E+02 0.  0.
         13    1    3    3    0    0 -0.34675908269E+02  0.28395817234E+02  0.41223893967E+02  0.60894676684E+02  0.10566000000E+00 0.  1.
         22    1    1    0    0    0  0.94468320596E+01 -0.10410793084E+02 -0.26263070618E+02  0.29788859107E+02  0.00000000000E+00 0.  1.
</event>
<event>
 4    1  0.1259474E-009  0.9118800E+02  0.7815553E-02  0.1125453E+00
         25   -1    0    0    0    0  0.00000000000E+00  0.00000000000E+00  0.99999998245E-14  0.12509000000E+03  0.12509000000E+03 0.  0.
        -13    1    1    0    0    0 -0.31490867539E+02  0.25520171927E+01 -0.66483134657E+01  0.32286200861E+02  0.10566000000E+00 0.  1.
         13    1    1    0    0    0  0.93535431472E+01  0.84488505688E+01 -0.38948375426E+02  0.40937256353E+02  0.10566000000E+00 0. -1.
         22    1    1    0    0    0  0.22137324391E+02 -0.11000867761E+02  0.45596688891E+02  0.51866542786E+02  0.00000000000E+00 0.  1.
</event>
<event>
 4    1  0.1259474E-009  0.9118800E+02  0.7815553E-02  0.1125453E+00
         25   -1    0    0    0    0  0.00000000000E+00  0.00000000000E+00  0.99999998245E-14  0.12509000000E+03  0.12509000000E+03 0.  0.
        -13    1    1    0    0    0 -0.50239747643E+02  0.46382653221E+01 -0.12086076084E+02  0.51880922771E+02  0.10566000000E+00 0.  1.
         13    1    1    0    0    0  0.53626085334E+01  0.19963991132E+02  0.67844843705E+01  0.21756812828E+02  0.10566000000E+00 0. -1.
         22    1    1    0    0    0  0.44877139110E+02 -0.24602256454E+02  0.53015917135E+01  0.51452264401E+02  0.00000000000E+00 0.  1.
</event>
<event>
 5    1  0.1259474E-009  0.9118800E+02  0.7815553E-02  0.1125453E+00
         25   -1    0    0    0    0  0.00000000000E+00  0.00000000000E+00  0.99999998245E-14  0.12509000000E+03  0.12509000000E+03 0.  0.
        -13    1    3    3    0    0 -0.12823031273E+02  0.33921791415E+02  0.37716319994E+02  0.52322557485E+02  0.10566000000E+00 0.  1.
         23    2    1    0    0    0 -0.95764165222E+01  0.10374774229E+02  0.45590856232E+02  0.77362965044E+02  0.60886439333E+02 0.  0.
         13    1    3    3    0    0  0.32466147513E+01 -0.23547017186E+02  0.78745362378E+01  0.25040407559E+02  0.10566000000E+00 0. -1.
         22    1    1    0    0    0  0.95764165222E+01 -0.10374774229E+02 -0.45590856232E+02  0.47727034956E+02  0.00000000000E+00 0.  1.
</event>
<event>
 5    1  0.1259474E-009  0.9118800E+02  0.7815553E-02  0.1125453E+00
         25   -1    0    0    0    0  0.00000000000E+00  0.00000000000E+00  0.99999998245E-14  0.12509000000E+03  0.12509000000E+03 0.  0.
        -13    1    3    3    0    0 -0.13121634725E+02 -0.61724876933E+01  0.57406411731E+02  0.59209662843E+02  0.10566000000E+00 0. -1.
         23    2    1    0    0    0 -0.17810867621E+02  0.59897004337E+01  0.28080403210E+02  0.91302242437E+02  0.84820321344E+02 0.  0.
         13    1    3    3    0    0 -0.46892328960E+01  0.12162188127E+02 -0.29326008520E+02  0.32092579593E+02  0.10566000000E+00 0.  1.
         22    1    1    0    0    0  0.17810867621E+02 -0.59897004337E+01 -0.28080403210E+02  0.33787757563E+02  0.00000000000E+00 0. -1.
</event>
<event>
 5    1  0.1259474E-009  0.9118800E+02  0.7815553E-02  0.1125453E+00
         25   -1    0    0    0    0  0.00000000000E+00  0.00000000000E+00  0.99999998245E-14  0.12509000000E+03  0.12509000000E+03 0.  0.
        -13    1    3    3    0    0 -0.20131657134E+02  0.48000811763E+02 -0.10011257776E+02  0.53005641163E+02  0.10566000000E+00 0. -1.
         23    2    1    0    0    0 -0.13852821963E+02 -0.54318881261E+01  0.58594764264E+01  0.10909814117E+03  0.10791971487E+03 0.  0.
         13    1    3    3    0    0  0.62788351716E+01 -0.53432699889E+02  0.15870734202E+02  0.56092500004E+02  0.10566000000E+00 0.  1.
         22    1    1    0    0    0  0.13852821963E+02  0.54318881261E+01 -0.58594764264E+01  0.15991858833E+02  0.00000000000E+00 0. -1.
</event>
<event>
 5    1  0.1259474E-009  0.9118800E+02  0.7815553E-02  0.1125453E+00
         25   -1    0    0    0    0  0.00000000000E+00  0.00000000000E+00  0.99999998245E-14  0.12509000000E+03  0.12509000000E+03 0.  0.
        -13    1    3    3    0    0  0.92466361383E+01 -0.28655692869E+02  0.30143903115E+02  0.42606514440E+02  0.10566000000E+00 0. -1.
         23    2    1    0    0    0  0.22817642691E+01  0.22763670543E+02  0.84338045333E+00  0.10219671637E+03  0.99599530127E+02 0.  0.
         13    1    3    3    0    0 -0.69648718692E+01  0.51419363412E+02 -0.29300522661E+02  0.59590201930E+02  0.10566000000E+00 0.  1.
         22    1    1    0    0    0 -0.22817642691E+01 -0.22763670543E+02 -0.84338045333E+00  0.22893283630E+02  0.00000000000E+00 0.  1.
</event>
<event>
 5    1  0.1259474E-009  0.9118800E+02  0.7815553E-02  0.1125453E+00
         25   -1    0    0    0    0  0.00000000000E+00  0.00000000000E+00  0.99999998245E-14  0.12509000000E+03  0.12509000000E+03 0.  0.
        -13    1    3    3    0    0 -0.17154394903E+02  0.30230297052E+02  0.39222708482E+01  0.34979129448E+02  0.10566000000E+00 0. -1.
         23    2    1    0    0    0  0.30781090531E+01 -0.20360251727E+02 -0.21687574372E+02  0.95184055977E+02  0.90363925459E+02 0.  0.
         13    1    3    3    0    0  0.20232503956E+02 -0.50590548779E+02 -0.25609845220E+02  0.60204926529E+02  0.10566000000E+00 0.  1.
         22    1    1    0    0    0 -0.30781090531E+01  0.20360251727E+02  0.21687574372E+02  0.29905944023E+02  0.00000000000E+00 0.  1.
</event>
<event>
 5    1  0.1259474E-009  0.9118800E+02  0.7815553E-02  0.1125453E+00
         25   -1    0    0    0    0  0.00000000000E+00  0.00000000000E+00  0.99999998245E-14  0.12509000000E+03  0.12509000000E+03 0.  0.
        -13    1    3    3    0    0  0.30685826899E+02  0.32543694102E+01  0.17250973008E+02  0.35352766886E+02  0.10566000000E+00 0. -1.
         23    2    1    0    0    0 -0.16338416694E+02  0.15931550713E+02 -0.18454042478E+02  0.95741919109E+02  0.91132898684E+02 0.  0.
         13    1    3    3    0    0 -0.47024243593E+02  0.12677181303E+02 -0.35705015487E+02  0.60389152223E+02  0.10566000000E+00 0.  1.
         22    1    1    0    0    0  0.16338416694E+02 -0.15931550713E+02  0.18454042478E+02  0.29348080891E+02  0.00000000000E+00 0.  1.
</event>
<event>
 5    1  0.1259474E-009  0.9118800E+02  0.7815553E-02  0.1125453E+00
         25   -1    0    0    0    0  0.00000000000E+00  0.00000000000E+00  0.99999998245E-14  0.12509000000E+03  0.12509000000E+03 0.  0.
        -13    1    3    3    0    0 -0.27100583313E+02  0.19943646625E+02  0.81885493708E+01  0.34630249226E+02  0.10566000000E+00 0.  1.
         23    2    1    0    0    0  0.23997643917E+02 -0.13122055469E+02 -0.59154020037E+01  0.97106661490E+02  0.92987291990E+02 0.  0.
         13    1    3    3    0    0  0.51098227230E+02 -0.33065702094E+02 -0.14103951375E+02  0.62476412264E+02  0.10566000000E+00 0. -1.
         22    1    1    0    0    0 -0.23997643917E+02  0.13122055469E+02  0.59154020037E+01  0.27983338510E+02  0.00000000000E+00 0. -1.
</event>
<event>
 5    1  0.1259474E-009  0.9118800E+02  0.7815553E-02  0.1125453E+00
         25   -1    0    0    0    0  0.00000000000E+00  0.00000000000E+00  0.99999998245E-14  0.12509000000E+03  0.12509000000E+03 0.  0.
        -13    1    3    3    0    0 -0.13769304772E+02  0.80551964264E+01 -0.27178031443E+02  0.31514068296E+02  0.10566000000E+00 0. -1.
         23    2    1    0    0    0  0.77630131389E+01 -0.22498796223E+02  0.21587793065E+02  0.92957570682E+02  0.87227386371E+02 0.  0.
         13    1    3    3    0    0  0.21532317911E+02 -0.30553992650E+02  0.48765824508E+02  0.61443502386E+02  0.10566000000E+00 0.  1.
         22    1    1    0    0    0 -0.77630131389E+01  0.22498796223E+02 -0.21587793065E+02  0.32132429318E+02  0.00000000000E+00 0.  1.
</event>
<event>
 5    1  0.1259474E-009  0.9118800E+02  0.7815553E-02  0.1125453E+00
         25   -1    0    0    0    0  0.00000000000E+00  0.00000000000E+00  0.99999998245E-14  0.12509000000E+03  0.12509000000E+03 0.  0.
        -13    1    3    3    0    0 -0.31226595851E+02 -0.42017936693E+02 -0.12266505298E+02  0.53768816322E+02  0.10566000000E+00 0. -1.
         23    2    1    0    0    0 -0.25455534709E+02 -0.30716379907E+01 -0.18284878682E+02  0.93597842314E+02  0.88140796968E+02 0.  0.
         13    1    3    3    0    0  0.57710611423E+01  0.38946298702E+02 -0.60183733844E+01  0.39829025993E+02  0.10566000000E+00 0.  1.
         22    1    1    0    0    0  0.25455534709E+02  0.30716379907E+01  0.18284878682E+02  0.31492157686E+02  0.00000000000E+00 0. -1.
</event>
<event>
 5    1  0.1259474E-009  0.9118800E+02  0.7815553E-02  0.1125453E+00
         25   -1    0    0    0    0  0.00000000000E+00  0.00000000000E+00  0.99999998245E-14  0.12509000000E+03  0.12509000000E+03 0.  0.
        -13    1    3    3    0    0  0.15118547752E+02 -0.42157965241E+02 -0.46358527676E+01  0.45026290257E+02  0.10566000000E+00 0.  1.
         23    2    1    0    0    0  0.27046876326E+02  0.80788568236E+01 -0.60523151192E-01  0.96862263470E+02  0.92657935304E+02 0.  0.
         13    1    3    3    0    0  0.11928328574E+02  0.50236822065E+02  0.45753296164E+01  0.51835973213E+02  0.10566000000E+00 0. -1.
         22    1    1    0    0    0 -0.27046876326E+02 -0.80788568236E+01  0.60523151192E-01  0.28227736530E+02  0.00000000000E+00 0. -1.
</event>
<event>
 5    1  0.1259474E-009  0.9118800E+02  0.7815553E-02  0.1125453E+00
         25   -1    0    0    0    0  0.00000000000E+00  0.00000000000E+00  0.99999998245E-14  0.12509000000E+03  0.12509000000E+03 0.  0.
        -13    1    3    3    0    0 -0.96725284232E+01  0.41791221244E+02 -0.42168029854E+02  0.60151624126E+02  0.10566000000E+00 0.  1.
         23    2    1    0    0    0 -0.82900030848E+01  0.26178065041E+02 -0.10124230726E+02  0.95823717554E+02  0.91245107034E+02 0.  0.
         13    1    3    3    0    0  0.13825253384E+01 -0.15613156203E+02  0.32043799128E+02  0.35672093428E+02  0.10566000000E+00 0. -1.
         22    1    1    0    0    0  0.82900030848E+01 -0.26178065041E+02  0.10124230726E+02  0.29266282446E+02  0.00000000000E+00 0.  1.
</event>
<event>
 5    1  0.1259474E-009  0.9118800E+02  0.7815553E-02  0.1125453E+00
         25   -1    0    0    0    0  0.00000000000E+00  0.00000000000E+00  0.99999998245E-14  0.12509000000E+03  0.12509000000E+03 0.  0.
        -13    1    3    3    0    0  0.54696221016E+02  0.10730652454E+02  0.11573243468E+02  0.56927801854E+02  0.10566000000E+00 0. -1.
         23    2    1    0    0    0  0.19586029184E+02  0.32776608047E+01  0.23101435975E+02  0.94626383280E+02  0.89588617965E+02 0.  0.
         13    1    3    3    0    0 -0.35110191832E+02 -0.74529916495E+01  0.11528192507E+02  0.37698581426E+02  0.10566000000E+00 0.  1.
         22    1    1    0    0    0 -0.19586029184E+02 -0.32776608047E+01 -0.23101435975E+02  0.30463616720E+02  0.00000000000E+00 0. -1.
</event>
<event>
 5    1  0.1259474E-009  0.9118800E+02  0.7815553E-02  0.1125453E+00
         25   -1    0    0    0    0  0.00000000000E+00  0.00000000000E+00  0.99999998245E-14  0.12509000000E+03  0.12509000000E+03 0.  0.
        -13    1    3    3    0    0  0.47412785479E+02  0.29954824036E+02 -0.23375994482E+02  0.60759460103E+02  0.10566000000E+00 0.  1.
         23    2    1    0    0    0  0.15041475095E+02  0.14637479975E+02 -0.18891989474E+02  0.96851567690E+02  0.92643494670E+02 0.  0.
         13    1    3    3    0    0 -0.32371310385E+02 -0.15317344061E+02  0.44840050076E+01  0.36092107587E+02  0.10566000000E+00 0. -1.
         22    1    1    0    0    0 -0.15041475095E+02 -0.14637479975E+02  0.18891989474E+02  0.28238432310E+02  0.00000000000E+00 0.  1.
</event>
<event>
 5    1  0.1259474E-009  0.9118800E+02  0.7815553E-02  0.1125453E+00
         25   -1    0    0    0    0  0.00000000000E+00  0.00000000000E+00  0.99999998245E-14  0.12509000000E+03  0.12509000000E+03 0.  0.
        -13    1    3    3    0    0 -0.17895455206E+02  0.23676220739E+02 -0.25606371242E+02  0.39198318302E+02  0.10566000000E+00 0.  1.
         23    2    1    0    0    0 -0.17980092884E+02 -0.22695588890E+02  0.62629918622E+01  0.95465709929E+02  0.90752979069E+02 0.  0.
         13    1    3    3    0    0 -0.84637678173E-01 -0.46371809628E+02  0.31869363104E+02  0.56267391627E+02  0.10566000000E+00 0. -1.
         22    1    1    0    0    0  0.17980092884E+02  0.22695588890E+02 -0.62629918622E+01  0.29624290071E+02  0.00000000000E+00 0. -1.
</event>
<event>
 5    1  0.1259474E-009  0.9118800E+02  0.7815553E-02  0.1125453E+00
         25   -1    0    0    0    0  0.00000000000E+00  0.00000000000E+00  0.99999998245E-14  0.12509000000E+03  0.12509000000E+03 0.  0.
        -13    1    3    3    0    0  0.29306558867E+02 -0.34465347580E+02  0.92188969293E+01  0.46170702844E+02  0.10566000000E+00 0. -1.
         23    2    1    0    0    0  0.18880555432E+02  0.39048418971E+01 -0.21348539064E+02  0.96323990825E+02  0.91928384761E+02 0.  0.
         13    1    3    3    0    0 -0.10426003434E+02  0.38370189478E+02 -0.30567435993E+02  0.50153287982E+02  0.10566000000E+00 0.  1.
         22    1    1    0    0    0 -0.18880555432E+02 -0.39048418971E+01  0.21348539064E+02  0.28766009175E+02  0.00000000000E+00 0. -1.
</event>
<event>
 5    1  0.1259474E-009  0.9118800E+02  0.7815553E-02  0.1125453E+00
         25   -1    0    0    0    0  0.00000000000E+00  0.00000000000E+00  0.99999998245E-14  0.12509000000E+03  0.12509000000E+03 0.  0.
        -13    1    3    3    0    0 -0.12995143137E+02  0.10912623806E+02  0.26016635041E+02  0.31061802369E+02  0.10566000000E+00 0.  1.
         23    2    1    0    0    0  0.29278243562E+02 -0.32135938528E+01 -0.15354145867E+02  0.91874152474E+02  0.85659601715E+02 0.  0.
         13    1    3    3    0    0  0.42273386699E+02 -0.14126217659E+02 -0.41370780908E+02  0.60812350106E+02  0.10566000000E+00 0. -1.
         22    1    1    0    0    0 -0.29278243562E+02  0.32135938528E+01  0.15354145867E+02  0.33215847526E+02  0.00000000000E+00 0. -1.
</event>
<event>
 5    1  0.1259474E-009  0.9118800E+02  0.7815553E-02  0.1125453E+00
         25   -1    0    0    0    0  0.00000000000E+00  0.00000000000E+00  0.99999998245E-14  0.12509000000E+03  0.12509000000E+03 0.  0.
        -13    1    3    3    0    0  0.12681079059E+02  0.21441120614E+02 -0.31939606642E+02  0.40505321326E+02  0.10566000000E+00 0.  1.
         23    2    1    0    0    0  0.14655860461E+02  0.97190652737E+01  0.22672821546E+02  0.96396598102E+02  0.92027130854E+02 0.  0.
         13    1    3    3    0    0  0.19747814020E+01 -0.11722055340E+02  0.54612428188E+02  0.55891276776E+02  0.10566000000E+00 0. -1.
         22    1    1    0    0    0 -0.14655860461E+02 -0.97190652737E+01 -0.22672821546E+02  0.28693401898E+02  0.00000000000E+00 0.  1.
</event>
<event>
 5    1  0.1259474E-009  0.9118800E+02  0.7815553E-02  0.1125453E+00
         25   -1    0    0    0    0  0.00000000000E+00  0.00000000000E+00  0.99999998245E-14  0.12509000000E+03  0.12509000000E+03 0.  0.
        -13    1    3    3    0    0 -0.38756758724E-01 -0.25226719164E+02 -0.24441783290E+02  0.35125500655E+02  0.10566000000E+00 0.  1.
         23    2    1    0    0    0  0.90648107494E+01  0.27333699021E+02  0.47025151648E+01  0.95910974229E+02  0.91364650891E+02 0.  0.
         13    1    3    3    0    0  0.91035675081E+01  0.52560418185E+02  0.29144298454E+02  0.60785473574E+02  0.10566000000E+00 0. -1.
         22    1    1    0    0    0 -0.90648107494E+01 -0.27333699021E+02 -0.47025151648E+01  0.29179025771E+02  0.00000000000E+00 0. -1.
</event>
<event>
 5    1  0.1259474E-009  0.9118800E+02  0.7815553E-02  0.1125453E+00
         25   -1    0    0    0    0  0.00000000000E+00  0.00000000000E+00  0.99999998245E-14  0.12509000000E+03  0.12509000000E+03 0.  0.
        -13    1    3    3    0    0  0.24040936084E+02 -0.25068946466E+02  0.50719967217E+02  0.61473123585E+02  0.10566000000E+00 0.  1.
         23    2    1    0    0    0  0.12102915195E+02 -0.57144939029E+01  0.30010073414E+02  0.92230594906E+02  0.86178547990E+02 0.  0.
         13    1    3    3    0    0 -0.11938020888E+02  0.19354452563E+02 -0.20709893803E+02  0.30757471322E+02  0.10566000000E+00 0. -1.
         22    1    1    0    0    0 -0.12102915195E+02  0.57144939029E+01 -0.30010073414E+02  0.32859405094E+02  0.00000000000E+00 0.  1.
</event>
<event>
 5    1  0.1259474E-009  0.9118800E+02  0.7815553E-02  0.1125453E+00
         25   -1    0    0    0    0  0.00000000000E+00  0.00000000000E+00  0.99999998245E-14  0.12509000000E+03  0.12509000000E+03 0.  0.
        -13    1    3    3    0    0 -0.19111441114E+02 -0.34242127197E+02 -0.38431715952E+01  0.39402431249E+02  0.10566000000E+00 0. -1.
         23    2    1    0    0    0 -0.95475032474E+01  0.15811319308E+02  0.21855746826E+02  0.96474858801E+02  0.92133447102E+02 0.  0.
         13    1    3    3    0    0  0.95639378665E+01  0.50053446505E+02  0.25698918421E+02  0.57072427552E+02  0.10566000000E+00 0.  1.
         22    1    1    0    0    0  0.95475032474E+01 -0.15811319308E+02 -0.21855746826E+02  0.28615141199E+02  0.00000000000E+00 0.  1.
</event>
<event>
 5    1  0.1259474E-009  0.9118800E+02  0.7815553E-02  0.1125453E+00
         25   -1    0    0    0    0  0.00000000000E+00  0.00000000000E+00  0.99999998245E-14  0.12509000000E+03  0.12509000000E+03 0.  0.
        -13    1    3    3    0    0  0.31808055528E+02  0.19381945186E+02 -0.71415807873E+01  0.37926580862E+02  0.10566000000E+00 0.  1.
         23    2    1    0    0    0 -0.68260134640E+01 -0.17078041734E+02  0.20283272312E+02  0.97709987127E+02  0.93795396898E+02 0.  0.
         13    1    3    3    0    0 -0.38634068992E+02 -0.36459986920E+02  0.27424853099E+02  0.59783406265E+02  0.10566000000E+00 0. -1.
         22    1    1    0    0    0  0.68260134640E+01  0.17078041734E+02 -0.20283272312E+02  0.27380012873E+02  0.00000000000E+00 0. -1.
</event>
<event>
 5    1  0.1259474E-009  0.9118800E+02  0.7815553E-02  0.1125453E+00
         25   -1    0    0    0    0  0.00000000000E+00  0.00000000000E+00  0.99999998245E-14  0.12509000000E+03  0.12509000000E+03 0.  0.
        -13    1    3    3    0    0  0.19307003384E+02 -0.49469541103E+02 -0.17674993542E+02  0.55967959025E+02  0.10566000000E+00 0.  1.
         23    2    1    0    0    0  0.97525265414E+01 -0.18141416719E+02 -0.28018783112E+02  0.90315368707E+02  0.83352209587E+02 0.  0.
         13    1    3    3    0    0 -0.95544768421E+01  0.31328124385E+02 -0.10343789570E+02  0.34347409682E+02  0.10566000000E+00 0. -1.
         22    1    1    0    0    0 -0.97525265414E+01  0.18141416719E+02  0.28018783112E+02  0.34774631293E+02  0.00000000000E+00 0.  1.
</event>
<event>
 5    1  0.1259474E-009  0.9118800E+02  0.7815553E-02  0.1125453E+00
         25   -1    0    0    0    0  0.00000000000E+00  0.00000000000E+00  0.99999998245E-14  0.12509000000E+03  0.12509000000E+03 0.  0.
        -13    1    3    3    0    0  0.29583902334E+02 -0.50109462682E+02  0.14560294912E+02  0.59984822076E+02  0.10566000000E+00 0. -1.
         23    2    1    0    0    0  0.44750483262E+01 -0.29123932125E+02  0.45123730362E+00  0.95620811089E+02  0.90966512621E+02 0.  0.
         13    1    3    3    0    0 -0.25108854007E+02  0.20985530557E+02 -0.14109057608E+02  0.35635989013E+02  0.10566000000E+00 0.  1.
         22    1    1    0    0    0 -0.44750483262E+01  0.29123932125E+02 -0.45123730362E+00  0.29469188911E+02  0.00000000000E+00 0. -1.
</event>
<event>
 5    1  0.1259474E-009  0.9118800E+02  0.7815553E-02  0.1125453E+00
         25   -1    0    0    0    0  0.00000000000E+00  0.00000000000E+00  0.99999998245E-14  0.12509000000E+03  0.12509000000E+03 0.  0.
        -13    1    3    3    0    0  0.11735408665E+02 -0.77394105339E+01  0.40845967137E+02  0.43197482419E+02  0.10566000000E+00 0. -1.
         23    2    1    0    0    0 -0.44501027278E+01  0.28809309156E+02  0.81983639246E+01  0.94808109712E+02  0.89841999020E+02 0.  0.
         13    1    3    3    0    0 -0.16185511393E+02  0.36548719690E+02 -0.32647603212E+02  0.51610627293E+02  0.10566000000E+00 0.  1.
         22    1    1    0    0    0  0.44501027278E+01 -0.28809309156E+02 -0.81983639246E+01  0.30281890288E+02  0.00000000000E+00 0.  1.
</event>
<event>
 5    1  0.1259474E-009  0.9118800E+02  0.7815553E-02  0.1125453E+00
         25   -1    0    0    0    0  0.00000000000E+00  0.00000000000E+00  0.99999998245E-14  0.12509000000E+03  0.12509000000E+03 0.  0.
        -13    1    3    3    0    0  0.40699381927E+02  0.28084076379E+02 -0.36659712845E+02  0.61555671918E+02  0.10566000000E+00 0.  1.
         23    2    1    0    0    0  0.24225634642E+02  0.16140040312E+02 -0.11804822293E+02  0.93677644080E+02  0.88253979491E+02 0.  0.
         13    1    3    3    0    0 -0.16473747285E+02 -0.11944036067E+02  0.24854890552E+02  0.32121972162E+02  0.10566000000E+00 0. -1.
         22    1    1    0    0    0 -0.24225634642E+02 -0.16140040312E+02  0.11804822293E+02  0.31412355920E+02  0.00000000000E+00 0.  1.
</event>
<event>
 5    1  0.1259474E-009  0.9118800E+02  0.7815553E-02  0.1125453E+00
         25   -1    0    0    0    0  0.00000000000E+00  0.00000000000E+00  0.99999998245E-14  0.12509000000E+03  0.12509000000E+03 0.  0.
        -13    1    3    3    0    0 -0.16497085625E+02  0.14309977671E+02  0.34193454132E+02  0.40572561721E+02  0.10566000000E+00 0. -1.
         23    2    1    0    0    0  0.24994255114E+02 -0.11597882138E+02  0.18328475841E+02  0.91996848361E+02  0.85838589357E+02 0.  0.
         13    1    3    3    0    0  0.41491340739E+02 -0.25907859809E+02 -0.15864978291E+02  0.51424286640E+02  0.10566000000E+00 0.  1.
         22    1    1    0    0    0 -0.24994255114E+02  0.11597882138E+02 -0.18328475841E+02  0.33093151639E+02  0.00000000000E+00 0.  1.
</event>
<event>
 5    1  0.1259474E-009  0.9118800E+02  0.7815553E-02  0.1125453E+00
         25   -1    0    0    0    0  0.00000000000E+00  0.00000000000E+00  0.99999998245E-14  0.12509000000E+03  0.12509000000E+03 0.  0.
        -13    1    3    3    0    0  0.51696942718E+02 -0.52825395469E+00 -0.15553070355E+01  0.51723138754E+02  0.10566000000E+00 0.  1.
         23    2    1    0    0    0  0.15502225172E+02 -0.22312188297E+02 -0.12229535323E+02  0.95295465835E+02  0.90518017779E+02 0.  0.
         13    1    3    3    0    0 -0.36194717546E+02 -0.21783934342E+02 -0.10674228288E+02  0.43572327081E+02  0.10566000000E+00 0. -1.
         22    1    1    0    0    0 -0.15502225172E+02  0.22312188297E+02  0.12229535323E+02  0.29794534165E+02  0.00000000000E+00 0.  1.
</event>
<event>
 5    1  0.1259474E-009  0.9118800E+02  0.7815553E-02  0.1125453E+00
         25   -1    0    0    0    0  0.00000000000E+00  0.00000000000E+00  0.99999998245E-14  0.12509000000E+03  0.12509000000E+03 0.  0.
        -13    1    3    3    0    0  0.14367293375E+01  0.30616651084E+02  0.48069687313E+02  0.57010082593E+02  0.10566000000E+00 0. -1.
         23    2    1    0    0    0  0.86428889577E+01 -0.20027481318E+01  0.27390094729E+02  0.96298893406E+02  0.91894227525E+02 0.  0.
         13    1    3    3    0    0  0.72061596202E+01 -0.32619399216E+02 -0.20679592584E+02  0.39288810814E+02  0.10566000000E+00 0.  1.
         22    1    1    0    0    0 -0.86428889577E+01  0.20027481318E+01 -0.27390094729E+02  0.28791106594E+02  0.00000000000E+00 0.  1.
</event>
<event>
 5    1  0.1259474E-009  0.9118800E+02  0.7815553E-02  0.1125453E+00
         25   -1    0    0    0    0  0.00000000000E+00  0.00000000000E+00  0.99999998245E-14  0.12509000000E+03  0.12509000000E+03 0.  0.
        -13    1    3    3    0    0  0.48128706456E+01 -0.97331522933E+01  0.57114688878E+02  0.58137740127E+02  0.10566000000E+00 0. -1.
         23    2    1    0    0    0 -0.82382314556E+01 -0.16129917215E+02  0.19434048921E+02  0.98524515921E+02  0.94875472559E+02 0.  0.
         13    1    3    3    0    0 -0.13051102101E+02 -0.63967649212E+01 -0.37680639957E+02  0.40386775795E+02  0.10566000000E+00 0.  1.
         22    1    1    0    0    0  0.82382314556E+01  0.16129917215E+02 -0.19434048921E+02  0.26565484079E+02  0.00000000000E+00 0. -1.
</event>
<event>
 5    1  0.1259474E-009  0.9118800E+02  0.7815553E-02  0.1125453E+00
         25   -1    0    0    0    0  0.00000000000E+00  0.00000000000E+00  0.99999998245E-14  0.12509000000E+03  0.12509000000E+03 0.  0.
        -13    1    3    3    0    0 -0.24805796002E+02 -0.53677717687E+02  0.14017719198E+02  0.60771148639E+02  0.10566000000E+00 0.  1.
         23    2    1    0    0    0 -0.15213288145E+01 -0.28062741783E+02  0.49773174196E+01  0.96548703490E+02  0.92233651881E+02 0.  0.
         13    1    3    3    0    0  0.23284467188E+02  0.25614975904E+02 -0.90404017782E+01  0.35777554851E+02  0.10566000000E+00 0. -1.
         22    1    1    0    0    0  0.15213288145E+01  0.28062741783E+02 -0.49773174196E+01  0.28541296510E+02  0.00000000000E+00 0.  1.
</event>
<event>
 5    1  0.1259474E-009  0.9118800E+02  0.7815553E-02  0.1125453E+00
         25   -1    0    0    0    0  0.00000000000E+00  0.00000000000E+00  0.99999998245E-14  0.12509000000E+03  0.12509000000E+03 0.  0.
        -13    1    3    3    0    0 -0.26374698385E+02 -0.46726850462E+02 -0.23642811895E+02  0.58634605715E+02  0.10566000000E+00 0. -1.
         23    2    1    0    0    0  0.40497295703E+01 -0.23005482028E+02 -0.11307098114E+02  0.99138064028E+02  0.95680994761E+02 0.  0.
         13    1    3    3    0    0  0.30424427956E+02  0.23721368434E+02  0.12335713781E+02  0.40503458313E+02  0.10566000000E+00 0.  1.
         22    1    1    0    0    0 -0.40497295703E+01  0.23005482028E+02  0.11307098114E+02  0.25951935972E+02  0.00000000000E+00 0. -1.
</event>
<event>
 5    1  0.1259474E-009  0.9118800E+02  0.7815553E-02  0.1125453E+00
         25   -1    0    0    0    0  0.00000000000E+00  0.00000000000E+00  0.99999998245E-14  0.12509000000E+03  0.12509000000E+03 0.  0.
        -13    1    3    3    0    0 -0.20352309741E+02  0.54358540297E+02 -0.16487001970E+02  0.60339869183E+02  0.10566000000E+00 0. -1.
         23    2    1    0    0    0 -0.31008874440E+01  0.23678962693E+02 -0.17388808111E+02  0.95548852008E+02  0.90867506268E+02 0.  0.
         13    1    3    3    0    0  0.17251422297E+02 -0.30679577604E+02 -0.90180614137E+00  0.35208982825E+02  0.10566000000E+00 0.  1.
         22    1    1    0    0    0  0.31008874440E+01 -0.23678962693E+02  0.17388808111E+02  0.29541147992E+02  0.00000000000E+00 0. -1.
</event>
<event>
 5    1  0.1259474E-009  0.9118800E+02  0.7815553E-02  0.1125453E+00
         25   -1    0    0    0    0  0.00000000000E+00  0.00000000000E+00  0.99999998245E-14  0.12509000000E+03  0.12509000000E+03 0.  0.
        -13    1    3    3    0    0 -0.28272457762E+02 -0.27631790372E+02  0.12256324610E+02  0.41389326692E+02  0.10566000000E+00 0.  1.
         23    2    1    0    0    0  0.11331024585E+02  0.96080579579E+01 -0.16498855192E+02  0.10288821812E+03  0.10046425389E+03 0.  0.
         13    1    3    3    0    0  0.39603482347E+02  0.37239848330E+02 -0.28755179802E+02  0.61498891430E+02  0.10566000000E+00 0. -1.
         22    1    1    0    0    0 -0.11331024585E+02 -0.96080579579E+01  0.16498855192E+02  0.22201781877E+02  0.00000000000E+00 0. -1.
</event>
<event>
 5    1  0.1259474E-009  0.9118800E+02  0.7815553E-02  0.1125453E+00
         25   -1    0    0    0    0  0.00000000000E+00  0.00000000000E+00  0.99999998245E-14  0.12509000000E+03  0.12509000000E+03 0.  0.
        -13    1    3    3    0    0 -0.20929570456E+02 -0.19768400541E+02  0.48367000989E+02  0.56286894817E+02  0.10566000000E+00 0.  1.
         23    2    1    0    0    0 -0.25692563499E+02 -0.52704177125E+01  0.11001709895E+02  0.96648432838E+02  0.92368808736E+02 0.  0.
         13    1    3    3    0    0 -0.47629930433E+01  0.14497982829E+02 -0.37365291094E+02  0.40361538021E+02  0.10566000000E+00 0. -1.
         22    1    1    0    0    0  0.25692563499E+02  0.52704177125E+01 -0.11001709895E+02  0.28441567162E+02  0.00000000000E+00 0.  1.
</event>
<event>
 5    1  0.1259474E-009  0.9118800E+02  0.7815553E-02  0.1125453E+00
         25   -1    0    0    0    0  0.00000000000E+00  0.00000000000E+00  0.99999998245E-14  0.12509000000E+03  0.12509000000E+03 0.  0.
        -13    1    3    3    0    0  0.37923933971E+02 -0.22700693641E+02  0.10794530617E+02  0.45498124301E+02  0.10566000000E+00 0.  1.
         23    2    1    0    0    0  0.17719633500E+02  0.21634743335E+02  0.12958552037E+02  0.94268390674E+02  0.89087360937E+02 0.  0.
         13    1    3    3    0    0 -0.20204300470E+02  0.44335436976E+02  0.21640214200E+01  0.48770266373E+02  0.10566000000E+00 0. -1.
         22    1    1    0    0    0 -0.17719633500E+02 -0.21634743335E+02 -0.12958552037E+02  0.30821609326E+02  0.00000000000E+00 0. -1.
</event>
<event>
 5    1  0.1259474E-009  0.9118800E+02  0.7815553E-02  0.1125453E+00
         25   -1    0    0    0    0  0.00000000000E+00  0.00000000000E+00  0.99999998245E-14  0.12509000000E+03  0.12509000000E+03 0.  0.
        -13    1    3    3    0    0 -0.25188052407E+02 -0.10927158931E+02  0.51631988365E+02  0.58478322248E+02  0.10566000000E+00 0.  1.
         23    2    1    0    0    0 -0.42504141233E+01 -0.19022328472E+02  0.21238628656E+02  0.96263027424E+02  0.91845392378E+02 0.  0.
         13    1    3    3    0    0  0.20937638284E+02 -0.80951695407E+01 -0.30393359710E+02  0.37784705176E+02  0.10566000000E+00 0. -1.
         22    1    1    0    0    0  0.42504141233E+01  0.19022328472E+02 -0.21238628656E+02  0.28826972576E+02  0.00000000000E+00 0.  1.
</event>
<event>
 4    1  0.1259474E-009  0.9118800E+02  0.7815553E-02  0.1125453E+00
         25   -1    0    0    0    0  0.00000000000E+00  0.00000000000E+00  0.99999998245E-14  0.12509000000E+03  0.12509000000E+03 0.  0.
        -13    1    1    0    0    0 -0.23966985365E+02  0.52785135583E+02 -0.95015551847E+01  0.58745022265E+02  0.10566000000E+00 0.  1.
         13    1    1    0    0    0  0.79877748961E+01  0.12592872896E+01 -0.29861549489E+01  0.86208258121E+01  0.10566000000E+00 0. -1.
         22    1    1    0    0    0  0.15979210469E+02 -0.54044422872E+02  0.12487710134E+02  0.57724151923E+02  0.00000000000E+00 0.  1.
</event>
<event>
 5    1  0.1259474E-009  0.9118800E+02  0.7815553E-02  0.1125453E+00
         25   -1    0    0    0    0  0.00000000000E+00  0.00000000000E+00  0.99999998245E-14  0.12509000000E+03  0.12509000000E+03 0.  0.
        -13    1    3    3    0    0  0.33808044079E+02  0.22313174411E+01 -0.43791150861E+02  0.55368210011E+02  0.10566000000E+00 0. -1.
         23    2    1    0    0    0  0.14942393911E+02 -0.19719086933E+02 -0.15197270866E+02  0.96054253634E+02  0.91560608747E+02 0.  0.
         13    1    3    3    0    0 -0.18865650168E+02 -0.21950404374E+02  0.28593879996E+02  0.40686043623E+02  0.10566000000E+00 0.  1.
         22    1    1    0    0    0 -0.14942393911E+02  0.19719086933E+02  0.15197270866E+02  0.29035746366E+02  0.00000000000E+00 0. -1.
</event>
<event>
 5    1  0.1259474E-009  0.9118800E+02  0.7815553E-02  0.1125453E+00
         25   -1    0    0    0    0  0.00000000000E+00  0.00000000000E+00  0.99999998245E-14  0.12509000000E+03  0.12509000000E+03 0.  0.
        -13    1    3    3    0    0 -0.17974771953E+02 -0.49281783224E+02  0.12241402478E+02  0.53866962817E+02  0.10566000000E+00 0. -1.
         23    2    1    0    0    0 -0.68036934446E+00 -0.14648369055E+02  0.26238927128E+02  0.95031408628E+02  0.90152369412E+02 0.  0.
         13    1    3    3    0    0  0.17294402609E+02  0.34633414168E+02  0.13997524651E+02  0.41164445811E+02  0.10566000000E+00 0.  1.
         22    1    1    0    0    0  0.68036934446E+00  0.14648369055E+02 -0.26238927128E+02  0.30058591372E+02  0.00000000000E+00 0. -1.
</event>
<event>
 5    1  0.1259474E-009  0.9118800E+02  0.7815553E-02  0.1125453E+00
         25   -1    0    0    0    0  0.00000000000E+00  0.00000000000E+00  0.99999998245E-14  0.12509000000E+03  0.12509000000E+03 0.  0.
        -13    1    3    3    0    0 -0.88029726950E+01 -0.38650026554E+02 -0.47299546199E+02  0.61713654207E+02  0.10566000000E+00 0. -1.
         23    2    1    0    0    0 -0.11245503533E+02 -0.17102887329E+02 -0.21819064067E+02  0.95172753110E+02  0.90348277643E+02 0.  0.
         13    1    3    3    0    0 -0.24425308380E+01  0.21547139225E+02  0.25480482132E+02  0.33459098903E+02  0.10566000000E+00 0.  1.
         22    1    1    0    0    0  0.11245503533E+02  0.17102887329E+02  0.21819064067E+02  0.29917246890E+02  0.00000000000E+00 0. -1.
</event>
<event>
 5    1  0.1259474E-009  0.9118800E+02  0.7815553E-02  0.1125453E+00
         25   -1    0    0    0    0  0.00000000000E+00  0.00000000000E+00  0.99999998245E-14  0.12509000000E+03  0.12509000000E+03 0.  0.
        -13    1    3    3    0    0  0.24730470454E+02 -0.19759388339E+02  0.14883892325E+02  0.34979579918E+02  0.10566000000E+00 0. -1.
         23    2    1    0    0    0 -0.11782328415E+02  0.22085706929E+02 -0.12735981127E+02  0.97004293160E+02  0.92849480143E+02 0.  0.
         13    1    3    3    0    0 -0.36512798869E+02  0.41845095268E+02 -0.27619873452E+02  0.62024713242E+02  0.10566000000E+00 0.  1.
         22    1    1    0    0    0  0.11782328415E+02 -0.22085706929E+02  0.12735981127E+02  0.28085706840E+02  0.00000000000E+00 0.  1.
</event>
<event>
 5    1  0.1259474E-009  0.9118800E+02  0.7815553E-02  0.1125453E+00
         25   -1    0    0    0    0  0.00000000000E+00  0.00000000000E+00  0.99999998245E-14  0.12509000000E+03  0.12509000000E+03 0.  0.
        -13    1    3    3    0    0  0.42541853027E+02 -0.39765431047E+02 -0.74523830727E+01  0.58708159082E+02  0.10566000000E+00 0. -1.
         23    2    1    0    0    0  0.20953702863E+02 -0.13687346921E+02 -0.18106058615E+02  0.94199378641E+02  0.88990406496E+02 0.  0.
         13    1    3    3    0    0 -0.21588150164E+02  0.26078084126E+02 -0.10653675542E+02  0.35491219559E+02  0.10566000000E+00 0.  1.
         22    1    1    0    0    0 -0.20953702863E+02  0.13687346921E+02  0.18106058615E+02  0.30890621359E+02  0.00000000000E+00 0. -1.
</event>
<event>
 5    1  0.1259474E-009  0.9118800E+02  0.7815553E-02  0.1125453E+00
         25   -1    0    0    0    0  0.00000000000E+00  0.00000000000E+00  0.99999998245E-14  0.12509000000E+03  0.12509000000E+03 0.  0.
        -13    1    3    3    0    0  0.23633800956E+02 -0.14619004612E+02 -0.23758917313E+02  0.36561853883E+02  0.10566000000E+00 0. -1.
         23    2    1    0    0    0  0.54736936524E+00  0.30981281336E+02  0.24610104536E+01  0.94006306865E+02  0.88718598678E+02 0.  0.
         13    1    3    3    0    0 -0.23086431591E+02  0.45600285949E+02  0.26219927766E+02  0.57444452981E+02  0.10566000000E+00 0.  1.
         22    1    1    0    0    0 -0.54736936524E+00 -0.30981281336E+02 -0.24610104536E+01  0.31083693135E+02  0.00000000000E+00 0.  1.
</event>
<event>
 5    1  0.1259474E-009  0.9118800E+02  0.7815553E-02  0.1125453E+00
         25   -1    0    0    0    0  0.00000000000E+00  0.00000000000E+00  0.99999998245E-14  0.12509000000E+03  0.12509000000E+03 0.  0.
        -13    1    3    3    0    0  0.10255950587E+02  0.45655055924E+02 -0.31120113222E+01  0.46896315766E+02  0.10566000000E+00 0.  1.
         23    2    1    0    0    0  0.24321893359E+02  0.38554718421E+01  0.16793514734E+02  0.95283267593E+02  0.90501159033E+02 0.  0.
         13    1    3    3    0    0  0.14065942771E+02 -0.41799584082E+02  0.19905526056E+02  0.48386951827E+02  0.10566000000E+00 0. -1.
         22    1    1    0    0    0 -0.24321893359E+02 -0.38554718421E+01 -0.16793514734E+02  0.29806732407E+02  0.00000000000E+00 0. -1.
</event>
<event>
 4    1  0.1259474E-009  0.9118800E+02  0.7815553E-02  0.1125453E+00
         25   -1    0    0    0    0  0.00000000000E+00  0.00000000000E+00  0.99999998245E-14  0.12509000000E+03  0.12509000000E+03 0.  0.
        -13    1    1    0    0    0 -0.22808100293E+01  0.88053238906E+01 -0.59616923541E+01  0.10876063763E+02  0.10566000000E+00 0. -1.
         13    1    1    0    0    0 -0.31793209674E+02 -0.40909197601E+02  0.31750023190E+02  0.60765498157E+02  0.10566000000E+00 0.  1.
         22    1    1    0    0    0  0.34074019703E+02  0.32103873710E+02 -0.25788330836E+02  0.53448438080E+02  0.00000000000E+00 0.  1.
</event>
<event>
 5    1  0.1259474E-009  0.9118800E+02  0.7815553E-02  0.1125453E+00
         25   -1    0    0    0    0  0.00000000000E+00  0.00000000000E+00  0.99999998245E-14  0.12509000000E+03  0.12509000000E+03 0.  0.
        -13    1    3    3    0    0  0.54908289429E+01 -0.34067167427E+02 -0.33236011790E+02  0.47909964962E+02  0.10566000000E+00 0.  1.
         23    2    1    0    0    0  0.30518773223E+02 -0.21725709132E+02 -0.55506218928E+01  0.87219016917E+02  0.78568095002E+02 0.  0.
         13    1    3    3    0    0  0.25027944280E+02  0.12341458295E+02  0.27685389897E+02  0.39309051954E+02  0.10566000000E+00 0. -1.
         22    1    1    0    0    0 -0.30518773223E+02  0.21725709132E+02  0.55506218928E+01  0.37870983083E+02  0.00000000000E+00 0. -1.
</event>
<event>
 5    1  0.1259474E-009  0.9118800E+02  0.7815553E-02  0.1125453E+00
         25   -1    0    0    0    0  0.00000000000E+00  0.00000000000E+00  0.99999998245E-14  0.12509000000E+03  0.12509000000E+03 0.  0.
        -13    1    3    3    0    0  0.23605663694E+02 -0.25516509290E+02  0.26171283930E+02  0.43511686607E+02  0.10566000000E+00 0. -1.
         23    2    1    0    0    0  0.22321264983E+02  0.18888118663E+02 -0.14356298458E+01  0.95814397015E+02  0.91232328400E+02 0.  0.
         13    1    3    3    0    0 -0.12843987114E+01  0.44404627954E+02 -0.27606913776E+02  0.52302710408E+02  0.10566000000E+00 0.  1.
         22    1    1    0    0    0 -0.22321264983E+02 -0.18888118663E+02  0.14356298458E+01  0.29275602985E+02  0.00000000000E+00 0.  1.
</event>
<event>
 5    1  0.1259474E-009  0.9118800E+02  0.7815553E-02  0.1125453E+00
         25   -1    0    0    0    0  0.00000000000E+00  0.00000000000E+00  0.99999998245E-14  0.12509000000E+03  0.12509000000E+03 0.  0.
        -13    1    3    3    0    0  0.29755401590E+02  0.48429335516E+00  0.42716896507E+02  0.52061145541E+02  0.10566000000E+00 0. -1.
         23    2    1    0    0    0 -0.45139203007E+01 -0.14206970467E+02  0.30233647641E+02  0.91381144546E+02  0.84936603667E+02 0.  0.
         13    1    3    3    0    0 -0.34269321890E+02 -0.14691263822E+02 -0.12483248866E+02  0.39319999005E+02  0.10566000000E+00 0.  1.
         22    1    1    0    0    0  0.45139203007E+01  0.14206970467E+02 -0.30233647641E+02  0.33708855454E+02  0.00000000000E+00 0. -1.
</event>
<event>
 5    1  0.1259474E-009  0.9118800E+02  0.7815553E-02  0.1125453E+00
         25   -1    0    0    0    0  0.00000000000E+00  0.00000000000E+00  0.99999998245E-14  0.12509000000E+03  0.12509000000E+03 0.  0.
        -13    1    3    3    0    0  0.50195025790E+01  0.27584305572E+02 -0.27512138757E+02  0.39281271148E+02  0.10566000000E+00 0. -1.
         23    2    1    0    0    0 -0.14573933747E+02  0.15060072634E+02  0.22442786365E+02  0.94383583856E+02  0.89248960268E+02 0.  0.
         13    1    3    3    0    0 -0.19593436326E+02 -0.12524232938E+02  0.49954925122E+02  0.55102312707E+02  0.10566000000E+00 0.  1.
         22    1    1    0    0    0  0.14573933747E+02 -0.15060072634E+02 -0.22442786365E+02  0.30706416144E+02  0.00000000000E+00 0.  1.
</event>
<event>
 5    1  0.1259474E-009  0.9118800E+02  0.7815553E-02  0.1125453E+00
         25   -1    0    0    0    0  0.00000000000E+00  0.00000000000E+00  0.99999998245E-14  0.12509000000E+03  0.12509000000E+03 0.  0.
        -13    1    3    3    0    0  0.27382856706E+02 -0.24223882824E+02  0.34827245803E+02  0.50493222860E+02  0.10566000000E+00 0.  1.
         23    2    1    0    0    0  0.26389020718E+02 -0.62731061808E+01 -0.78914334290E+01  0.96840982368E+02  0.92629200951E+02 0.  0.
         13    1    3    3    0    0 -0.99383598824E+00  0.17950776643E+02 -0.42718679232E+02  0.46347759508E+02  0.10566000000E+00 0. -1.
         22    1    1    0    0    0 -0.26389020718E+02  0.62731061808E+01  0.78914334290E+01  0.28249017632E+02  0.00000000000E+00 0.  1.
</event>
<event>
 5    1  0.1259474E-009  0.9118800E+02  0.7815553E-02  0.1125453E+00
         25   -1    0    0    0    0  0.00000000000E+00  0.00000000000E+00  0.99999998245E-14  0.12509000000E+03  0.12509000000E+03 0.  0.
        -13    1    3    3    0    0  0.22531366035E+02 -0.45756051583E+02 -0.23629786087E+02  0.56210823392E+02  0.10566000000E+00 0.  1.
         23    2    1    0    0    0  0.13866242075E+02 -0.64732719594E+01 -0.24217971060E+02  0.96442381575E+02  0.92089342067E+02 0.  0.
         13    1    3    3    0    0 -0.86651239595E+01  0.39282779624E+02 -0.58818497321E+00  0.40231558183E+02  0.10566000000E+00 0. -1.
         22    1    1    0    0    0 -0.13866242075E+02  0.64732719594E+01  0.24217971060E+02  0.28647618425E+02  0.00000000000E+00 0.  1.
</event>
<event>
 5    1  0.1259474E-009  0.9118800E+02  0.7815553E-02  0.1125453E+00
         25   -1    0    0    0    0  0.00000000000E+00  0.00000000000E+00  0.99999998245E-14  0.12509000000E+03  0.12509000000E+03 0.  0.
        -13    1    3    3    0    0 -0.25851802360E+02 -0.11278106155E+02  0.53234086360E+02  0.60244422799E+02  0.10566000000E+00 0.  1.
         23    2    1    0    0    0 -0.56577438125E+01 -0.15370320724E+02  0.25166274275E+02  0.95063375396E+02  0.90196713668E+02 0.  0.
         13    1    3    3    0    0  0.20194058548E+02 -0.40922145683E+01 -0.28067812085E+02  0.34818952597E+02  0.10566000000E+00 0. -1.
         22    1    1    0    0    0  0.56577438125E+01  0.15370320724E+02 -0.25166274275E+02  0.30026624604E+02  0.00000000000E+00 0.  1.
</event>
<event>
 5    1  0.1259474E-009  0.9118800E+02  0.7815553E-02  0.1125453E+00
         25   -1    0    0    0    0  0.00000000000E+00  0.00000000000E+00  0.99999998245E-14  0.12509000000E+03  0.12509000000E+03 0.  0.
        -13    1    3    3    0    0  0.45455999932E+01 -0.23405288544E+02  0.20655012248E+01  0.23932143040E+02  0.10566000000E+00 0.  1.
         23    2    1    0    0    0 -0.29903004272E+01  0.30152669613E+02 -0.26266764556E+02  0.84989273053E+02  0.74934025865E+02 0.  0.
         13    1    3    3    0    0 -0.75359004204E+01  0.53557958157E+02 -0.28332265781E+02  0.61057130013E+02  0.10566000000E+00 0. -1.
         22    1    1    0    0    0  0.29903004272E+01 -0.30152669613E+02  0.26266764556E+02  0.40100726947E+02  0.00000000000E+00 0. -1.
</event>
<event>
 5    1  0.1259474E-009  0.9118800E+02  0.7815553E-02  0.1125453E+00
         25   -1    0    0    0    0  0.00000000000E+00  0.00000000000E+00  0.99999998245E-14  0.12509000000E+03  0.12509000000E+03 0.  0.
        -13    1    3    3    0    0 -0.24164489569E+02 -0.24754835201E+02 -0.42726877096E+02  0.54975645630E+02  0.10566000000E+00 0.  1.
         23    2    1    0    0    0 -0.30236886101E+02 -0.10614969596E+01 -0.17387583182E+02  0.90194096146E+02  0.83170011867E+02 0.  0.
         13    1    3    3    0    0 -0.60723965316E+01  0.23693338242E+02  0.25339293914E+02  0.35218450517E+02  0.10566000000E+00 0. -1.
         22    1    1    0    0    0  0.30236886101E+02  0.10614969596E+01  0.17387583182E+02  0.34895903854E+02  0.00000000000E+00 0.  1.
</event>
<event>
 5    1  0.1259474E-009  0.9118800E+02  0.7815553E-02  0.1125453E+00
         25   -1    0    0    0    0  0.00000000000E+00  0.00000000000E+00  0.99999998245E-14  0.12509000000E+03  0.12509000000E+03 0.  0.
        -13    1    3    3    0    0  0.26425843692E+02  0.18876531586E+02  0.41272316426E+02  0.52517272651E+02  0.10566000000E+00 0.  1.
         23    2    1    0    0    0  0.21237552674E+02  0.20031501891E+02 -0.17278403375E+01  0.95844827000E+02  0.91274041867E+02 0.  0.
         13    1    3    3    0    0 -0.51882910182E+01  0.11549703050E+01 -0.43000156763E+02  0.43327554348E+02  0.10566000000E+00 0. -1.
         22    1    1    0    0    0 -0.21237552674E+02 -0.20031501891E+02  0.17278403375E+01  0.29245173000E+02  0.00000000000E+00 0.  1.
</event>
<event>
 5    1  0.1259474E-009  0.9118800E+02  0.7815553E-02  0.1125453E+00
         25   -1    0    0    0    0  0.00000000000E+00  0.00000000000E+00  0.99999998245E-14  0.12509000000E+03  0.12509000000E+03 0.  0.
        -13    1    3    3    0    0  0.52617373833E+02  0.62660760744E+01  0.16498788207E+02  0.55498404614E+02  0.10566000000E+00 0. -1.
         23    2    1    0    0    0  0.33032431509E+02  0.48221768268E+01 -0.11573622811E+02  0.89758092810E+02  0.82511644991E+02 0.  0.
         13    1    3    3    0    0 -0.19584942324E+02 -0.14438992475E+01 -0.28072411018E+02  0.34259688195E+02  0.10566000000E+00 0.  1.
         22    1    1    0    0    0 -0.33032431509E+02 -0.48221768268E+01  0.11573622811E+02  0.35331907190E+02  0.00000000000E+00 0. -1.
</event>
<event>
 5    1  0.1259474E-009  0.9118800E+02  0.7815553E-02  0.1125453E+00
         25   -1    0    0    0    0  0.00000000000E+00  0.00000000000E+00  0.99999998245E-14  0.12509000000E+03  0.12509000000E+03 0.  0.
        -13    1    3    3    0    0  0.29542036976E+02  0.53217344910E+02 -0.28044590653E+01  0.60931879198E+02  0.10566000000E+00 0.  1.
         23    2    1    0    0    0  0.11755660614E+02  0.25435381710E+02 -0.11106606805E+02  0.94948485208E+02  0.90037236349E+02 0.  0.
         13    1    3    3    0    0 -0.17786376362E+02 -0.27781963200E+02 -0.83021477399E+01  0.34016606010E+02  0.10566000000E+00 0. -1.
         22    1    1    0    0    0 -0.11755660614E+02 -0.25435381710E+02  0.11106606805E+02  0.30141514792E+02  0.00000000000E+00 0.  1.
</event>
<event>
 5    1  0.1259474E-009  0.9118800E+02  0.7815553E-02  0.1125453E+00
         25   -1    0    0    0    0  0.00000000000E+00  0.00000000000E+00  0.99999998245E-14  0.12509000000E+03  0.12509000000E+03 0.  0.
        -13    1    3    3    0    0 -0.59166832485E+02  0.60877808497E+01 -0.94024699268E+01  0.60217877302E+02  0.10566000000E+00 0. -1.
         23    2    1    0    0    0 -0.24704257522E+02  0.12384302649E+02 -0.11140845572E+02  0.95294199425E+02  0.90516267666E+02 0.  0.
         13    1    3    3    0    0  0.34462574962E+02  0.62965217994E+01 -0.17383756452E+01  0.35076322124E+02  0.10566000000E+00 0.  1.
         22    1    1    0    0    0  0.24704257522E+02 -0.12384302649E+02  0.11140845572E+02  0.29795800575E+02  0.00000000000E+00 0. -1.
</event>
<event>
 5    1  0.1259474E-009  0.9118800E+02  0.7815553E-02  0.1125453E+00
         25   -1    0    0    0    0  0.00000000000E+00  0.00000000000E+00  0.99999998245E-14  0.12509000000E+03  0.12509000000E+03 0.  0.
        -13    1    3    3    0    0  0.36042801758E+02  0.96187458767E+01 -0.24827411130E+02  0.44810884149E+02  0.10566000000E+00 0.  1.
         23    2    1    0    0    0  0.16234659969E+02 -0.91108369404E+01  0.20308084646E+02  0.97540229836E+02  0.93568726615E+02 0.  0.
         13    1    3    3    0    0 -0.19808141788E+02 -0.18729582817E+02  0.45135495776E+02  0.52729345687E+02  0.10566000000E+00 0. -1.
         22    1    1    0    0    0 -0.16234659969E+02  0.91108369404E+01 -0.20308084646E+02  0.27549770164E+02  0.00000000000E+00 0.  1.
</event>
<event>
 5    1  0.1259474E-009  0.9118800E+02  0.7815553E-02  0.1125453E+00
         25   -1    0    0    0    0  0.00000000000E+00  0.00000000000E+00  0.99999998245E-14  0.12509000000E+03  0.12509000000E+03 0.  0.
        -13    1    3    3    0    0 -0.16779537852E+01  0.54969896772E+02  0.11156138924E+02  0.56115734689E+02  0.10566000000E+00 0. -1.
         23    2    1    0    0    0  0.14440589039E+02  0.20388697750E+02  0.17217310842E+02  0.94747531406E+02  0.89757614202E+02 0.  0.
         13    1    3    3    0    0  0.16118542824E+02 -0.34581199021E+02  0.60611719172E+01  0.38631796717E+02  0.10566000000E+00 0.  1.
         22    1    1    0    0    0 -0.14440589039E+02 -0.20388697750E+02 -0.17217310842E+02  0.30342468594E+02  0.00000000000E+00 0. -1.
</event>
<event>
 5    1  0.1259474E-009  0.9118800E+02  0.7815553E-02  0.1125453E+00
         25   -1    0    0    0    0  0.00000000000E+00  0.00000000000E+00  0.99999998245E-14  0.12509000000E+03  0.12509000000E+03 0.  0.
        -13    1    3    3    0    0 -0.24643999526E+02  0.18712230732E+02  0.14506349054E+02  0.34174838968E+02  0.10566000000E+00 0.  1.
         23    2    1    0    0    0  0.14302792500E+02 -0.12638349305E+02 -0.21912895836E+02  0.96030186677E+02  0.91527722592E+02 0.  0.
         13    1    3    3    0    0  0.38946792026E+02 -0.31350580037E+02 -0.36419244889E+02  0.61855347709E+02  0.10566000000E+00 0. -1.
         22    1    1    0    0    0 -0.14302792500E+02  0.12638349305E+02  0.21912895836E+02  0.29059813323E+02  0.00000000000E+00 0. -1.
</event>
<event>
 5    1  0.1259474E-009  0.9118800E+02  0.7815553E-02  0.1125453E+00
         25   -1    0    0    0    0  0.00000000000E+00  0.00000000000E+00  0.99999998245E-14  0.12509000000E+03  0.12509000000E+03 0.  0.
        -13    1    3    3    0    0 -0.19012259964E+02 -0.20175602655E+00 -0.31155804075E+02  0.36499342817E+02  0.10566000000E+00 0.  1.
         23    2    1    0    0    0  0.16255547728E+02  0.15589920622E+02  0.15997627876E+02  0.97463698137E+02  0.93466357049E+02 0.  0.
         13    1    3    3    0    0  0.35267807692E+02  0.15791676648E+02  0.47153431952E+02  0.60964355321E+02  0.10566000000E+00 0. -1.
         22    1    1    0    0    0 -0.16255547728E+02 -0.15589920622E+02 -0.15997627876E+02  0.27626301863E+02  0.00000000000E+00 0. -1.
</event>
<event>
 5    1  0.1259474E-009  0.9118800E+02  0.7815553E-02  0.1125453E+00
         25   -1    0    0    0    0  0.00000000000E+00  0.00000000000E+00  0.99999998245E-14  0.12509000000E+03  0.12509000000E+03 0.  0.
        -13    1    3    3    0    0  0.32495774023E+02  0.14825089233E+02  0.43939395262E+02  0.56625437925E+02  0.10566000000E+00 0.  1.
         23    2    1    0    0    0  0.13730296287E+02  0.26879412432E+02  0.24391197009E+02  0.86283372469E+02  0.77064038463E+02 0.  0.
         13    1    3    3    0    0 -0.18765477737E+02  0.12054323198E+02 -0.19548198253E+02  0.29657934544E+02  0.10566000000E+00 0. -1.
         22    1    1    0    0    0 -0.13730296287E+02 -0.26879412432E+02 -0.24391197009E+02  0.38806627531E+02  0.00000000000E+00 0.  1.
</event>
<event>
 5    1  0.1259474E-009  0.9118800E+02  0.7815553E-02  0.1125453E+00
         25   -1    0    0    0    0  0.00000000000E+00  0.00000000000E+00  0.99999998245E-14  0.12509000000E+03  0.12509000000E+03 0.  0.
        -13    1    3    3    0    0  0.13357132863E+02  0.13765759698E+02 -0.38417550106E+02  0.42939823691E+02  0.10566000000E+00 0. -1.
         23    2    1    0    0    0 -0.28115217305E+01 -0.27749239940E+02 -0.12079315104E+02  0.94695348742E+02  0.89684860754E+02 0.  0.
         13    1    3    3    0    0 -0.16168654594E+02 -0.41514999638E+02  0.26338235003E+02  0.51755525052E+02  0.10566000000E+00 0.  1.
         22    1    1    0    0    0  0.28115217305E+01  0.27749239940E+02  0.12079315104E+02  0.30394651258E+02  0.00000000000E+00 0.  1.
</event>
<event>
 5    1  0.1259474E-009  0.9118800E+02  0.7815553E-02  0.1125453E+00
         25   -1    0    0    0    0  0.00000000000E+00  0.00000000000E+00  0.99999998245E-14  0.12509000000E+03  0.12509000000E+03 0.  0.
        -13    1    3    3    0    0  0.19790456144E+01 -0.43666571382E+01  0.51646852345E+02  0.51868996879E+02  0.10566000000E+00 0. -1.
         23    2    1    0    0    0  0.20227146008E+02 -0.16133418325E+02  0.13150658863E+02  0.96066484516E+02  0.91577317040E+02 0.  0.
         13    1    3    3    0    0  0.18248100394E+02 -0.11766761187E+02 -0.38496193481E+02  0.44197487637E+02  0.10566000000E+00 0.  1.
         22    1    1    0    0    0 -0.20227146008E+02  0.16133418325E+02 -0.13150658863E+02  0.29023515484E+02  0.00000000000E+00 0. -1.
</event>
<event>
 5    1  0.1259474E-009  0.9118800E+02  0.7815553E-02  0.1125453E+00
         25   -1    0    0    0    0  0.00000000000E+00  0.00000000000E+00  0.99999998245E-14  0.12509000000E+03  0.12509000000E+03 0.  0.
        -13    1    3    3    0    0 -0.26659751343E+02 -0.65711375985E+01 -0.45617267714E+01  0.27834200297E+02  0.10566000000E+00 0.  1.
         23    2    1    0    0    0  0.27976797579E+02 -0.16209228654E+02 -0.21990126832E+02  0.85987494014E+02  0.76582263954E+02 0.  0.
         13    1    3    3    0    0  0.54636548923E+02 -0.96380910551E+01 -0.17428400060E+02  0.58153293716E+02  0.10566000000E+00 0. -1.
         22    1    1    0    0    0 -0.27976797579E+02  0.16209228654E+02  0.21990126832E+02  0.39102505986E+02  0.00000000000E+00 0. -1.
</event>
<event>
 5    1  0.1259474E-009  0.9118800E+02  0.7815553E-02  0.1125453E+00
         25   -1    0    0    0    0  0.00000000000E+00  0.00000000000E+00  0.99999998245E-14  0.12509000000E+03  0.12509000000E+03 0.  0.
        -13    1    3    3    0    0  0.37598015465E+02 -0.61574328359E+01  0.40370259623E+02  0.55509402556E+02  0.10566000000E+00 0.  1.
         23    2    1    0    0    0  0.13901130850E+02 -0.22627563760E+02  0.12103259373E+02  0.95905466972E+02  0.91357110435E+02 0.  0.
         13    1    3    3    0    0 -0.23696884615E+02 -0.16470130924E+02 -0.28267000250E+02  0.40396064416E+02  0.10566000000E+00 0. -1.
         22    1    1    0    0    0 -0.13901130850E+02  0.22627563760E+02 -0.12103259373E+02  0.29184533028E+02  0.00000000000E+00 0. -1.
</event>
<event>
 5    1  0.1259474E-009  0.9118800E+02  0.7815553E-02  0.1125453E+00
         25   -1    0    0    0    0  0.00000000000E+00  0.00000000000E+00  0.99999998245E-14  0.12509000000E+03  0.12509000000E+03 0.  0.
        -13    1    3    3    0    0 -0.33339197727E+02 -0.12200606487E+02 -0.38265179048E+02  0.52197624422E+02  0.10566000000E+00 0.  1.
         23    2    1    0    0    0 -0.26022040157E+02  0.11778168052E+02 -0.17734698696E+01  0.96471526736E+02  0.92128923030E+02 0.  0.
         13    1    3    3    0    0  0.73171575694E+01  0.23978774538E+02  0.36491709179E+02  0.44273902314E+02  0.10566000000E+00 0. -1.
         22    1    1    0    0    0  0.26022040157E+02 -0.11778168052E+02  0.17734698696E+01  0.28618473264E+02  0.00000000000E+00 0. -1.
</event>
<event>
 5    1  0.1259474E-009  0.9118800E+02  0.7815553E-02  0.1125453E+00
         25   -1    0    0    0    0  0.00000000000E+00  0.00000000000E+00  0.99999998245E-14  0.12509000000E+03  0.12509000000E+03 0.  0.
        -13    1    3    3    0    0  0.38626741787E+02 -0.16122626940E+02  0.34877112633E+02  0.54482918701E+02  0.10566000000E+00 0.  1.
         23    2    1    0    0    0  0.34269539176E+02 -0.10486399363E+02  0.85637266233E+00  0.89241718854E+02  0.81725058109E+02 0.  0.
         13    1    3    3    0    0 -0.43572026110E+01  0.56362275764E+01 -0.34020739971E+02  0.34758800153E+02  0.10566000000E+00 0. -1.
         22    1    1    0    0    0 -0.34269539176E+02  0.10486399363E+02 -0.85637266233E+00  0.35848281146E+02  0.00000000000E+00 0.  1.
</event>
<event>
 5    1  0.1259474E-009  0.9118800E+02  0.7815553E-02  0.1125453E+00
         25   -1    0    0    0    0  0.00000000000E+00  0.00000000000E+00  0.99999998245E-14  0.12509000000E+03  0.12509000000E+03 0.  0.
        -13    1    3    3    0    0 -0.43076876728E+02 -0.13052935823E+02 -0.22282365875E+02  0.50224609856E+02  0.10566000000E+00 0. -1.
         23    2    1    0    0    0 -0.20539239954E+01 -0.27795201913E+02 -0.80820372300E+01  0.96070848066E+02  0.91583277236E+02 0.  0.
         13    1    3    3    0    0  0.41022952732E+02 -0.14742266090E+02  0.14200328645E+02  0.45846238210E+02  0.10566000000E+00 0.  1.
         22    1    1    0    0    0  0.20539239954E+01  0.27795201913E+02  0.80820372300E+01  0.29019151934E+02  0.00000000000E+00 0.  1.
</event>
<event>
 5    1  0.1259474E-009  0.9118800E+02  0.7815553E-02  0.1125453E+00
         25   -1    0    0    0    0  0.00000000000E+00  0.00000000000E+00  0.99999998245E-14  0.12509000000E+03  0.12509000000E+03 0.  0.
        -13    1    3    3    0    0 -0.19959540587E+02  0.22235805862E+02  0.35885989372E+02  0.46697213193E+02  0.10566000000E+00 0. -1.
         23    2    1    0    0    0 -0.26543276107E+02  0.11521758626E+02 -0.10154188554E+02  0.94423993193E+02  0.89305579428E+02 0.  0.
         13    1    3    3    0    0 -0.65837355205E+01 -0.10714047236E+02 -0.46040177926E+02  0.47726779999E+02  0.10566000000E+00 0.  1.
         22    1    1    0    0    0  0.26543276107E+02 -0.11521758626E+02  0.10154188554E+02  0.30666006807E+02  0.00000000000E+00 0.  1.
</event>
<event>
 5    1  0.1259474E-009  0.9118800E+02  0.7815553E-02  0.1125453E+00
         25   -1    0    0    0    0  0.00000000000E+00  0.00000000000E+00  0.99999998245E-14  0.12509000000E+03  0.12509000000E+03 0.  0.
        -13    1    3    3    0    0 -0.64257786410E+01 -0.11568751502E+02  0.54891650252E+02  0.56464423081E+02  0.10566000000E+00 0.  1.
         23    2    1    0    0    0  0.15549936911E+02  0.65926618545E+00  0.26181873325E+02  0.94631410725E+02  0.89595637367E+02 0.  0.
         13    1    3    3    0    0  0.21975715552E+02  0.12228017687E+02 -0.28709776927E+02  0.38166987644E+02  0.10566000000E+00 0. -1.
         22    1    1    0    0    0 -0.15549936911E+02 -0.65926618545E+00 -0.26181873325E+02  0.30458589275E+02  0.00000000000E+00 0.  1.
</event>
<event>
 5    1  0.1259474E-009  0.9118800E+02  0.7815553E-02  0.1125453E+00
         25   -1    0    0    0    0  0.00000000000E+00  0.00000000000E+00  0.99999998245E-14  0.12509000000E+03  0.12509000000E+03 0.  0.
        -13    1    3    3    0    0 -0.22089094472E+02 -0.11685885659E+00 -0.42281647054E+02  0.47704198895E+02  0.10566000000E+00 0. -1.
         23    2    1    0    0    0 -0.67856186124E+01 -0.30223862863E+02 -0.18509312327E+02  0.89005084189E+02  0.81362054192E+02 0.  0.
         13    1    3    3    0    0  0.15303475859E+02 -0.30107004006E+02  0.23772334727E+02  0.41300885293E+02  0.10566000000E+00 0.  1.
         22    1    1    0    0    0  0.67856186124E+01  0.30223862863E+02  0.18509312327E+02  0.36084915811E+02  0.00000000000E+00 0. -1.
</event>
<event>
 5    1  0.1259474E-009  0.9118800E+02  0.7815553E-02  0.1125453E+00
         25   -1    0    0    0    0  0.00000000000E+00  0.00000000000E+00  0.99999998245E-14  0.12509000000E+03  0.12509000000E+03 0.  0.
        -13    1    3    3    0    0 -0.86793513796E+01  0.13186383291E+01  0.45003384521E+02  0.45851780007E+02  0.10566000000E+00 0. -1.
         23    2    1    0    0    0  0.26832317939E+02 -0.66296437066E+01  0.12076637335E+02  0.94927595736E+02  0.90008209632E+02 0.  0.
         13    1    3    3    0    0  0.35511669319E+02 -0.79482820357E+01 -0.32926747186E+02  0.49075815729E+02  0.10566000000E+00 0.  1.
         22    1    1    0    0    0 -0.26832317939E+02  0.66296437066E+01 -0.12076637335E+02  0.30162404264E+02  0.00000000000E+00 0.  1.
</event>
<event>
 5    1  0.1259474E-009  0.9118800E+02  0.7815553E-02  0.1125453E+00
         25   -1    0    0    0    0  0.00000000000E+00  0.00000000000E+00  0.99999998245E-14  0.12509000000E+03  0.12509000000E+03 0.  0.
        -13    1    3    3    0    0 -0.11444475858E+02  0.63586770146E+01 -0.36044189427E+02  0.38348449206E+02  0.10566000000E+00 0. -1.
         23    2    1    0    0    0 -0.15878263346E+02  0.18568325915E+02  0.18516644120E+02  0.94434362939E+02  0.89320103112E+02 0.  0.
         13    1    3    3    0    0 -0.44337874883E+01  0.12209648900E+02  0.54560833547E+02  0.56085913732E+02  0.10566000000E+00 0.  1.
         22    1    1    0    0    0  0.15878263346E+02 -0.18568325915E+02 -0.18516644120E+02  0.30655637061E+02  0.00000000000E+00 0.  1.
</event>
<event>
 5    1  0.1259474E-009  0.9118800E+02  0.7815553E-02  0.1125453E+00
         25   -1    0    0    0    0  0.00000000000E+00  0.00000000000E+00  0.99999998245E-14  0.12509000000E+03  0.12509000000E+03 0.  0.
        -13    1    3    3    0    0 -0.18864095962E+02 -0.36457415920E+02 -0.16563792036E+02  0.44264745144E+02  0.10566000000E+00 0. -1.
         23    2    1    0    0    0  0.19798109483E+02 -0.68868911415E-01 -0.19316776310E+02  0.97429419221E+02  0.93420468853E+02 0.  0.
         13    1    3    3    0    0  0.38662205445E+02  0.36388547008E+02 -0.27529842736E+01  0.53164674077E+02  0.10566000000E+00 0.  1.
         22    1    1    0    0    0 -0.19798109483E+02  0.68868911415E-01  0.19316776310E+02  0.27660580779E+02  0.00000000000E+00 0.  1.
</event>
<event>
 5    1  0.1259474E-009  0.9118800E+02  0.7815553E-02  0.1125453E+00
         25   -1    0    0    0    0  0.00000000000E+00  0.00000000000E+00  0.99999998245E-14  0.12509000000E+03  0.12509000000E+03 0.  0.
        -13    1    3    3    0    0 -0.72342976244E+01 -0.74937527245E+01  0.59576853766E+02  0.60480608965E+02  0.10566000000E+00 0.  1.
         23    2    1    0    0    0  0.57984476068E+01 -0.10050990809E+02  0.30874268895E+02  0.92107203110E+02  0.85999255660E+02 0.  0.
         13    1    3    3    0    0  0.13032745231E+02 -0.25572380842E+01 -0.28702584871E+02  0.31626594145E+02  0.10566000000E+00 0. -1.
         22    1    1    0    0    0 -0.57984476068E+01  0.10050990809E+02 -0.30874268895E+02  0.32982796890E+02  0.00000000000E+00 0.  1.
</event>
<event>
 5    1  0.1259474E-009  0.9118800E+02  0.7815553E-02  0.1125453E+00
         25   -1    0    0    0    0  0.00000000000E+00  0.00000000000E+00  0.99999998245E-14  0.12509000000E+03  0.12509000000E+03 0.  0.
        -13    1    3    3    0    0  0.93007189302E+01 -0.34733984420E+02 -0.49543309025E+02  0.61216857805E+02  0.10566000000E+00 0.  1.
         23    2    1    0    0    0  0.13218254080E+02 -0.14627032293E+02 -0.21898132553E+02  0.95624757358E+02  0.90971939057E+02 0.  0.
         13    1    3    3    0    0  0.39175351503E+01  0.20106952127E+02  0.27645176472E+02  0.34407899553E+02  0.10566000000E+00 0. -1.
         22    1    1    0    0    0 -0.13218254080E+02  0.14627032293E+02  0.21898132553E+02  0.29465242642E+02  0.00000000000E+00 0.  1.
</event>
<event>
 5    1  0.1259474E-009  0.9118800E+02  0.7815553E-02  0.1125453E+00
         25   -1    0    0    0    0  0.00000000000E+00  0.00000000000E+00  0.99999998245E-14  0.12509000000E+03  0.12509000000E+03 0.  0.
        -13    1    3    3    0    0 -0.37981200099E+02 -0.16958573629E+02  0.26649734460E+02  0.49400245864E+02  0.10566000000E+00 0.  1.
         23    2    1    0    0    0 -0.11349246538E+02 -0.27822049263E+02 -0.75709298833E+01  0.94103054338E+02  0.88854904390E+02 0.  0.
         13    1    3    3    0    0  0.26631953561E+02 -0.10863475634E+02 -0.34220664344E+02  0.44702808474E+02  0.10566000000E+00 0. -1.
         22    1    1    0    0    0  0.11349246538E+02  0.27822049263E+02  0.75709298833E+01  0.30986945662E+02  0.00000000000E+00 0. -1.
</event>
<event>
 5    1  0.1259474E-009  0.9118800E+02  0.7815553E-02  0.1125453E+00
         25   -1    0    0    0    0  0.00000000000E+00  0.00000000000E+00  0.99999998245E-14  0.12509000000E+03  0.12509000000E+03 0.  0.
        -13    1    3    3    0    0 -0.25560869466E+00  0.10266371166E+02 -0.53247344151E+02  0.54228724269E+02  0.10566000000E+00 0. -1.
         23    2    1    0    0    0  0.19299309246E+02 -0.69973353658E+01 -0.20737371448E+02  0.95910133411E+02  0.91363499696E+02 0.  0.
         13    1    3    3    0    0  0.19554917940E+02 -0.17263706531E+02  0.32509972703E+02  0.41681409141E+02  0.10566000000E+00 0.  1.
         22    1    1    0    0    0 -0.19299309246E+02  0.69973353658E+01  0.20737371448E+02  0.29179866589E+02  0.00000000000E+00 0. -1.
</event>
<event>
 5    1  0.1259474E-009  0.9118800E+02  0.7815553E-02  0.1125453E+00
         25   -1    0    0    0    0  0.00000000000E+00  0.00000000000E+00  0.99999998245E-14  0.12509000000E+03  0.12509000000E+03 0.  0.
        -13    1    3    3    0    0 -0.25945173390E+02 -0.20586184413E+02 -0.14492506655E+02  0.36152274121E+02  0.10566000000E+00 0. -1.
         23    2    1    0    0    0 -0.91462203985E+01 -0.26410857278E+01  0.33602503477E+02  0.90164981441E+02  0.83126211011E+02 0.  0.
         13    1    3    3    0    0  0.16798952991E+02  0.17945098685E+02  0.48095010132E+02  0.54012707321E+02  0.10566000000E+00 0.  1.
         22    1    1    0    0    0  0.91462203985E+01  0.26410857278E+01 -0.33602503477E+02  0.34925018559E+02  0.00000000000E+00 0.  1.
</event>
<event>
 5    1  0.1259474E-009  0.9118800E+02  0.7815553E-02  0.1125453E+00
         25   -1    0    0    0    0  0.00000000000E+00  0.00000000000E+00  0.99999998245E-14  0.12509000000E+03  0.12509000000E+03 0.  0.
        -13    1    3    3    0    0 -0.36054395215E+02  0.33523469536E+01 -0.21040217575E+02  0.41879106534E+02  0.10566000000E+00 0.  1.
         23    2    1    0    0    0 -0.93213232730E+01  0.21382483876E+02  0.20202972386E+02  0.94231325733E+02  0.89035301830E+02 0.  0.
         13    1    3    3    0    0  0.26733071942E+02  0.18030136923E+02  0.41243189961E+02  0.52352219199E+02  0.10566000000E+00 0. -1.
         22    1    1    0    0    0  0.93213232730E+01 -0.21382483876E+02 -0.20202972386E+02  0.30858674267E+02  0.00000000000E+00 0. -1.
</event>
<event>
 5    1  0.1259474E-009  0.9118800E+02  0.7815553E-02  0.1125453E+00
         25   -1    0    0    0    0  0.00000000000E+00  0.00000000000E+00  0.99999998245E-14  0.12509000000E+03  0.12509000000E+03 0.  0.
        -13    1    3    3    0    0 -0.13895827687E+02  0.23244596891E+02 -0.48946672365E+02  0.55939192087E+02  0.10566000000E+00 0. -1.
         23    2    1    0    0    0  0.12237663744E+02  0.45830156023E+01 -0.27750923018E+02  0.94416262466E+02  0.89294750371E+02 0.  0.
         13    1    3    3    0    0  0.26133491431E+02 -0.18661581289E+02  0.21195749346E+02  0.38477070379E+02  0.10566000000E+00 0.  1.
         22    1    1    0    0    0 -0.12237663744E+02 -0.45830156023E+01  0.27750923018E+02  0.30673737534E+02  0.00000000000E+00 0. -1.
</event>
<event>
 5    1  0.1259474E-009  0.9118800E+02  0.7815553E-02  0.1125453E+00
         25   -1    0    0    0    0  0.00000000000E+00  0.00000000000E+00  0.99999998245E-14  0.12509000000E+03  0.12509000000E+03 0.  0.
        -13    1    3    3    0    0  0.37594081122E+02  0.66771050371E+00 -0.19395373893E+02  0.42307829833E+02  0.10566000000E+00 0. -1.
         23    2    1    0    0    0 -0.16653178121E+02 -0.40073585241E+01 -0.22461774922E+02  0.96842547079E+02  0.92631313972E+02 0.  0.
         13    1    3    3    0    0 -0.54247259243E+02 -0.46750690278E+01 -0.30664010295E+01  0.54534717246E+02  0.10566000000E+00 0.  1.
         22    1    1    0    0    0  0.16653178121E+02  0.40073585241E+01  0.22461774922E+02  0.28247452921E+02  0.00000000000E+00 0.  1.
</event>
<event>
 5    1  0.1259474E-009  0.9118800E+02  0.7815553E-02  0.1125453E+00
         25   -1    0    0    0    0  0.00000000000E+00  0.00000000000E+00  0.99999998245E-14  0.12509000000E+03  0.12509000000E+03 0.  0.
        -13    1    3    3    0    0  0.35308899206E+02  0.12234869658E+02  0.24260472417E+02  0.44553249989E+02  0.10566000000E+00 0. -1.
         23    2    1    0    0    0  0.19791773772E+02 -0.20525838879E+02 -0.10430860094E+02  0.94728392450E+02  0.89730937381E+02 0.  0.
         13    1    3    3    0    0 -0.15517125434E+02 -0.32760708537E+02 -0.34691332511E+02  0.50175142461E+02  0.10566000000E+00 0.  1.
         22    1    1    0    0    0 -0.19791773772E+02  0.20525838879E+02  0.10430860094E+02  0.30361607550E+02  0.00000000000E+00 0. -1.
</event>
<event>
 5    1  0.1259474E-009  0.9118800E+02  0.7815553E-02  0.1125453E+00
         25   -1    0    0    0    0  0.00000000000E+00  0.00000000000E+00  0.99999998245E-14  0.12509000000E+03  0.12509000000E+03 0.  0.
        -13    1    3    3    0    0 -0.35072909770E+01  0.16801514534E+02  0.37286842433E+02  0.41047676710E+02  0.10566000000E+00 0. -1.
         23    2    1    0    0    0  0.10356184566E+02  0.20032051816E+02 -0.16795417584E+02  0.96972039360E+02  0.92806016546E+02 0.  0.
         13    1    3    3    0    0  0.13863475543E+02  0.32305372817E+01 -0.54082260017E+02  0.55924362650E+02  0.10566000000E+00 0.  1.
         22    1    1    0    0    0 -0.10356184566E+02 -0.20032051816E+02  0.16795417584E+02  0.28117960640E+02  0.00000000000E+00 0.  1.
</event>
<event>
 5    1  0.1259474E-009  0.9118800E+02  0.7815553E-02  0.1125453E+00
         25   -1    0    0    0    0  0.00000000000E+00  0.00000000000E+00  0.99999998245E-14  0.12509000000E+03  0.12509000000E+03 0.  0.
        -13    1    3    3    0    0 -0.26833052271E+02 -0.63639336931E+01 -0.52988197454E+02  0.59735019710E+02  0.10566000000E+00 0. -1.
         23    2    1    0    0    0 -0.97073344679E+00  0.31653448603E+01 -0.27864485897E+02  0.97029506315E+02  0.92883441958E+02 0.  0.
         13    1    3    3    0    0  0.25862318825E+02  0.95292785534E+01  0.25123711557E+02  0.37294486606E+02  0.10566000000E+00 0.  1.
         22    1    1    0    0    0  0.97073344679E+00 -0.31653448603E+01  0.27864485897E+02  0.28060493685E+02  0.00000000000E+00 0. -1.
</event>
<event>
 5    1  0.1259474E-009  0.9118800E+02  0.7815553E-02  0.1125453E+00
         25   -1    0    0    0    0  0.00000000000E+00  0.00000000000E+00  0.99999998245E-14  0.12509000000E+03  0.12509000000E+03 0.  0.
        -13    1    3    3    0    0  0.15717321117E+02 -0.35797611778E+02  0.43674331109E+02  0.58617075617E+02  0.10566000000E+00 0.  1.
         23    2    1    0    0    0  0.11656233835E+02 -0.29932578652E+01  0.26760505366E+02  0.95748015962E+02  0.91141266907E+02 0.  0.
         13    1    3    3    0    0 -0.40610872818E+01  0.32804353913E+02 -0.16913825743E+02  0.37130940344E+02  0.10566000000E+00 0. -1.
         22    1    1    0    0    0 -0.11656233835E+02  0.29932578652E+01 -0.26760505366E+02  0.29341984038E+02  0.00000000000E+00 0.  1.
</event>
<event>
 5    1  0.1259474E-009  0.9118800E+02  0.7815553E-02  0.1125453E+00
         25   -1    0    0    0    0  0.00000000000E+00  0.00000000000E+00  0.99999998245E-14  0.12509000000E+03  0.12509000000E+03 0.  0.
        -13    1    3    3    0    0  0.17772064585E+02  0.33501826613E+02 -0.39114225671E+02  0.54480753298E+02  0.10566000000E+00 0.  1.
         23    2    1    0    0    0 -0.14081204335E+02  0.18920381671E+02 -0.18376656827E+02  0.95190791411E+02  0.90373248781E+02 0.  0.
         13    1    3    3    0    0 -0.31853268921E+02 -0.14581444942E+02  0.20737568845E+02  0.40710038113E+02  0.10566000000E+00 0. -1.
         22    1    1    0    0    0  0.14081204335E+02 -0.18920381671E+02  0.18376656827E+02  0.29899208589E+02  0.00000000000E+00 0.  1.
</event>
<event>
 5    1  0.1259474E-009  0.9118800E+02  0.7815553E-02  0.1125453E+00
         25   -1    0    0    0    0  0.00000000000E+00  0.00000000000E+00  0.99999998245E-14  0.12509000000E+03  0.12509000000E+03 0.  0.
        -13    1    3    3    0    0  0.14812142398E+02 -0.42526378747E+02  0.72807384005E+01  0.45617022782E+02  0.10566000000E+00 0.  1.
         23    2    1    0    0    0 -0.27631415912E+01 -0.10418909032E+02 -0.27155853757E+02  0.95873069803E+02  0.91312740093E+02 0.  0.
         13    1    3    3    0    0 -0.17575283989E+02  0.32107469715E+02 -0.34436592157E+02  0.50256047022E+02  0.10566000000E+00 0. -1.
         22    1    1    0    0    0  0.27631415912E+01  0.10418909032E+02  0.27155853757E+02  0.29216930197E+02  0.00000000000E+00 0. -1.
</event>
<event>
 5    1  0.1259474E-009  0.9118800E+02  0.7815553E-02  0.1125453E+00
         25   -1    0    0    0    0  0.00000000000E+00  0.00000000000E+00  0.99999998245E-14  0.12509000000E+03  0.12509000000E+03 0.  0.
        -13    1    3    3    0    0 -0.47365688670E+02  0.11668938934E+02  0.13590503594E+01  0.48800930124E+02  0.10566000000E+00 0. -1.
         23    2    1    0    0    0 -0.11848476649E+02  0.15371537071E+02  0.26333334241E+02  0.92377387096E+02  0.86391357227E+02 0.  0.
         13    1    3    3    0    0  0.35517212022E+02  0.37025981362E+01  0.24974283881E+02  0.43576456971E+02  0.10566000000E+00 0.  1.
         22    1    1    0    0    0  0.11848476649E+02 -0.15371537071E+02 -0.26333334241E+02  0.32712612904E+02  0.00000000000E+00 0. -1.
</event>
<event>
 5    1  0.1259474E-009  0.9118800E+02  0.7815553E-02  0.1125453E+00
         25   -1    0    0    0    0  0.00000000000E+00  0.00000000000E+00  0.99999998245E-14  0.12509000000E+03  0.12509000000E+03 0.  0.
        -13    1    3    3    0    0 -0.36487750283E+02  0.40220905324E+01  0.29919992610E+02  0.47357684221E+02  0.10566000000E+00 0. -1.
         23    2    1    0    0    0 -0.17581348641E+02 -0.22697262931E+02 -0.57927600289E+01  0.95801339509E+02  0.91214423303E+02 0.  0.
         13    1    3    3    0    0  0.18906401642E+02 -0.26719353463E+02 -0.35712752639E+02  0.48443655288E+02  0.10566000000E+00 0.  1.
         22    1    1    0    0    0  0.17581348641E+02  0.22697262931E+02  0.57927600289E+01  0.29288660491E+02  0.00000000000E+00 0.  1.
</event>
<event>
 5    1  0.1259474E-009  0.9118800E+02  0.7815553E-02  0.1125453E+00
         25   -1    0    0    0    0  0.00000000000E+00  0.00000000000E+00  0.99999998245E-14  0.12509000000E+03  0.12509000000E+03 0.  0.
        -13    1    3    3    0    0  0.80228292250E+00 -0.25698568047E+02  0.33607232685E+02  0.42314504727E+02  0.10566000000E+00 0.  1.
         23    2    1    0    0    0 -0.72717652121E+01 -0.18858362284E+02 -0.19821297460E+02  0.96780986765E+02  0.92548145141E+02 0.  0.
         13    1    3    3    0    0 -0.80740481346E+01  0.68402057633E+01 -0.53428530145E+02  0.54466482038E+02  0.10566000000E+00 0. -1.
         22    1    1    0    0    0  0.72717652121E+01  0.18858362284E+02  0.19821297460E+02  0.28309013235E+02  0.00000000000E+00 0. -1.
</event>
<event>
 5    1  0.1259474E-009  0.9118800E+02  0.7815553E-02  0.1125453E+00
         25   -1    0    0    0    0  0.00000000000E+00  0.00000000000E+00  0.99999998245E-14  0.12509000000E+03  0.12509000000E+03 0.  0.
        -13    1    3    3    0    0 -0.40784677075E+02 -0.44101128593E+02 -0.12857208665E+02  0.61429784356E+02  0.10566000000E+00 0. -1.
         23    2    1    0    0    0 -0.17995403174E+02 -0.22703989639E+02  0.20185940636E+01  0.96048987570E+02  0.91553413974E+02 0.  0.
         13    1    3    3    0    0  0.22789273901E+02  0.21397138954E+02  0.14875802729E+02  0.34619203215E+02  0.10566000000E+00 0.  1.
         22    1    1    0    0    0  0.17995403174E+02  0.22703989639E+02 -0.20185940636E+01  0.29041012430E+02  0.00000000000E+00 0. -1.
</event>
<event>
 5    1  0.1259474E-009  0.9118800E+02  0.7815553E-02  0.1125453E+00
         25   -1    0    0    0    0  0.00000000000E+00  0.00000000000E+00  0.99999998245E-14  0.12509000000E+03  0.12509000000E+03 0.  0.
        -13    1    3    3    0    0 -0.36469677288E+02  0.23006916861E+02 -0.19650826561E+02  0.47386936317E+02  0.10566000000E+00 0.  1.
         23    2    1    0    0    0 -0.22816935249E+02 -0.43326377756E+01  0.17875985204E+02  0.95782404888E+02  0.91188452969E+02 0.  0.
         13    1    3    3    0    0  0.13652742039E+02 -0.27339554637E+02  0.37526811765E+02  0.48395468571E+02  0.10566000000E+00 0. -1.
         22    1    1    0    0    0  0.22816935249E+02  0.43326377756E+01 -0.17875985204E+02  0.29307595112E+02  0.00000000000E+00 0. -1.
</event>
<event>
 5    1  0.1259474E-009  0.9118800E+02  0.7815553E-02  0.1125453E+00
         25   -1    0    0    0    0  0.00000000000E+00  0.00000000000E+00  0.99999998245E-14  0.12509000000E+03  0.12509000000E+03 0.  0.
        -13    1    3    3    0    0 -0.15200123867E+02  0.24753820046E+01  0.37495984568E+02  0.40535556051E+02  0.10566000000E+00 0.  1.
         23    2    1    0    0    0  0.18880854631E+02  0.22005183206E+02 -0.17241249330E+01  0.96043703054E+02  0.91546193421E+02 0.  0.
         13    1    3    3    0    0  0.34080978497E+02  0.19529801202E+02 -0.39220109501E+02  0.55508147002E+02  0.10566000000E+00 0. -1.
         22    1    1    0    0    0 -0.18880854631E+02 -0.22005183206E+02  0.17241249330E+01  0.29046296946E+02  0.00000000000E+00 0. -1.
</event>
<event>
 5    1  0.1259474E-009  0.9118800E+02  0.7815553E-02  0.1125453E+00
         25   -1    0    0    0    0  0.00000000000E+00  0.00000000000E+00  0.99999998245E-14  0.12509000000E+03  0.12509000000E+03 0.  0.
        -13    1    3    3    0    0 -0.42239405111E+01 -0.35184408521E+02 -0.74803865849E+01  0.36218111822E+02  0.10566000000E+00 0. -1.
         23    2    1    0    0    0 -0.29545005847E+01  0.16978202338E+02  0.22772078379E+02  0.96532059212E+02  0.92211075656E+02 0.  0.
         13    1    3    3    0    0  0.12694399265E+01  0.52162610859E+02  0.30252464964E+02  0.60313947390E+02  0.10566000000E+00 0.  1.
         22    1    1    0    0    0  0.29545005847E+01 -0.16978202338E+02 -0.22772078379E+02  0.28557940788E+02  0.00000000000E+00 0.  1.
</event>
<event>
 5    1  0.1259474E-009  0.9118800E+02  0.7815553E-02  0.1125453E+00
         25   -1    0    0    0    0  0.00000000000E+00  0.00000000000E+00  0.99999998245E-14  0.12509000000E+03  0.12509000000E+03 0.  0.
        -13    1    3    3    0    0  0.14857921713E+02 -0.35656331077E+02  0.11638376009E+02  0.40343459739E+02  0.10566000000E+00 0. -1.
         23    2    1    0    0    0  0.14122613870E+02  0.95178285905E+00 -0.27636779793E+02  0.94039304187E+02  0.88765111510E+02 0.  0.
         13    1    3    3    0    0 -0.73530784326E+00  0.36608113936E+02 -0.39275155803E+02  0.53695844448E+02  0.10566000000E+00 0.  1.
         22    1    1    0    0    0 -0.14122613870E+02 -0.95178285905E+00  0.27636779793E+02  0.31050695813E+02  0.00000000000E+00 0.  1.
</event>
<event>
 5    1  0.1259474E-009  0.9118800E+02  0.7815553E-02  0.1125453E+00
         25   -1    0    0    0    0  0.00000000000E+00  0.00000000000E+00  0.99999998245E-14  0.12509000000E+03  0.12509000000E+03 0.  0.
        -13    1    3    3    0    0 -0.26294086943E+02  0.21830902260E+02 -0.39271917335E+02  0.52060176305E+02  0.10566000000E+00 0.  1.
         23    2    1    0    0    0  0.23065263393E+01  0.31133655981E+02 -0.16539732065E+02  0.89760305192E+02  0.82514998957E+02 0.  0.
         13    1    3    3    0    0  0.28600613282E+02  0.93027537205E+01  0.22732185270E+02  0.37700128887E+02  0.10566000000E+00 0. -1.
         22    1    1    0    0    0 -0.23065263393E+01 -0.31133655981E+02  0.16539732065E+02  0.35329694808E+02  0.00000000000E+00 0.  1.
</event>
<event>
 5    1  0.1259474E-009  0.9118800E+02  0.7815553E-02  0.1125453E+00
         25   -1    0    0    0    0  0.00000000000E+00  0.00000000000E+00  0.99999998245E-14  0.12509000000E+03  0.12509000000E+03 0.  0.
        -13    1    3    3    0    0 -0.14316734672E+02  0.83782716198E+01  0.41255470696E+02  0.44465597414E+02  0.10566000000E+00 0.  1.
         23    2    1    0    0    0  0.25941347334E+02 -0.57651965301E+01  0.16889078438E+02  0.93602987391E+02  0.88148098593E+02 0.  0.
         13    1    3    3    0    0  0.40258082006E+02 -0.14143468150E+02 -0.24366392258E+02  0.49137389977E+02  0.10566000000E+00 0. -1.
         22    1    1    0    0    0 -0.25941347334E+02  0.57651965301E+01 -0.16889078438E+02  0.31487012609E+02  0.00000000000E+00 0.  1.
</event>
<event>
 5    1  0.1259474E-009  0.9118800E+02  0.7815553E-02  0.1125453E+00
         25   -1    0    0    0    0  0.00000000000E+00  0.00000000000E+00  0.99999998245E-14  0.12509000000E+03  0.12509000000E+03 0.  0.
        -13    1    3    3    0    0 -0.17861157766E+02 -0.27508964182E+02 -0.14127626639E+02  0.35712253717E+02  0.10566000000E+00 0. -1.
         23    2    1    0    0    0  0.95245373908E+01  0.26133974110E+02 -0.73377528729E+01  0.96322934934E+02  0.91926947963E+02 0.  0.
         13    1    3    3    0    0  0.27385695156E+02  0.53642938292E+02  0.67898737659E+01  0.60610681217E+02  0.10566000000E+00 0.  1.
         22    1    1    0    0    0 -0.95245373908E+01 -0.26133974110E+02  0.73377528729E+01  0.28767065066E+02  0.00000000000E+00 0.  1.
</event>
<event>
 5    1  0.1259474E-009  0.9118800E+02  0.7815553E-02  0.1125453E+00
         25   -1    0    0    0    0  0.00000000000E+00  0.00000000000E+00  0.99999998245E-14  0.12509000000E+03  0.12509000000E+03 0.  0.
        -13    1    3    3    0    0 -0.20788706390E+02  0.18120414554E+02 -0.11117717173E+02  0.29734399879E+02  0.10566000000E+00 0.  1.
         23    2    1    0    0    0  0.33849920612E+02 -0.69019958279E+01 -0.57344307373E+01  0.90070885680E+02  0.82984493006E+02 0.  0.
         13    1    3    3    0    0  0.54638627002E+02 -0.25022410382E+02  0.53832864361E+01  0.60336485801E+02  0.10566000000E+00 0. -1.
         22    1    1    0    0    0 -0.33849920612E+02  0.69019958279E+01  0.57344307373E+01  0.35019114320E+02  0.00000000000E+00 0. -1.
</event>
<event>
 5    1  0.1259474E-009  0.9118800E+02  0.7815553E-02  0.1125453E+00
         25   -1    0    0    0    0  0.00000000000E+00  0.00000000000E+00  0.99999998245E-14  0.12509000000E+03  0.12509000000E+03 0.  0.
        -13    1    3    3    0    0  0.23995329971E+02  0.94529731552E+01  0.68545584882E-01  0.25790510356E+02  0.10566000000E+00 0. -1.
         23    2    1    0    0    0 -0.26353088046E+02 -0.24009272769E+02  0.12123617077E+02  0.87434820814E+02  0.78910933154E+02 0.  0.
         13    1    3    3    0    0 -0.50348418017E+02 -0.33462245924E+02  0.12055071492E+02  0.61644310458E+02  0.10566000000E+00 0.  1.
         22    1    1    0    0    0  0.26353088046E+02  0.24009272769E+02 -0.12123617077E+02  0.37655179186E+02  0.00000000000E+00 0.  1.
</event>
<event>
 5    1  0.1259474E-009  0.9118800E+02  0.7815553E-02  0.1125453E+00
         25   -1    0    0    0    0  0.00000000000E+00  0.00000000000E+00  0.99999998245E-14  0.12509000000E+03  0.12509000000E+03 0.  0.
        -13    1    3    3    0    0  0.34595454600E+02  0.21838678335E+02  0.26366725565E+02  0.48672258335E+02  0.10566000000E+00 0. -1.
         23    2    1    0    0    0  0.22813735526E+02 -0.18644464315E+02  0.12826078665E+02  0.92956047984E+02  0.87225202692E+02 0.  0.
         13    1    3    3    0    0 -0.11781719074E+02 -0.40483142650E+02 -0.13540646900E+02  0.44283789649E+02  0.10566000000E+00 0.  1.
         22    1    1    0    0    0 -0.22813735526E+02  0.18644464315E+02 -0.12826078665E+02  0.32133952016E+02  0.00000000000E+00 0.  1.
</event>
<event>
 5    1  0.1259474E-009  0.9118800E+02  0.7815553E-02  0.1125453E+00
         25   -1    0    0    0    0  0.00000000000E+00  0.00000000000E+00  0.99999998245E-14  0.12509000000E+03  0.12509000000E+03 0.  0.
        -13    1    3    3    0    0 -0.12186052045E+02 -0.78811360217E+01  0.60159417523E+02  0.61885207038E+02  0.10566000000E+00 0.  1.
         23    2    1    0    0    0 -0.11000674627E+02 -0.68379472950E+01  0.26380534125E+02  0.95701142483E+02  0.91076911050E+02 0.  0.
         13    1    3    3    0    0  0.11853774176E+01  0.10431887267E+01 -0.33778883398E+02  0.33815935445E+02  0.10566000000E+00 0. -1.
         22    1    1    0    0    0  0.11000674627E+02  0.68379472950E+01 -0.26380534125E+02  0.29388857517E+02  0.00000000000E+00 0.  1.
</event>
<event>
 5    1  0.1259474E-009  0.9118800E+02  0.7815553E-02  0.1125453E+00
         25   -1    0    0    0    0  0.00000000000E+00  0.00000000000E+00  0.99999998245E-14  0.12509000000E+03  0.12509000000E+03 0.  0.
        -13    1    3    3    0    0 -0.16923140012E+02 -0.24674982515E+02 -0.25861385465E+02  0.39548323001E+02  0.10566000000E+00 0.  1.
         23    2    1    0    0    0 -0.17913944696E+02  0.20979101981E+01  0.23353156442E+02  0.95582703317E+02  0.90914094704E+02 0.  0.
         13    1    3    3    0    0 -0.99080468364E+00  0.26772892713E+02  0.49214541907E+02  0.56034380315E+02  0.10566000000E+00 0. -1.
         22    1    1    0    0    0  0.17913944696E+02 -0.20979101981E+01 -0.23353156442E+02  0.29507296683E+02  0.00000000000E+00 0. -1.
</event>
<event>
 5    1  0.1259474E-009  0.9118800E+02  0.7815553E-02  0.1125453E+00
         25   -1    0    0    0    0  0.00000000000E+00  0.00000000000E+00  0.99999998245E-14  0.12509000000E+03  0.12509000000E+03 0.  0.
        -13    1    3    3    0    0  0.21670232865E+02 -0.27091010331E+02  0.90669597134E+01  0.35857255272E+02  0.10566000000E+00 0.  1.
         23    2    1    0    0    0 -0.26513095788E+02  0.78772987511E+01  0.10749135391E+02  0.95416105825E+02  0.90684581133E+02 0.  0.
         13    1    3    3    0    0 -0.48183328653E+02  0.34968309082E+02  0.16821756773E+01  0.59558850553E+02  0.10566000000E+00 0. -1.
         22    1    1    0    0    0  0.26513095788E+02 -0.78772987511E+01 -0.10749135391E+02  0.29673894175E+02  0.00000000000E+00 0. -1.
</event>
<event>
 5    1  0.1259474E-009  0.9118800E+02  0.7815553E-02  0.1125453E+00
         25   -1    0    0    0    0  0.00000000000E+00  0.00000000000E+00  0.99999998245E-14  0.12509000000E+03  0.12509000000E+03 0.  0.
        -13    1    3    3    0    0 -0.73907968403E+01 -0.29251934587E+02  0.32541559072E+02  0.44376387707E+02  0.10566000000E+00 0.  1.
         23    2    1    0    0    0  0.16542907781E+02  0.13266385817E+02  0.22464506222E+02  0.94197948753E+02  0.88988396541E+02 0.  0.
         13    1    3    3    0    0  0.23933704621E+02  0.42518320404E+02 -0.10077052850E+02  0.49821561046E+02  0.10566000000E+00 0. -1.
         22    1    1    0    0    0 -0.16542907781E+02 -0.13266385817E+02 -0.22464506222E+02  0.30892051247E+02  0.00000000000E+00 0.  1.
</event>
<event>
 5    1  0.1259474E-009  0.9118800E+02  0.7815553E-02  0.1125453E+00
         25   -1    0    0    0    0  0.00000000000E+00  0.00000000000E+00  0.99999998245E-14  0.12509000000E+03  0.12509000000E+03 0.  0.
        -13    1    3    3    0    0 -0.26851034718E+02 -0.45192518799E+02 -0.14570598411E+02  0.54549567578E+02  0.10566000000E+00 0.  1.
         23    2    1    0    0    0  0.65304989879E+01 -0.21651865718E+02 -0.18888352042E+02  0.95624417553E+02  0.90971471810E+02 0.  0.
         13    1    3    3    0    0  0.33381533706E+02  0.23540653081E+02 -0.43177536308E+01  0.41074849975E+02  0.10566000000E+00 0. -1.
         22    1    1    0    0    0 -0.65304989879E+01  0.21651865718E+02  0.18888352042E+02  0.29465582447E+02  0.00000000000E+00 0.  1.
</event>
<event>
 5    1  0.1259474E-009  0.9118800E+02  0.7815553E-02  0.1125453E+00
         25   -1    0    0    0    0  0.00000000000E+00  0.00000000000E+00  0.99999998245E-14  0.12509000000E+03  0.12509000000E+03 0.  0.
        -13    1    3    3    0    0  0.16626605097E+01 -0.12634651826E+02 -0.32001467929E+02  0.34445667077E+02  0.10566000000E+00 0. -1.
         23    2    1    0    0    0 -0.25728776469E+02  0.23722476630E+02  0.76688213827E-02  0.90093916006E+02  0.83019201432E+02 0.  0.
         13    1    3    3    0    0 -0.27391436979E+02  0.36357128457E+02  0.32009136750E+02  0.55648248929E+02  0.10566000000E+00 0.  1.
         22    1    1    0    0    0  0.25728776469E+02 -0.23722476630E+02 -0.76688213827E-02  0.34996083994E+02  0.00000000000E+00 0.  1.
</event>
<event>
 5    1  0.1259474E-009  0.9118800E+02  0.7815553E-02  0.1125453E+00
         25   -1    0    0    0    0  0.00000000000E+00  0.00000000000E+00  0.99999998245E-14  0.12509000000E+03  0.12509000000E+03 0.  0.
        -13    1    3    3    0    0  0.85832145719E+01 -0.43563184678E+02 -0.39876197103E+02  0.59678680373E+02  0.10566000000E+00 0. -1.
         23    2    1    0    0    0  0.16696017452E+02 -0.16268874616E+02 -0.16330213034E+02  0.96627583768E+02  0.92340569671E+02 0.  0.
         13    1    3    3    0    0  0.81128028798E+01  0.27294310062E+02  0.23545984069E+02  0.36948903395E+02  0.10566000000E+00 0.  1.
         22    1    1    0    0    0 -0.16696017452E+02  0.16268874616E+02  0.16330213034E+02  0.28462416232E+02  0.00000000000E+00 0.  1.
</event>
<event>
 5    1  0.1259474E-009  0.9118800E+02  0.7815553E-02  0.1125453E+00
         25   -1    0    0    0    0  0.00000000000E+00  0.00000000000E+00  0.99999998245E-14  0.12509000000E+03  0.12509000000E+03 0.  0.
        -13    1    3    3    0    0 -0.20120982662E+02  0.11373015780E+02 -0.24734126404E+02  0.33852438675E+02  0.10566000000E+00 0.  1.
         23    2    1    0    0    0  0.99168042648E+01  0.30384574008E+02  0.17173333693E+02  0.88806550128E+02  0.81056243504E+02 0.  0.
         13    1    3    3    0    0  0.30037786927E+02  0.19011558228E+02  0.41907460097E+02  0.54954111453E+02  0.10566000000E+00 0. -1.
         22    1    1    0    0    0 -0.99168042648E+01 -0.30384574008E+02 -0.17173333693E+02  0.36283449872E+02  0.00000000000E+00 0. -1.
</event>
<event>
 5    1  0.1259474E-009  0.9118800E+02  0.7815553E-02  0.1125453E+00
         25   -1    0    0    0    0  0.00000000000E+00  0.00000000000E+00  0.99999998245E-14  0.12509000000E+03  0.12509000000E+03 0.  0.
        -13    1    3    3    0    0 -0.64230236137E-01 -0.19774819309E+02  0.39438286095E+02  0.44118444877E+02  0.10566000000E+00 0.  1.
         23    2    1    0    0    0  0.47843703911E+01 -0.31004384951E+02 -0.76747469535E+01  0.92793501319E+02  0.86991781566E+02 0.  0.
         13    1    3    3    0    0  0.48486006272E+01 -0.11229565642E+02 -0.47113033049E+02  0.48675056442E+02  0.10566000000E+00 0. -1.
         22    1    1    0    0    0 -0.47843703911E+01  0.31004384951E+02  0.76747469535E+01  0.32296498681E+02  0.00000000000E+00 0. -1.
</event>
<event>
 5    1  0.1259474E-009  0.9118800E+02  0.7815553E-02  0.1125453E+00
         25   -1    0    0    0    0  0.00000000000E+00  0.00000000000E+00  0.99999998245E-14  0.12509000000E+03  0.12509000000E+03 0.  0.
        -13    1    3    3    0    0 -0.83542508566E+01  0.33075676907E+02 -0.12720582957E+02  0.36409041528E+02  0.10566000000E+00 0. -1.
         23    2    1    0    0    0 -0.93695853103E+01 -0.26498751413E+02 -0.23788505151E+01  0.96883052538E+02  0.92685996699E+02 0.  0.
         13    1    3    3    0    0 -0.10153344536E+01 -0.59574428320E+02  0.10341732442E+02  0.60474011010E+02  0.10566000000E+00 0.  1.
         22    1    1    0    0    0  0.93695853103E+01  0.26498751413E+02  0.23788505151E+01  0.28206947462E+02  0.00000000000E+00 0.  1.
</event>
<event>
 5    1  0.1259474E-009  0.9118800E+02  0.7815553E-02  0.1125453E+00
         25   -1    0    0    0    0  0.00000000000E+00  0.00000000000E+00  0.99999998245E-14  0.12509000000E+03  0.12509000000E+03 0.  0.
        -13    1    3    3    0    0  0.36038716742E+02  0.27706228042E+02 -0.56490725973E+01  0.45807721642E+02  0.10566000000E+00 0. -1.
         23    2    1    0    0    0 -0.13951091562E+02  0.21925085713E+02 -0.11881565821E+02  0.96515291853E+02  0.92188326896E+02 0.  0.
         13    1    3    3    0    0 -0.49989808305E+02 -0.57811423288E+01 -0.62324932237E+01  0.50707570212E+02  0.10566000000E+00 0.  1.
         22    1    1    0    0    0  0.13951091562E+02 -0.21925085713E+02  0.11881565821E+02  0.28574708147E+02  0.00000000000E+00 0.  1.
</event>
<event>
 5    1  0.1259474E-009  0.9118800E+02  0.7815553E-02  0.1125453E+00
         25   -1    0    0    0    0  0.00000000000E+00  0.00000000000E+00  0.99999998245E-14  0.12509000000E+03  0.12509000000E+03 0.  0.
        -13    1    3    3    0    0  0.36499396440E+02 -0.27406823770E+02  0.24515193746E+02  0.51810672820E+02  0.10566000000E+00 0.  1.
         23    2    1    0    0    0  0.28145649981E+02  0.54804021368E+01 -0.40063323325E+01  0.96137226054E+02  0.91673895489E+02 0.  0.
         13    1    3    3    0    0 -0.83537464586E+01  0.32887225907E+02 -0.28521526078E+02  0.44326553234E+02  0.10566000000E+00 0. -1.
         22    1    1    0    0    0 -0.28145649981E+02 -0.54804021368E+01  0.40063323325E+01  0.28952773946E+02  0.00000000000E+00 0.  1.
</event>
<event>
 5    1  0.1259474E-009  0.9118800E+02  0.7815553E-02  0.1125453E+00
         25   -1    0    0    0    0  0.00000000000E+00  0.00000000000E+00  0.99999998245E-14  0.12509000000E+03  0.12509000000E+03 0.  0.
        -13    1    3    3    0    0 -0.16772936366E+02  0.50286212646E+02  0.29869339421E+02  0.60845896971E+02  0.10566000000E+00 0. -1.
         23    2    1    0    0    0  0.20214208938E+01  0.26154197336E+02  0.15244677699E+02  0.94749789406E+02  0.89760760991E+02 0.  0.
         13    1    3    3    0    0  0.18794357260E+02 -0.24132015311E+02 -0.14624661722E+02  0.33903892436E+02  0.10566000000E+00 0.  1.
         22    1    1    0    0    0 -0.20214208938E+01 -0.26154197336E+02 -0.15244677699E+02  0.30340210594E+02  0.00000000000E+00 0. -1.
</event>
<event>
 5    1  0.1259474E-009  0.9118800E+02  0.7815553E-02  0.1125453E+00
         25   -1    0    0    0    0  0.00000000000E+00  0.00000000000E+00  0.99999998245E-14  0.12509000000E+03  0.12509000000E+03 0.  0.
        -13    1    3    3    0    0  0.27023373021E+02 -0.31846675463E+02  0.23810359015E+02  0.48077206531E+02  0.10566000000E+00 0.  1.
         23    2    1    0    0    0  0.17433609413E+02 -0.11219498075E+02 -0.19264308134E+02  0.96789444491E+02  0.92559576073E+02 0.  0.
         13    1    3    3    0    0 -0.95897636076E+01  0.20627177387E+02 -0.43074667149E+02  0.48712237960E+02  0.10566000000E+00 0. -1.
         22    1    1    0    0    0 -0.17433609413E+02  0.11219498075E+02  0.19264308134E+02  0.28300555509E+02  0.00000000000E+00 0.  1.
</event>
<event>
 5    1  0.1259474E-009  0.9118800E+02  0.7815553E-02  0.1125453E+00
         25   -1    0    0    0    0  0.00000000000E+00  0.00000000000E+00  0.99999998245E-14  0.12509000000E+03  0.12509000000E+03 0.  0.
        -13    1    3    3    0    0  0.80865284895E+00  0.41538725961E+02  0.10848171011E+01  0.41560891065E+02  0.10566000000E+00 0.  1.
         23    2    1    0    0    0  0.27798372418E+02 -0.61426587215E+01  0.35141845181E+01  0.96404964562E+02  0.92038502455E+02 0.  0.
         13    1    3    3    0    0  0.26989719569E+02 -0.47681384683E+02  0.24293674170E+01  0.54844073497E+02  0.10566000000E+00 0. -1.
         22    1    1    0    0    0 -0.27798372418E+02  0.61426587215E+01 -0.35141845181E+01  0.28685035438E+02  0.00000000000E+00 0. -1.
</event>
<event>
 5    1  0.1259474E-009  0.9118800E+02  0.7815553E-02  0.1125453E+00
         25   -1    0    0    0    0  0.00000000000E+00  0.00000000000E+00  0.99999998245E-14  0.12509000000E+03  0.12509000000E+03 0.  0.
        -13    1    3    3    0    0  0.22111349125E+02 -0.32092699672E+02 -0.48573714810E+02  0.62275758259E+02  0.10566000000E+00 0.  1.
         23    2    1    0    0    0  0.13650818448E+02 -0.16964940707E+02 -0.21042383183E+02  0.94809049758E+02  0.89843307867E+02 0.  0.
         13    1    3    3    0    0 -0.84605306768E+01  0.15127758964E+02  0.27531331626E+02  0.32533291499E+02  0.10566000000E+00 0. -1.
         22    1    1    0    0    0 -0.13650818448E+02  0.16964940707E+02  0.21042383183E+02  0.30280950242E+02  0.00000000000E+00 0.  1.
</event>
<event>
 5    1  0.1259474E-009  0.9118800E+02  0.7815553E-02  0.1125453E+00
         25   -1    0    0    0    0  0.00000000000E+00  0.00000000000E+00  0.99999998245E-14  0.12509000000E+03  0.12509000000E+03 0.  0.
        -13    1    3    3    0    0 -0.14401350702E+02 -0.20932444345E+02 -0.48592500521E+02  0.54834372425E+02  0.10566000000E+00 0.  1.
         23    2    1    0    0    0 -0.25486075818E+02 -0.76814023164E+01 -0.10846019708E+02  0.96346650410E+02  0.91959213239E+02 0.  0.
         13    1    3    3    0    0 -0.11084725116E+02  0.13251042029E+02  0.37746480812E+02  0.41512277985E+02  0.10566000000E+00 0. -1.
         22    1    1    0    0    0  0.25486075818E+02  0.76814023164E+01  0.10846019708E+02  0.28743349590E+02  0.00000000000E+00 0.  1.
</event>
<event>
 5    1  0.1259474E-009  0.9118800E+02  0.7815553E-02  0.1125453E+00
         25   -1    0    0    0    0  0.00000000000E+00  0.00000000000E+00  0.99999998245E-14  0.12509000000E+03  0.12509000000E+03 0.  0.
        -13    1    3    3    0    0 -0.37434023393E+02  0.72159926024E+01 -0.12250666817E+02  0.40043309780E+02  0.10566000000E+00 0. -1.
         23    2    1    0    0    0  0.11738830019E+02 -0.11952808076E+02 -0.25611893656E+02  0.94485444003E+02  0.89391611915E+02 0.  0.
         13    1    3    3    0    0  0.49172853412E+02 -0.19168800678E+02 -0.13361226839E+02  0.54442134224E+02  0.10566000000E+00 0.  1.
         22    1    1    0    0    0 -0.11738830019E+02  0.11952808076E+02  0.25611893656E+02  0.30604555997E+02  0.00000000000E+00 0.  1.
</event>
<event>
 5    1  0.1259474E-009  0.9118800E+02  0.7815553E-02  0.1125453E+00
         25   -1    0    0    0    0  0.00000000000E+00  0.00000000000E+00  0.99999998245E-14  0.12509000000E+03  0.12509000000E+03 0.  0.
        -13    1    3    3    0    0  0.44735475463E+02  0.27776192782E+02 -0.30294400669E+02  0.60749827376E+02  0.10566000000E+00 0. -1.
         23    2    1    0    0    0  0.14977030469E+02  0.16683990377E+02 -0.22231828268E+02  0.93515941586E+02  0.88024486173E+02 0.  0.
         13    1    3    3    0    0 -0.29758444994E+02 -0.11092202404E+02  0.80625724001E+01  0.32766114209E+02  0.10566000000E+00 0.  1.
         22    1    1    0    0    0 -0.14977030469E+02 -0.16683990377E+02  0.22231828268E+02  0.31574058414E+02  0.00000000000E+00 0. -1.
</event>
<event>
 5    1  0.1259474E-009  0.9118800E+02  0.7815553E-02  0.1125453E+00
         25   -1    0    0    0    0  0.00000000000E+00  0.00000000000E+00  0.99999998245E-14  0.12509000000E+03  0.12509000000E+03 0.  0.
        -13    1    3    3    0    0 -0.25146608058E+02 -0.26626406739E+02  0.38900040413E+02  0.53427911628E+02  0.10566000000E+00 0. -1.
         23    2    1    0    0    0 -0.27355806139E+02  0.23016460759E+01  0.65792009147E+01  0.96860164917E+02  0.92655102174E+02 0.  0.
         13    1    3    3    0    0 -0.22091980802E+01  0.28928052815E+02 -0.32320839499E+02  0.43432253289E+02  0.10566000000E+00 0.  1.
         22    1    1    0    0    0  0.27355806139E+02 -0.23016460759E+01 -0.65792009147E+01  0.28229835083E+02  0.00000000000E+00 0. -1.
</event>
<event>
 5    1  0.1259474E-009  0.9118800E+02  0.7815553E-02  0.1125453E+00
         25   -1    0    0    0    0  0.00000000000E+00  0.00000000000E+00  0.99999998245E-14  0.12509000000E+03  0.12509000000E+03 0.  0.
        -13    1    3    3    0    0  0.11229395763E+02  0.31273130631E+02  0.24039338212E+02  0.41012302720E+02  0.10566000000E+00 0.  1.
         23    2    1    0    0    0 -0.29424054896E+02  0.51033300891E+01 -0.48015458704E+00  0.95222801722E+02  0.90417544950E+02 0.  0.
         13    1    3    3    0    0 -0.40653450659E+02 -0.26169800542E+02 -0.24519492799E+02  0.54210499002E+02  0.10566000000E+00 0. -1.
         22    1    1    0    0    0  0.29424054896E+02 -0.51033300891E+01  0.48015458704E+00  0.29867198278E+02  0.00000000000E+00 0.  1.
</event>
<event>
 5    1  0.1259474E-009  0.9118800E+02  0.7815553E-02  0.1125453E+00
         25   -1    0    0    0    0  0.00000000000E+00  0.00000000000E+00  0.99999998245E-14  0.12509000000E+03  0.12509000000E+03 0.  0.
        -13    1    3    3    0    0 -0.40841171957E+02 -0.12509929226E+02  0.68311788219E+00  0.42719755034E+02  0.10566000000E+00 0. -1.
         23    2    1    0    0    0 -0.57666952924E+01  0.25512025586E+02 -0.12497960602E+02  0.96101774057E+02  0.91625508095E+02 0.  0.
         13    1    3    3    0    0  0.35074476665E+02  0.38021954812E+02 -0.13181078484E+02  0.53382019024E+02  0.10566000000E+00 0.  1.
         22    1    1    0    0    0  0.57666952924E+01 -0.25512025586E+02  0.12497960602E+02  0.28988225943E+02  0.00000000000E+00 0. -1.
</event>
<event>
 5    1  0.1259474E-009  0.9118800E+02  0.7815553E-02  0.1125453E+00
         25   -1    0    0    0    0  0.00000000000E+00  0.00000000000E+00  0.99999998245E-14  0.12509000000E+03  0.12509000000E+03 0.  0.
        -13    1    3    3    0    0 -0.35305184772E+01  0.42439557575E+02  0.85039901602E+01  0.43427060925E+02  0.10566000000E+00 0.  1.
         23    2    1    0    0    0  0.22471162328E+02  0.66059094134E+01 -0.18462184463E+02  0.95266461801E+02  0.90477927216E+02 0.  0.
         13    1    3    3    0    0  0.26001680806E+02 -0.35833648162E+02 -0.26966174623E+02  0.51839400876E+02  0.10566000000E+00 0. -1.
         22    1    1    0    0    0 -0.22471162328E+02 -0.66059094134E+01  0.18462184463E+02  0.29823538199E+02  0.00000000000E+00 0. -1.
</event>
<event>
 5    1  0.1259474E-009  0.9118800E+02  0.7815553E-02  0.1125453E+00
         25   -1    0    0    0    0  0.00000000000E+00  0.00000000000E+00  0.99999998245E-14  0.12509000000E+03  0.12509000000E+03 0.  0.
        -13    1    3    3    0    0 -0.29117659694E+02 -0.17827620967E+02 -0.13155030459E+01  0.34167292660E+02  0.10566000000E+00 0. -1.
         23    2    1    0    0    0  0.17339465100E+02  0.20153903168E+02  0.12449536795E+02  0.95733095714E+02  0.91120786792E+02 0.  0.
         13    1    3    3    0    0  0.46457124795E+02  0.37981524134E+02  0.13765039841E+02  0.61565803054E+02  0.10566000000E+00 0.  1.
         22    1    1    0    0    0 -0.17339465100E+02 -0.20153903168E+02 -0.12449536795E+02  0.29356904286E+02  0.00000000000E+00 0.  1.
</event>
<event>
 5    1  0.1259474E-009  0.9118800E+02  0.7815553E-02  0.1125453E+00
         25   -1    0    0    0    0  0.00000000000E+00  0.00000000000E+00  0.99999998245E-14  0.12509000000E+03  0.12509000000E+03 0.  0.
        -13    1    3    3    0    0  0.27865008594E+00  0.50526126854E+02  0.17413939697E+02  0.53443648833E+02  0.10566000000E+00 0.  1.
         23    2    1    0    0    0  0.21072020248E+02  0.14232498954E+02  0.15488207771E+02  0.95316208777E+02  0.90546678635E+02 0.  0.
         13    1    3    3    0    0  0.20793370162E+02 -0.36293627900E+02 -0.19257319260E+01  0.41872559945E+02  0.10566000000E+00 0. -1.
         22    1    1    0    0    0 -0.21072020248E+02 -0.14232498954E+02 -0.15488207771E+02  0.29773791223E+02  0.00000000000E+00 0.  1.
</event>
<event>
 5    1  0.1259474E-009  0.9118800E+02  0.7815553E-02  0.1125453E+00
         25   -1    0    0    0    0  0.00000000000E+00  0.00000000000E+00  0.99999998245E-14  0.12509000000E+03  0.12509000000E+03 0.  0.
        -13    1    3    3    0    0 -0.13947503403E+02 -0.15890353750E+02 -0.20255901294E+02  0.29280520739E+02  0.10566000000E+00 0. -1.
         23    2    1    0    0    0  0.16769887608E+02 -0.26260665154E+00  0.30295035879E+02  0.90462160166E+02  0.83572215062E+02 0.  0.
         13    1    3    3    0    0  0.30717391011E+02  0.15627747099E+02  0.50550937173E+02  0.61181639427E+02  0.10566000000E+00 0.  1.
         22    1    1    0    0    0 -0.16769887608E+02  0.26260665154E+00 -0.30295035879E+02  0.34627839834E+02  0.00000000000E+00 0.  1.
</event>
<event>
 5    1  0.1259474E-009  0.9118800E+02  0.7815553E-02  0.1125453E+00
         25   -1    0    0    0    0  0.00000000000E+00  0.00000000000E+00  0.99999998245E-14  0.12509000000E+03  0.12509000000E+03 0.  0.
        -13    1    3    3    0    0 -0.19713649060E+02 -0.46529638505E+02  0.27311312379E+02  0.57441745853E+02  0.10566000000E+00 0.  1.
         23    2    1    0    0    0  0.66942514627E+01 -0.27541492326E+02  0.66443296831E+01  0.95978251184E+02  0.91456715342E+02 0.  0.
         13    1    3    3    0    0  0.26407900523E+02  0.18988146179E+02 -0.20666982696E+02  0.38536505331E+02  0.10566000000E+00 0. -1.
         22    1    1    0    0    0 -0.66942514627E+01  0.27541492326E+02 -0.66443296831E+01  0.29111748816E+02  0.00000000000E+00 0.  1.
</event>
<event>
 5    1  0.1259474E-009  0.9118800E+02  0.7815553E-02  0.1125453E+00
         25   -1    0    0    0    0  0.00000000000E+00  0.00000000000E+00  0.99999998245E-14  0.12509000000E+03  0.12509000000E+03 0.  0.
        -13    1    3    3    0    0 -0.30361398919E+02  0.67226927762E+01 -0.25284165196E+02  0.40078788856E+02  0.10566000000E+00 0. -1.
         23    2    1    0    0    0  0.23769437613E+02 -0.79580719604E+01 -0.84719718485E+01  0.98630760011E+02  0.95015448426E+02 0.  0.
         13    1    3    3    0    0  0.54130836532E+02 -0.14680764737E+02  0.16812193347E+02  0.58551971155E+02  0.10566000000E+00 0.  1.
         22    1    1    0    0    0 -0.23769437613E+02  0.79580719604E+01  0.84719718485E+01  0.26459239989E+02  0.00000000000E+00 0.  1.
</event>
<event>
 5    1  0.1259474E-009  0.9118800E+02  0.7815553E-02  0.1125453E+00
         25   -1    0    0    0    0  0.00000000000E+00  0.00000000000E+00  0.99999998245E-14  0.12509000000E+03  0.12509000000E+03 0.  0.
        -13    1    3    3    0    0  0.29169118073E+01 -0.46227908080E+01  0.57782563547E+02  0.58040627008E+02  0.10566000000E+00 0.  1.
         23    2    1    0    0    0  0.14946641227E+02 -0.11563022223E+02  0.24170354283E+02  0.94409198298E+02  0.89284853868E+02 0.  0.
         13    1    3    3    0    0  0.12029729420E+02 -0.69402314153E+01 -0.33612209264E+02  0.36368571290E+02  0.10566000000E+00 0. -1.
         22    1    1    0    0    0 -0.14946641227E+02  0.11563022223E+02 -0.24170354283E+02  0.30680801702E+02  0.00000000000E+00 0.  1.
</event>
<event>
 5    1  0.1259474E-009  0.9118800E+02  0.7815553E-02  0.1125453E+00
         25   -1    0    0    0    0  0.00000000000E+00  0.00000000000E+00  0.99999998245E-14  0.12509000000E+03  0.12509000000E+03 0.  0.
        -13    1    3    3    0    0 -0.37147801863E+02  0.20188280277E+01 -0.27572608392E+02  0.46306530289E+02  0.10566000000E+00 0.  1.
         23    2    1    0    0    0  0.11933944974E+01  0.27601217306E+02 -0.12132600030E+02  0.94916313274E+02  0.89992528328E+02 0.  0.
         13    1    3    3    0    0  0.38341196361E+02  0.25582389278E+02  0.15440008362E+02  0.48609782984E+02  0.10566000000E+00 0. -1.
         22    1    1    0    0    0 -0.11933944974E+01 -0.27601217306E+02  0.12132600030E+02  0.30173686726E+02  0.00000000000E+00 0.  1.
</event>
<event>
 5    1  0.1259474E-009  0.9118800E+02  0.7815553E-02  0.1125453E+00
         25   -1    0    0    0    0  0.00000000000E+00  0.00000000000E+00  0.99999998245E-14  0.12509000000E+03  0.12509000000E+03 0.  0.
        -13    1    3    3    0    0  0.19589417891E+02  0.28958595860E+02 -0.17609410657E+02  0.39146495056E+02  0.10566000000E+00 0.  1.
         23    2    1    0    0    0  0.16683759060E+02 -0.12405451885E+02  0.20809189465E+02  0.95674605748E+02  0.91040456754E+02 0.  0.
         13    1    3    3    0    0 -0.29056588307E+01 -0.41364047745E+02  0.38418600121E+02  0.56528110692E+02  0.10566000000E+00 0. -1.
         22    1    1    0    0    0 -0.16683759060E+02  0.12405451885E+02 -0.20809189465E+02  0.29415394252E+02  0.00000000000E+00 0. -1.
</event>
<event>
 5    1  0.1259474E-009  0.9118800E+02  0.7815553E-02  0.1125453E+00
         25   -1    0    0    0    0  0.00000000000E+00  0.00000000000E+00  0.99999998245E-14  0.12509000000E+03  0.12509000000E+03 0.  0.
        -13    1    3    3    0    0  0.33919337715E+02  0.25629826883E+02  0.98310853546E+01  0.43635660879E+02  0.10566000000E+00 0. -1.
         23    2    1    0    0    0  0.21365046338E+02 -0.13854370099E+02 -0.18314836082E+02  0.93723744301E+02  0.88319297151E+02 0.  0.
         13    1    3    3    0    0 -0.12554291378E+02 -0.39484196982E+02 -0.28145921436E+02  0.50088083422E+02  0.10566000000E+00 0.  1.
         22    1    1    0    0    0 -0.21365046338E+02  0.13854370099E+02  0.18314836082E+02  0.31366255699E+02  0.00000000000E+00 0.  1.
</event>
<event>
 5    1  0.1259474E-009  0.9118800E+02  0.7815553E-02  0.1125453E+00
         25   -1    0    0    0    0  0.00000000000E+00  0.00000000000E+00  0.99999998245E-14  0.12509000000E+03  0.12509000000E+03 0.  0.
        -13    1    3    3    0    0  0.53651073919E+02 -0.20839052713E+02  0.12631113956E+02  0.58925886115E+02  0.10566000000E+00 0.  1.
         23    2    1    0    0    0  0.21866000546E+02 -0.24399755087E+02  0.89808210660E+01  0.91117582141E+02  0.84547552300E+02 0.  0.
         13    1    3    3    0    0 -0.31785073374E+02 -0.35607023744E+01 -0.36502928898E+01  0.32191696025E+02  0.10566000000E+00 0. -1.
         22    1    1    0    0    0 -0.21866000546E+02  0.24399755087E+02 -0.89808210660E+01  0.33972417859E+02  0.00000000000E+00 0.  1.
</event>
<event>
 5    1  0.1259474E-009  0.9118800E+02  0.7815553E-02  0.1125453E+00
         25   -1    0    0    0    0  0.00000000000E+00  0.00000000000E+00  0.99999998245E-14  0.12509000000E+03  0.12509000000E+03 0.  0.
        -13    1    3    3    0    0 -0.61554526346E+01 -0.42037048690E+02  0.23818575881E+02  0.48706660538E+02  0.10566000000E+00 0.  1.
         23    2    1    0    0    0  0.61734254582E+01  0.24149144480E+01  0.29197595919E+02  0.95149348686E+02  0.90315867677E+02 0.  0.
         13    1    3    3    0    0  0.12328878093E+02  0.44451963138E+02  0.53790200373E+01  0.46442688148E+02  0.10566000000E+00 0. -1.
         22    1    1    0    0    0 -0.61734254582E+01 -0.24149144480E+01 -0.29197595919E+02  0.29940651314E+02  0.00000000000E+00 0.  1.
</event>
<event>
 5    1  0.1259474E-009  0.9118800E+02  0.7815553E-02  0.1125453E+00
         25   -1    0    0    0    0  0.00000000000E+00  0.00000000000E+00  0.99999998245E-14  0.12509000000E+03  0.12509000000E+03 0.  0.
        -13    1    3    3    0    0 -0.34151845593E+02 -0.43825124888E+02 -0.16999819373E+02  0.58103314463E+02  0.10566000000E+00 0.  1.
         23    2    1    0    0    0 -0.11854298541E+02 -0.27472620186E+02  0.65922118836E+01  0.94451355916E+02  0.89343898074E+02 0.  0.
         13    1    3    3    0    0  0.22297547052E+02  0.16352504702E+02  0.23592031257E+02  0.36348041452E+02  0.10566000000E+00 0. -1.
         22    1    1    0    0    0  0.11854298541E+02  0.27472620186E+02 -0.65922118836E+01  0.30638644084E+02  0.00000000000E+00 0.  1.
</event>
<event>
 5    1  0.1259474E-009  0.9118800E+02  0.7815553E-02  0.1125453E+00
         25   -1    0    0    0    0  0.00000000000E+00  0.00000000000E+00  0.99999998245E-14  0.12509000000E+03  0.12509000000E+03 0.  0.
        -13    1    3    3    0    0  0.22514544415E+02 -0.35300036156E+02 -0.58704496919E+01  0.42278488697E+02  0.10566000000E+00 0.  1.
         23    2    1    0    0    0 -0.10438414678E+02  0.16749094155E+02  0.47496386121E+01  0.10479094281E+03  0.10280607945E+03 0.  0.
         13    1    3    3    0    0 -0.32952959093E+02  0.52049130312E+02  0.10620088304E+02  0.62512454110E+02  0.10566000000E+00 0. -1.
         22    1    1    0    0    0  0.10438414678E+02 -0.16749094155E+02 -0.47496386121E+01  0.20299057194E+02  0.00000000000E+00 0. -1.
</event>
<event>
 5    1  0.1259474E-009  0.9118800E+02  0.7815553E-02  0.1125453E+00
         25   -1    0    0    0    0  0.00000000000E+00  0.00000000000E+00  0.99999998245E-14  0.12509000000E+03  0.12509000000E+03 0.  0.
        -13    1    3    3    0    0  0.76850769419E+01  0.37021636485E+02 -0.21881693791E+01  0.37874281840E+02  0.10566000000E+00 0. -1.
         23    2    1    0    0    0 -0.26711611833E+02 -0.85704605427E+01 -0.95440463109E+01  0.95458060803E+02  0.90742435231E+02 0.  0.
         13    1    3    3    0    0 -0.34396688775E+02 -0.45592097028E+02 -0.73558769319E+01  0.57583778962E+02  0.10566000000E+00 0.  1.
         22    1    1    0    0    0  0.26711611833E+02  0.85704605427E+01  0.95440463109E+01  0.29631939197E+02  0.00000000000E+00 0.  1.
</event>
<event>
 5    1  0.1259474E-009  0.9118800E+02  0.7815553E-02  0.1125453E+00
         25   -1    0    0    0    0  0.00000000000E+00  0.00000000000E+00  0.99999998245E-14  0.12509000000E+03  0.12509000000E+03 0.  0.
        -13    1    3    3    0    0 -0.26625808248E+02  0.27569186635E+02  0.39045621088E+01  0.38525971576E+02  0.10566000000E+00 0. -1.
         23    2    1    0    0    0  0.15207414170E+02 -0.52056110637E+01  0.24722671799E+02  0.95601454204E+02  0.90939890657E+02 0.  0.
         13    1    3    3    0    0  0.41833222418E+02 -0.32774797699E+02  0.20818109690E+02  0.57075482628E+02  0.10566000000E+00 0.  1.
         22    1    1    0    0    0 -0.15207414170E+02  0.52056110637E+01 -0.24722671799E+02  0.29488545796E+02  0.00000000000E+00 0.  1.
</event>
<event>
 5    1  0.1259474E-009  0.9118800E+02  0.7815553E-02  0.1125453E+00
         25   -1    0    0    0    0  0.00000000000E+00  0.00000000000E+00  0.99999998245E-14  0.12509000000E+03  0.12509000000E+03 0.  0.
        -13    1    3    3    0    0  0.12887605600E+02 -0.20561778056E+02 -0.30772067266E+02  0.39189391203E+02  0.10566000000E+00 0.  1.
         23    2    1    0    0    0 -0.86108017298E+01 -0.21442404754E+02  0.20125133181E+02  0.94447813172E+02  0.89338937756E+02 0.  0.
         13    1    3    3    0    0 -0.21498407330E+02 -0.88062669744E+00  0.50897200447E+02  0.55258421969E+02  0.10566000000E+00 0. -1.
         22    1    1    0    0    0  0.86108017298E+01  0.21442404754E+02 -0.20125133181E+02  0.30642186828E+02  0.00000000000E+00 0. -1.
</event>
<event>
 5    1  0.1259474E-009  0.9118800E+02  0.7815553E-02  0.1125453E+00
         25   -1    0    0    0    0  0.00000000000E+00  0.00000000000E+00  0.99999998245E-14  0.12509000000E+03  0.12509000000E+03 0.  0.
        -13    1    3    3    0    0 -0.14383604432E+02 -0.32440665401E+02 -0.28037841678E+02  0.45226281940E+02  0.10566000000E+00 0. -1.
         23    2    1    0    0    0 -0.41032407440E+01  0.16498692583E+02 -0.24380036459E+02  0.95367456043E+02  0.90617448942E+02 0.  0.
         13    1    3    3    0    0  0.10280363688E+02  0.48939357983E+02  0.36578052191E+01  0.50141174103E+02  0.10566000000E+00 0.  1.
         22    1    1    0    0    0  0.41032407440E+01 -0.16498692583E+02  0.24380036459E+02  0.29722543957E+02  0.00000000000E+00 0.  1.
</event>
<event>
 5    1  0.1259474E-009  0.9118800E+02  0.7815553E-02  0.1125453E+00
         25   -1    0    0    0    0  0.00000000000E+00  0.00000000000E+00  0.99999998245E-14  0.12509000000E+03  0.12509000000E+03 0.  0.
        -13    1    3    3    0    0  0.20832927875E+02  0.41440341936E+02  0.12440175418E+02  0.48021682104E+02  0.10566000000E+00 0.  1.
         23    2    1    0    0    0 -0.17987989424E+02  0.19307463169E+02 -0.84927186408E+01  0.97368669451E+02  0.93339089470E+02 0.  0.
         13    1    3    3    0    0 -0.38820917299E+02 -0.22132878768E+02 -0.20932894058E+02  0.49346987347E+02  0.10566000000E+00 0. -1.
         22    1    1    0    0    0  0.17987989424E+02 -0.19307463169E+02  0.84927186408E+01  0.27721330549E+02  0.00000000000E+00 0.  1.
</event>
<event>
 5    1  0.1259474E-009  0.9118800E+02  0.7815553E-02  0.1125453E+00
         25   -1    0    0    0    0  0.00000000000E+00  0.00000000000E+00  0.99999998245E-14  0.12509000000E+03  0.12509000000E+03 0.  0.
        -13    1    3    3    0    0  0.18002873825E+02  0.27299037975E+02  0.13679828448E+02  0.35447000024E+02  0.10566000000E+00 0.  1.
         23    2    1    0    0    0 -0.26484500324E+02 -0.26292070878E+01 -0.13151440210E+02  0.95403271198E+02  0.90666875365E+02 0.  0.
         13    1    3    3    0    0 -0.44487374149E+02 -0.29928245063E+02 -0.26831268658E+02  0.59956271174E+02  0.10566000000E+00 0. -1.
         22    1    1    0    0    0  0.26484500324E+02  0.26292070878E+01  0.13151440210E+02  0.29686728802E+02  0.00000000000E+00 0. -1.
</event>
<event>
 5    1  0.1259474E-009  0.9118800E+02  0.7815553E-02  0.1125453E+00
         25   -1    0    0    0    0  0.00000000000E+00  0.00000000000E+00  0.99999998245E-14  0.12509000000E+03  0.12509000000E+03 0.  0.
        -13    1    3    3    0    0  0.34769535097E+02 -0.19789707856E+02  0.37645291585E+02  0.54933889817E+02  0.10566000000E+00 0. -1.
         23    2    1    0    0    0  0.28184618026E+02 -0.12549931614E+02 -0.41741133930E+00  0.94234729640E+02  0.89040084015E+02 0.  0.
         13    1    3    3    0    0 -0.65849170710E+01  0.72397762429E+01 -0.38062702924E+02  0.39300839823E+02  0.10566000000E+00 0.  1.
         22    1    1    0    0    0 -0.28184618026E+02  0.12549931614E+02  0.41741133930E+00  0.30855270360E+02  0.00000000000E+00 0. -1.
</event>
<event>
 5    1  0.1259474E-009  0.9118800E+02  0.7815553E-02  0.1125453E+00
         25   -1    0    0    0    0  0.00000000000E+00  0.00000000000E+00  0.99999998245E-14  0.12509000000E+03  0.12509000000E+03 0.  0.
        -13    1    3    3    0    0  0.11150130478E+02  0.14583005663E+02 -0.48181200486E+02  0.51559952561E+02  0.10566000000E+00 0. -1.
         23    2    1    0    0    0  0.13820578830E+01  0.32902171588E+02 -0.38380540174E+02  0.74517983596E+02  0.54730257043E+02 0.  0.
         13    1    3    3    0    0 -0.97680725952E+01  0.18319165925E+02  0.98006603120E+01  0.22958031035E+02  0.10566000000E+00 0.  1.
         22    1    1    0    0    0 -0.13820578830E+01 -0.32902171588E+02  0.38380540174E+02  0.50572016404E+02  0.00000000000E+00 0. -1.
</event>
<event>
 5    1  0.1259474E-009  0.9118800E+02  0.7815553E-02  0.1125453E+00
         25   -1    0    0    0    0  0.00000000000E+00  0.00000000000E+00  0.99999998245E-14  0.12509000000E+03  0.12509000000E+03 0.  0.
        -13    1    3    3    0    0 -0.14681558539E+02  0.32974740669E+02  0.18033711812E+02  0.40349815478E+02  0.10566000000E+00 0. -1.
         23    2    1    0    0    0 -0.13006269642E+02 -0.18191974165E+02 -0.12007187854E+02  0.99707259128E+02  0.96422269153E+02 0.  0.
         13    1    3    3    0    0  0.16752888966E+01 -0.51166714835E+02 -0.30040899666E+02  0.59357443650E+02  0.10566000000E+00 0.  1.
         22    1    1    0    0    0  0.13006269642E+02  0.18191974165E+02  0.12007187854E+02  0.25382740872E+02  0.00000000000E+00 0.  1.
</event>
<event>
 5    1  0.1259474E-009  0.9118800E+02  0.7815553E-02  0.1125453E+00
         25   -1    0    0    0    0  0.00000000000E+00  0.00000000000E+00  0.99999998245E-14  0.12509000000E+03  0.12509000000E+03 0.  0.
        -13    1    3    3    0    0  0.16361652418E+02 -0.32081209297E+02  0.21871047659E+02  0.42133852773E+02  0.10566000000E+00 0.  1.
         23    2    1    0    0    0  0.25718801988E+02  0.12071309851E+02 -0.71512374261E+01  0.95793012203E+02  0.91203002654E+02 0.  0.
         13    1    3    3    0    0  0.93571495700E+01  0.44152519147E+02 -0.29022285085E+02  0.53659159430E+02  0.10566000000E+00 0. -1.
         22    1    1    0    0    0 -0.25718801988E+02 -0.12071309851E+02  0.71512374261E+01  0.29296987797E+02  0.00000000000E+00 0. -1.
</event>
<event>
 5    1  0.1259474E-009  0.9118800E+02  0.7815553E-02  0.1125453E+00
         25   -1    0    0    0    0  0.00000000000E+00  0.00000000000E+00  0.99999998245E-14  0.12509000000E+03  0.12509000000E+03 0.  0.
        -13    1    3    3    0    0 -0.65430626240E+01  0.12571901071E+02 -0.32813959384E+02  0.35743970953E+02  0.10566000000E+00 0. -1.
         23    2    1    0    0    0  0.21055301809E+02  0.11210515337E+01  0.19745376502E+02  0.96202937429E+02  0.91763515549E+02 0.  0.
         13    1    3    3    0    0  0.27598364433E+02 -0.11450849538E+02  0.52559335886E+02  0.60458966475E+02  0.10566000000E+00 0.  1.
         22    1    1    0    0    0 -0.21055301809E+02 -0.11210515337E+01 -0.19745376502E+02  0.28887062571E+02  0.00000000000E+00 0.  1.
</event>
<event>
 5    1  0.1259474E-009  0.9118800E+02  0.7815553E-02  0.1125453E+00
         25   -1    0    0    0    0  0.00000000000E+00  0.00000000000E+00  0.99999998245E-14  0.12509000000E+03  0.12509000000E+03 0.  0.
        -13    1    3    3    0    0 -0.63973888283E+01  0.39269405339E+02  0.23492981118E+02  0.46205455364E+02  0.10566000000E+00 0.  1.
         23    2    1    0    0    0  0.13897331387E+02  0.12447009257E+02 -0.17691125503E+02  0.99379306103E+02  0.95995868144E+02 0.  0.
         13    1    3    3    0    0  0.20294720215E+02 -0.26822396082E+02 -0.41184106621E+02  0.53173850739E+02  0.10566000000E+00 0. -1.
         22    1    1    0    0    0 -0.13897331387E+02 -0.12447009257E+02  0.17691125503E+02  0.25710693897E+02  0.00000000000E+00 0. -1.
</event>
<event>
 5    1  0.1259474E-009  0.9118800E+02  0.7815553E-02  0.1125453E+00
         25   -1    0    0    0    0  0.00000000000E+00  0.00000000000E+00  0.99999998245E-14  0.12509000000E+03  0.12509000000E+03 0.  0.
        -13    1    3    3    0    0 -0.13613186701E+02  0.15926498920E+02  0.26120735877E+02  0.33485462917E+02  0.10566000000E+00 0. -1.
         23    2    1    0    0    0  0.32445333826E+01 -0.11179725442E+02 -0.27128439428E+02  0.95569405771E+02  0.90895796579E+02 0.  0.
         13    1    3    3    0    0  0.16857720083E+02 -0.27106224362E+02 -0.53249175305E+02  0.62083942854E+02  0.10566000000E+00 0.  1.
         22    1    1    0    0    0 -0.32445333826E+01  0.11179725442E+02  0.27128439428E+02  0.29520594229E+02  0.00000000000E+00 0.  1.
</event>
<event>
 5    1  0.1259474E-009  0.9118800E+02  0.7815553E-02  0.1125453E+00
         25   -1    0    0    0    0  0.00000000000E+00  0.00000000000E+00  0.99999998245E-14  0.12509000000E+03  0.12509000000E+03 0.  0.
        -13    1    3    3    0    0 -0.10679156364E+02 -0.31195896771E+02  0.26787520495E+02  0.42483064558E+02  0.10566000000E+00 0.  1.
         23    2    1    0    0    0 -0.28899601719E+01  0.22328024600E+02  0.15554855522E+02  0.97724947787E+02  0.93815347024E+02 0.  0.
         13    1    3    3    0    0  0.77891961919E+01  0.53523921371E+02 -0.11232664973E+02  0.55241883228E+02  0.10566000000E+00 0. -1.
         22    1    1    0    0    0  0.28899601719E+01 -0.22328024600E+02 -0.15554855522E+02  0.27365052213E+02  0.00000000000E+00 0. -1.
</event>
<event>
 5    1  0.1259474E-009  0.9118800E+02  0.7815553E-02  0.1125453E+00
         25   -1    0    0    0    0  0.00000000000E+00  0.00000000000E+00  0.99999998245E-14  0.12509000000E+03  0.12509000000E+03 0.  0.
        -13    1    3    3    0    0 -0.19180248367E+02 -0.45717883592E+02  0.25582616406E+02  0.55789678560E+02  0.10566000000E+00 0.  1.
         23    2    1    0    0    0  0.12971641849E+02 -0.15210490870E+02  0.62449798429E+01  0.10414668847E+03  0.10201916693E+03 0.  0.
         13    1    3    3    0    0  0.32151890217E+02  0.30507392722E+02 -0.19337636563E+02  0.48357009906E+02  0.10566000000E+00 0. -1.
         22    1    1    0    0    0 -0.12971641849E+02  0.15210490870E+02 -0.62449798429E+01  0.20943311534E+02  0.00000000000E+00 0.  1.
</event>
<event>
 5    1  0.1259474E-009  0.9118800E+02  0.7815553E-02  0.1125453E+00
         25   -1    0    0    0    0  0.00000000000E+00  0.00000000000E+00  0.99999998245E-14  0.12509000000E+03  0.12509000000E+03 0.  0.
        -13    1    3    3    0    0  0.47255035657E+01 -0.98924788752E+01 -0.61271291708E+02  0.62244468620E+02  0.10566000000E+00 0.  1.
         23    2    1    0    0    0 -0.52580686357E-02 -0.11469549116E+01 -0.30202948315E+02  0.94865281306E+02  0.89921565696E+02 0.  0.
         13    1    3    3    0    0 -0.47307616344E+01  0.87455239636E+01  0.31068343393E+02  0.32620812686E+02  0.10566000000E+00 0. -1.
         22    1    1    0    0    0  0.52580686357E-02  0.11469549116E+01  0.30202948315E+02  0.30224718694E+02  0.00000000000E+00 0.  1.
</event>
<event>
 5    1  0.1259474E-009  0.9118800E+02  0.7815553E-02  0.1125453E+00
         25   -1    0    0    0    0  0.00000000000E+00  0.00000000000E+00  0.99999998245E-14  0.12509000000E+03  0.12509000000E+03 0.  0.
        -13    1    3    3    0    0 -0.38271271789E+02 -0.88918653619E+01  0.30969040730E+01  0.39412656506E+02  0.10566000000E+00 0.  1.
         23    2    1    0    0    0  0.20833172759E+02 -0.13959257945E+02  0.75490931364E+01  0.98900865291E+02  0.95370385228E+02 0.  0.
         13    1    3    3    0    0  0.59104444549E+02 -0.50673925831E+01  0.44521890634E+01  0.59488208785E+02  0.10566000000E+00 0. -1.
         22    1    1    0    0    0 -0.20833172759E+02  0.13959257945E+02 -0.75490931364E+01  0.26189134709E+02  0.00000000000E+00 0. -1.
</event>
<event>
 5    1  0.1259474E-009  0.9118800E+02  0.7815553E-02  0.1125453E+00
         25   -1    0    0    0    0  0.00000000000E+00  0.00000000000E+00  0.99999998245E-14  0.12509000000E+03  0.12509000000E+03 0.  0.
        -13    1    3    3    0    0  0.46553312598E+02 -0.36911165922E+01  0.16210604376E+02  0.49433087237E+02  0.10566000000E+00 0. -1.
         23    2    1    0    0    0  0.50741771966E+01  0.19416004094E+02  0.19604301470E+02  0.97035461591E+02  0.92891461829E+02 0.  0.
         13    1    3    3    0    0 -0.41479135402E+02  0.23107120686E+02  0.33936970944E+01  0.47602374353E+02  0.10566000000E+00 0.  1.
         22    1    1    0    0    0 -0.50741771966E+01 -0.19416004094E+02 -0.19604301470E+02  0.28054538409E+02  0.00000000000E+00 0. -1.
</event>
<event>
 5    1  0.1259474E-009  0.9118800E+02  0.7815553E-02  0.1125453E+00
         25   -1    0    0    0    0  0.00000000000E+00  0.00000000000E+00  0.99999998245E-14  0.12509000000E+03  0.12509000000E+03 0.  0.
        -13    1    3    3    0    0  0.49834457959E+01  0.25957220017E+02 -0.17555604620E+02  0.31730465181E+02  0.10566000000E+00 0.  1.
         23    2    1    0    0    0 -0.13603033440E+02 -0.88182032009E+01  0.28464501913E+02  0.92332846650E+02  0.86326840987E+02 0.  0.
         13    1    3    3    0    0 -0.18586479236E+02 -0.34775423218E+02  0.46020106533E+02  0.60602381469E+02  0.10566000000E+00 0. -1.
         22    1    1    0    0    0  0.13603033440E+02  0.88182032009E+01 -0.28464501913E+02  0.32757153350E+02  0.00000000000E+00 0. -1.
</event>
<event>
 5    1  0.1259474E-009  0.9118800E+02  0.7815553E-02  0.1125453E+00
         25   -1    0    0    0    0  0.00000000000E+00  0.00000000000E+00  0.99999998245E-14  0.12509000000E+03  0.12509000000E+03 0.  0.
        -13    1    3    3    0    0 -0.27487809205E+01  0.14139205583E+00 -0.53702963894E+02  0.53773555614E+02  0.10566000000E+00 0.  1.
         23    2    1    0    0    0  0.10963585843E+02 -0.10716404257E+02 -0.52959611961E+00  0.10974979117E+03  0.10867241902E+03 0.  0.
         13    1    3    3    0    0  0.13712366764E+02 -0.10857796313E+02  0.53173367775E+02  0.55976235561E+02  0.10566000000E+00 0. -1.
         22    1    1    0    0    0 -0.10963585843E+02  0.10716404257E+02  0.52959611961E+00  0.15340208825E+02  0.00000000000E+00 0. -1.
</event>
<event>
 5    1  0.1259474E-009  0.9118800E+02  0.7815553E-02  0.1125453E+00
         25   -1    0    0    0    0  0.00000000000E+00  0.00000000000E+00  0.99999998245E-14  0.12509000000E+03  0.12509000000E+03 0.  0.
        -13    1    3    3    0    0  0.39001146336E+01 -0.94330116374E+01 -0.61445819896E+02  0.62287980779E+02  0.10566000000E+00 0.  1.
         23    2    1    0    0    0  0.55182531301E+01 -0.53376737155E+01 -0.26821387795E+02  0.97191456641E+02  0.93101291733E+02 0.  0.
         13    1    3    3    0    0  0.16181384964E+01  0.40953379219E+01  0.34624432101E+02  0.34903475862E+02  0.10566000000E+00 0. -1.
         22    1    1    0    0    0 -0.55182531301E+01  0.53376737155E+01  0.26821387795E+02  0.27898543359E+02  0.00000000000E+00 0.  1.
</event>
<event>
 5    1  0.1259474E-009  0.9118800E+02  0.7815553E-02  0.1125453E+00
         25   -1    0    0    0    0  0.00000000000E+00  0.00000000000E+00  0.99999998245E-14  0.12509000000E+03  0.12509000000E+03 0.  0.
        -13    1    3    3    0    0  0.41916113430E+02  0.19765604517E+02 -0.26691605356E+02  0.53479834026E+02  0.10566000000E+00 0.  1.
         23    2    1    0    0    0  0.18416863791E+02 -0.15127193936E+02 -0.14128655556E+02  0.97383831443E+02  0.93359406866E+02 0.  0.
         13    1    3    3    0    0 -0.23499249638E+02 -0.34892798453E+02  0.12562949800E+02  0.43903997417E+02  0.10566000000E+00 0. -1.
         22    1    1    0    0    0 -0.18416863791E+02  0.15127193936E+02  0.14128655556E+02  0.27706168557E+02  0.00000000000E+00 0.  1.
</event>
<event>
 5    1  0.1259474E-009  0.9118800E+02  0.7815553E-02  0.1125453E+00
         25   -1    0    0    0    0  0.00000000000E+00  0.00000000000E+00  0.99999998245E-14  0.12509000000E+03  0.12509000000E+03 0.  0.
        -13    1    3    3    0    0 -0.10469039997E+01 -0.10146421819E+02 -0.34065302163E+02  0.35559834916E+02  0.10566000000E+00 0.  1.
         23    2    1    0    0    0  0.14780395722E+02  0.19809855319E+02  0.15733348680E+02  0.95791045648E+02  0.91200305373E+02 0.  0.
         13    1    3    3    0    0  0.15827299721E+02  0.29956277138E+02  0.49798650843E+02  0.60231210732E+02  0.10566000000E+00 0. -1.
         22    1    1    0    0    0 -0.14780395722E+02 -0.19809855319E+02 -0.15733348680E+02  0.29298954352E+02  0.00000000000E+00 0. -1.
</event>
<event>
 5    1  0.1259474E-009  0.9118800E+02  0.7815553E-02  0.1125453E+00
         25   -1    0    0    0    0  0.00000000000E+00  0.00000000000E+00  0.99999998245E-14  0.12509000000E+03  0.12509000000E+03 0.  0.
        -13    1    3    3    0    0 -0.17106249969E+02  0.25144727601E+02 -0.12906600282E+02  0.33037442531E+02  0.10566000000E+00 0.  1.
         23    2    1    0    0    0  0.15227892343E+02 -0.20817378685E+02  0.14435847006E+02  0.95532502824E+02  0.90844996872E+02 0.  0.
         13    1    3    3    0    0  0.32334142312E+02 -0.45962106286E+02  0.27342447288E+02  0.62495060293E+02  0.10566000000E+00 0. -1.
         22    1    1    0    0    0 -0.15227892343E+02  0.20817378685E+02 -0.14435847006E+02  0.29557497176E+02  0.00000000000E+00 0. -1.
</event>
<event>
 5    1  0.1259474E-009  0.9118800E+02  0.7815553E-02  0.1125453E+00
         25   -1    0    0    0    0  0.00000000000E+00  0.00000000000E+00  0.99999998245E-14  0.12509000000E+03  0.12509000000E+03 0.  0.
        -13    1    3    3    0    0 -0.52892774412E+01  0.55517489510E+02  0.27731981498E+02  0.62283561710E+02  0.10566000000E+00 0.  1.
         23    2    1    0    0    0 -0.70390141697E+00  0.27700731260E+02  0.97862745470E+01  0.95702976349E+02  0.91079429747E+02 0.  0.
         13    1    3    3    0    0  0.45853760242E+01 -0.27816758250E+02 -0.17945706951E+02  0.33419414640E+02  0.10566000000E+00 0. -1.
         22    1    1    0    0    0  0.70390141697E+00 -0.27700731260E+02 -0.97862745470E+01  0.29387023651E+02  0.00000000000E+00 0.  1.
</event>
<event>
 5    1  0.1259474E-009  0.9118800E+02  0.7815553E-02  0.1125453E+00
         25   -1    0    0    0    0  0.00000000000E+00  0.00000000000E+00  0.99999998245E-14  0.12509000000E+03  0.12509000000E+03 0.  0.
        -13    1    3    3    0    0 -0.26195809634E+02  0.30257672408E+02 -0.30789703733E+02  0.50495189889E+02  0.10566000000E+00 0.  1.
         23    2    1    0    0    0  0.92734325508E+01  0.27843270503E+02 -0.30567291400E+01  0.95584274172E+02  0.90916256041E+02 0.  0.
         13    1    3    3    0    0  0.35469242185E+02 -0.24144019045E+01  0.27732974593E+02  0.45089084284E+02  0.10566000000E+00 0. -1.
         22    1    1    0    0    0 -0.92734325508E+01 -0.27843270503E+02  0.30567291400E+01  0.29505725828E+02  0.00000000000E+00 0.  1.
</event>
<event>
 5    1  0.1259474E-009  0.9118800E+02  0.7815553E-02  0.1125453E+00
         25   -1    0    0    0    0  0.00000000000E+00  0.00000000000E+00  0.99999998245E-14  0.12509000000E+03  0.12509000000E+03 0.  0.
        -13    1    3    3    0    0 -0.62631783742E+01 -0.21560257838E+02 -0.38960245073E+02  0.44966476197E+02  0.10566000000E+00 0.  1.
         23    2    1    0    0    0 -0.14347283015E+02 -0.22913808937E+02  0.11225408647E+02  0.95817197448E+02  0.91236168034E+02 0.  0.
         13    1    3    3    0    0 -0.80841046410E+01 -0.13535510991E+01  0.50185653720E+02  0.50850721251E+02  0.10566000000E+00 0. -1.
         22    1    1    0    0    0  0.14347283015E+02  0.22913808937E+02 -0.11225408647E+02  0.29272802552E+02  0.00000000000E+00 0. -1.
</event>
<event>
 5    1  0.1259474E-009  0.9118800E+02  0.7815553E-02  0.1125453E+00
         25   -1    0    0    0    0  0.00000000000E+00  0.00000000000E+00  0.99999998245E-14  0.12509000000E+03  0.12509000000E+03 0.  0.
        -13    1    3    3    0    0  0.20392826343E+02  0.28047622986E+02  0.16449932438E+02  0.38381609693E+02  0.10566000000E+00 0. -1.
         23    2    1    0    0    0 -0.22159418159E+02 -0.12074273493E+02  0.12308456722E+02  0.97012856263E+02  0.92861015932E+02 0.  0.
         13    1    3    3    0    0 -0.42552244502E+02 -0.40121896479E+02 -0.41414757160E+01  0.58631246570E+02  0.10566000000E+00 0.  1.
         22    1    1    0    0    0  0.22159418159E+02  0.12074273493E+02 -0.12308456722E+02  0.28077143737E+02  0.00000000000E+00 0.  1.
</event>
<event>
 5    1  0.1259474E-009  0.9118800E+02  0.7815553E-02  0.1125453E+00
         25   -1    0    0    0    0  0.00000000000E+00  0.00000000000E+00  0.99999998245E-14  0.12509000000E+03  0.12509000000E+03 0.  0.
        -13    1    3    3    0    0  0.55388828725E+02  0.19436180969E+02  0.11061938628E+02  0.59733283255E+02  0.10566000000E+00 0.  1.
         23    2    1    0    0    0  0.22132986175E+02  0.76664743565E+01  0.17828454769E+02  0.95653666914E+02  0.91011682155E+02 0.  0.
         13    1    3    3    0    0 -0.33255842550E+02 -0.11769706613E+02  0.67665161415E+01  0.35920383659E+02  0.10566000000E+00 0. -1.
         22    1    1    0    0    0 -0.22132986175E+02 -0.76664743565E+01 -0.17828454769E+02  0.29436333086E+02  0.00000000000E+00 0.  1.
</event>
<event>
 5    1  0.1259474E-009  0.9118800E+02  0.7815553E-02  0.1125453E+00
         25   -1    0    0    0    0  0.00000000000E+00  0.00000000000E+00  0.99999998245E-14  0.12509000000E+03  0.12509000000E+03 0.  0.
        -13    1    3    3    0    0 -0.29236129862E+02  0.26647074397E+02  0.57362071026E+00  0.39562078661E+02  0.10566000000E+00 0.  1.
         23    2    1    0    0    0 -0.27729667465E+01 -0.16302654205E+02 -0.24211770051E+02  0.95769773403E+02  0.91171123773E+02 0.  0.
         13    1    3    3    0    0  0.26463163115E+02 -0.42949728602E+02 -0.24785390761E+02  0.56207694742E+02  0.10566000000E+00 0. -1.
         22    1    1    0    0    0  0.27729667465E+01  0.16302654205E+02  0.24211770051E+02  0.29320226597E+02  0.00000000000E+00 0. -1.
</event>
<event>
 5    1  0.1259474E-009  0.9118800E+02  0.7815553E-02  0.1125453E+00
         25   -1    0    0    0    0  0.00000000000E+00  0.00000000000E+00  0.99999998245E-14  0.12509000000E+03  0.12509000000E+03 0.  0.
        -13    1    3    3    0    0 -0.26086154259E+02 -0.79764872495E+01 -0.53704404252E+02  0.60235255399E+02  0.10566000000E+00 0.  1.
         23    2    1    0    0    0 -0.16289862723E+02  0.73893909713E+01 -0.22823788809E+02  0.96091930029E+02  0.91612067735E+02 0.  0.
         13    1    3    3    0    0  0.97962915366E+01  0.15365878221E+02  0.30880615443E+02  0.35856674630E+02  0.10566000000E+00 0. -1.
         22    1    1    0    0    0  0.16289862723E+02 -0.73893909713E+01  0.22823788809E+02  0.28998069971E+02  0.00000000000E+00 0.  1.
</event>
<event>
 5    1  0.1259474E-009  0.9118800E+02  0.7815553E-02  0.1125453E+00
         25   -1    0    0    0    0  0.00000000000E+00  0.00000000000E+00  0.99999998245E-14  0.12509000000E+03  0.12509000000E+03 0.  0.
        -13    1    3    3    0    0  0.21505134802E+02  0.35308561520E+02  0.18025063266E+02  0.45100769497E+02  0.10566000000E+00 0.  1.
         23    2    1    0    0    0  0.24592643590E+02 -0.14144708715E+02  0.72372679665E+01  0.95811185970E+02  0.91227925582E+02 0.  0.
         13    1    3    3    0    0  0.30875087885E+01 -0.49453270235E+02 -0.10787795299E+02  0.50710416473E+02  0.10566000000E+00 0. -1.
         22    1    1    0    0    0 -0.24592643590E+02  0.14144708715E+02 -0.72372679665E+01  0.29278814030E+02  0.00000000000E+00 0. -1.
</event>
<event>
 5    1  0.1259474E-009  0.9118800E+02  0.7815553E-02  0.1125453E+00
         25   -1    0    0    0    0  0.00000000000E+00  0.00000000000E+00  0.99999998245E-14  0.12509000000E+03  0.12509000000E+03 0.  0.
        -13    1    3    3    0    0  0.26927490568E+02  0.21711863917E+02  0.26692896796E+02  0.43692295504E+02  0.10566000000E+00 0.  1.
         23    2    1    0    0    0 -0.76545301015E+01  0.32751911763E+02 -0.39844953311E+01  0.91220312103E+02  0.84699407211E+02 0.  0.
         13    1    3    3    0    0 -0.34582020670E+02  0.11040047846E+02 -0.30677392127E+02  0.47528016599E+02  0.10566000000E+00 0. -1.
         22    1    1    0    0    0  0.76545301015E+01 -0.32751911763E+02  0.39844953311E+01  0.33869687897E+02  0.00000000000E+00 0. -1.
</event>
<event>
 5    1  0.1259474E-009  0.9118800E+02  0.7815553E-02  0.1125453E+00
         25   -1    0    0    0    0  0.00000000000E+00  0.00000000000E+00  0.99999998245E-14  0.12509000000E+03  0.12509000000E+03 0.  0.
        -13    1    3    3    0    0  0.30682361029E+02  0.13123929487E+02 -0.11423502547E+02  0.35272544251E+02  0.10566000000E+00 0. -1.
         23    2    1    0    0    0 -0.94095977495E+01 -0.13332539727E+02  0.24777844999E+02  0.95421182225E+02  0.90691583232E+02 0.  0.
         13    1    3    3    0    0 -0.40091958778E+02 -0.26456469214E+02  0.36201347546E+02  0.60148637974E+02  0.10566000000E+00 0.  1.
         22    1    1    0    0    0  0.94095977495E+01  0.13332539727E+02 -0.24777844999E+02  0.29668817775E+02  0.00000000000E+00 0.  1.
</event>
<event>
 5    1  0.1259474E-009  0.9118800E+02  0.7815553E-02  0.1125453E+00
         25   -1    0    0    0    0  0.00000000000E+00  0.00000000000E+00  0.99999998245E-14  0.12509000000E+03  0.12509000000E+03 0.  0.
        -13    1    3    3    0    0  0.19196145915E+02 -0.53395440126E+01  0.51618295448E+02  0.55330482893E+02  0.10566000000E+00 0.  1.
         23    2    1    0    0    0 -0.12218527609E+02  0.27797592164E+01  0.24312402785E+02  0.97738356404E+02  0.93833223887E+02 0.  0.
         13    1    3    3    0    0 -0.31414673524E+02  0.81193032290E+01 -0.27305892662E+02  0.42407873510E+02  0.10566000000E+00 0. -1.
         22    1    1    0    0    0  0.12218527609E+02 -0.27797592164E+01 -0.24312402785E+02  0.27351643596E+02  0.00000000000E+00 0.  1.
</event>
<event>
 5    1  0.1259474E-009  0.9118800E+02  0.7815553E-02  0.1125453E+00
         25   -1    0    0    0    0  0.00000000000E+00  0.00000000000E+00  0.99999998245E-14  0.12509000000E+03  0.12509000000E+03 0.  0.
        -13    1    3    3    0    0  0.47829756956E+02  0.96373035961E+01  0.27419588022E+02  0.55967921547E+02  0.10566000000E+00 0.  1.
         23    2    1    0    0    0  0.29097397964E+02  0.59646004269E+00 -0.60405076122E+01  0.95366237367E+02  0.90615766643E+02 0.  0.
         13    1    3    3    0    0 -0.18732358991E+02 -0.90408435534E+01 -0.33460095634E+02  0.39398315819E+02  0.10566000000E+00 0. -1.
         22    1    1    0    0    0 -0.29097397964E+02 -0.59646004269E+00  0.60405076122E+01  0.29723762633E+02  0.00000000000E+00 0.  1.
</event>
<event>
 5    1  0.1259474E-009  0.9118800E+02  0.7815553E-02  0.1125453E+00
         25   -1    0    0    0    0  0.00000000000E+00  0.00000000000E+00  0.99999998245E-14  0.12509000000E+03  0.12509000000E+03 0.  0.
        -13    1    3    3    0    0  0.77878513601E+01 -0.14999084557E+02  0.53485810946E+02  0.56092479915E+02  0.10566000000E+00 0.  1.
         23    2    1    0    0    0 -0.16111623547E+02 -0.10509073879E+02  0.22268772814E+02  0.95663425450E+02  0.91025093678E+02 0.  0.
         13    1    3    3    0    0 -0.23899474908E+02  0.44900106784E+01 -0.31217038133E+02  0.39570945535E+02  0.10566000000E+00 0. -1.
         22    1    1    0    0    0  0.16111623547E+02  0.10509073879E+02 -0.22268772814E+02  0.29426574550E+02  0.00000000000E+00 0. -1.
</event>
<event>
 5    1  0.1259474E-009  0.9118800E+02  0.7815553E-02  0.1125453E+00
         25   -1    0    0    0    0  0.00000000000E+00  0.00000000000E+00  0.99999998245E-14  0.12509000000E+03  0.12509000000E+03 0.  0.
        -13    1    3    3    0    0 -0.24566225205E+02 -0.34733600326E+02 -0.34399016147E+02  0.54710381907E+02  0.10566000000E+00 0.  1.
         23    2    1    0    0    0 -0.41267166725E+01 -0.29165299256E+02  0.60748572652E+00  0.95627930994E+02  0.90976302828E+02 0.  0.
         13    1    3    3    0    0  0.20439508533E+02  0.55683010704E+01  0.35006501874E+02  0.40917549088E+02  0.10566000000E+00 0. -1.
         22    1    1    0    0    0  0.41267166725E+01  0.29165299256E+02 -0.60748572652E+00  0.29462069006E+02  0.00000000000E+00 0.  1.
</event>
<event>
 5    1  0.1259474E-009  0.9118800E+02  0.7815553E-02  0.1125453E+00
         25   -1    0    0    0    0  0.00000000000E+00  0.00000000000E+00  0.99999998245E-14  0.12509000000E+03  0.12509000000E+03 0.  0.
        -13    1    3    3    0    0 -0.18375253374E+02  0.24660859042E+02  0.43902105379E+02  0.53602368661E+02  0.10566000000E+00 0.  1.
         23    2    1    0    0    0  0.71091980388E+01  0.28654578930E+02  0.16365123971E+02  0.91334365315E+02  0.84867681802E+02 0.  0.
         13    1    3    3    0    0  0.25484451413E+02  0.39937198878E+01 -0.27536981408E+02  0.37731996654E+02  0.10566000000E+00 0. -1.
         22    1    1    0    0    0 -0.71091980388E+01 -0.28654578930E+02 -0.16365123971E+02  0.33755634685E+02  0.00000000000E+00 0.  1.
</event>
<event>
 5    1  0.1259474E-009  0.9118800E+02  0.7815553E-02  0.1125453E+00
         25   -1    0    0    0    0  0.00000000000E+00  0.00000000000E+00  0.99999998245E-14  0.12509000000E+03  0.12509000000E+03 0.  0.
        -13    1    3    3    0    0 -0.39057663208E+02 -0.29741629753E+02 -0.33759692523E+02  0.59580144335E+02  0.10566000000E+00 0.  1.
         23    2    1    0    0    0 -0.68795644365E+01 -0.20296599179E+02 -0.19824504541E+02  0.95895971066E+02  0.91344107316E+02 0.  0.
         13    1    3    3    0    0  0.32178098772E+02  0.94450305739E+01  0.13935187982E+02  0.36315826732E+02  0.10566000000E+00 0. -1.
         22    1    1    0    0    0  0.68795644365E+01  0.20296599179E+02  0.19824504541E+02  0.29194028934E+02  0.00000000000E+00 0.  1.
</event>
<event>
 5    1  0.1259474E-009  0.9118800E+02  0.7815553E-02  0.1125453E+00
         25   -1    0    0    0    0  0.00000000000E+00  0.00000000000E+00  0.99999998245E-14  0.12509000000E+03  0.12509000000E+03 0.  0.
        -13    1    3    3    0    0  0.20335858165E+02 -0.25247858660E+02  0.75155035147E+01  0.33279054243E+02  0.10566000000E+00 0.  1.
         23    2    1    0    0    0 -0.13957037039E+02  0.25403594486E+02 -0.48965053743E+01  0.95694128511E+02  0.91067277169E+02 0.  0.
         13    1    3    3    0    0 -0.34292895204E+02  0.50651453146E+02 -0.12412008889E+02  0.62415074268E+02  0.10566000000E+00 0. -1.
         22    1    1    0    0    0  0.13957037039E+02 -0.25403594486E+02  0.48965053743E+01  0.29395871489E+02  0.00000000000E+00 0. -1.
</event>
<event>
 5    1  0.1259474E-009  0.9118800E+02  0.7815553E-02  0.1125453E+00
         25   -1    0    0    0    0  0.00000000000E+00  0.00000000000E+00  0.99999998245E-14  0.12509000000E+03  0.12509000000E+03 0.  0.
        -13    1    3    3    0    0  0.28432287400E+02  0.26904782272E+02  0.20208198271E+02  0.44052749259E+02  0.10566000000E+00 0. -1.
         23    2    1    0    0    0  0.37639303851E+02  0.20641571179E+02 -0.13927907365E+02  0.79959320206E+02  0.66005413634E+02 0.  0.
         13    1    3    3    0    0  0.92070164517E+01 -0.62632110934E+01 -0.34136105635E+02  0.35906570946E+02  0.10566000000E+00 0.  1.
         22    1    1    0    0    0 -0.37639303851E+02 -0.20641571179E+02  0.13927907365E+02  0.45130679794E+02  0.00000000000E+00 0.  1.
</event>
<event>
 5    1  0.1259474E-009  0.9118800E+02  0.7815553E-02  0.1125453E+00
         25   -1    0    0    0    0  0.00000000000E+00  0.00000000000E+00  0.99999998245E-14  0.12509000000E+03  0.12509000000E+03 0.  0.
        -13    1    3    3    0    0  0.24765379213E+02  0.31109919940E+02 -0.50252954584E+01  0.40080118322E+02  0.10566000000E+00 0. -1.
         23    2    1    0    0    0  0.30182473330E+02 -0.91842348718E+01  0.19919061188E+02  0.87779132078E+02  0.79454862426E+02 0.  0.
         13    1    3    3    0    0  0.54170941171E+01 -0.40294154812E+02  0.24944356647E+02  0.47699013755E+02  0.10566000000E+00 0.  1.
         22    1    1    0    0    0 -0.30182473330E+02  0.91842348718E+01 -0.19919061188E+02  0.37310867922E+02  0.00000000000E+00 0. -1.
</event>
<event>
 5    1  0.1259474E-009  0.9118800E+02  0.7815553E-02  0.1125453E+00
         25   -1    0    0    0    0  0.00000000000E+00  0.00000000000E+00  0.99999998245E-14  0.12509000000E+03  0.12509000000E+03 0.  0.
        -13    1    3    3    0    0 -0.13000058886E+02 -0.43606728815E+02  0.38185305499E+02  0.59402668704E+02  0.10566000000E+00 0. -1.
         23    2    1    0    0    0  0.55492802781E+01 -0.25832704255E+02  0.12051714673E+02  0.96049219237E+02  0.91553730502E+02 0.  0.
         13    1    3    3    0    0  0.18549339164E+02  0.17774024560E+02 -0.26133590826E+02  0.36646550534E+02  0.10566000000E+00 0.  1.
         22    1    1    0    0    0 -0.55492802781E+01  0.25832704255E+02 -0.12051714673E+02  0.29040780763E+02  0.00000000000E+00 0. -1.
</event>
<event>
 5    1  0.1259474E-009  0.9118800E+02  0.7815553E-02  0.1125453E+00
         25   -1    0    0    0    0  0.00000000000E+00  0.00000000000E+00  0.99999998245E-14  0.12509000000E+03  0.12509000000E+03 0.  0.
        -13    1    3    3    0    0  0.36488950506E+02 -0.48434132004E+02 -0.46455887036E+01  0.60818593460E+02  0.10566000000E+00 0.  1.
         23    2    1    0    0    0  0.14814811725E+02 -0.25196920516E+02 -0.12095462371E+02  0.93456731754E+02  0.87940303901E+02 0.  0.
         13    1    3    3    0    0 -0.21674138781E+02  0.23237211488E+02 -0.74498736678E+01  0.32638138294E+02  0.10566000000E+00 0. -1.
         22    1    1    0    0    0 -0.14814811725E+02  0.25196920516E+02  0.12095462371E+02  0.31633268246E+02  0.00000000000E+00 0.  1.
</event>
<event>
 5    1  0.1259474E-009  0.9118800E+02  0.7815553E-02  0.1125453E+00
         25   -1    0    0    0    0  0.00000000000E+00  0.00000000000E+00  0.99999998245E-14  0.12509000000E+03  0.12509000000E+03 0.  0.
        -13    1    3    3    0    0 -0.27798450579E+02 -0.13661463010E+02  0.43345580314E+02  0.53275134190E+02  0.10566000000E+00 0.  1.
         23    2    1    0    0    0 -0.89895825414E+01 -0.29658884078E+02  0.15678214573E+02  0.90358624974E+02  0.83417100741E+02 0.  0.
         13    1    3    3    0    0  0.18808868038E+02 -0.15997421067E+02 -0.27667365741E+02  0.37083490784E+02  0.10566000000E+00 0. -1.
         22    1    1    0    0    0  0.89895825414E+01  0.29658884078E+02 -0.15678214573E+02  0.34731375026E+02  0.00000000000E+00 0.  1.
</event>
<event>
 5    1  0.1259474E-009  0.9118800E+02  0.7815553E-02  0.1125453E+00
         25   -1    0    0    0    0  0.00000000000E+00  0.00000000000E+00  0.99999998245E-14  0.12509000000E+03  0.12509000000E+03 0.  0.
        -13    1    3    3    0    0  0.26473181429E+01  0.20801529595E+02 -0.28803514678E+02  0.35628156683E+02  0.10566000000E+00 0.  1.
         23    2    1    0    0    0  0.79384280957E+01 -0.23428094165E+02  0.13370921010E+02  0.96971042596E+02  0.92804673033E+02 0.  0.
         13    1    3    3    0    0  0.52911099527E+01 -0.44229623760E+02  0.42174435687E+02  0.61342885913E+02  0.10566000000E+00 0. -1.
         22    1    1    0    0    0 -0.79384280957E+01  0.23428094165E+02 -0.13370921010E+02  0.28118957404E+02  0.00000000000E+00 0. -1.
</event>
<event>
 5    1  0.1259474E-009  0.9118800E+02  0.7815553E-02  0.1125453E+00
         25   -1    0    0    0    0  0.00000000000E+00  0.00000000000E+00  0.99999998245E-14  0.12509000000E+03  0.12509000000E+03 0.  0.
        -13    1    3    3    0    0  0.85917443794E+01 -0.39744044220E+01  0.61701880154E+02  0.62423930832E+02  0.10566000000E+00 0.  1.
         23    2    1    0    0    0  0.60698053545E+01 -0.54745048297E-01  0.28563670014E+02  0.95888479856E+02  0.91333847999E+02 0.  0.
         13    1    3    3    0    0 -0.25219390248E+01  0.39196593737E+01 -0.33138210140E+02  0.33464549024E+02  0.10566000000E+00 0. -1.
         22    1    1    0    0    0 -0.60698053545E+01  0.54745048297E-01 -0.28563670014E+02  0.29201520144E+02  0.00000000000E+00 0.  1.
</event>
<event>
 5    1  0.1259474E-009  0.9118800E+02  0.7815553E-02  0.1125453E+00
         25   -1    0    0    0    0  0.00000000000E+00  0.00000000000E+00  0.99999998245E-14  0.12509000000E+03  0.12509000000E+03 0.  0.
        -13    1    3    3    0    0  0.20370883677E+02  0.18755494748E+02 -0.44170251144E+02  0.52132175623E+02  0.10566000000E+00 0.  1.
         23    2    1    0    0    0  0.24573054558E+02 -0.11015562420E+02 -0.13947004951E+02  0.94763500485E+02  0.89779866626E+02 0.  0.
         13    1    3    3    0    0  0.42021708806E+01 -0.29771057168E+02  0.30223246193E+02  0.42631324862E+02  0.10566000000E+00 0. -1.
         22    1    1    0    0    0 -0.24573054558E+02  0.11015562420E+02  0.13947004951E+02  0.30326499515E+02  0.00000000000E+00 0.  1.
</event>
<event>
 5    1  0.1259474E-009  0.9118800E+02  0.7815553E-02  0.1125453E+00
         25   -1    0    0    0    0  0.00000000000E+00  0.00000000000E+00  0.99999998245E-14  0.12509000000E+03  0.12509000000E+03 0.  0.
        -13    1    3    3    0    0  0.17735297582E+02  0.18722438471E+02  0.53435225110E+02  0.59333000339E+02  0.10566000000E+00 0.  1.
         23    2    1    0    0    0  0.70180964638E+00  0.13464791570E+01  0.35490857946E+02  0.89566676104E+02  0.82220939716E+02 0.  0.
         13    1    3    3    0    0 -0.17033487936E+02 -0.17375959314E+02 -0.17944367164E+02  0.30233675765E+02  0.10566000000E+00 0. -1.
         22    1    1    0    0    0 -0.70180964638E+00 -0.13464791570E+01 -0.35490857946E+02  0.35523323896E+02  0.00000000000E+00 0.  1.
</event>
<event>
 5    1  0.1259474E-009  0.9118800E+02  0.7815553E-02  0.1125453E+00
         25   -1    0    0    0    0  0.00000000000E+00  0.00000000000E+00  0.99999998245E-14  0.12509000000E+03  0.12509000000E+03 0.  0.
        -13    1    3    3    0    0  0.55992381094E+02 -0.16475049919E+02 -0.14239641169E+02  0.60077887406E+02  0.10566000000E+00 0. -1.
         23    2    1    0    0    0  0.27603187982E+02  0.46205958349E+01 -0.78824859486E+01  0.96013901958E+02  0.91505463727E+02 0.  0.
         13    1    3    3    0    0 -0.28389193113E+02  0.21095645754E+02  0.63571552204E+01  0.35936014552E+02  0.10566000000E+00 0.  1.
         22    1    1    0    0    0 -0.27603187982E+02 -0.46205958349E+01  0.78824859486E+01  0.29076098042E+02  0.00000000000E+00 0. -1.
</event>
<event>
 4    1  0.1259474E-009  0.9118800E+02  0.7815553E-02  0.1125453E+00
         25   -1    0    0    0    0  0.00000000000E+00  0.00000000000E+00  0.99999998245E-14  0.12509000000E+03  0.12509000000E+03 0.  0.
        -13    1    1    0    0    0  0.45296002736E+01 -0.22689137220E+02 -0.13893081688E+02  0.26987832615E+02  0.10566000000E+00 0.  1.
         13    1    1    0    0    0 -0.29485518767E+02  0.10259710649E+02 -0.31807383296E+02  0.44568803840E+02  0.10566000000E+00 0. -1.
         22    1    1    0    0    0  0.24955918493E+02  0.12429426570E+02  0.45700464984E+02  0.53533363545E+02  0.00000000000E+00 0. -1.
</event>
<event>
 5    1  0.1259474E-009  0.9118800E+02  0.7815553E-02  0.1125453E+00
         25   -1    0    0    0    0  0.00000000000E+00  0.00000000000E+00  0.99999998245E-14  0.12509000000E+03  0.12509000000E+03 0.  0.
        -13    1    3    3    0    0 -0.15483165721E+02 -0.17252836538E+02  0.28894414964E+02  0.37044394576E+02  0.10566000000E+00 0.  1.
         23    2    1    0    0    0 -0.11439553866E+02  0.96025962343E+01 -0.24183081541E+02  0.96666511827E+02  0.92393288873E+02 0.  0.
         13    1    3    3    0    0  0.40436118552E+01  0.26855432772E+02 -0.53077496505E+02  0.59622117251E+02  0.10566000000E+00 0. -1.
         22    1    1    0    0    0  0.11439553866E+02 -0.96025962343E+01  0.24183081541E+02  0.28423488173E+02  0.00000000000E+00 0. -1.
</event>
<event>
 5    1  0.1259474E-009  0.9118800E+02  0.7815553E-02  0.1125453E+00
         25   -1    0    0    0    0  0.00000000000E+00  0.00000000000E+00  0.99999998245E-14  0.12509000000E+03  0.12509000000E+03 0.  0.
        -13    1    3    3    0    0 -0.16240863778E+02  0.29921682007E+02 -0.13266427734E+02  0.36538773641E+02  0.10566000000E+00 0. -1.
         23    2    1    0    0    0 -0.10189701675E+02 -0.26499111198E+02  0.52297545326E+01  0.96221622024E+02  0.91788982443E+02 0.  0.
         13    1    3    3    0    0  0.60511621025E+01 -0.56420793204E+02  0.18496182266E+02  0.59682848383E+02  0.10566000000E+00 0.  1.
         22    1    1    0    0    0  0.10189701675E+02  0.26499111198E+02 -0.52297545326E+01  0.28868377976E+02  0.00000000000E+00 0.  1.
</event>
<event>
 5    1  0.1259474E-009  0.9118800E+02  0.7815553E-02  0.1125453E+00
         25   -1    0    0    0    0  0.00000000000E+00  0.00000000000E+00  0.99999998245E-14  0.12509000000E+03  0.12509000000E+03 0.  0.
        -13    1    3    3    0    0 -0.53249851396E+02  0.27483348079E+02  0.14634062442E+01  0.59941920366E+02  0.10566000000E+00 0.  1.
         23    2    1    0    0    0 -0.21839301678E+02  0.12676900504E+02  0.13198624107E+02  0.96596797609E+02  0.92298855496E+02 0.  0.
         13    1    3    3    0    0  0.31410549718E+02 -0.14806447576E+02  0.11735217863E+02  0.36654877243E+02  0.10566000000E+00 0. -1.
         22    1    1    0    0    0  0.21839301678E+02 -0.12676900504E+02 -0.13198624107E+02  0.28493202391E+02  0.00000000000E+00 0.  1.
</event>
<event>
 5    1  0.1259474E-009  0.9118800E+02  0.7815553E-02  0.1125453E+00
         25   -1    0    0    0    0  0.00000000000E+00  0.00000000000E+00  0.99999998245E-14  0.12509000000E+03  0.12509000000E+03 0.  0.
        -13    1    3    3    0    0  0.29612014024E+02  0.30454067839E+02 -0.39917480838E+01  0.42664585306E+02  0.10566000000E+00 0.  1.
         23    2    1    0    0    0  0.16772619117E+02 -0.13020100554E+02  0.21667160043E+02  0.94753395134E+02  0.89765785768E+02 0.  0.
         13    1    3    3    0    0 -0.12839394907E+02 -0.43474168393E+02  0.25658908127E+02  0.52088809828E+02  0.10566000000E+00 0. -1.
         22    1    1    0    0    0 -0.16772619117E+02  0.13020100554E+02 -0.21667160043E+02  0.30336604866E+02  0.00000000000E+00 0. -1.
</event>
<event>
 5    1  0.1259474E-009  0.9118800E+02  0.7815553E-02  0.1125453E+00
         25   -1    0    0    0    0  0.00000000000E+00  0.00000000000E+00  0.99999998245E-14  0.12509000000E+03  0.12509000000E+03 0.  0.
        -13    1    3    3    0    0  0.25821683463E+02 -0.45615468889E+02  0.57598801300E+01  0.52732511053E+02  0.10566000000E+00 0.  1.
         23    2    1    0    0    0 -0.10981811022E+02 -0.28905469458E+02 -0.27790311934E+01  0.94044076720E+02  0.88771836828E+02 0.  0.
         13    1    3    3    0    0 -0.36803494484E+02  0.16709999431E+02 -0.85389113234E+01  0.41311565667E+02  0.10566000000E+00 0. -1.
         22    1    1    0    0    0  0.10981811022E+02  0.28905469458E+02  0.27790311934E+01  0.31045923280E+02  0.00000000000E+00 0.  1.
</event>
<event>
 5    1  0.1259474E-009  0.9118800E+02  0.7815553E-02  0.1125453E+00
         25   -1    0    0    0    0  0.00000000000E+00  0.00000000000E+00  0.99999998245E-14  0.12509000000E+03  0.12509000000E+03 0.  0.
        -13    1    3    3    0    0 -0.10774138426E+02 -0.23225937203E+02  0.18642994027E+02  0.31671732003E+02  0.10566000000E+00 0.  1.
         23    2    1    0    0    0  0.62372552719E+01  0.23074440672E+02 -0.19673782025E+02  0.94132111428E+02  0.88895801572E+02 0.  0.
         13    1    3    3    0    0  0.17011393698E+02  0.46300377874E+02 -0.38316776053E+02  0.62460379425E+02  0.10566000000E+00 0. -1.
         22    1    1    0    0    0 -0.62372552719E+01 -0.23074440672E+02  0.19673782025E+02  0.30957888572E+02  0.00000000000E+00 0. -1.
</event>
<event>
 5    1  0.1259474E-009  0.9118800E+02  0.7815553E-02  0.1125453E+00
         25   -1    0    0    0    0  0.00000000000E+00  0.00000000000E+00  0.99999998245E-14  0.12509000000E+03  0.12509000000E+03 0.  0.
        -13    1    3    3    0    0  0.31939048339E+02  0.33322459828E+02 -0.41938336469E+02  0.62364447946E+02  0.10566000000E+00 0.  1.
         23    2    1    0    0    0  0.13188510472E+02  0.17762599639E+02 -0.22512940280E+02  0.93526108692E+02  0.88038933278E+02 0.  0.
         13    1    3    3    0    0 -0.18750537867E+02 -0.15559860189E+02  0.19425396188E+02  0.31161660747E+02  0.10566000000E+00 0. -1.
         22    1    1    0    0    0 -0.13188510472E+02 -0.17762599639E+02  0.22512940280E+02  0.31563891308E+02  0.00000000000E+00 0.  1.
</event>
<event>
 5    1  0.1259474E-009  0.9118800E+02  0.7815553E-02  0.1125453E+00
         25   -1    0    0    0    0  0.00000000000E+00  0.00000000000E+00  0.99999998245E-14  0.12509000000E+03  0.12509000000E+03 0.  0.
        -13    1    3    3    0    0 -0.38793552047E+01 -0.21212457101E+02  0.25162659457E+02  0.33138924666E+02  0.10566000000E+00 0.  1.
         23    2    1    0    0    0  0.52371007735E+00  0.27090229954E+02 -0.13172618226E+02  0.94962393023E+02  0.90056556599E+02 0.  0.
         13    1    3    3    0    0  0.44030652820E+01  0.48302687055E+02 -0.38335277683E+02  0.61823468357E+02  0.10566000000E+00 0. -1.
         22    1    1    0    0    0 -0.52371007735E+00 -0.27090229954E+02  0.13172618226E+02  0.30127606977E+02  0.00000000000E+00 0. -1.
</event>
<event>
 5    1  0.1259474E-009  0.9118800E+02  0.7815553E-02  0.1125453E+00
         25   -1    0    0    0    0  0.00000000000E+00  0.00000000000E+00  0.99999998245E-14  0.12509000000E+03  0.12509000000E+03 0.  0.
        -13    1    3    3    0    0 -0.25140150171E+01  0.35620321640E+02 -0.30315897658E+02  0.46842207463E+02  0.10566000000E+00 0. -1.
         23    2    1    0    0    0  0.26233778002E+02  0.10175804780E+02  0.17987226015E+01  0.96894370655E+02  0.92701270490E+02 0.  0.
         13    1    3    3    0    0  0.28747793019E+02 -0.25444516860E+02  0.32114620259E+02  0.50052163191E+02  0.10566000000E+00 0.  1.
         22    1    1    0    0    0 -0.26233778002E+02 -0.10175804780E+02 -0.17987226015E+01  0.28195629345E+02  0.00000000000E+00 0. -1.
</event>
<event>
 5    1  0.1259474E-009  0.9118800E+02  0.7815553E-02  0.1125453E+00
         25   -1    0    0    0    0  0.00000000000E+00  0.00000000000E+00  0.99999998245E-14  0.12509000000E+03  0.12509000000E+03 0.  0.
        -13    1    3    3    0    0 -0.28337749891E+02 -0.36707914216E+02 -0.19745727175E+02  0.50402419989E+02  0.10566000000E+00 0.  1.
         23    2    1    0    0    0 -0.16074775586E+02  0.62421674120E+01 -0.24291907589E+02  0.95299735845E+02  0.90523918461E+02 0.  0.
         13    1    3    3    0    0  0.12262974306E+02  0.42950081628E+02 -0.45461804139E+01  0.44897315856E+02  0.10566000000E+00 0. -1.
         22    1    1    0    0    0  0.16074775586E+02 -0.62421674120E+01  0.24291907589E+02  0.29790264155E+02  0.00000000000E+00 0.  1.
</event>
<event>
 5    1  0.1259474E-009  0.9118800E+02  0.7815553E-02  0.1125453E+00
         25   -1    0    0    0    0  0.00000000000E+00  0.00000000000E+00  0.99999998245E-14  0.12509000000E+03  0.12509000000E+03 0.  0.
        -13    1    3    3    0    0  0.65393135176E+01  0.26719990241E+02 -0.24762909290E+02  0.37012610558E+02  0.10566000000E+00 0. -1.
         23    2    1    0    0    0  0.87268783306E+01  0.29964882776E+02  0.23867239371E+02  0.85800081186E+02  0.76275528259E+02 0.  0.
         13    1    3    3    0    0  0.21875648131E+01  0.32448925353E+01  0.48630148662E+02  0.48787470628E+02  0.10566000000E+00 0.  1.
         22    1    1    0    0    0 -0.87268783306E+01 -0.29964882776E+02 -0.23867239371E+02  0.39289918814E+02  0.00000000000E+00 0.  1.
</event>
<event>
 5    1  0.1259474E-009  0.9118800E+02  0.7815553E-02  0.1125453E+00
         25   -1    0    0    0    0  0.00000000000E+00  0.00000000000E+00  0.99999998245E-14  0.12509000000E+03  0.12509000000E+03 0.  0.
        -13    1    3    3    0    0  0.46481286999E+02 -0.76922111379E+01  0.34753150004E+02  0.58544621892E+02  0.10566000000E+00 0. -1.
         23    2    1    0    0    0  0.13504136479E+02 -0.10365560697E+02  0.28013321252E+02  0.92309629072E+02  0.86293191512E+02 0.  0.
         13    1    3    3    0    0 -0.32977150520E+02 -0.26733495592E+01 -0.67398287520E+01  0.33765007181E+02  0.10566000000E+00 0.  1.
         22    1    1    0    0    0 -0.13504136479E+02  0.10365560697E+02 -0.28013321252E+02  0.32780370928E+02  0.00000000000E+00 0. -1.
</event>
<event>
 5    1  0.1259474E-009  0.9118800E+02  0.7815553E-02  0.1125453E+00
         25   -1    0    0    0    0  0.00000000000E+00  0.00000000000E+00  0.99999998245E-14  0.12509000000E+03  0.12509000000E+03 0.  0.
        -13    1    3    3    0    0 -0.29686295359E+01 -0.26535445821E+02  0.21577349066E+02  0.34329809248E+02  0.10566000000E+00 0.  1.
         23    2    1    0    0    0 -0.10787782446E+02  0.24088306361E+02 -0.12532961269E+02  0.95871891375E+02  0.91311125742E+02 0.  0.
         13    1    3    3    0    0 -0.78191529104E+01  0.50623752182E+02 -0.34110310336E+02  0.61542082127E+02  0.10566000000E+00 0. -1.
         22    1    1    0    0    0  0.10787782446E+02 -0.24088306361E+02  0.12532961269E+02  0.29218108625E+02  0.00000000000E+00 0. -1.
</event>
<event>
 5    1  0.1259474E-009  0.9118800E+02  0.7815553E-02  0.1125453E+00
         25   -1    0    0    0    0  0.00000000000E+00  0.00000000000E+00  0.99999998245E-14  0.12509000000E+03  0.12509000000E+03 0.  0.
        -13    1    3    3    0    0 -0.24719588867E+02  0.99464029634E+01  0.32841998240E+02  0.42291807931E+02  0.10566000000E+00 0.  1.
         23    2    1    0    0    0  0.11269921075E+02  0.26675545110E+02 -0.32668000877E+01  0.95947800173E+02  0.91415056458E+02 0.  0.
         13    1    3    3    0    0  0.35989509942E+02  0.16729142146E+02 -0.36108798328E+02  0.53655992242E+02  0.10566000000E+00 0. -1.
         22    1    1    0    0    0 -0.11269921075E+02 -0.26675545110E+02  0.32668000877E+01  0.29142199827E+02  0.00000000000E+00 0. -1.
</event>
<event>
 5    1  0.1259474E-009  0.9118800E+02  0.7815553E-02  0.1125453E+00
         25   -1    0    0    0    0  0.00000000000E+00  0.00000000000E+00  0.99999998245E-14  0.12509000000E+03  0.12509000000E+03 0.  0.
        -13    1    3    3    0    0 -0.22294624242E+02 -0.19187249819E+02 -0.17744021357E+02  0.34352034637E+02  0.10566000000E+00 0. -1.
         23    2    1    0    0    0  0.17923780794E+02  0.23829509808E+02 -0.93737112072E+01  0.93833418014E+02  0.88474495866E+02 0.  0.
         13    1    3    3    0    0  0.40218405037E+02  0.43016759627E+02  0.83703101496E+01  0.59481383378E+02  0.10566000000E+00 0.  1.
         22    1    1    0    0    0 -0.17923780794E+02 -0.23829509808E+02  0.93737112072E+01  0.31256581986E+02  0.00000000000E+00 0.  1.
</event>
<event>
 5    1  0.1259474E-009  0.9118800E+02  0.7815553E-02  0.1125453E+00
         25   -1    0    0    0    0  0.00000000000E+00  0.00000000000E+00  0.99999998245E-14  0.12509000000E+03  0.12509000000E+03 0.  0.
        -13    1    3    3    0    0 -0.99622963283E+01  0.32699653974E+02 -0.18740811121E+02  0.38983892618E+02  0.10566000000E+00 0. -1.
         23    2    1    0    0    0  0.23138594581E+02 -0.48551535055E+01 -0.26426891120E+02  0.89630901746E+02  0.82318593883E+02 0.  0.
         13    1    3    3    0    0  0.33100890909E+02 -0.37554807480E+02 -0.76860799983E+01  0.50647009128E+02  0.10566000000E+00 0.  1.
         22    1    1    0    0    0 -0.23138594581E+02  0.48551535055E+01  0.26426891120E+02  0.35459098254E+02  0.00000000000E+00 0.  1.
</event>
<event>
 5    1  0.1259474E-009  0.9118800E+02  0.7815553E-02  0.1125453E+00
         25   -1    0    0    0    0  0.00000000000E+00  0.00000000000E+00  0.99999998245E-14  0.12509000000E+03  0.12509000000E+03 0.  0.
        -13    1    3    3    0    0  0.14844711120E+02 -0.15555524065E+02  0.38020285506E+02  0.43679435106E+02  0.10566000000E+00 0.  1.
         23    2    1    0    0    0  0.15041819307E+02  0.22876338595E+02  0.41334232380E-01  0.97711451754E+02  0.93797350174E+02 0.  0.
         13    1    3    3    0    0  0.19710818679E+00  0.38431862660E+02 -0.37978951273E+02  0.54032016648E+02  0.10566000000E+00 0. -1.
         22    1    1    0    0    0 -0.15041819307E+02 -0.22876338595E+02 -0.41334232381E-01  0.27378548246E+02  0.00000000000E+00 0.  1.
</event>
<event>
 5    1  0.1259474E-009  0.9118800E+02  0.7815553E-02  0.1125453E+00
         25   -1    0    0    0    0  0.00000000000E+00  0.00000000000E+00  0.99999998245E-14  0.12509000000E+03  0.12509000000E+03 0.  0.
        -13    1    3    3    0    0  0.16337558170E+02  0.14153594193E+02 -0.38559489171E+02  0.44205038228E+02  0.10566000000E+00 0.  1.
         23    2    1    0    0    0  0.88287675517E+01  0.28538538597E+02  0.85389935570E+01  0.94020565942E+02  0.88738701182E+02 0.  0.
         13    1    3    3    0    0 -0.75087906188E+01  0.14384944403E+02  0.47098482728E+02  0.49815527714E+02  0.10566000000E+00 0. -1.
         22    1    1    0    0    0 -0.88287675517E+01 -0.28538538597E+02 -0.85389935570E+01  0.31069434058E+02  0.00000000000E+00 0.  1.
</event>
<event>
 5    1  0.1259474E-009  0.9118800E+02  0.7815553E-02  0.1125453E+00
         25   -1    0    0    0    0  0.00000000000E+00  0.00000000000E+00  0.99999998245E-14  0.12509000000E+03  0.12509000000E+03 0.  0.
        -13    1    3    3    0    0  0.26087363916E+02 -0.17665960389E+02 -0.35807397747E+02  0.47695048065E+02  0.10566000000E+00 0. -1.
         23    2    1    0    0    0  0.27703322023E+02  0.10316770232E+02  0.27903463345E+01  0.95396636570E+02  0.90657721331E+02 0.  0.
         13    1    3    3    0    0  0.16159581074E+01  0.27982730621E+02  0.38597744081E+02  0.47701588504E+02  0.10566000000E+00 0.  1.
         22    1    1    0    0    0 -0.27703322023E+02 -0.10316770232E+02 -0.27903463345E+01  0.29693363430E+02  0.00000000000E+00 0. -1.
</event>
<event>
 5    1  0.1259474E-009  0.9118800E+02  0.7815553E-02  0.1125453E+00
         25   -1    0    0    0    0  0.00000000000E+00  0.00000000000E+00  0.99999998245E-14  0.12509000000E+03  0.12509000000E+03 0.  0.
        -13    1    3    3    0    0 -0.12959138700E+01  0.31672216468E+02 -0.10541983617E+02  0.33405886777E+02  0.10566000000E+00 0. -1.
         23    2    1    0    0    0 -0.80931463415E+01 -0.27625101757E+02  0.67044194806E+01  0.95533367828E+02  0.90846187940E+02 0.  0.
         13    1    3    3    0    0 -0.67972324715E+01 -0.59297318225E+02  0.17246403098E+02  0.62127481051E+02  0.10566000000E+00 0.  1.
         22    1    1    0    0    0  0.80931463415E+01  0.27625101757E+02 -0.67044194806E+01  0.29556632172E+02  0.00000000000E+00 0.  1.
</event>
<event>
 5    1  0.1259474E-009  0.9118800E+02  0.7815553E-02  0.1125453E+00
         25   -1    0    0    0    0  0.00000000000E+00  0.00000000000E+00  0.99999998245E-14  0.12509000000E+03  0.12509000000E+03 0.  0.
        -13    1    3    3    0    0 -0.28494442976E+02 -0.33124910769E+01  0.52023522854E+02  0.59408450340E+02  0.10566000000E+00 0.  1.
         23    2    1    0    0    0 -0.49146995200E+00  0.51353136820E+00  0.29586509594E+02  0.95494952997E+02  0.90793277509E+02 0.  0.
         13    1    3    3    0    0  0.28002973024E+02  0.38260224451E+01 -0.22437013260E+02  0.36086502657E+02  0.10566000000E+00 0. -1.
         22    1    1    0    0    0  0.49146995200E+00 -0.51353136820E+00 -0.29586509594E+02  0.29595047003E+02  0.00000000000E+00 0.  1.
</event>
<event>
 5    1  0.1259474E-009  0.9118800E+02  0.7815553E-02  0.1125453E+00
         25   -1    0    0    0    0  0.00000000000E+00  0.00000000000E+00  0.99999998245E-14  0.12509000000E+03  0.12509000000E+03 0.  0.
        -13    1    3    3    0    0 -0.34144044869E+02 -0.30333895199E+02 -0.40625272113E+02  0.61125975627E+02  0.10566000000E+00 0. -1.
         23    2    1    0    0    0 -0.21940420012E+02 -0.82045848667E+01 -0.14163246613E+02  0.97716750326E+02  0.93804416189E+02 0.  0.
         13    1    3    3    0    0  0.12203624857E+02  0.22129310332E+02  0.26462025501E+02  0.36590774699E+02  0.10566000000E+00 0.  1.
         22    1    1    0    0    0  0.21940420012E+02  0.82045848667E+01  0.14163246613E+02  0.27373249674E+02  0.00000000000E+00 0. -1.
</event>
<event>
 5    1  0.1259474E-009  0.9118800E+02  0.7815553E-02  0.1125453E+00
         25   -1    0    0    0    0  0.00000000000E+00  0.00000000000E+00  0.99999998245E-14  0.12509000000E+03  0.12509000000E+03 0.  0.
        -13    1    3    3    0    0 -0.11283267254E+02 -0.15038642009E+02  0.40173956015E+02  0.44355729949E+02  0.10566000000E+00 0.  1.
         23    2    1    0    0    0  0.27713107846E+02  0.52385294171E+00  0.12216312959E+02  0.94799257673E+02  0.89829673186E+02 0.  0.
         13    1    3    3    0    0  0.38996375100E+02  0.15562494950E+02 -0.27957643056E+02  0.50443527724E+02  0.10566000000E+00 0. -1.
         22    1    1    0    0    0 -0.27713107846E+02 -0.52385294171E+00 -0.12216312959E+02  0.30290742327E+02  0.00000000000E+00 0. -1.
</event>
<event>
 5    1  0.1259474E-009  0.9118800E+02  0.7815553E-02  0.1125453E+00
         25   -1    0    0    0    0  0.00000000000E+00  0.00000000000E+00  0.99999998245E-14  0.12509000000E+03  0.12509000000E+03 0.  0.
        -13    1    3    3    0    0  0.27047056238E+02 -0.15359437014E+02 -0.19196530234E+02  0.36550971171E+02  0.10566000000E+00 0. -1.
         23    2    1    0    0    0 -0.11577308819E+02  0.26544993294E+02 -0.20804023486E+01  0.96055557997E+02  0.91562390749E+02 0.  0.
         13    1    3    3    0    0 -0.38624365057E+02  0.41904430308E+02  0.17116127885E+02  0.59504586826E+02  0.10566000000E+00 0.  1.
         22    1    1    0    0    0  0.11577308819E+02 -0.26544993294E+02  0.20804023486E+01  0.29034442003E+02  0.00000000000E+00 0.  1.
</event>
<event>
 5    1  0.1259474E-009  0.9118800E+02  0.7815553E-02  0.1125453E+00
         25   -1    0    0    0    0  0.00000000000E+00  0.00000000000E+00  0.99999998245E-14  0.12509000000E+03  0.12509000000E+03 0.  0.
        -13    1    3    3    0    0  0.39875378670E+02  0.15974441070E+02  0.43297776656E+02  0.60991288058E+02  0.10566000000E+00 0.  1.
         23    2    1    0    0    0  0.24649668889E+02  0.93782695006E+01  0.12656998936E+02  0.95836662802E+02  0.91262852245E+02 0.  0.
         13    1    3    3    0    0 -0.15225709782E+02 -0.65961715695E+01 -0.30640777720E+02  0.34845374744E+02  0.10566000000E+00 0. -1.
         22    1    1    0    0    0 -0.24649668889E+02 -0.93782695006E+01 -0.12656998936E+02  0.29253337198E+02  0.00000000000E+00 0.  1.
</event>
<event>
 5    1  0.1259474E-009  0.9118800E+02  0.7815553E-02  0.1125453E+00
         25   -1    0    0    0    0  0.00000000000E+00  0.00000000000E+00  0.99999998245E-14  0.12509000000E+03  0.12509000000E+03 0.  0.
        -13    1    3    3    0    0 -0.22195865028E+02  0.66657462913E+01  0.40484303232E+02  0.46648457319E+02  0.10566000000E+00 0. -1.
         23    2    1    0    0    0  0.17103983988E+02 -0.13594986761E+02  0.20349862515E+02  0.95232223163E+02  0.90430578295E+02 0.  0.
         13    1    3    3    0    0  0.39299849016E+02 -0.20260733052E+02 -0.20134440718E+02  0.48583765844E+02  0.10566000000E+00 0.  1.
         22    1    1    0    0    0 -0.17103983988E+02  0.13594986761E+02 -0.20349862515E+02  0.29857776837E+02  0.00000000000E+00 0. -1.
</event>
<event>
 5    1  0.1259474E-009  0.9118800E+02  0.7815553E-02  0.1125453E+00
         25   -1    0    0    0    0  0.00000000000E+00  0.00000000000E+00  0.99999998245E-14  0.12509000000E+03  0.12509000000E+03 0.  0.
        -13    1    3    3    0    0 -0.87792518224E+01  0.36939528946E+02  0.28429722152E+02  0.47432734762E+02  0.10566000000E+00 0.  1.
         23    2    1    0    0    0  0.12851178126E+02 -0.57499571050E+01  0.26206405876E+02  0.95341210195E+02  0.90581211444E+02 0.  0.
         13    1    3    3    0    0  0.21630429949E+02 -0.42689486051E+02 -0.22233162765E+01  0.47908475433E+02  0.10566000000E+00 0. -1.
         22    1    1    0    0    0 -0.12851178126E+02  0.57499571050E+01 -0.26206405876E+02  0.29748789805E+02  0.00000000000E+00 0. -1.
</event>
<event>
 5    1  0.1259474E-009  0.9118800E+02  0.7815553E-02  0.1125453E+00
         25   -1    0    0    0    0  0.00000000000E+00  0.00000000000E+00  0.99999998245E-14  0.12509000000E+03  0.12509000000E+03 0.  0.
        -13    1    3    3    0    0  0.12276911954E+00 -0.33892515538E+02  0.30686392944E+02  0.45720712568E+02  0.10566000000E+00 0.  1.
         23    2    1    0    0    0  0.25980029625E+02 -0.14907328738E+02 -0.60923048438E+01  0.94523571230E+02  0.89444949273E+02 0.  0.
         13    1    3    3    0    0  0.25857260505E+02  0.18985186800E+02 -0.36778697788E+02  0.48802858663E+02  0.10566000000E+00 0. -1.
         22    1    1    0    0    0 -0.25980029625E+02  0.14907328738E+02  0.60923048438E+01  0.30566428770E+02  0.00000000000E+00 0. -1.
</event>
<event>
 5    1  0.1259474E-009  0.9118800E+02  0.7815553E-02  0.1125453E+00
         25   -1    0    0    0    0  0.00000000000E+00  0.00000000000E+00  0.99999998245E-14  0.12509000000E+03  0.12509000000E+03 0.  0.
        -13    1    3    3    0    0  0.14538531827E+01 -0.28235051649E+02  0.46816213011E+02  0.54690957163E+02  0.10566000000E+00 0.  1.
         23    2    1    0    0    0 -0.19961645774E+02 -0.53406923147E+01  0.13670781245E+02  0.10031338691E+03  0.97205426993E+02 0.  0.
         13    1    3    3    0    0 -0.21415498957E+02  0.22894359334E+02 -0.33145431767E+02  0.45622429746E+02  0.10566000000E+00 0. -1.
         22    1    1    0    0    0  0.19961645774E+02  0.53406923147E+01 -0.13670781245E+02  0.24776613091E+02  0.00000000000E+00 0.  1.
</event>
<event>
 5    1  0.1259474E-009  0.9118800E+02  0.7815553E-02  0.1125453E+00
         25   -1    0    0    0    0  0.00000000000E+00  0.00000000000E+00  0.99999998245E-14  0.12509000000E+03  0.12509000000E+03 0.  0.
        -13    1    3    3    0    0  0.27502482364E+02  0.20318192334E+02 -0.31979530357E+02  0.46817913258E+02  0.10566000000E+00 0. -1.
         23    2    1    0    0    0 -0.99054897434E+01  0.28189690345E+02 -0.24727458485E+01  0.95108475008E+02  0.90259238738E+02 0.  0.
         13    1    3    3    0    0 -0.37407972107E+02  0.78714980109E+01  0.29506784509E+02  0.48290561751E+02  0.10566000000E+00 0.  1.
         22    1    1    0    0    0  0.99054897434E+01 -0.28189690345E+02  0.24727458485E+01  0.29981524992E+02  0.00000000000E+00 0. -1.
</event>
<event>
 5    1  0.1259474E-009  0.9118800E+02  0.7815553E-02  0.1125453E+00
         25   -1    0    0    0    0  0.00000000000E+00  0.00000000000E+00  0.99999998245E-14  0.12509000000E+03  0.12509000000E+03 0.  0.
        -13    1    3    3    0    0 -0.48544286915E+02 -0.99879080959E+01 -0.14154261957E+02  0.51542801590E+02  0.10566000000E+00 0.  1.
         23    2    1    0    0    0 -0.22278999157E+02  0.10031400606E+02  0.15688245485E+02  0.96053749416E+02  0.91559919883E+02 0.  0.
         13    1    3    3    0    0  0.26265287757E+02  0.20019308702E+02  0.29842507442E+02  0.44510947826E+02  0.10566000000E+00 0. -1.
         22    1    1    0    0    0  0.22278999157E+02 -0.10031400606E+02 -0.15688245485E+02  0.29036250584E+02  0.00000000000E+00 0.  1.
</event>
<event>
 5    1  0.1259474E-009  0.9118800E+02  0.7815553E-02  0.1125453E+00
         25   -1    0    0    0    0  0.00000000000E+00  0.00000000000E+00  0.99999998245E-14  0.12509000000E+03  0.12509000000E+03 0.  0.
        -13    1    3    3    0    0 -0.64223805243E+00  0.73522724077E+01  0.44365960287E+02  0.44975748749E+02  0.10566000000E+00 0.  1.
         23    2    1    0    0    0 -0.27010356127E+02  0.29089567766E+01 -0.12974730313E+01  0.97892485336E+02  0.94038470220E+02 0.  0.
         13    1    3    3    0    0 -0.26368118075E+02 -0.44433156311E+01 -0.45663433318E+02  0.52916736587E+02  0.10566000000E+00 0. -1.
         22    1    1    0    0    0  0.27010356127E+02 -0.29089567766E+01  0.12974730313E+01  0.27197514664E+02  0.00000000000E+00 0. -1.
</event>
<event>
 5    1  0.1259474E-009  0.9118800E+02  0.7815553E-02  0.1125453E+00
         25   -1    0    0    0    0  0.00000000000E+00  0.00000000000E+00  0.99999998245E-14  0.12509000000E+03  0.12509000000E+03 0.  0.
        -13    1    3    3    0    0 -0.80850912008E+01  0.33142382046E+02  0.37006191878E+01  0.34314602341E+02  0.10566000000E+00 0. -1.
         23    2    1    0    0    0  0.70659579032E+01 -0.23356254695E+02  0.18281844587E+02  0.94599538607E+02  0.89551127680E+02 0.  0.
         13    1    3    3    0    0  0.15151049104E+02 -0.56498636740E+02  0.14581225399E+02  0.60284936266E+02  0.10566000000E+00 0.  1.
         22    1    1    0    0    0 -0.70659579032E+01  0.23356254695E+02 -0.18281844587E+02  0.30490461393E+02  0.00000000000E+00 0.  1.
</event>
<event>
 5    1  0.1259474E-009  0.9118800E+02  0.7815553E-02  0.1125453E+00
         25   -1    0    0    0    0  0.00000000000E+00  0.00000000000E+00  0.99999998245E-14  0.12509000000E+03  0.12509000000E+03 0.  0.
        -13    1    3    3    0    0  0.23919543372E+02 -0.23502500283E+02  0.29985425030E+01  0.33667707018E+02  0.10566000000E+00 0.  1.
         23    2    1    0    0    0 -0.16482114273E+02  0.23816853145E+02  0.36881199213E+01  0.95892314935E+02  0.91339100337E+02 0.  0.
         13    1    3    3    0    0 -0.40401657645E+02  0.47319353428E+02  0.68957741827E+00  0.62224607916E+02  0.10566000000E+00 0. -1.
         22    1    1    0    0    0  0.16482114273E+02 -0.23816853145E+02 -0.36881199213E+01  0.29197685065E+02  0.00000000000E+00 0. -1.
</event>
<event>
 5    1  0.1259474E-009  0.9118800E+02  0.7815553E-02  0.1125453E+00
         25   -1    0    0    0    0  0.00000000000E+00  0.00000000000E+00  0.99999998245E-14  0.12509000000E+03  0.12509000000E+03 0.  0.
        -13    1    3    3    0    0 -0.34664870104E+02 -0.25531208205E+01 -0.18177406177E+01  0.34806421681E+02  0.10566000000E+00 0. -1.
         23    2    1    0    0    0  0.21324968265E+02  0.16433052990E+01  0.20723117472E+02  0.95309094682E+02  0.90536849998E+02 0.  0.
         13    1    3    3    0    0  0.55989838369E+02  0.41964261195E+01  0.22540858090E+02  0.60502673001E+02  0.10566000000E+00 0.  1.
         22    1    1    0    0    0 -0.21324968265E+02 -0.16433052990E+01 -0.20723117472E+02  0.29780905318E+02  0.00000000000E+00 0.  1.
</event>
<event>
 5    1  0.1259474E-009  0.9118800E+02  0.7815553E-02  0.1125453E+00
         25   -1    0    0    0    0  0.00000000000E+00  0.00000000000E+00  0.99999998245E-14  0.12509000000E+03  0.12509000000E+03 0.  0.
        -13    1    3    3    0    0 -0.18929368341E+02  0.25171833358E+02 -0.15146052541E+02  0.34947907691E+02  0.10566000000E+00 0. -1.
         23    2    1    0    0    0  0.13864457364E+02 -0.23828883642E+02 -0.14559459749E+02  0.93912816968E+02  0.88586683249E+02 0.  0.
         13    1    3    3    0    0  0.32793825705E+02 -0.49000717000E+02  0.58659279265E+00  0.58964909277E+02  0.10566000000E+00 0.  1.
         22    1    1    0    0    0 -0.13864457364E+02  0.23828883642E+02  0.14559459749E+02  0.31177183032E+02  0.00000000000E+00 0.  1.
</event>
<event>
 5    1  0.1259474E-009  0.9118800E+02  0.7815553E-02  0.1125453E+00
         25   -1    0    0    0    0  0.00000000000E+00  0.00000000000E+00  0.99999998245E-14  0.12509000000E+03  0.12509000000E+03 0.  0.
        -13    1    3    3    0    0 -0.15342248900E+02 -0.38553112688E+02  0.19445351432E+02  0.45824228915E+02  0.10566000000E+00 0.  1.
         23    2    1    0    0    0 -0.73846953689E+00 -0.15323321422E+02 -0.23642016364E+02  0.96906769979E+02  0.92718000482E+02 0.  0.
         13    1    3    3    0    0  0.14603779363E+02  0.23229791267E+02 -0.43087367796E+02  0.51082541065E+02  0.10566000000E+00 0. -1.
         22    1    1    0    0    0  0.73846953689E+00  0.15323321422E+02  0.23642016364E+02  0.28183230021E+02  0.00000000000E+00 0.  1.
</event>
<event>
 5    1  0.1259474E-009  0.9118800E+02  0.7815553E-02  0.1125453E+00
         25   -1    0    0    0    0  0.00000000000E+00  0.00000000000E+00  0.99999998245E-14  0.12509000000E+03  0.12509000000E+03 0.  0.
        -13    1    3    3    0    0 -0.96989451477E+01 -0.21879502783E+02 -0.35811915056E+02  0.43073038006E+02  0.10566000000E+00 0.  1.
         23    2    1    0    0    0  0.29662825339E+02 -0.40770583080E+01 -0.94015400329E+01  0.93706970087E+02  0.88295535994E+02 0.  0.
         13    1    3    3    0    0  0.39361770486E+02  0.17802444475E+02  0.26410375023E+02  0.50633932081E+02  0.10566000000E+00 0. -1.
         22    1    1    0    0    0 -0.29662825339E+02  0.40770583080E+01  0.94015400329E+01  0.31383029913E+02  0.00000000000E+00 0. -1.
</event>
<event>
 5    1  0.1259474E-009  0.9118800E+02  0.7815553E-02  0.1125453E+00
         25   -1    0    0    0    0  0.00000000000E+00  0.00000000000E+00  0.99999998245E-14  0.12509000000E+03  0.12509000000E+03 0.  0.
        -13    1    3    3    0    0  0.41219382920E+02 -0.32441767156E+02  0.48715496773E+01  0.52680631591E+02  0.10566000000E+00 0. -1.
         23    2    1    0    0    0  0.23634652206E+02 -0.36826267185E+01 -0.19460102833E+02  0.94254077333E+02  0.89067260917E+02 0.  0.
         13    1    3    3    0    0 -0.17584730714E+02  0.28759140437E+02 -0.24331652510E+02  0.41573445743E+02  0.10566000000E+00 0.  1.
         22    1    1    0    0    0 -0.23634652206E+02  0.36826267185E+01  0.19460102833E+02  0.30835922667E+02  0.00000000000E+00 0.  1.
</event>
<event>
 5    1  0.1259474E-009  0.9118800E+02  0.7815553E-02  0.1125453E+00
         25   -1    0    0    0    0  0.00000000000E+00  0.00000000000E+00  0.99999998245E-14  0.12509000000E+03  0.12509000000E+03 0.  0.
        -13    1    3    3    0    0  0.31791345906E+02  0.15752856310E+02 -0.13817157736E+02  0.38075808178E+02  0.10566000000E+00 0. -1.
         23    2    1    0    0    0 -0.24888935117E+02  0.15319839782E+02 -0.44077096668E+01  0.95533537311E+02  0.90846421307E+02 0.  0.
         13    1    3    3    0    0 -0.56680281023E+02 -0.43301652730E+00  0.94094480693E+01  0.57457729133E+02  0.10566000000E+00 0.  1.
         22    1    1    0    0    0  0.24888935117E+02 -0.15319839782E+02  0.44077096668E+01  0.29556462689E+02  0.00000000000E+00 0.  1.
</event>
<event>
 5    1  0.1259474E-009  0.9118800E+02  0.7815553E-02  0.1125453E+00
         25   -1    0    0    0    0  0.00000000000E+00  0.00000000000E+00  0.99999998245E-14  0.12509000000E+03  0.12509000000E+03 0.  0.
        -13    1    3    3    0    0 -0.56088020966E+02  0.14591676440E+02 -0.10058650956E+01  0.57963833947E+02  0.10566000000E+00 0.  1.
         23    2    1    0    0    0 -0.24368202333E+02 -0.14882211935E+01 -0.15284908222E+02  0.96286310885E+02  0.91877098111E+02 0.  0.
         13    1    3    3    0    0  0.31719818633E+02 -0.16079897634E+02 -0.14279043127E+02  0.38322476938E+02  0.10566000000E+00 0. -1.
         22    1    1    0    0    0  0.24368202333E+02  0.14882211935E+01  0.15284908222E+02  0.28803689115E+02  0.00000000000E+00 0. -1.
</event>
<event>
 5    1  0.1259474E-009  0.9118800E+02  0.7815553E-02  0.1125453E+00
         25   -1    0    0    0    0  0.00000000000E+00  0.00000000000E+00  0.99999998245E-14  0.12509000000E+03  0.12509000000E+03 0.  0.
        -13    1    3    3    0    0 -0.14075935569E+02  0.49367679174E+02  0.17396770170E+02  0.54202937979E+02  0.10566000000E+00 0. -1.
         23    2    1    0    0    0 -0.13209543192E+02  0.71137456829E+01  0.23807549289E+02  0.96949338811E+02  0.92775414220E+02 0.  0.
         13    1    3    3    0    0  0.86639237677E+00 -0.42253933491E+02  0.64107791190E+01  0.42746400832E+02  0.10566000000E+00 0.  1.
         22    1    1    0    0    0  0.13209543192E+02 -0.71137456829E+01 -0.23807549289E+02  0.28140661189E+02  0.00000000000E+00 0.  1.
</event>
<event>
 5    1  0.1259474E-009  0.9118800E+02  0.7815553E-02  0.1125453E+00
         25   -1    0    0    0    0  0.00000000000E+00  0.00000000000E+00  0.99999998245E-14  0.12509000000E+03  0.12509000000E+03 0.  0.
        -13    1    3    3    0    0 -0.23342298331E+01  0.33670803385E+02  0.13103102804E+02  0.36205995313E+02  0.10566000000E+00 0. -1.
         23    2    1    0    0    0 -0.21845995914E+02 -0.10575096469E+02 -0.19014786187E+02  0.94257512320E+02  0.89072085033E+02 0.  0.
         13    1    3    3    0    0 -0.19511766081E+02 -0.44245899854E+02 -0.32117888991E+02  0.58051517006E+02  0.10566000000E+00 0.  1.
         22    1    1    0    0    0  0.21845995914E+02  0.10575096469E+02  0.19014786187E+02  0.30832487680E+02  0.00000000000E+00 0.  1.
</event>
<event>
 5    1  0.1259474E-009  0.9118800E+02  0.7815553E-02  0.1125453E+00
         25   -1    0    0    0    0  0.00000000000E+00  0.00000000000E+00  0.99999998245E-14  0.12509000000E+03  0.12509000000E+03 0.  0.
        -13    1    3    3    0    0  0.19523333377E+02 -0.23574045801E+02  0.28631984765E+02  0.41912980056E+02  0.10566000000E+00 0. -1.
         23    2    1    0    0    0  0.16390499812E+02 -0.67700274065E+01 -0.22854146638E+02  0.96162612048E+02  0.91708528404E+02 0.  0.
         13    1    3    3    0    0 -0.31328335643E+01  0.16804018395E+02 -0.51486131403E+02  0.54249631992E+02  0.10566000000E+00 0.  1.
         22    1    1    0    0    0 -0.16390499812E+02  0.67700274065E+01  0.22854146638E+02  0.28927387952E+02  0.00000000000E+00 0.  1.
</event>
<event>
 5    1  0.1259474E-009  0.9118800E+02  0.7815553E-02  0.1125453E+00
         25   -1    0    0    0    0  0.00000000000E+00  0.00000000000E+00  0.99999998245E-14  0.12509000000E+03  0.12509000000E+03 0.  0.
        -13    1    3    3    0    0 -0.13857318720E+02 -0.26333857674E+02  0.36795600538E+02  0.47322560424E+02  0.10566000000E+00 0.  1.
         23    2    1    0    0    0  0.68693910775E+01 -0.28354768925E+02 -0.63506911638E+01  0.95231789524E+02  0.90429978454E+02 0.  0.
         13    1    3    3    0    0  0.20726709797E+02 -0.20209112508E+01 -0.43146291702E+02  0.47909229100E+02  0.10566000000E+00 0. -1.
         22    1    1    0    0    0 -0.68693910775E+01  0.28354768925E+02  0.63506911638E+01  0.29858210476E+02  0.00000000000E+00 0. -1.
</event>
<event>
 5    1  0.1259474E-009  0.9118800E+02  0.7815553E-02  0.1125453E+00
         25   -1    0    0    0    0  0.00000000000E+00  0.00000000000E+00  0.99999998245E-14  0.12509000000E+03  0.12509000000E+03 0.  0.
        -13    1    3    3    0    0 -0.37339512357E+02 -0.13874792406E+02 -0.14060535749E+02  0.42242855928E+02  0.10566000000E+00 0.  1.
         23    2    1    0    0    0 -0.14912460934E+02  0.26783538984E+02  0.76400626111E+01  0.93497120924E+02  0.87997736407E+02 0.  0.
         13    1    3    3    0    0  0.22427051423E+02  0.40658331390E+02  0.21700598360E+02  0.51254264995E+02  0.10566000000E+00 0. -1.
         22    1    1    0    0    0  0.14912460934E+02 -0.26783538984E+02 -0.76400626111E+01  0.31592879076E+02  0.00000000000E+00 0. -1.
</event>
<event>
 5    1  0.1259474E-009  0.9118800E+02  0.7815553E-02  0.1125453E+00
         25   -1    0    0    0    0  0.00000000000E+00  0.00000000000E+00  0.99999998245E-14  0.12509000000E+03  0.12509000000E+03 0.  0.
        -13    1    3    3    0    0  0.29830660652E+02  0.59590273271E+01  0.10506099935E+02  0.32183343852E+02  0.10566000000E+00 0. -1.
         23    2    1    0    0    0 -0.27495357581E+02 -0.99859822872E+01 -0.84658162442E+01  0.94637010402E+02  0.89603455081E+02 0.  0.
         13    1    3    3    0    0 -0.57326018233E+02 -0.15945009614E+02 -0.18971916179E+02  0.62453666550E+02  0.10566000000E+00 0.  1.
         22    1    1    0    0    0  0.27495357581E+02  0.99859822872E+01  0.84658162442E+01  0.30452989598E+02  0.00000000000E+00 0.  1.
</event>
<event>
 5    1  0.1259474E-009  0.9118800E+02  0.7815553E-02  0.1125453E+00
         25   -1    0    0    0    0  0.00000000000E+00  0.00000000000E+00  0.99999998245E-14  0.12509000000E+03  0.12509000000E+03 0.  0.
        -13    1    3    3    0    0 -0.54955138350E+02 -0.16607044756E+02  0.21651886696E+02  0.61356959899E+02  0.10566000000E+00 0. -1.
         23    2    1    0    0    0 -0.29011943300E+02 -0.18325724086E+01  0.48410903894E+01  0.95619890875E+02  0.90965247206E+02 0.  0.
         13    1    3    3    0    0  0.25943195050E+02  0.14774472348E+02 -0.16810796307E+02  0.34262930976E+02  0.10566000000E+00 0.  1.
         22    1    1    0    0    0  0.29011943300E+02  0.18325724086E+01 -0.48410903894E+01  0.29470109125E+02  0.00000000000E+00 0. -1.
</event>
<event>
 5    1  0.1259474E-009  0.9118800E+02  0.7815553E-02  0.1125453E+00
         25   -1    0    0    0    0  0.00000000000E+00  0.00000000000E+00  0.99999998245E-14  0.12509000000E+03  0.12509000000E+03 0.  0.
        -13    1    3    3    0    0  0.17208410599E+02  0.30374062736E+02 -0.52044613095E+01  0.35296043177E+02  0.10566000000E+00 0.  1.
         23    2    1    0    0    0  0.20308220297E+01 -0.22894968037E+02  0.18539638359E+02  0.95559981543E+02  0.90882826114E+02 0.  0.
         13    1    3    3    0    0 -0.15177588569E+02 -0.53269030773E+02  0.23744099669E+02  0.60263938366E+02  0.10566000000E+00 0. -1.
         22    1    1    0    0    0 -0.20308220297E+01  0.22894968037E+02 -0.18539638359E+02  0.29530018457E+02  0.00000000000E+00 0. -1.
</event>
<event>
 5    1  0.1259474E-009  0.9118800E+02  0.7815553E-02  0.1125453E+00
         25   -1    0    0    0    0  0.00000000000E+00  0.00000000000E+00  0.99999998245E-14  0.12509000000E+03  0.12509000000E+03 0.  0.
        -13    1    3    3    0    0  0.23465030925E+01  0.33458983718E+02 -0.50526794684E+02  0.60646333882E+02  0.10566000000E+00 0.  1.
         23    2    1    0    0    0 -0.60283337617E+01  0.73210288112E+01 -0.25849218503E+02  0.97556014309E+02  0.93589826156E+02 0.  0.
         13    1    3    3    0    0 -0.83748368541E+01 -0.26137954907E+02  0.24677576181E+02  0.36909680427E+02  0.10566000000E+00 0. -1.
         22    1    1    0    0    0  0.60283337617E+01 -0.73210288112E+01  0.25849218503E+02  0.27533985691E+02  0.00000000000E+00 0.  1.
</event>
<event>
 5    1  0.1259474E-009  0.9118800E+02  0.7815553E-02  0.1125453E+00
         25   -1    0    0    0    0  0.00000000000E+00  0.00000000000E+00  0.99999998245E-14  0.12509000000E+03  0.12509000000E+03 0.  0.
        -13    1    3    3    0    0  0.34183985075E+01  0.10554905735E+02  0.34569677763E+02  0.36306545802E+02  0.10566000000E+00 0. -1.
         23    2    1    0    0    0  0.87271898028E+01 -0.24452210871E+02 -0.13355985589E+02  0.95893136994E+02  0.91340226150E+02 0.  0.
         13    1    3    3    0    0  0.53087912952E+01 -0.35007116606E+02 -0.47925663352E+02  0.59586591192E+02  0.10566000000E+00 0.  1.
         22    1    1    0    0    0 -0.87271898028E+01  0.24452210871E+02  0.13355985589E+02  0.29196863006E+02  0.00000000000E+00 0.  1.
</event>
<event>
 5    1  0.1259474E-009  0.9118800E+02  0.7815553E-02  0.1125453E+00
         25   -1    0    0    0    0  0.00000000000E+00  0.00000000000E+00  0.99999998245E-14  0.12509000000E+03  0.12509000000E+03 0.  0.
        -13    1    3    3    0    0 -0.20162470941E+02 -0.90334093729E+01  0.12321582695E+01  0.22128196885E+02  0.10566000000E+00 0. -1.
         23    2    1    0    0    0  0.37096307395E+02 -0.16428279194E+02  0.15598990576E+02  0.81623312909E+02  0.69086990987E+02 0.  0.
         13    1    3    3    0    0  0.57258778336E+02 -0.73948698210E+01  0.14366832307E+02  0.59495116025E+02  0.10566000000E+00 0.  1.
         22    1    1    0    0    0 -0.37096307395E+02  0.16428279194E+02 -0.15598990576E+02  0.43466687091E+02  0.00000000000E+00 0.  1.
</event>
<event>
 5    1  0.1259474E-009  0.9118800E+02  0.7815553E-02  0.1125453E+00
         25   -1    0    0    0    0  0.00000000000E+00  0.00000000000E+00  0.99999998245E-14  0.12509000000E+03  0.12509000000E+03 0.  0.
        -13    1    3    3    0    0  0.10274789749E+02  0.39627824376E+02  0.18255210513E+02  0.44824096690E+02  0.10566000000E+00 0. -1.
         23    2    1    0    0    0  0.74696347355E-01  0.92282214234E+01 -0.24869440441E+02  0.98563509127E+02  0.94926869817E+02 0.  0.
         13    1    3    3    0    0 -0.10200093401E+02 -0.30399602952E+02 -0.43124650955E+02  0.53739412437E+02  0.10566000000E+00 0.  1.
         22    1    1    0    0    0 -0.74696347355E-01 -0.92282214234E+01  0.24869440441E+02  0.26526490873E+02  0.00000000000E+00 0.  1.
</event>
<event>
 5    1  0.1259474E-009  0.9118800E+02  0.7815553E-02  0.1125453E+00
         25   -1    0    0    0    0  0.00000000000E+00  0.00000000000E+00  0.99999998245E-14  0.12509000000E+03  0.12509000000E+03 0.  0.
        -13    1    3    3    0    0  0.23228741301E+02  0.42910524118E+02  0.33508503576E+02  0.59192216367E+02  0.10566000000E+00 0.  1.
         23    2    1    0    0    0  0.87715210721E+01  0.22940674284E+02  0.33054927307E+00  0.10052735801E+03  0.97480389453E+02 0.  0.
         13    1    3    3    0    0 -0.14457220229E+02 -0.19969849834E+02 -0.33177954303E+02  0.41335141646E+02  0.10566000000E+00 0. -1.
         22    1    1    0    0    0 -0.87715210721E+01 -0.22940674284E+02 -0.33054927307E+00  0.24562641986E+02  0.00000000000E+00 0. -1.
</event>
<event>
 5    1  0.1259474E-009  0.9118800E+02  0.7815553E-02  0.1125453E+00
         25   -1    0    0    0    0  0.00000000000E+00  0.00000000000E+00  0.99999998245E-14  0.12509000000E+03  0.12509000000E+03 0.  0.
        -13    1    3    3    0    0  0.32413038728E+02  0.24445031701E+02  0.52930477023E+01  0.40941325974E+02  0.10566000000E+00 0.  1.
         23    2    1    0    0    0 -0.11340707271E+02  0.21296169003E+01  0.27816281473E+02  0.94975345352E+02  0.90074545796E+02 0.  0.
         13    1    3    3    0    0 -0.43753745999E+02 -0.22315414801E+02  0.22523233771E+02  0.54034019379E+02  0.10566000000E+00 0. -1.
         22    1    1    0    0    0  0.11340707271E+02 -0.21296169003E+01 -0.27816281473E+02  0.30114654648E+02  0.00000000000E+00 0.  1.
</event>
<event>
 5    1  0.1259474E-009  0.9118800E+02  0.7815553E-02  0.1125453E+00
         25   -1    0    0    0    0  0.00000000000E+00  0.00000000000E+00  0.99999998245E-14  0.12509000000E+03  0.12509000000E+03 0.  0.
        -13    1    3    3    0    0 -0.96941240444E+01  0.43023222740E+02 -0.32791575791E+02  0.54957004493E+02  0.10566000000E+00 0.  1.
         23    2    1    0    0    0 -0.15591472321E+02  0.25537458410E+02  0.27900799409E+01  0.95039370435E+02  0.90163416059E+02 0.  0.
         13    1    3    3    0    0 -0.58973482765E+01 -0.17485764330E+02  0.35581655732E+02  0.40082365943E+02  0.10566000000E+00 0. -1.
         22    1    1    0    0    0  0.15591472321E+02 -0.25537458410E+02 -0.27900799409E+01  0.30050629565E+02  0.00000000000E+00 0. -1.
</event>
<event>
 5    1  0.1259474E-009  0.9118800E+02  0.7815553E-02  0.1125453E+00
         25   -1    0    0    0    0  0.00000000000E+00  0.00000000000E+00  0.99999998245E-14  0.12509000000E+03  0.12509000000E+03 0.  0.
        -13    1    3    3    0    0 -0.25130063530E+02  0.51313036779E+02  0.11919208960E+02  0.58366313424E+02  0.10566000000E+00 0.  1.
         23    2    1    0    0    0 -0.14326065364E+02  0.23940507428E+02 -0.10415232900E+02  0.95309786417E+02  0.90537805726E+02 0.  0.
         13    1    3    3    0    0  0.10803998166E+02 -0.27372529351E+02 -0.22334441861E+02  0.36943472992E+02  0.10566000000E+00 0. -1.
         22    1    1    0    0    0  0.14326065364E+02 -0.23940507428E+02  0.10415232900E+02  0.29780213583E+02  0.00000000000E+00 0.  1.
</event>
<event>
 5    1  0.1259474E-009  0.9118800E+02  0.7815553E-02  0.1125453E+00
         25   -1    0    0    0    0  0.00000000000E+00  0.00000000000E+00  0.99999998245E-14  0.12509000000E+03  0.12509000000E+03 0.  0.
        -13    1    3    3    0    0  0.40216916674E+02 -0.30338222973E-01 -0.31992601617E+02  0.51390067420E+02  0.10566000000E+00 0. -1.
         23    2    1    0    0    0  0.12665071867E+02 -0.25744252557E+02 -0.13032023521E+02  0.93578030494E+02  0.88112675416E+02 0.  0.
         13    1    3    3    0    0 -0.27551844806E+02 -0.25713914334E+02  0.18960578096E+02  0.42187963074E+02  0.10566000000E+00 0.  1.
         22    1    1    0    0    0 -0.12665071867E+02  0.25744252557E+02  0.13032023521E+02  0.31511969506E+02  0.00000000000E+00 0. -1.
</event>
<event>
 5    1  0.1259474E-009  0.9118800E+02  0.7815553E-02  0.1125453E+00
         25   -1    0    0    0    0  0.00000000000E+00  0.00000000000E+00  0.99999998245E-14  0.12509000000E+03  0.12509000000E+03 0.  0.
        -13    1    3    3    0    0  0.14761718854E+02 -0.36646998096E+02 -0.36796513771E+01  0.39679488546E+02  0.10566000000E+00 0.  1.
         23    2    1    0    0    0 -0.27457125690E+02  0.24188179809E+01  0.18475136248E+01  0.97464690261E+02  0.93467684841E+02 0.  0.
         13    1    3    3    0    0 -0.42218844544E+02  0.39065816077E+02  0.55271650019E+01  0.57785201716E+02  0.10566000000E+00 0. -1.
         22    1    1    0    0    0  0.27457125690E+02 -0.24188179809E+01 -0.18475136248E+01  0.27625309739E+02  0.00000000000E+00 0. -1.
</event>
<event>
 5    1  0.1259474E-009  0.9118800E+02  0.7815553E-02  0.1125453E+00
         25   -1    0    0    0    0  0.00000000000E+00  0.00000000000E+00  0.99999998245E-14  0.12509000000E+03  0.12509000000E+03 0.  0.
        -13    1    3    3    0    0  0.20623009199E+02  0.40294197188E+02 -0.36788986248E+02  0.58329850922E+02  0.10566000000E+00 0. -1.
         23    2    1    0    0    0 -0.74780364199E+01  0.14845064170E+02 -0.17813626028E+02  0.10072563604E+03  0.97734495059E+02 0.  0.
         13    1    3    3    0    0 -0.28101045619E+02 -0.25449133018E+02  0.18975360220E+02  0.42395785118E+02  0.10566000000E+00 0.  1.
         22    1    1    0    0    0  0.74780364199E+01 -0.14845064170E+02  0.17813626028E+02  0.24364363960E+02  0.00000000000E+00 0. -1.
</event>
<event>
 5    1  0.1259474E-009  0.9118800E+02  0.7815553E-02  0.1125453E+00
         25   -1    0    0    0    0  0.00000000000E+00  0.00000000000E+00  0.99999998245E-14  0.12509000000E+03  0.12509000000E+03 0.  0.
        -13    1    3    3    0    0  0.42654351579E+02  0.31167372195E+02  0.24768261206E+02  0.58346180041E+02  0.10566000000E+00 0. -1.
         23    2    1    0    0    0  0.28559578824E+02  0.23184393437E+01  0.51387073771E+01  0.95979331559E+02  0.91458193014E+02 0.  0.
         13    1    3    3    0    0 -0.14094772755E+02 -0.28848932851E+02 -0.19629553829E+02  0.37633151518E+02  0.10566000000E+00 0.  1.
         22    1    1    0    0    0 -0.28559578824E+02 -0.23184393437E+01 -0.51387073771E+01  0.29110668441E+02  0.00000000000E+00 0. -1.
</event>
<event>
 5    1  0.1259474E-009  0.9118800E+02  0.7815553E-02  0.1125453E+00
         25   -1    0    0    0    0  0.00000000000E+00  0.00000000000E+00  0.99999998245E-14  0.12509000000E+03  0.12509000000E+03 0.  0.
        -13    1    3    3    0    0 -0.47558332620E+02  0.34823728957E+02 -0.16374046934E+02  0.61176855731E+02  0.10566000000E+00 0. -1.
         23    2    1    0    0    0 -0.29272224758E+02  0.12309949933E+02 -0.14323547212E+02  0.90253783007E+02  0.83259734162E+02 0.  0.
         13    1    3    3    0    0  0.18286107862E+02 -0.22513779025E+02  0.20504997221E+01  0.29076927277E+02  0.10566000000E+00 0.  1.
         22    1    1    0    0    0  0.29272224758E+02 -0.12309949933E+02  0.14323547212E+02  0.34836216993E+02  0.00000000000E+00 0. -1.
</event>
<event>
 5    1  0.1259474E-009  0.9118800E+02  0.7815553E-02  0.1125453E+00
         25   -1    0    0    0    0  0.00000000000E+00  0.00000000000E+00  0.99999998245E-14  0.12509000000E+03  0.12509000000E+03 0.  0.
        -13    1    3    3    0    0 -0.10019585780E+02 -0.18905864666E+02  0.35074967371E+02  0.41086351969E+02  0.10566000000E+00 0.  1.
         23    2    1    0    0    0 -0.26023240710E+02  0.41140782513E+01 -0.12204908009E+02  0.96053910793E+02  0.91560140357E+02 0.  0.
         13    1    3    3    0    0 -0.16003654930E+02  0.23019942917E+02 -0.47279875381E+02  0.54967558824E+02  0.10566000000E+00 0. -1.
         22    1    1    0    0    0  0.26023240710E+02 -0.41140782513E+01  0.12204908009E+02  0.29036089207E+02  0.00000000000E+00 0.  1.
</event>
<event>
 5    1  0.1259474E-009  0.9118800E+02  0.7815553E-02  0.1125453E+00
         25   -1    0    0    0    0  0.00000000000E+00  0.00000000000E+00  0.99999998245E-14  0.12509000000E+03  0.12509000000E+03 0.  0.
        -13    1    3    3    0    0  0.40066898619E+01  0.35313212602E+02 -0.29513617547E+02  0.46196767557E+02  0.10566000000E+00 0.  1.
         23    2    1    0    0    0 -0.24160508787E+02 -0.42949237933E+01 -0.10838532022E+02  0.98263700747E+02  0.94530971395E+02 0.  0.
         13    1    3    3    0    0 -0.28167198649E+02 -0.39608136395E+02  0.18675085525E+02  0.52066933190E+02  0.10566000000E+00 0. -1.
         22    1    1    0    0    0  0.24160508787E+02  0.42949237933E+01  0.10838532022E+02  0.26826299253E+02  0.00000000000E+00 0. -1.
</event>
<event>
 4    1  0.1259474E-009  0.9118800E+02  0.7815553E-02  0.1125453E+00
         25   -1    0    0    0    0  0.00000000000E+00  0.00000000000E+00  0.99999998245E-14  0.12509000000E+03  0.12509000000E+03 0.  0.
        -13    1    1    0    0    0  0.19269658310E+02  0.35701215635E+02  0.22630895611E+02  0.46454979598E+02  0.10566000000E+00 0.  1.
         13    1    1    0    0    0 -0.16916210495E+02  0.15694230907E+02 -0.18572418889E+01  0.23150109562E+02  0.10566000000E+00 0. -1.
         22    1    1    0    0    0 -0.23534478146E+01 -0.51395446543E+02 -0.20773653722E+02  0.55484910840E+02  0.00000000000E+00 0.  1.
</event>
<event>
 5    1  0.1259474E-009  0.9118800E+02  0.7815553E-02  0.1125453E+00
         25   -1    0    0    0    0  0.00000000000E+00  0.00000000000E+00  0.99999998245E-14  0.12509000000E+03  0.12509000000E+03 0.  0.
        -13    1    3    3    0    0 -0.69551765006E+01  0.43625143922E+02  0.45272006947E+00  0.44178544361E+02  0.10566000000E+00 0. -1.
         23    2    1    0    0    0  0.20838653459E+02  0.98137899607E+00 -0.17197434382E+02  0.98053647953E+02  0.94252604976E+02 0.  0.
         13    1    3    3    0    0  0.27793829959E+02 -0.42643764926E+02 -0.17650154451E+02  0.53875103592E+02  0.10566000000E+00 0.  1.
         22    1    1    0    0    0 -0.20838653459E+02 -0.98137899607E+00  0.17197434382E+02  0.27036352047E+02  0.00000000000E+00 0.  1.
</event>
<event>
 5    1  0.1259474E-009  0.9118800E+02  0.7815553E-02  0.1125453E+00
         25   -1    0    0    0    0  0.00000000000E+00  0.00000000000E+00  0.99999998245E-14  0.12509000000E+03  0.12509000000E+03 0.  0.
        -13    1    3    3    0    0  0.18129666708E+01  0.26890602866E+02  0.57866666214E+01  0.27566066917E+02  0.10566000000E+00 0.  1.
         23    2    1    0    0    0  0.33452505441E+02 -0.93827072831E+01 -0.22785897119E+02  0.83541204304E+02  0.72476412666E+02 0.  0.
         13    1    3    3    0    0  0.31639538770E+02 -0.36273310149E+02 -0.28572563740E+02  0.55975137387E+02  0.10566000000E+00 0. -1.
         22    1    1    0    0    0 -0.33452505441E+02  0.93827072831E+01  0.22785897119E+02  0.41548795696E+02  0.00000000000E+00 0. -1.
</event>
<event>
 5    1  0.1259474E-009  0.9118800E+02  0.7815553E-02  0.1125453E+00
         25   -1    0    0    0    0  0.00000000000E+00  0.00000000000E+00  0.99999998245E-14  0.12509000000E+03  0.12509000000E+03 0.  0.
        -13    1    3    3    0    0 -0.22239929518E+02  0.33902268182E+02  0.33093251006E+02  0.52336915070E+02  0.10566000000E+00 0.  1.
         23    2    1    0    0    0  0.14422758963E+01  0.32091303740E+02  0.12981357649E+00  0.92966040296E+02  0.87239531528E+02 0.  0.
         13    1    3    3    0    0  0.23682205414E+02 -0.18109644421E+01 -0.32963437429E+02  0.40629125226E+02  0.10566000000E+00 0. -1.
         22    1    1    0    0    0 -0.14422758963E+01 -0.32091303740E+02 -0.12981357649E+00  0.32123959704E+02  0.00000000000E+00 0.  1.
</event>
<event>
 5    1  0.1259474E-009  0.9118800E+02  0.7815553E-02  0.1125453E+00
         25   -1    0    0    0    0  0.00000000000E+00  0.00000000000E+00  0.99999998245E-14  0.12509000000E+03  0.12509000000E+03 0.  0.
        -13    1    3    3    0    0  0.26329740514E+02  0.30450837444E+02  0.23575014650E+02  0.46650843683E+02  0.10566000000E+00 0.  1.
         23    2    1    0    0    0 -0.11390687348E+02  0.27871191600E+02 -0.56721403308E+01  0.94451392731E+02  0.89343949619E+02 0.  0.
         13    1    3    3    0    0 -0.37720427862E+02 -0.25796458445E+01 -0.29247154981E+02  0.47800549048E+02  0.10566000000E+00 0. -1.
         22    1    1    0    0    0  0.11390687348E+02 -0.27871191600E+02  0.56721403308E+01  0.30638607269E+02  0.00000000000E+00 0. -1.
</event>
<event>
 5    1  0.1259474E-009  0.9118800E+02  0.7815553E-02  0.1125453E+00
         25   -1    0    0    0    0  0.00000000000E+00  0.00000000000E+00  0.99999998245E-14  0.12509000000E+03  0.12509000000E+03 0.  0.
        -13    1    3    3    0    0  0.33813007417E+01  0.34790107815E+02  0.49928933104E+02  0.60948292195E+02  0.10566000000E+00 0. -1.
         23    2    1    0    0    0  0.10908398471E+02  0.12782196008E+02  0.24141127494E+02  0.95676198330E+02  0.91042644943E+02 0.  0.
         13    1    3    3    0    0  0.75270977295E+01 -0.22007911807E+02 -0.25787805610E+02  0.34727906135E+02  0.10566000000E+00 0.  1.
         22    1    1    0    0    0 -0.10908398471E+02 -0.12782196008E+02 -0.24141127494E+02  0.29413801670E+02  0.00000000000E+00 0. -1.
</event>
<event>
 5    1  0.1259474E-009  0.9118800E+02  0.7815553E-02  0.1125453E+00
         25   -1    0    0    0    0  0.00000000000E+00  0.00000000000E+00  0.99999998245E-14  0.12509000000E+03  0.12509000000E+03 0.  0.
        -13    1    3    3    0    0  0.44588125274E+02 -0.34901443953E+02  0.52603107638E+01  0.56867334550E+02  0.10566000000E+00 0. -1.
         23    2    1    0    0    0  0.26668731719E+02 -0.10636075116E+01 -0.77340682934E+01  0.97302083115E+02  0.93249809940E+02 0.  0.
         13    1    3    3    0    0 -0.17919393555E+02  0.33837836442E+02 -0.12994379057E+02  0.40434748565E+02  0.10566000000E+00 0.  1.
         22    1    1    0    0    0 -0.26668731719E+02  0.10636075116E+01  0.77340682934E+01  0.27787916885E+02  0.00000000000E+00 0. -1.
</event>
<event>
 5    1  0.1259474E-009  0.9118800E+02  0.7815553E-02  0.1125453E+00
         25   -1    0    0    0    0  0.00000000000E+00  0.00000000000E+00  0.99999998245E-14  0.12509000000E+03  0.12509000000E+03 0.  0.
        -13    1    3    3    0    0  0.47785201987E+02 -0.59342650298E+01  0.21066867046E+01  0.48198447312E+02  0.10566000000E+00 0.  1.
         23    2    1    0    0    0  0.48364192215E+01 -0.23583073131E+01  0.26722984081E+02  0.97830681548E+02  0.93956222837E+02 0.  0.
         13    1    3    3    0    0 -0.42948782766E+02  0.35759577167E+01  0.24616297376E+02  0.49632234236E+02  0.10566000000E+00 0. -1.
         22    1    1    0    0    0 -0.48364192215E+01  0.23583073131E+01 -0.26722984081E+02  0.27259318452E+02  0.00000000000E+00 0. -1.
</event>
<event>
 5    1  0.1259474E-009  0.9118800E+02  0.7815553E-02  0.1125453E+00
         25   -1    0    0    0    0  0.00000000000E+00  0.00000000000E+00  0.99999998245E-14  0.12509000000E+03  0.12509000000E+03 0.  0.
        -13    1    3    3    0    0 -0.12057801881E+02 -0.32408506613E+02  0.45551137687E+02  0.57189327638E+02  0.10566000000E+00 0.  1.
         23    2    1    0    0    0 -0.66641805283E+01  0.12943135769E+01  0.29339088638E+02  0.94975739726E+02  0.90075093476E+02 0.  0.
         13    1    3    3    0    0  0.53936213528E+01  0.33702820190E+02 -0.16212049050E+02  0.37786412088E+02  0.10566000000E+00 0. -1.
         22    1    1    0    0    0  0.66641805283E+01 -0.12943135769E+01 -0.29339088638E+02  0.30114260274E+02  0.00000000000E+00 0.  1.
</event>
<event>
 5    1  0.1259474E-009  0.9118800E+02  0.7815553E-02  0.1125453E+00
         25   -1    0    0    0    0  0.00000000000E+00  0.00000000000E+00  0.99999998245E-14  0.12509000000E+03  0.12509000000E+03 0.  0.
        -13    1    3    3    0    0 -0.51508522294E+01  0.39668679116E+02  0.84582817848E+01  0.40886294479E+02  0.10566000000E+00 0.  1.
         23    2    1    0    0    0  0.20488014215E+02  0.46322850935E+01 -0.22576110758E+02  0.94253372937E+02  0.89066271627E+02 0.  0.
         13    1    3    3    0    0  0.25638866444E+02 -0.35036394022E+02 -0.31034392543E+02  0.53367078458E+02  0.10566000000E+00 0. -1.
         22    1    1    0    0    0 -0.20488014215E+02 -0.46322850935E+01  0.22576110758E+02  0.30836627063E+02  0.00000000000E+00 0.  1.
</event>
<event>
 5    1  0.1259474E-009  0.9118800E+02  0.7815553E-02  0.1125453E+00
         25   -1    0    0    0    0  0.00000000000E+00  0.00000000000E+00  0.99999998245E-14  0.12509000000E+03  0.12509000000E+03 0.  0.
        -13    1    3    3    0    0 -0.26810325409E+02  0.12736806236E+02 -0.47089065557E+02  0.55663372524E+02  0.10566000000E+00 0.  1.
         23    2    1    0    0    0 -0.31081316876E+02  0.60124126696E+01 -0.12671989507E+02  0.90990488523E+02  0.84359304874E+02 0.  0.
         13    1    3    3    0    0 -0.42709914672E+01 -0.67243935661E+01  0.34417076051E+02  0.35327116000E+02  0.10566000000E+00 0. -1.
         22    1    1    0    0    0  0.31081316876E+02 -0.60124126696E+01  0.12671989507E+02  0.34099511477E+02  0.00000000000E+00 0.  1.
</event>
<event>
 5    1  0.1259474E-009  0.9118800E+02  0.7815553E-02  0.1125453E+00
         25   -1    0    0    0    0  0.00000000000E+00  0.00000000000E+00  0.99999998245E-14  0.12509000000E+03  0.12509000000E+03 0.  0.
        -13    1    3    3    0    0  0.39317793436E+02  0.25892148693E+01 -0.25069564085E+02  0.46702110463E+02  0.10566000000E+00 0.  1.
         23    2    1    0    0    0 -0.51742335218E+01  0.22103733642E+02 -0.18654413952E+02  0.95707438959E+02  0.91085558563E+02 0.  0.
         13    1    3    3    0    0 -0.44492026957E+02  0.19514518772E+02  0.64151501324E+01  0.49005328496E+02  0.10566000000E+00 0. -1.
         22    1    1    0    0    0  0.51742335218E+01 -0.22103733642E+02  0.18654413952E+02  0.29382561041E+02  0.00000000000E+00 0. -1.
</event>
<event>
 5    1  0.1259474E-009  0.9118800E+02  0.7815553E-02  0.1125453E+00
         25   -1    0    0    0    0  0.00000000000E+00  0.00000000000E+00  0.99999998245E-14  0.12509000000E+03  0.12509000000E+03 0.  0.
        -13    1    3    3    0    0 -0.39868655411E+02 -0.20016293082E+02 -0.21755613477E+02  0.49633451974E+02  0.10566000000E+00 0. -1.
         23    2    1    0    0    0  0.65378642185E+00 -0.27372289240E+02  0.27739250917E+01  0.97569747179E+02  0.93608179393E+02 0.  0.
         13    1    3    3    0    0  0.40522441833E+02 -0.73559961579E+01  0.24529538569E+02  0.47936295206E+02  0.10566000000E+00 0.  1.
         22    1    1    0    0    0 -0.65378642185E+00  0.27372289240E+02 -0.27739250917E+01  0.27520252821E+02  0.00000000000E+00 0.  1.
</event>
<event>
 5    1  0.1259474E-009  0.9118800E+02  0.7815553E-02  0.1125453E+00
         25   -1    0    0    0    0  0.00000000000E+00  0.00000000000E+00  0.99999998245E-14  0.12509000000E+03  0.12509000000E+03 0.  0.
        -13    1    3    3    0    0  0.32073998805E+02 -0.58061613625E+00  0.38609914403E+02  0.50197760594E+02  0.10566000000E+00 0.  1.
         23    2    1    0    0    0  0.55140896056E+01  0.25568760067E+02  0.21598006427E+02  0.91168906899E+02  0.84623454361E+02 0.  0.
         13    1    3    3    0    0 -0.26559909199E+02  0.26149376204E+02 -0.17011907976E+02  0.40971146305E+02  0.10566000000E+00 0. -1.
         22    1    1    0    0    0 -0.55140896056E+01 -0.25568760067E+02 -0.21598006427E+02  0.33921093101E+02  0.00000000000E+00 0.  1.
</event>
<event>
 5    1  0.1259474E-009  0.9118800E+02  0.7815553E-02  0.1125453E+00
         25   -1    0    0    0    0  0.00000000000E+00  0.00000000000E+00  0.99999998245E-14  0.12509000000E+03  0.12509000000E+03 0.  0.
        -13    1    3    3    0    0 -0.70050245261E+01 -0.19119819759E+02 -0.57220924652E+02  0.60736177508E+02  0.10566000000E+00 0. -1.
         23    2    1    0    0    0  0.19229861822E+01 -0.19335246844E+01 -0.34031584197E+02  0.90949333391E+02  0.84298256968E+02 0.  0.
         13    1    3    3    0    0  0.89280107083E+01  0.17186295074E+02  0.23189340456E+02  0.30213155883E+02  0.10566000000E+00 0.  1.
         22    1    1    0    0    0 -0.19229861822E+01  0.19335246844E+01  0.34031584197E+02  0.34140666609E+02  0.00000000000E+00 0. -1.
</event>
<event>
 5    1  0.1259474E-009  0.9118800E+02  0.7815553E-02  0.1125453E+00
         25   -1    0    0    0    0  0.00000000000E+00  0.00000000000E+00  0.99999998245E-14  0.12509000000E+03  0.12509000000E+03 0.  0.
        -13    1    3    3    0    0 -0.75714955318E+01 -0.41019108327E+02 -0.24146247999E+02  0.48196963068E+02  0.10566000000E+00 0.  1.
         23    2    1    0    0    0 -0.14404723007E+01  0.26350949223E+01  0.16596408067E+02  0.10822407440E+03  0.10690178124E+03 0.  0.
         13    1    3    3    0    0  0.61310232311E+01  0.43654203249E+02  0.40742656066E+02  0.60027111329E+02  0.10566000000E+00 0. -1.
         22    1    1    0    0    0  0.14404723007E+01 -0.26350949223E+01 -0.16596408067E+02  0.16865925603E+02  0.00000000000E+00 0. -1.
</event>
<event>
 5    1  0.1259474E-009  0.9118800E+02  0.7815553E-02  0.1125453E+00
         25   -1    0    0    0    0  0.00000000000E+00  0.00000000000E+00  0.99999998245E-14  0.12509000000E+03  0.12509000000E+03 0.  0.
        -13    1    3    3    0    0  0.21138599778E+02 -0.27543409479E+02  0.30791879267E+01  0.34856453759E+02  0.10566000000E+00 0.  1.
         23    2    1    0    0    0 -0.56068345789E+01  0.19735668442E+02  0.24399955356E+02  0.93210680305E+02  0.87589610678E+02 0.  0.
         13    1    3    3    0    0 -0.26745434357E+02  0.47279077921E+02  0.21320767430E+02  0.58354226546E+02  0.10566000000E+00 0. -1.
         22    1    1    0    0    0  0.56068345789E+01 -0.19735668442E+02 -0.24399955356E+02  0.31879319695E+02  0.00000000000E+00 0. -1.
</event>
<event>
 5    1  0.1259474E-009  0.9118800E+02  0.7815553E-02  0.1125453E+00
         25   -1    0    0    0    0  0.00000000000E+00  0.00000000000E+00  0.99999998245E-14  0.12509000000E+03  0.12509000000E+03 0.  0.
        -13    1    3    3    0    0  0.39662700003E+02  0.27186578008E+02  0.22502705540E+02  0.53090702726E+02  0.10566000000E+00 0. -1.
         23    2    1    0    0    0 -0.42445138560E+01  0.17433573166E+02  0.20120352608E+02  0.98131254475E+02  0.94355546443E+02 0.  0.
         13    1    3    3    0    0 -0.43907213859E+02 -0.97530048416E+01 -0.23823529317E+01  0.45040551749E+02  0.10566000000E+00 0.  1.
         22    1    1    0    0    0  0.42445138560E+01 -0.17433573166E+02 -0.20120352608E+02  0.26958745525E+02  0.00000000000E+00 0. -1.
</event>
<event>
 5    1  0.1259474E-009  0.9118800E+02  0.7815553E-02  0.1125453E+00
         25   -1    0    0    0    0  0.00000000000E+00  0.00000000000E+00  0.99999998245E-14  0.12509000000E+03  0.12509000000E+03 0.  0.
        -13    1    3    3    0    0  0.30287872301E+01 -0.23274280884E+02 -0.18094465971E+01  0.23540411291E+02  0.10566000000E+00 0. -1.
         23    2    1    0    0    0  0.20897701901E+02  0.30252035514E+02  0.19021725388E+02  0.83692830602E+02  0.72737639912E+02 0.  0.
         13    1    3    3    0    0  0.17868914671E+02  0.53526316397E+02  0.20831171985E+02  0.60152419310E+02  0.10566000000E+00 0.  1.
         22    1    1    0    0    0 -0.20897701901E+02 -0.30252035514E+02 -0.19021725388E+02  0.41397169398E+02  0.00000000000E+00 0.  1.
</event>
<event>
 5    1  0.1259474E-009  0.9118800E+02  0.7815553E-02  0.1125453E+00
         25   -1    0    0    0    0  0.00000000000E+00  0.00000000000E+00  0.99999998245E-14  0.12509000000E+03  0.12509000000E+03 0.  0.
        -13    1    3    3    0    0 -0.27609354967E+02  0.48285160952E+02 -0.18220678579E+02  0.58529800459E+02  0.10566000000E+00 0.  1.
         23    2    1    0    0    0 -0.87187733211E+01  0.16423397672E+02 -0.22594479613E+02  0.95828156103E+02  0.91251191739E+02 0.  0.
         13    1    3    3    0    0  0.18890581646E+02 -0.31861763280E+02 -0.43738010332E+01  0.37298355644E+02  0.10566000000E+00 0. -1.
         22    1    1    0    0    0  0.87187733211E+01 -0.16423397672E+02  0.22594479613E+02  0.29261843897E+02  0.00000000000E+00 0.  1.
</event>
<event>
 5    1  0.1259474E-009  0.9118800E+02  0.7815553E-02  0.1125453E+00
         25   -1    0    0    0    0  0.00000000000E+00  0.00000000000E+00  0.99999998245E-14  0.12509000000E+03  0.12509000000E+03 0.  0.
        -13    1    3    3    0    0  0.47532817875E+02 -0.28509927135E+01 -0.94215936740E+01  0.48541472228E+02  0.10566000000E+00 0.  1.
         23    2    1    0    0    0  0.32283596507E+01 -0.32518886455E+01 -0.28096168864E+02  0.96622618831E+02  0.92333843628E+02 0.  0.
         13    1    3    3    0    0 -0.44304458225E+02 -0.40089593192E+00 -0.18674575190E+02  0.48081146603E+02  0.10566000000E+00 0. -1.
         22    1    1    0    0    0 -0.32283596507E+01  0.32518886455E+01  0.28096168864E+02  0.28467381169E+02  0.00000000000E+00 0. -1.
</event>
<event>
 5    1  0.1259474E-009  0.9118800E+02  0.7815553E-02  0.1125453E+00
         25   -1    0    0    0    0  0.00000000000E+00  0.00000000000E+00  0.99999998245E-14  0.12509000000E+03  0.12509000000E+03 0.  0.
        -13    1    3    3    0    0  0.26652918471E+02  0.20510466683E+02 -0.17465385138E+02  0.37896017583E+02  0.10566000000E+00 0. -1.
         23    2    1    0    0    0  0.21875822481E+02 -0.18928228536E+02  0.17889804548E+02  0.91077141381E+02  0.84487698102E+02 0.  0.
         13    1    3    3    0    0 -0.47770959900E+01 -0.39438695219E+02  0.35355189686E+02  0.53181123798E+02  0.10566000000E+00 0.  1.
         22    1    1    0    0    0 -0.21875822481E+02  0.18928228536E+02 -0.17889804548E+02  0.34012858619E+02  0.00000000000E+00 0.  1.
</event>
<event>
 5    1  0.1259474E-009  0.9118800E+02  0.7815553E-02  0.1125453E+00
         25   -1    0    0    0    0  0.00000000000E+00  0.00000000000E+00  0.99999998245E-14  0.12509000000E+03  0.12509000000E+03 0.  0.
        -13    1    3    3    0    0  0.32669284776E+02  0.52865692716E+01 -0.36585731475E+01  0.33296040365E+02  0.10566000000E+00 0.  1.
         23    2    1    0    0    0 -0.27781138429E+02 -0.87268691566E+01 -0.58515225844E+01  0.95388312940E+02  0.90646235615E+02 0.  0.
         13    1    3    3    0    0 -0.60450423205E+02 -0.14013438428E+02 -0.21929494370E+01  0.62092272575E+02  0.10566000000E+00 0. -1.
         22    1    1    0    0    0  0.27781138429E+02  0.87268691566E+01  0.58515225844E+01  0.29701687060E+02  0.00000000000E+00 0. -1.
</event>
<event>
 5    1  0.1259474E-009  0.9118800E+02  0.7815553E-02  0.1125453E+00
         25   -1    0    0    0    0  0.00000000000E+00  0.00000000000E+00  0.99999998245E-14  0.12509000000E+03  0.12509000000E+03 0.  0.
        -13    1    3    3    0    0 -0.32548597926E+02  0.44454236829E+02 -0.47369409567E+01  0.55299549479E+02  0.10566000000E+00 0.  1.
         23    2    1    0    0    0 -0.81912876988E+01  0.15529728677E+02 -0.22062428938E+02  0.96893893219E+02  0.92700626241E+02 0.  0.
         13    1    3    3    0    0  0.24357310227E+02 -0.28924508151E+02 -0.17325487981E+02  0.41594343740E+02  0.10566000000E+00 0. -1.
         22    1    1    0    0    0  0.81912876988E+01 -0.15529728677E+02  0.22062428938E+02  0.28196106781E+02  0.00000000000E+00 0.  1.
</event>
<event>
 5    1  0.1259474E-009  0.9118800E+02  0.7815553E-02  0.1125453E+00
         25   -1    0    0    0    0  0.00000000000E+00  0.00000000000E+00  0.99999998245E-14  0.12509000000E+03  0.12509000000E+03 0.  0.
        -13    1    3    3    0    0  0.18279597663E+02 -0.37914976406E+02  0.16896561630E+02  0.45356301498E+02  0.10566000000E+00 0. -1.
         23    2    1    0    0    0 -0.82490015970E+01 -0.15108906285E+02 -0.21662550431E+02  0.97420681837E+02  0.93408768763E+02 0.  0.
         13    1    3    3    0    0 -0.26528599260E+02  0.22806070122E+02 -0.38559112061E+02  0.52064380339E+02  0.10566000000E+00 0.  1.
         22    1    1    0    0    0  0.82490015970E+01  0.15108906285E+02  0.21662550431E+02  0.27669318163E+02  0.00000000000E+00 0.  1.
</event>
<event>
 5    1  0.1259474E-009  0.9118800E+02  0.7815553E-02  0.1125453E+00
         25   -1    0    0    0    0  0.00000000000E+00  0.00000000000E+00  0.99999998245E-14  0.12509000000E+03  0.12509000000E+03 0.  0.
        -13    1    3    3    0    0  0.24681649829E+02 -0.31703398214E+02  0.76056142234E+01  0.40891879736E+02  0.10566000000E+00 0. -1.
         23    2    1    0    0    0  0.18858773009E+02  0.16836090187E+02 -0.15991165755E+02  0.95176380453E+02  0.90353299673E+02 0.  0.
         13    1    3    3    0    0 -0.58228768203E+01  0.48539488401E+02 -0.23596779979E+02  0.54284500717E+02  0.10566000000E+00 0.  1.
         22    1    1    0    0    0 -0.18858773009E+02 -0.16836090187E+02  0.15991165755E+02  0.29913619547E+02  0.00000000000E+00 0.  1.
</event>
<event>
 5    1  0.1259474E-009  0.9118800E+02  0.7815553E-02  0.1125453E+00
         25   -1    0    0    0    0  0.00000000000E+00  0.00000000000E+00  0.99999998245E-14  0.12509000000E+03  0.12509000000E+03 0.  0.
        -13    1    3    3    0    0 -0.31374211182E+02  0.25397366685E+02  0.31674365374E+01  0.40489642874E+02  0.10566000000E+00 0. -1.
         23    2    1    0    0    0 -0.13279289020E+01 -0.70511467045E+01 -0.29026297102E+02  0.95190033638E+02  0.90372199905E+02 0.  0.
         13    1    3    3    0    0  0.30046282280E+02 -0.32448513389E+02 -0.32193733639E+02  0.54700390764E+02  0.10566000000E+00 0.  1.
         22    1    1    0    0    0  0.13279289020E+01  0.70511467045E+01  0.29026297102E+02  0.29899966362E+02  0.00000000000E+00 0.  1.
</event>
<event>
 5    1  0.1259474E-009  0.9118800E+02  0.7815553E-02  0.1125453E+00
         25   -1    0    0    0    0  0.00000000000E+00  0.00000000000E+00  0.99999998245E-14  0.12509000000E+03  0.12509000000E+03 0.  0.
        -13    1    3    3    0    0 -0.13431440708E+02  0.25262242996E+02 -0.55245839706E+02  0.62214937833E+02  0.10566000000E+00 0. -1.
         23    2    1    0    0    0 -0.71377898291E+01  0.15782566730E+02 -0.23817568358E+02  0.95639804436E+02  0.90992627030E+02 0.  0.
         13    1    3    3    0    0  0.62936508793E+01 -0.94796762655E+01  0.31428271348E+02  0.33424866603E+02  0.10566000000E+00 0.  1.
         22    1    1    0    0    0  0.71377898291E+01 -0.15782566730E+02  0.23817568358E+02  0.29450195564E+02  0.00000000000E+00 0. -1.
</event>
<event>
 4    1  0.1259474E-009  0.9118800E+02  0.7815553E-02  0.1125453E+00
         25   -1    0    0    0    0  0.00000000000E+00  0.00000000000E+00  0.99999998245E-14  0.12509000000E+03  0.12509000000E+03 0.  0.
        -13    1    1    0    0    0 -0.12595712229E+02  0.18511359113E+01 -0.60621392404E+02  0.61943870171E+02  0.10566000000E+00 0.  1.
         13    1    1    0    0    0  0.16983303026E+00 -0.38224112210E+01  0.61754945213E+01  0.72655053107E+01  0.10566000000E+00 0. -1.
         22    1    1    0    0    0  0.12425879199E+02  0.19712753098E+01  0.54445897883E+02  0.55880624518E+02  0.00000000000E+00 0.  1.
</event>
<event>
 5    1  0.1259474E-009  0.9118800E+02  0.7815553E-02  0.1125453E+00
         25   -1    0    0    0    0  0.00000000000E+00  0.00000000000E+00  0.99999998245E-14  0.12509000000E+03  0.12509000000E+03 0.  0.
        -13    1    3    3    0    0  0.12451916535E+02  0.14329361270E+02 -0.38840577231E+02  0.43231729361E+02  0.10566000000E+00 0.  1.
         23    2    1    0    0    0  0.13201639617E+02 -0.21587400091E+02  0.43548553528E+01  0.99413865236E+02  0.96040890795E+02 0.  0.
         13    1    3    3    0    0  0.74972308200E+00 -0.35916761361E+02  0.43195432584E+02  0.56182135876E+02  0.10566000000E+00 0. -1.
         22    1    1    0    0    0 -0.13201639617E+02  0.21587400091E+02 -0.43548553528E+01  0.25676134764E+02  0.00000000000E+00 0. -1.
</event>
<event>
 5    1  0.1259474E-009  0.9118800E+02  0.7815553E-02  0.1125453E+00
         25   -1    0    0    0    0  0.00000000000E+00  0.00000000000E+00  0.99999998245E-14  0.12509000000E+03  0.12509000000E+03 0.  0.
        -13    1    3    3    0    0  0.15701902214E+02  0.35680564009E+02  0.89172303576E+01  0.39989755469E+02  0.10566000000E+00 0. -1.
         23    2    1    0    0    0 -0.12455768098E+01  0.39581753183E+01 -0.31054003789E+02  0.93759986199E+02  0.88370613030E+02 0.  0.
         13    1    3    3    0    0 -0.16947479024E+02 -0.31722388691E+02 -0.39971234147E+02  0.53770230730E+02  0.10566000000E+00 0.  1.
         22    1    1    0    0    0  0.12455768098E+01 -0.39581753183E+01  0.31054003789E+02  0.31330013801E+02  0.00000000000E+00 0.  1.
</event>
<event>
 5    1  0.1259474E-009  0.9118800E+02  0.7815553E-02  0.1125453E+00
         25   -1    0    0    0    0  0.00000000000E+00  0.00000000000E+00  0.99999998245E-14  0.12509000000E+03  0.12509000000E+03 0.  0.
        -13    1    3    3    0    0 -0.68710735261E+01  0.35836227948E+02  0.21812720926E+01  0.36554288352E+02  0.10566000000E+00 0.  1.
         23    2    1    0    0    0 -0.16174561089E+02 -0.22067894704E+02 -0.90590034154E+01  0.96268585288E+02  0.91852961669E+02 0.  0.
         13    1    3    3    0    0 -0.93034875628E+01 -0.57904122653E+02 -0.11240275508E+02  0.59714296936E+02  0.10566000000E+00 0. -1.
         22    1    1    0    0    0  0.16174561089E+02  0.22067894704E+02  0.90590034154E+01  0.28821414712E+02  0.00000000000E+00 0. -1.
</event>
<event>
 5    1  0.1259474E-009  0.9118800E+02  0.7815553E-02  0.1125453E+00
         25   -1    0    0    0    0  0.00000000000E+00  0.00000000000E+00  0.99999998245E-14  0.12509000000E+03  0.12509000000E+03 0.  0.
        -13    1    3    3    0    0  0.33355813090E+02 -0.17678238439E+02  0.22835574837E+01  0.37820049974E+02  0.10566000000E+00 0. -1.
         23    2    1    0    0    0 -0.11266000822E+02  0.15595132215E+02  0.21061795513E+02  0.96564044213E+02  0.92254455075E+02 0.  0.
         13    1    3    3    0    0 -0.44621813913E+02  0.33273370654E+02  0.18778238030E+02  0.58743994238E+02  0.10566000000E+00 0.  1.
         22    1    1    0    0    0  0.11266000822E+02 -0.15595132215E+02 -0.21061795513E+02  0.28525955787E+02  0.00000000000E+00 0.  1.
</event>
<event>
 5    1  0.1259474E-009  0.9118800E+02  0.7815553E-02  0.1125453E+00
         25   -1    0    0    0    0  0.00000000000E+00  0.00000000000E+00  0.99999998245E-14  0.12509000000E+03  0.12509000000E+03 0.  0.
        -13    1    3    3    0    0  0.68345861905E+01  0.26789356369E+02  0.37001316401E+02  0.46189714900E+02  0.10566000000E+00 0. -1.
         23    2    1    0    0    0 -0.22352544224E+02  0.19657468795E+02 -0.18056265868E+01  0.95268655294E+02  0.90480959773E+02 0.  0.
         13    1    3    3    0    0 -0.29187130414E+02 -0.71318875743E+01 -0.38806942988E+02  0.49078940395E+02  0.10566000000E+00 0.  1.
         22    1    1    0    0    0  0.22352544224E+02 -0.19657468795E+02  0.18056265868E+01  0.29821344706E+02  0.00000000000E+00 0.  1.
</event>
<event>
 5    1  0.1259474E-009  0.9118800E+02  0.7815553E-02  0.1125453E+00
         25   -1    0    0    0    0  0.00000000000E+00  0.00000000000E+00  0.99999998245E-14  0.12509000000E+03  0.12509000000E+03 0.  0.
        -13    1    3    3    0    0  0.37651315590E+02  0.36871882772E+01  0.43028267349E+02  0.57294501291E+02  0.10566000000E+00 0. -1.
         23    2    1    0    0    0  0.24297041262E+02  0.12519547206E+02  0.67691144947E+01  0.96931410061E+02  0.92751237561E+02 0.  0.
         13    1    3    3    0    0 -0.13354274328E+02  0.88323589286E+01 -0.36259152855E+02  0.39636908770E+02  0.10566000000E+00 0.  1.
         22    1    1    0    0    0 -0.24297041262E+02 -0.12519547206E+02 -0.67691144947E+01  0.28158589939E+02  0.00000000000E+00 0. -1.
</event>
<event>
 5    1  0.1259474E-009  0.9118800E+02  0.7815553E-02  0.1125453E+00
         25   -1    0    0    0    0  0.00000000000E+00  0.00000000000E+00  0.99999998245E-14  0.12509000000E+03  0.12509000000E+03 0.  0.
        -13    1    3    3    0    0  0.28086825272E+02  0.55835633262E+02 -0.22849610832E+01  0.62543743946E+02  0.10566000000E+00 0.  1.
         23    2    1    0    0    0  0.13191902236E+02  0.26453018175E+02 -0.82487180283E+00  0.95518580206E+02  0.90825823948E+02 0.  0.
         13    1    3    3    0    0 -0.14894923036E+02 -0.29382615087E+02  0.14600892804E+01  0.32974836260E+02  0.10566000000E+00 0. -1.
         22    1    1    0    0    0 -0.13191902236E+02 -0.26453018175E+02  0.82487180283E+00  0.29571419794E+02  0.00000000000E+00 0.  1.
</event>
<event>
 5    1  0.1259474E-009  0.9118800E+02  0.7815553E-02  0.1125453E+00
         25   -1    0    0    0    0  0.00000000000E+00  0.00000000000E+00  0.99999998245E-14  0.12509000000E+03  0.12509000000E+03 0.  0.
        -13    1    3    3    0    0  0.25439205080E+02 -0.39520928722E+00 -0.23860450237E+02  0.34880389835E+02  0.10566000000E+00 0.  1.
         23    2    1    0    0    0 -0.18223616014E+02 -0.13365928812E+02  0.17578549309E+02  0.96458660014E+02  0.92111451309E+02 0.  0.
         13    1    3    3    0    0 -0.43662821093E+02 -0.12970719525E+02  0.41438999546E+02  0.61578270179E+02  0.10566000000E+00 0. -1.
         22    1    1    0    0    0  0.18223616014E+02  0.13365928812E+02 -0.17578549309E+02  0.28631339986E+02  0.00000000000E+00 0. -1.
</event>
<event>
 5    1  0.1259474E-009  0.9118800E+02  0.7815553E-02  0.1125453E+00
         25   -1    0    0    0    0  0.00000000000E+00  0.00000000000E+00  0.99999998245E-14  0.12509000000E+03  0.12509000000E+03 0.  0.
        -13    1    3    3    0    0  0.24388936522E+02  0.44476880966E+02  0.27476693258E+02  0.57688759751E+02  0.10566000000E+00 0. -1.
         23    2    1    0    0    0  0.10711377741E+02  0.27777284733E+02 -0.31442066373E+01  0.95153447165E+02  0.90321544007E+02 0.  0.
         13    1    3    3    0    0 -0.13677558782E+02 -0.16699596233E+02 -0.30620899895E+02  0.37464687414E+02  0.10566000000E+00 0.  1.
         22    1    1    0    0    0 -0.10711377741E+02 -0.27777284733E+02  0.31442066373E+01  0.29936552835E+02  0.00000000000E+00 0. -1.
</event>
<event>
 5    1  0.1259474E-009  0.9118800E+02  0.7815553E-02  0.1125453E+00
         25   -1    0    0    0    0  0.00000000000E+00  0.00000000000E+00  0.99999998245E-14  0.12509000000E+03  0.12509000000E+03 0.  0.
        -13    1    3    3    0    0 -0.16023285928E+02 -0.50726250108E+02  0.24009823372E+02  0.58364209275E+02  0.10566000000E+00 0. -1.
         23    2    1    0    0    0 -0.12485585508E+02 -0.13074257320E+02  0.22519775308E+02  0.96211524800E+02  0.91775220918E+02 0.  0.
         13    1    3    3    0    0  0.35377004204E+01  0.37651992788E+02 -0.14900480634E+01  0.37847315525E+02  0.10566000000E+00 0.  1.
         22    1    1    0    0    0  0.12485585508E+02  0.13074257320E+02 -0.22519775308E+02  0.28878475200E+02  0.00000000000E+00 0. -1.
</event>
<event>
 5    1  0.1259474E-009  0.9118800E+02  0.7815553E-02  0.1125453E+00
         25   -1    0    0    0    0  0.00000000000E+00  0.00000000000E+00  0.99999998245E-14  0.12509000000E+03  0.12509000000E+03 0.  0.
        -13    1    3    3    0    0 -0.21507480663E+02  0.36325886728E+02 -0.12017574309E+02  0.43892767369E+02  0.10566000000E+00 0.  1.
         23    2    1    0    0    0 -0.25683063281E+02 -0.12212196158E+02 -0.15439964595E+02  0.92730303135E+02  0.86900858099E+02 0.  0.
         13    1    3    3    0    0 -0.41755826176E+01 -0.48538082885E+02 -0.34223902860E+01  0.48837535766E+02  0.10566000000E+00 0. -1.
         22    1    1    0    0    0  0.25683063281E+02  0.12212196158E+02  0.15439964595E+02  0.32359696865E+02  0.00000000000E+00 0. -1.
</event>
<event>
 5    1  0.1259474E-009  0.9118800E+02  0.7815553E-02  0.1125453E+00
         25   -1    0    0    0    0  0.00000000000E+00  0.00000000000E+00  0.99999998245E-14  0.12509000000E+03  0.12509000000E+03 0.  0.
        -13    1    3    3    0    0 -0.16923369652E+02  0.39489324376E+02 -0.38947903023E+02  0.57989287752E+02  0.10566000000E+00 0. -1.
         23    2    1    0    0    0  0.65983015424E+01  0.13339863899E+02 -0.25341654008E+02  0.95701414121E+02  0.91077284132E+02 0.  0.
         13    1    3    3    0    0  0.23521671195E+02 -0.26149460477E+02  0.13606249015E+02  0.37712126370E+02  0.10566000000E+00 0.  1.
         22    1    1    0    0    0 -0.65983015424E+01 -0.13339863899E+02  0.25341654008E+02  0.29388585879E+02  0.00000000000E+00 0. -1.
</event>
<event>
 5    1  0.1259474E-009  0.9118800E+02  0.7815553E-02  0.1125453E+00
         25   -1    0    0    0    0  0.00000000000E+00  0.00000000000E+00  0.99999998245E-14  0.12509000000E+03  0.12509000000E+03 0.  0.
        -13    1    3    3    0    0  0.12291874709E+02 -0.48416044422E+02  0.10762695420E+02  0.51098437531E+02  0.10566000000E+00 0.  1.
         23    2    1    0    0    0  0.13759366568E+02 -0.64839814649E+01  0.25355926606E+02  0.95521685912E+02  0.90830101186E+02 0.  0.
         13    1    3    3    0    0  0.14674918588E+01  0.41932062957E+02  0.14593231186E+02  0.44423248381E+02  0.10566000000E+00 0. -1.
         22    1    1    0    0    0 -0.13759366568E+02  0.64839814649E+01 -0.25355926606E+02  0.29568314088E+02  0.00000000000E+00 0. -1.
</event>
<event>
 5    1  0.1259474E-009  0.9118800E+02  0.7815553E-02  0.1125453E+00
         25   -1    0    0    0    0  0.00000000000E+00  0.00000000000E+00  0.99999998245E-14  0.12509000000E+03  0.12509000000E+03 0.  0.
        -13    1    3    3    0    0 -0.15600271825E+02 -0.37392731983E+02 -0.46762107962E+02  0.61873183135E+02  0.10566000000E+00 0. -1.
         23    2    1    0    0    0 -0.13258137831E+02 -0.18004668185E+02 -0.19414508061E+02  0.95478019005E+02  0.90769943785E+02 0.  0.
         13    1    3    3    0    0  0.23421339931E+01  0.19388063798E+02  0.27347599901E+02  0.33604835870E+02  0.10566000000E+00 0.  1.
         22    1    1    0    0    0  0.13258137831E+02  0.18004668185E+02  0.19414508061E+02  0.29611980995E+02  0.00000000000E+00 0. -1.
</event>
<event>
 5    1  0.1259474E-009  0.9118800E+02  0.7815553E-02  0.1125453E+00
         25   -1    0    0    0    0  0.00000000000E+00  0.00000000000E+00  0.99999998245E-14  0.12509000000E+03  0.12509000000E+03 0.  0.
        -13    1    3    3    0    0  0.90738991305E+01  0.25182834242E+02  0.53200595516E+02  0.59555229100E+02  0.10566000000E+00 0. -1.
         23    2    1    0    0    0  0.16324369632E+02  0.19145636068E+02  0.23710822436E+02  0.90517705820E+02  0.83655313889E+02 0.  0.
         13    1    3    3    0    0  0.72504705016E+01 -0.60371981740E+01 -0.29489773080E+02  0.30962476720E+02  0.10566000000E+00 0.  1.
         22    1    1    0    0    0 -0.16324369632E+02 -0.19145636068E+02 -0.23710822436E+02  0.34572294180E+02  0.00000000000E+00 0. -1.
</event>
<event>
 5    1  0.1259474E-009  0.9118800E+02  0.7815553E-02  0.1125453E+00
         25   -1    0    0    0    0  0.00000000000E+00  0.00000000000E+00  0.99999998245E-14  0.12509000000E+03  0.12509000000E+03 0.  0.
        -13    1    3    3    0    0  0.29355806093E+02  0.19063043069E+02  0.80764812316E+01  0.35922189180E+02  0.10566000000E+00 0.  1.
         23    2    1    0    0    0 -0.27465735387E+02  0.62007844645E+00  0.10419093921E+02  0.95707885785E+02  0.91086172197E+02 0.  0.
         13    1    3    3    0    0 -0.56821541480E+02 -0.18442964622E+02  0.23426126897E+01  0.59785696604E+02  0.10566000000E+00 0. -1.
         22    1    1    0    0    0  0.27465735387E+02 -0.62007844645E+00 -0.10419093921E+02  0.29382114215E+02  0.00000000000E+00 0. -1.
</event>
<event>
 5    1  0.1259474E-009  0.9118800E+02  0.7815553E-02  0.1125453E+00
         25   -1    0    0    0    0  0.00000000000E+00  0.00000000000E+00  0.99999998245E-14  0.12509000000E+03  0.12509000000E+03 0.  0.
        -13    1    3    3    0    0  0.87808494769E+01 -0.49641230523E+01 -0.60118650689E+02  0.60959077748E+02  0.10566000000E+00 0. -1.
         23    2    1    0    0    0 -0.29976668557E+01 -0.92816640966E+01 -0.27914100599E+02  0.95520889306E+02  0.90829004104E+02 0.  0.
         13    1    3    3    0    0 -0.11778516333E+02 -0.43175410443E+01  0.32204550089E+02  0.34561811558E+02  0.10566000000E+00 0.  1.
         22    1    1    0    0    0  0.29976668557E+01  0.92816640966E+01  0.27914100599E+02  0.29569110694E+02  0.00000000000E+00 0. -1.
</event>
<event>
 5    1  0.1259474E-009  0.9118800E+02  0.7815553E-02  0.1125453E+00
         25   -1    0    0    0    0  0.00000000000E+00  0.00000000000E+00  0.99999998245E-14  0.12509000000E+03  0.12509000000E+03 0.  0.
        -13    1    3    3    0    0 -0.19703019649E+02 -0.15952195199E+02 -0.26412499129E+02  0.36610282562E+02  0.10566000000E+00 0.  1.
         23    2    1    0    0    0 -0.81234531015E+01  0.75439557399E+01  0.26891546036E+02  0.96002940907E+02  0.91490478500E+02 0.  0.
         13    1    3    3    0    0  0.11579566548E+02  0.23496150939E+02  0.53304045165E+02  0.59392658345E+02  0.10566000000E+00 0. -1.
         22    1    1    0    0    0  0.81234531015E+01 -0.75439557399E+01 -0.26891546036E+02  0.29087059093E+02  0.00000000000E+00 0. -1.
</event>
<event>
 5    1  0.1259474E-009  0.9118800E+02  0.7815553E-02  0.1125453E+00
         25   -1    0    0    0    0  0.00000000000E+00  0.00000000000E+00  0.99999998245E-14  0.12509000000E+03  0.12509000000E+03 0.  0.
        -13    1    3    3    0    0 -0.32794110544E+02 -0.41662945333E+02 -0.74769553722E+01  0.53545968344E+02  0.10566000000E+00 0. -1.
         23    2    1    0    0    0 -0.24127720083E+01 -0.33096481937E+02 -0.18641291765E+02  0.87028256161E+02  0.78263791285E+02 0.  0.
         13    1    3    3    0    0  0.30381338536E+02  0.85664633958E+01 -0.11164336393E+02  0.33482287817E+02  0.10566000000E+00 0.  1.
         22    1    1    0    0    0  0.24127720083E+01  0.33096481937E+02  0.18641291765E+02  0.38061743839E+02  0.00000000000E+00 0. -1.
</event>
<event>
 5    1  0.1259474E-009  0.9118800E+02  0.7815553E-02  0.1125453E+00
         25   -1    0    0    0    0  0.00000000000E+00  0.00000000000E+00  0.99999998245E-14  0.12509000000E+03  0.12509000000E+03 0.  0.
        -13    1    3    3    0    0 -0.58511796699E+02  0.90030652922E+01  0.34414385086E+01  0.59300423275E+02  0.10566000000E+00 0. -1.
         23    2    1    0    0    0 -0.26779446911E+02  0.13306567475E+02  0.12650002648E+02  0.92621152133E+02  0.86743597692E+02 0.  0.
         13    1    3    3    0    0  0.31732349788E+02  0.43035021823E+01  0.92085641397E+01  0.33320728858E+02  0.10566000000E+00 0.  1.
         22    1    1    0    0    0  0.26779446911E+02 -0.13306567475E+02 -0.12650002648E+02  0.32468847867E+02  0.00000000000E+00 0. -1.
</event>
<event>
 5    1  0.1259474E-009  0.9118800E+02  0.7815553E-02  0.1125453E+00
         25   -1    0    0    0    0  0.00000000000E+00  0.00000000000E+00  0.99999998245E-14  0.12509000000E+03  0.12509000000E+03 0.  0.
        -13    1    3    3    0    0  0.84908877477E+01 -0.48409195914E+02  0.13169127001E+02  0.50882044906E+02  0.10566000000E+00 0.  1.
         23    2    1    0    0    0  0.27406883452E+02 -0.12457921713E+02 -0.34771638106E+01  0.94784427210E+02  0.89809019032E+02 0.  0.
         13    1    3    3    0    0  0.18915995704E+02  0.35951274201E+02 -0.16646290812E+02  0.43902382304E+02  0.10566000000E+00 0. -1.
         22    1    1    0    0    0 -0.27406883452E+02  0.12457921713E+02  0.34771638106E+01  0.30305572790E+02  0.00000000000E+00 0.  1.
</event>
<event>
 4    1  0.1259474E-009  0.9118800E+02  0.7815553E-02  0.1125453E+00
         25   -1    0    0    0    0  0.00000000000E+00  0.00000000000E+00  0.99999998245E-14  0.12509000000E+03  0.12509000000E+03 0.  0.
        -13    1    1    0    0    0  0.38448598824E+01  0.23788165014E+02 -0.21722257498E+02  0.32442678328E+02  0.10566000000E+00 0. -1.
         13    1    1    0    0    0 -0.38812813087E+02  0.11298900966E+02  0.75470675704E+01  0.41122609544E+02  0.10566000000E+00 0.  1.
         22    1    1    0    0    0  0.34967953205E+02 -0.35087065980E+02  0.14175189928E+02  0.51524712128E+02  0.00000000000E+00 0. -1.
</event>
<event>
 5    1  0.1259474E-009  0.9118800E+02  0.7815553E-02  0.1125453E+00
         25   -1    0    0    0    0  0.00000000000E+00  0.00000000000E+00  0.99999998245E-14  0.12509000000E+03  0.12509000000E+03 0.  0.
        -13    1    3    3    0    0  0.48258407702E+00  0.32695611126E+02 -0.20568406804E+02  0.38630381784E+02  0.10566000000E+00 0.  1.
         23    2    1    0    0    0  0.14344701154E+02 -0.22481575939E+02 -0.25853781407E+01  0.98296793995E+02  0.94574752559E+02 0.  0.
         13    1    3    3    0    0  0.13862117077E+02 -0.55177187065E+02  0.17983028663E+02  0.59666412211E+02  0.10566000000E+00 0. -1.
         22    1    1    0    0    0 -0.14344701154E+02  0.22481575939E+02  0.25853781407E+01  0.26793206005E+02  0.00000000000E+00 0. -1.
</event>
<event>
 5    1  0.1259474E-009  0.9118800E+02  0.7815553E-02  0.1125453E+00
         25   -1    0    0    0    0  0.00000000000E+00  0.00000000000E+00  0.99999998245E-14  0.12509000000E+03  0.12509000000E+03 0.  0.
        -13    1    3    3    0    0 -0.22973742480E+02 -0.21305447427E+02 -0.39162125527E+02  0.50153745358E+02  0.10566000000E+00 0.  1.
         23    2    1    0    0    0 -0.16556906703E+02 -0.24653336490E+02  0.50604611108E+01  0.94964820725E+02  0.90059928653E+02 0.  0.
         13    1    3    3    0    0  0.64168357765E+01 -0.33478890634E+01  0.44222586638E+02  0.44811075367E+02  0.10566000000E+00 0. -1.
         22    1    1    0    0    0  0.16556906703E+02  0.24653336490E+02 -0.50604611108E+01  0.30125179275E+02  0.00000000000E+00 0. -1.
</event>
<event>
 5    1  0.1259474E-009  0.9118800E+02  0.7815553E-02  0.1125453E+00
         25   -1    0    0    0    0  0.00000000000E+00  0.00000000000E+00  0.99999998245E-14  0.12509000000E+03  0.12509000000E+03 0.  0.
        -13    1    3    3    0    0 -0.18354971653E+02  0.26566692775E+02 -0.88062375138E+01  0.33470212616E+02  0.10566000000E+00 0. -1.
         23    2    1    0    0    0  0.24524207594E+02 -0.16993676568E+02  0.19085760943E+00  0.95252804622E+02  0.90459043552E+02 0.  0.
         13    1    3    3    0    0  0.42879179247E+02 -0.43560369343E+02  0.89970951232E+01  0.61782592006E+02  0.10566000000E+00 0.  1.
         22    1    1    0    0    0 -0.24524207594E+02  0.16993676568E+02 -0.19085760943E+00  0.29837195378E+02  0.00000000000E+00 0.  1.
</event>
<event>
 5    1  0.1259474E-009  0.9118800E+02  0.7815553E-02  0.1125453E+00
         25   -1    0    0    0    0  0.00000000000E+00  0.00000000000E+00  0.99999998245E-14  0.12509000000E+03  0.12509000000E+03 0.  0.
        -13    1    3    3    0    0 -0.51586029126E+02 -0.27664783833E+01 -0.30366516804E+02  0.59924188025E+02  0.10566000000E+00 0.  1.
         23    2    1    0    0    0 -0.22973152282E+02 -0.13901794065E+02 -0.16110534017E+02  0.93775867243E+02  0.88393090040E+02 0.  0.
         13    1    3    3    0    0  0.28612876844E+02 -0.11135315681E+02  0.14255982787E+02  0.33851679218E+02  0.10566000000E+00 0. -1.
         22    1    1    0    0    0  0.22973152282E+02  0.13901794065E+02  0.16110534017E+02  0.31314132757E+02  0.00000000000E+00 0.  1.
</event>
<event>
 5    1  0.1259474E-009  0.9118800E+02  0.7815553E-02  0.1125453E+00
         25   -1    0    0    0    0  0.00000000000E+00  0.00000000000E+00  0.99999998245E-14  0.12509000000E+03  0.12509000000E+03 0.  0.
        -13    1    3    3    0    0  0.54015146546E+01 -0.10488382913E+02  0.32364086135E+02  0.34447463942E+02  0.10566000000E+00 0. -1.
         23    2    1    0    0    0  0.12979343244E+02 -0.10741717546E+02 -0.26439992305E+02  0.93738428429E+02  0.88340092395E+02 0.  0.
         13    1    3    3    0    0  0.75778285898E+01 -0.25333463372E+00 -0.58804078440E+02  0.59290964487E+02  0.10566000000E+00 0.  1.
         22    1    1    0    0    0 -0.12979343244E+02  0.10741717546E+02  0.26439992305E+02  0.31351571571E+02  0.00000000000E+00 0.  1.
</event>
<event>
 5    1  0.1259474E-009  0.9118800E+02  0.7815553E-02  0.1125453E+00
         25   -1    0    0    0    0  0.00000000000E+00  0.00000000000E+00  0.99999998245E-14  0.12509000000E+03  0.12509000000E+03 0.  0.
        -13    1    3    3    0    0 -0.26060157521E+02  0.89525229649E+01  0.28698892061E+02  0.39785890049E+02  0.10566000000E+00 0. -1.
         23    2    1    0    0    0 -0.13480360704E+02 -0.15570489384E+02 -0.20406373671E+02  0.96097236235E+02  0.91619312709E+02 0.  0.
         13    1    3    3    0    0  0.12579796817E+02 -0.24523012349E+02 -0.49105265731E+02  0.56311346185E+02  0.10566000000E+00 0.  1.
         22    1    1    0    0    0  0.13480360704E+02  0.15570489384E+02  0.20406373671E+02  0.28992763765E+02  0.00000000000E+00 0.  1.
</event>
<event>
 5    1  0.1259474E-009  0.9118800E+02  0.7815553E-02  0.1125453E+00
         25   -1    0    0    0    0  0.00000000000E+00  0.00000000000E+00  0.99999998245E-14  0.12509000000E+03  0.12509000000E+03 0.  0.
        -13    1    3    3    0    0  0.95951720629E+01 -0.13018320477E+01 -0.33512449952E+02  0.34883485482E+02  0.10566000000E+00 0. -1.
         23    2    1    0    0    0  0.89859204471E+00  0.70166141209E+01  0.27306690583E+02  0.96881921512E+02  0.92684470241E+02 0.  0.
         13    1    3    3    0    0 -0.86965800182E+01  0.83184461685E+01  0.60819140535E+02  0.61998436030E+02  0.10566000000E+00 0.  1.
         22    1    1    0    0    0 -0.89859204471E+00 -0.70166141209E+01 -0.27306690583E+02  0.28208078488E+02  0.00000000000E+00 0.  1.
</event>
<event>
 5    1  0.1259474E-009  0.9118800E+02  0.7815553E-02  0.1125453E+00
         25   -1    0    0    0    0  0.00000000000E+00  0.00000000000E+00  0.99999998245E-14  0.12509000000E+03  0.12509000000E+03 0.  0.
        -13    1    3    3    0    0 -0.30292830674E+02 -0.31633882303E+02 -0.67457008234E+00  0.43804386866E+02  0.10566000000E+00 0. -1.
         23    2    1    0    0    0  0.18207786954E+02 -0.24515717476E+02 -0.83725984665E+01  0.93425440723E+02  0.87895782948E+02 0.  0.
         13    1    3    3    0    0  0.48500617628E+02  0.71181648266E+01 -0.76980283842E+01  0.49621053857E+02  0.10566000000E+00 0.  1.
         22    1    1    0    0    0 -0.18207786954E+02  0.24515717476E+02  0.83725984665E+01  0.31664559277E+02  0.00000000000E+00 0.  1.
</event>
<event>
 5    1  0.1259474E-009  0.9118800E+02  0.7815553E-02  0.1125453E+00
         25   -1    0    0    0    0  0.00000000000E+00  0.00000000000E+00  0.99999998245E-14  0.12509000000E+03  0.12509000000E+03 0.  0.
        -13    1    3    3    0    0  0.47084476490E+01  0.34791051560E+02 -0.44976612081E+02  0.57056932499E+02  0.10566000000E+00 0. -1.
         23    2    1    0    0    0 -0.57621919369E+01  0.27293762031E+02 -0.82134261152E+01  0.96010579953E+02  0.91500922360E+02 0.  0.
         13    1    3    3    0    0 -0.10470639586E+02 -0.74972895287E+01  0.36763185965E+02  0.38953647454E+02  0.10566000000E+00 0.  1.
         22    1    1    0    0    0  0.57621919369E+01 -0.27293762031E+02  0.82134261152E+01  0.29079420047E+02  0.00000000000E+00 0. -1.
</event>
<event>
 5    1  0.1259474E-009  0.9118800E+02  0.7815553E-02  0.1125453E+00
         25   -1    0    0    0    0  0.00000000000E+00  0.00000000000E+00  0.99999998245E-14  0.12509000000E+03  0.12509000000E+03 0.  0.
        -13    1    3    3    0    0 -0.35345948651E+02 -0.32198411079E+02 -0.29287344038E+02  0.56069897868E+02  0.10566000000E+00 0.  1.
         23    2    1    0    0    0 -0.21798717026E+02 -0.17752688698E+02  0.58226678223E+01  0.96380324270E+02  0.92005007613E+02 0.  0.
         13    1    3    3    0    0  0.13547231625E+02  0.14445722381E+02  0.35110011860E+02  0.40310426402E+02  0.10566000000E+00 0. -1.
         22    1    1    0    0    0  0.21798717026E+02  0.17752688698E+02 -0.58226678223E+01  0.28709675730E+02  0.00000000000E+00 0.  1.
</event>
<event>
 5    1  0.1259474E-009  0.9118800E+02  0.7815553E-02  0.1125453E+00
         25   -1    0    0    0    0  0.00000000000E+00  0.00000000000E+00  0.99999998245E-14  0.12509000000E+03  0.12509000000E+03 0.  0.
        -13    1    3    3    0    0  0.23117066302E+02 -0.24744491640E+01  0.32246219799E+02  0.39753635160E+02  0.10566000000E+00 0. -1.
         23    2    1    0    0    0  0.87264558243E+01  0.22899969964E+02 -0.15778250586E+02  0.95943596326E+02  0.91409303842E+02 0.  0.
         13    1    3    3    0    0 -0.14390610477E+02  0.25374419128E+02 -0.48024470385E+02  0.56189961166E+02  0.10566000000E+00 0.  1.
         22    1    1    0    0    0 -0.87264558243E+01 -0.22899969964E+02  0.15778250586E+02  0.29146403674E+02  0.00000000000E+00 0.  1.
</event>
<event>
 5    1  0.1259474E-009  0.9118800E+02  0.7815553E-02  0.1125453E+00
         25   -1    0    0    0    0  0.00000000000E+00  0.00000000000E+00  0.99999998245E-14  0.12509000000E+03  0.12509000000E+03 0.  0.
        -13    1    3    3    0    0  0.26779930194E+02  0.25440386421E+02 -0.73974473967E+01  0.37671093885E+02  0.10566000000E+00 0. -1.
         23    2    1    0    0    0  0.12301028814E+02 -0.27682170755E+02  0.56958569130E+01  0.94266945746E+02  0.89085332051E+02 0.  0.
         13    1    3    3    0    0 -0.14478901380E+02 -0.53122557176E+02  0.13093304310E+02  0.56595851861E+02  0.10566000000E+00 0.  1.
         22    1    1    0    0    0 -0.12301028814E+02  0.27682170755E+02 -0.56958569130E+01  0.30823054254E+02  0.00000000000E+00 0.  1.
</event>
<event>
 5    1  0.1259474E-009  0.9118800E+02  0.7815553E-02  0.1125453E+00
         25   -1    0    0    0    0  0.00000000000E+00  0.00000000000E+00  0.99999998245E-14  0.12509000000E+03  0.12509000000E+03 0.  0.
        -13    1    3    3    0    0 -0.40344480089E+02 -0.70756608647E+01  0.81324408077E+01  0.41759906703E+02  0.10566000000E+00 0. -1.
         23    2    1    0    0    0  0.92446959017E+01 -0.14117868819E+02  0.25275041445E+02  0.94699107575E+02  0.89690103318E+02 0.  0.
         13    1    3    3    0    0  0.49589175991E+02 -0.70422079548E+01  0.17142600638E+02  0.52939200872E+02  0.10566000000E+00 0.  1.
         22    1    1    0    0    0 -0.92446959017E+01  0.14117868819E+02 -0.25275041445E+02  0.30390892425E+02  0.00000000000E+00 0.  1.
</event>
<event>
 5    1  0.1259474E-009  0.9118800E+02  0.7815553E-02  0.1125453E+00
         25   -1    0    0    0    0  0.00000000000E+00  0.00000000000E+00  0.99999998245E-14  0.12509000000E+03  0.12509000000E+03 0.  0.
        -13    1    3    3    0    0 -0.33720542851E+02 -0.33163657035E+02  0.28128964680E+02  0.55028655954E+02  0.10566000000E+00 0. -1.
         23    2    1    0    0    0 -0.64308336001E+01 -0.31209323996E+02  0.15280875922E+01  0.93188392254E+02  0.87557774493E+02 0.  0.
         13    1    3    3    0    0  0.27289709251E+02  0.19543330388E+01 -0.26600877088E+02  0.38159736301E+02  0.10566000000E+00 0.  1.
         22    1    1    0    0    0  0.64308336001E+01  0.31209323996E+02 -0.15280875922E+01  0.31901607746E+02  0.00000000000E+00 0.  1.
</event>
<event>
 5    1  0.1259474E-009  0.9118800E+02  0.7815553E-02  0.1125453E+00
         25   -1    0    0    0    0  0.00000000000E+00  0.00000000000E+00  0.99999998245E-14  0.12509000000E+03  0.12509000000E+03 0.  0.
        -13    1    3    3    0    0  0.29959797264E+02  0.23197012910E+02 -0.40525765153E+02  0.55480083501E+02  0.10566000000E+00 0.  1.
         23    2    1    0    0    0  0.10996785241E+02 -0.95007424329E+01 -0.24644762817E+02  0.96479552140E+02  0.92139819049E+02 0.  0.
         13    1    3    3    0    0 -0.18963012023E+02 -0.32697755342E+02  0.15881002336E+02  0.40999468639E+02  0.10566000000E+00 0. -1.
         22    1    1    0    0    0 -0.10996785241E+02  0.95007424329E+01  0.24644762817E+02  0.28610447860E+02  0.00000000000E+00 0.  1.
</event>
<event>
 5    1  0.1259474E-009  0.9118800E+02  0.7815553E-02  0.1125453E+00
         25   -1    0    0    0    0  0.00000000000E+00  0.00000000000E+00  0.99999998245E-14  0.12509000000E+03  0.12509000000E+03 0.  0.
        -13    1    3    3    0    0  0.25842739644E+02  0.24256748161E+00  0.27133961845E+02  0.37472244138E+02  0.10566000000E+00 0. -1.
         23    2    1    0    0    0 -0.27965748989E+02 -0.64770366531E+01  0.13397042383E+02  0.93411681469E+02  0.87876199110E+02 0.  0.
         13    1    3    3    0    0 -0.53808488633E+02 -0.67196041347E+01 -0.13736919461E+02  0.55939437332E+02  0.10566000000E+00 0.  1.
         22    1    1    0    0    0  0.27965748989E+02  0.64770366531E+01 -0.13397042383E+02  0.31678318531E+02  0.00000000000E+00 0.  1.
</event>
<event>
 5    1  0.1259474E-009  0.9118800E+02  0.7815553E-02  0.1125453E+00
         25   -1    0    0    0    0  0.00000000000E+00  0.00000000000E+00  0.99999998245E-14  0.12509000000E+03  0.12509000000E+03 0.  0.
        -13    1    3    3    0    0  0.60159907226E+02  0.92744494677E+01 -0.12780256259E+02  0.62197877491E+02  0.10566000000E+00 0. -1.
         23    2    1    0    0    0  0.28382847389E+02  0.89622584611E+01 -0.72694114943E+01  0.94450932682E+02  0.89343305505E+02 0.  0.
         13    1    3    3    0    0 -0.31777059837E+02 -0.31219100658E+00  0.55108447643E+01  0.32253055191E+02  0.10566000000E+00 0.  1.
         22    1    1    0    0    0 -0.28382847389E+02 -0.89622584611E+01  0.72694114943E+01  0.30639067318E+02  0.00000000000E+00 0. -1.
</event>
<event>
 5    1  0.1259474E-009  0.9118800E+02  0.7815553E-02  0.1125453E+00
         25   -1    0    0    0    0  0.00000000000E+00  0.00000000000E+00  0.99999998245E-14  0.12509000000E+03  0.12509000000E+03 0.  0.
        -13    1    3    3    0    0  0.14631617819E+02  0.33674689960E+02 -0.41539735742E+02  0.55440326419E+02  0.10566000000E+00 0.  1.
         23    2    1    0    0    0 -0.25526819601E+01  0.26838538787E+02 -0.32852552270E+01  0.97930908496E+02  0.94089566837E+02 0.  0.
         13    1    3    3    0    0 -0.17184299779E+02 -0.68361511725E+01  0.38254480515E+02  0.42490582077E+02  0.10566000000E+00 0. -1.
         22    1    1    0    0    0  0.25526819601E+01 -0.26838538787E+02  0.32852552270E+01  0.27159091504E+02  0.00000000000E+00 0.  1.
</event>
<event>
 5    1  0.1259474E-009  0.9118800E+02  0.7815553E-02  0.1125453E+00
         25   -1    0    0    0    0  0.00000000000E+00  0.00000000000E+00  0.99999998245E-14  0.12509000000E+03  0.12509000000E+03 0.  0.
        -13    1    3    3    0    0  0.37158333485E+01  0.44346947301E+02  0.16768834591E+02  0.47556956694E+02  0.10566000000E+00 0.  1.
         23    2    1    0    0    0 -0.17214367287E+02  0.15838631233E+02 -0.16777732969E+02  0.96303041078E+02  0.91899873323E+02 0.  0.
         13    1    3    3    0    0 -0.20930200636E+02 -0.28508316068E+02 -0.33546567560E+02  0.48746084384E+02  0.10566000000E+00 0. -1.
         22    1    1    0    0    0  0.17214367287E+02 -0.15838631233E+02  0.16777732969E+02  0.28786958922E+02  0.00000000000E+00 0.  1.
</event>
<event>
 5    1  0.1259474E-009  0.9118800E+02  0.7815553E-02  0.1125453E+00
         25   -1    0    0    0    0  0.00000000000E+00  0.00000000000E+00  0.99999998245E-14  0.12509000000E+03  0.12509000000E+03 0.  0.
        -13    1    3    3    0    0  0.51007871761E+02 -0.33451638009E+02  0.24149405474E+01  0.61046360817E+02  0.10566000000E+00 0. -1.
         23    2    1    0    0    0  0.21058092380E+02 -0.25226348748E+02 -0.34542574879E+00  0.92227692643E+02  0.86174335190E+02 0.  0.
         13    1    3    3    0    0 -0.29949779381E+02  0.82252892608E+01 -0.27603662962E+01  0.31181331827E+02  0.10566000000E+00 0.  1.
         22    1    1    0    0    0 -0.21058092380E+02  0.25226348748E+02  0.34542574879E+00  0.32862307357E+02  0.00000000000E+00 0. -1.
</event>
<event>
 5    1  0.1259474E-009  0.9118800E+02  0.7815553E-02  0.1125453E+00
         25   -1    0    0    0    0  0.00000000000E+00  0.00000000000E+00  0.99999998245E-14  0.12509000000E+03  0.12509000000E+03 0.  0.
        -13    1    3    3    0    0  0.47702082728E+02  0.29935788722E+02 -0.17714232191E+02  0.59037660262E+02  0.10566000000E+00 0.  1.
         23    2    1    0    0    0  0.20890726683E+02  0.44179497244E+01 -0.19608331335E+02  0.96099874115E+02  0.91622914197E+02 0.  0.
         13    1    3    3    0    0 -0.26811356045E+02 -0.25517838998E+02 -0.18940991437E+01  0.37062213853E+02  0.10566000000E+00 0. -1.
         22    1    1    0    0    0 -0.20890726683E+02 -0.44179497244E+01  0.19608331335E+02  0.28990125885E+02  0.00000000000E+00 0.  1.
</event>
<event>
 5    1  0.1259474E-009  0.9118800E+02  0.7815553E-02  0.1125453E+00
         25   -1    0    0    0    0  0.00000000000E+00  0.00000000000E+00  0.99999998245E-14  0.12509000000E+03  0.12509000000E+03 0.  0.
        -13    1    3    3    0    0 -0.19650604431E+02  0.20953619215E+01 -0.33207559706E+02  0.38643110405E+02  0.10566000000E+00 0.  1.
         23    2    1    0    0    0 -0.15016376366E+02 -0.12512832904E+02  0.21837737326E+02  0.95782162858E+02  0.91188120957E+02 0.  0.
         13    1    3    3    0    0  0.46342280647E+01 -0.14608194826E+02  0.55045297032E+02  0.57139052453E+02  0.10566000000E+00 0. -1.
         22    1    1    0    0    0  0.15016376366E+02  0.12512832904E+02 -0.21837737326E+02  0.29307837142E+02  0.00000000000E+00 0. -1.
</event>
<event>
 5    1  0.1259474E-009  0.9118800E+02  0.7815553E-02  0.1125453E+00
         25   -1    0    0    0    0  0.00000000000E+00  0.00000000000E+00  0.99999998245E-14  0.12509000000E+03  0.12509000000E+03 0.  0.
        -13    1    3    3    0    0  0.23445293133E+02 -0.28810345794E+02 -0.49777321087E+02  0.62108861312E+02  0.10566000000E+00 0. -1.
         23    2    1    0    0    0  0.13538820520E+02 -0.13554883313E+02 -0.17584913940E+02  0.99084928937E+02  0.95611502558E+02 0.  0.
         13    1    3    3    0    0 -0.99064726123E+01  0.15255462480E+02  0.32192407146E+02  0.36976067625E+02  0.10566000000E+00 0.  1.
         22    1    1    0    0    0 -0.13538820520E+02  0.13554883313E+02  0.17584913940E+02  0.26005071063E+02  0.00000000000E+00 0. -1.
</event>
<event>
 5    1  0.1259474E-009  0.9118800E+02  0.7815553E-02  0.1125453E+00
         25   -1    0    0    0    0  0.00000000000E+00  0.00000000000E+00  0.99999998245E-14  0.12509000000E+03  0.12509000000E+03 0.  0.
        -13    1    3    3    0    0  0.32353568197E+02  0.62266355142E+01  0.14753499503E+02  0.36099879176E+02  0.10566000000E+00 0. -1.
         23    2    1    0    0    0 -0.26987779455E+02  0.72075157493E+01  0.90690598180E+01  0.95721030505E+02  0.91104222250E+02 0.  0.
         13    1    3    3    0    0 -0.59341347652E+02  0.98088023515E+00 -0.56844396848E+01  0.59621151329E+02  0.10566000000E+00 0.  1.
         22    1    1    0    0    0  0.26987779455E+02 -0.72075157493E+01 -0.90690598180E+01  0.29368969495E+02  0.00000000000E+00 0.  1.
</event>
<event>
 5    1  0.1259474E-009  0.9118800E+02  0.7815553E-02  0.1125453E+00
         25   -1    0    0    0    0  0.00000000000E+00  0.00000000000E+00  0.99999998245E-14  0.12509000000E+03  0.12509000000E+03 0.  0.
        -13    1    3    3    0    0 -0.39139632922E+02 -0.32870009425E+02 -0.24713685489E+02  0.56772579643E+02  0.10566000000E+00 0.  1.
         23    2    1    0    0    0 -0.20960518718E+02 -0.23047770119E+02  0.55782923643E+01  0.93440981088E+02  0.87917896634E+02 0.  0.
         13    1    3    3    0    0  0.18179114204E+02  0.98222393057E+01  0.30291977853E+02  0.36668401445E+02  0.10566000000E+00 0. -1.
         22    1    1    0    0    0  0.20960518718E+02  0.23047770119E+02 -0.55782923643E+01  0.31649018912E+02  0.00000000000E+00 0.  1.
</event>
<event>
 5    1  0.1259474E-009  0.9118800E+02  0.7815553E-02  0.1125453E+00
         25   -1    0    0    0    0  0.00000000000E+00  0.00000000000E+00  0.99999998245E-14  0.12509000000E+03  0.12509000000E+03 0.  0.
        -13    1    3    3    0    0  0.94702539118E+01  0.28482242197E+02 -0.34454555153E+02  0.45695200673E+02  0.10566000000E+00 0.  1.
         23    2    1    0    0    0  0.44826099075E+01  0.29228061683E+02  0.12548223305E+02  0.92967869164E+02  0.87242153845E+02 0.  0.
         13    1    3    3    0    0 -0.49876440044E+01  0.74581948615E+00  0.47002778458E+02  0.47272668491E+02  0.10566000000E+00 0. -1.
         22    1    1    0    0    0 -0.44826099075E+01 -0.29228061683E+02 -0.12548223305E+02  0.32122130836E+02  0.00000000000E+00 0. -1.
</event>
<event>
 5    1  0.1259474E-009  0.9118800E+02  0.7815553E-02  0.1125453E+00
         25   -1    0    0    0    0  0.00000000000E+00  0.00000000000E+00  0.99999998245E-14  0.12509000000E+03  0.12509000000E+03 0.  0.
        -13    1    3    3    0    0 -0.34807387001E+02  0.29429502460E+02  0.33415150935E+02  0.56517548434E+02  0.10566000000E+00 0. -1.
         23    2    1    0    0    0 -0.15107809680E+02  0.23860444577E+02 -0.12993982189E+01  0.96818898775E+02  0.92599373624E+02 0.  0.
         13    1    3    3    0    0  0.19699577321E+02 -0.55690578824E+01 -0.34714549154E+02  0.40301350341E+02  0.10566000000E+00 0.  1.
         22    1    1    0    0    0  0.15107809680E+02 -0.23860444577E+02  0.12993982189E+01  0.28271101225E+02  0.00000000000E+00 0. -1.
</event>
<event>
 5    1  0.1259474E-009  0.9118800E+02  0.7815553E-02  0.1125453E+00
         25   -1    0    0    0    0  0.00000000000E+00  0.00000000000E+00  0.99999998245E-14  0.12509000000E+03  0.12509000000E+03 0.  0.
        -13    1    3    3    0    0 -0.34974437646E+02 -0.10301221910E+02  0.15908091698E+01  0.36494770850E+02  0.10566000000E+00 0. -1.
         23    2    1    0    0    0  0.16927255515E+02  0.35877500805E+01 -0.23592835308E+02  0.95832081281E+02  0.91256572338E+02 0.  0.
         13    1    3    3    0    0  0.51901693161E+02  0.13888971991E+02 -0.25183644478E+02  0.59337310431E+02  0.10566000000E+00 0.  1.
         22    1    1    0    0    0 -0.16927255515E+02 -0.35877500805E+01  0.23592835308E+02  0.29257918719E+02  0.00000000000E+00 0.  1.
</event>
<event>
 5    1  0.1259474E-009  0.9118800E+02  0.7815553E-02  0.1125453E+00
         25   -1    0    0    0    0  0.00000000000E+00  0.00000000000E+00  0.99999998245E-14  0.12509000000E+03  0.12509000000E+03 0.  0.
        -13    1    3    3    0    0  0.19922498875E+02 -0.55603357795E+02  0.16817728290E+02  0.61412429592E+02  0.10566000000E+00 0.  1.
         23    2    1    0    0    0  0.17146682750E+02 -0.23247685654E+02  0.92605747911E+01  0.94754841140E+02  0.89767800777E+02 0.  0.
         13    1    3    3    0    0 -0.27758161254E+01  0.32355672140E+02 -0.75571534990E+01  0.33342411548E+02  0.10566000000E+00 0. -1.
         22    1    1    0    0    0 -0.17146682750E+02  0.23247685654E+02 -0.92605747911E+01  0.30335158860E+02  0.00000000000E+00 0.  1.
</event>
<event>
 5    1  0.1259474E-009  0.9118800E+02  0.7815553E-02  0.1125453E+00
         25   -1    0    0    0    0  0.00000000000E+00  0.00000000000E+00  0.99999998245E-14  0.12509000000E+03  0.12509000000E+03 0.  0.
        -13    1    3    3    0    0 -0.20752845032E+02  0.28092205848E+02 -0.17749633703E+00  0.34926999231E+02  0.10566000000E+00 0. -1.
         23    2    1    0    0    0  0.34182027405E+01 -0.26356886052E+02 -0.12433664937E+02  0.95747785085E+02  0.91140950032E+02 0.  0.
         13    1    3    3    0    0  0.24171047772E+02 -0.54449091900E+02 -0.12256168600E+02  0.60820785854E+02  0.10566000000E+00 0.  1.
         22    1    1    0    0    0 -0.34182027405E+01  0.26356886052E+02  0.12433664937E+02  0.29342214915E+02  0.00000000000E+00 0.  1.
</event>
<event>
 5    1  0.1259474E-009  0.9118800E+02  0.7815553E-02  0.1125453E+00
         25   -1    0    0    0    0  0.00000000000E+00  0.00000000000E+00  0.99999998245E-14  0.12509000000E+03  0.12509000000E+03 0.  0.
        -13    1    3    3    0    0 -0.33614351980E+02 -0.15642383404E+02 -0.33579914926E+01  0.37227625341E+02  0.10566000000E+00 0. -1.
         23    2    1    0    0    0  0.19793029231E+02  0.11638915014E+01 -0.21269583693E+02  0.96012279318E+02  0.91503245515E+02 0.  0.
         13    1    3    3    0    0  0.53407381211E+02  0.16806274905E+02 -0.17911592201E+02  0.58784653977E+02  0.10566000000E+00 0.  1.
         22    1    1    0    0    0 -0.19793029231E+02 -0.11638915014E+01  0.21269583693E+02  0.29077720682E+02  0.00000000000E+00 0.  1.
</event>
<event>
 5    1  0.1259474E-009  0.9118800E+02  0.7815553E-02  0.1125453E+00
         25   -1    0    0    0    0  0.00000000000E+00  0.00000000000E+00  0.99999998245E-14  0.12509000000E+03  0.12509000000E+03 0.  0.
        -13    1    3    3    0    0 -0.29549542727E+01  0.17493781473E+02  0.38544256098E+02  0.42431532935E+02  0.10566000000E+00 0. -1.
         23    2    1    0    0    0 -0.54738120510E+01  0.27370534108E+02 -0.12516351591E+02  0.94499677791E+02  0.89411527722E+02 0.  0.
         13    1    3    3    0    0 -0.25188577783E+01  0.98767526354E+01 -0.51060607689E+02  0.52068144856E+02  0.10566000000E+00 0.  1.
         22    1    1    0    0    0  0.54738120510E+01 -0.27370534108E+02  0.12516351591E+02  0.30590322209E+02  0.00000000000E+00 0. -1.
</event>
<event>
 5    1  0.1259474E-009  0.9118800E+02  0.7815553E-02  0.1125453E+00
         25   -1    0    0    0    0  0.00000000000E+00  0.00000000000E+00  0.99999998245E-14  0.12509000000E+03  0.12509000000E+03 0.  0.
        -13    1    3    3    0    0 -0.15426011587E+02 -0.38625095800E+02  0.13897169035E+01  0.41614929246E+02  0.10566000000E+00 0.  1.
         23    2    1    0    0    0  0.18744135488E+02 -0.15930382589E+01 -0.21123772791E+02  0.96804064219E+02  0.92579331853E+02 0.  0.
         13    1    3    3    0    0  0.34170147075E+02  0.37032057541E+02 -0.22513489694E+02  0.55189134973E+02  0.10566000000E+00 0. -1.
         22    1    1    0    0    0 -0.18744135488E+02  0.15930382589E+01  0.21123772791E+02  0.28285935781E+02  0.00000000000E+00 0.  1.
</event>
<event>
 5    1  0.1259474E-009  0.9118800E+02  0.7815553E-02  0.1125453E+00
         25   -1    0    0    0    0  0.00000000000E+00  0.00000000000E+00  0.99999998245E-14  0.12509000000E+03  0.12509000000E+03 0.  0.
        -13    1    3    3    0    0  0.18096367704E+02  0.52220963204E+01  0.59005328771E+02  0.61938588952E+02  0.10566000000E+00 0.  1.
         23    2    1    0    0    0  0.35907677455E+01  0.63908777890E+01  0.13316940632E+02  0.10988875532E+03  0.10883225950E+03 0.  0.
         13    1    3    3    0    0 -0.14505599958E+02  0.11687814685E+01 -0.45688388139E+02  0.47950166371E+02  0.10566000000E+00 0. -1.
         22    1    1    0    0    0 -0.35907677455E+01 -0.63908777890E+01 -0.13316940632E+02  0.15201244677E+02  0.00000000000E+00 0.  1.
</event>
<event>
 5    1  0.1259474E-009  0.9118800E+02  0.7815553E-02  0.1125453E+00
         25   -1    0    0    0    0  0.00000000000E+00  0.00000000000E+00  0.99999998245E-14  0.12509000000E+03  0.12509000000E+03 0.  0.
        -13    1    3    3    0    0  0.71578562202E+00  0.21581281410E+02  0.54971768674E+02  0.59060736293E+02  0.10566000000E+00 0.  1.
         23    2    1    0    0    0 -0.13786802231E+02  0.59675256556E+01  0.26552067007E+02  0.94582631373E+02  0.89527507599E+02 0.  0.
         13    1    3    3    0    0 -0.14502587853E+02 -0.15613755754E+02 -0.28419701667E+02  0.35521895080E+02  0.10566000000E+00 0. -1.
         22    1    1    0    0    0  0.13786802231E+02 -0.59675256556E+01 -0.26552067007E+02  0.30507368627E+02  0.00000000000E+00 0.  1.
</event>
<event>
 5    1  0.1259474E-009  0.9118800E+02  0.7815553E-02  0.1125453E+00
         25   -1    0    0    0    0  0.00000000000E+00  0.00000000000E+00  0.99999998245E-14  0.12509000000E+03  0.12509000000E+03 0.  0.
        -13    1    3    3    0    0  0.44822760400E+02  0.87253446755E+01  0.29355831475E+01  0.45758499779E+02  0.10566000000E+00 0.  1.
         23    2    1    0    0    0  0.17212854948E+02 -0.28187228230E+02  0.36613906882E+01  0.91860374776E+02  0.85639479572E+02 0.  0.
         13    1    3    3    0    0 -0.27609905452E+02 -0.36912572906E+02  0.72580754072E+00  0.46101874997E+02  0.10566000000E+00 0. -1.
         22    1    1    0    0    0 -0.17212854948E+02  0.28187228230E+02 -0.36613906882E+01  0.33229625224E+02  0.00000000000E+00 0. -1.
</event>
<event>
 5    1  0.1259474E-009  0.9118800E+02  0.7815553E-02  0.1125453E+00
         25   -1    0    0    0    0  0.00000000000E+00  0.00000000000E+00  0.99999998245E-14  0.12509000000E+03  0.12509000000E+03 0.  0.
        -13    1    3    3    0    0  0.27254586406E+02 -0.26673245533E+02 -0.64856922117E+01  0.38682681848E+02  0.10566000000E+00 0. -1.
         23    2    1    0    0    0  0.94562683997E+01  0.26690694906E+02 -0.10034149955E+02  0.95048389326E+02  0.90175927727E+02 0.  0.
         13    1    3    3    0    0 -0.17798318007E+02  0.53363940439E+02 -0.35484577432E+01  0.56365707477E+02  0.10566000000E+00 0.  1.
         22    1    1    0    0    0 -0.94562683997E+01 -0.26690694906E+02  0.10034149955E+02  0.30041610674E+02  0.00000000000E+00 0.  1.
</event>
<event>
 5    1  0.1259474E-009  0.9118800E+02  0.7815553E-02  0.1125453E+00
         25   -1    0    0    0    0  0.00000000000E+00  0.00000000000E+00  0.99999998245E-14  0.12509000000E+03  0.12509000000E+03 0.  0.
        -13    1    3    3    0    0 -0.11913737533E+02 -0.10746452663E+02  0.58271011009E+02  0.60439600222E+02  0.10566000000E+00 0. -1.
         23    2    1    0    0    0 -0.57549812854E+01 -0.17572820553E+02  0.34122562083E+02  0.86279265983E+02  0.77057372546E+02 0.  0.
         13    1    3    3    0    0  0.61587562477E+01 -0.68263678902E+01 -0.24148448926E+02  0.25839665762E+02  0.10566000000E+00 0.  1.
         22    1    1    0    0    0  0.57549812854E+01  0.17572820553E+02 -0.34122562083E+02  0.38810734017E+02  0.00000000000E+00 0. -1.
</event>
<event>
 4    1  0.1259474E-009  0.9118800E+02  0.7815553E-02  0.1125453E+00
         25   -1    0    0    0    0  0.00000000000E+00  0.00000000000E+00  0.99999998245E-14  0.12509000000E+03  0.12509000000E+03 0.  0.
        -13    1    1    0    0    0  0.17770885547E+01  0.43068651075E+02  0.20314222552E+02  0.47652340457E+02  0.10566000000E+00 0. -1.
         13    1    1    0    0    0  0.24680216092E+02 -0.45897436740E+01  0.29323659386E+01  0.25274270462E+02  0.10566000000E+00 0.  1.
         22    1    1    0    0    0 -0.26457304647E+02 -0.38478907401E+02 -0.23246588490E+02  0.52163389081E+02  0.00000000000E+00 0.  1.
</event>
<event>
 5    1  0.1259474E-009  0.9118800E+02  0.7815553E-02  0.1125453E+00
         25   -1    0    0    0    0  0.00000000000E+00  0.00000000000E+00  0.99999998245E-14  0.12509000000E+03  0.12509000000E+03 0.  0.
        -13    1    3    3    0    0  0.25551424882E+02  0.44290575890E+02  0.10195463249E+02  0.52139131764E+02  0.10566000000E+00 0. -1.
         23    2    1    0    0    0 -0.54117126652E+01  0.14297592196E+02  0.23324353603E+02  0.97202130816E+02  0.93115632348E+02 0.  0.
         13    1    3    3    0    0 -0.30963137547E+02 -0.29992983694E+02  0.13128890355E+02  0.45062999053E+02  0.10566000000E+00 0.  1.
         22    1    1    0    0    0  0.54117126652E+01 -0.14297592196E+02 -0.23324353603E+02  0.27887869184E+02  0.00000000000E+00 0. -1.
</event>
<event>
 5    1  0.1259474E-009  0.9118800E+02  0.7815553E-02  0.1125453E+00
         25   -1    0    0    0    0  0.00000000000E+00  0.00000000000E+00  0.99999998245E-14  0.12509000000E+03  0.12509000000E+03 0.  0.
        -13    1    3    3    0    0 -0.16902453652E+02  0.48202828754E+02 -0.35721539269E+02  0.62331734864E+02  0.10566000000E+00 0.  1.
         23    2    1    0    0    0 -0.57505687148E+01  0.24411363940E+02 -0.14395846723E+02  0.96172459772E+02  0.91721959670E+02 0.  0.
         13    1    3    3    0    0  0.11151884937E+02 -0.23791464814E+02  0.21325692546E+02  0.33840724908E+02  0.10566000000E+00 0. -1.
         22    1    1    0    0    0  0.57505687148E+01 -0.24411363940E+02  0.14395846723E+02  0.28917540228E+02  0.00000000000E+00 0.  1.
</event>
<event>
 5    1  0.1259474E-009  0.9118800E+02  0.7815553E-02  0.1125453E+00
         25   -1    0    0    0    0  0.00000000000E+00  0.00000000000E+00  0.99999998245E-14  0.12509000000E+03  0.12509000000E+03 0.  0.
        -13    1    3    3    0    0  0.23155181423E+02 -0.10128710082E+01  0.49595892154E+01  0.23702257775E+02  0.10566000000E+00 0. -1.
         23    2    1    0    0    0 -0.32806990483E+02 -0.20011902718E+02 -0.11366844915E+02  0.85015319237E+02  0.74977493068E+02 0.  0.
         13    1    3    3    0    0 -0.55962171906E+02 -0.18999031710E+02 -0.16326434130E+02  0.61313061462E+02  0.10566000000E+00 0.  1.
         22    1    1    0    0    0  0.32806990483E+02  0.20011902718E+02  0.11366844915E+02  0.40074680763E+02  0.00000000000E+00 0.  1.
</event>
<event>
 5    1  0.1259474E-009  0.9118800E+02  0.7815553E-02  0.1125453E+00
         25   -1    0    0    0    0  0.00000000000E+00  0.00000000000E+00  0.99999998245E-14  0.12509000000E+03  0.12509000000E+03 0.  0.
        -13    1    3    3    0    0 -0.18587568475E+02  0.24999755661E+02 -0.15577098050E+02  0.34830197137E+02  0.10566000000E+00 0. -1.
         23    2    1    0    0    0  0.45389317696E+01 -0.29404727596E+02 -0.39955866370E+01  0.95069929728E+02  0.90205803135E+02 0.  0.
         13    1    3    3    0    0  0.23126500245E+02 -0.54404483256E+02  0.11581511413E+02  0.60239732591E+02  0.10566000000E+00 0.  1.
         22    1    1    0    0    0 -0.45389317696E+01  0.29404727596E+02  0.39955866370E+01  0.30020070272E+02  0.00000000000E+00 0.  1.
</event>
<event>
 5    1  0.1259474E-009  0.9118800E+02  0.7815553E-02  0.1125453E+00
         25   -1    0    0    0    0  0.00000000000E+00  0.00000000000E+00  0.99999998245E-14  0.12509000000E+03  0.12509000000E+03 0.  0.
        -13    1    3    3    0    0  0.15144909238E+02  0.31232581575E+02 -0.34106504237E+02  0.48663201939E+02  0.10566000000E+00 0.  1.
         23    2    1    0    0    0  0.27201359752E+01 -0.13989007189E+02 -0.24817513709E+02  0.96471816121E+02  0.92129315948E+02 0.  0.
         13    1    3    3    0    0 -0.12424773263E+02 -0.45221588764E+02  0.92889905281E+01  0.47808614182E+02  0.10566000000E+00 0. -1.
         22    1    1    0    0    0 -0.27201359752E+01  0.13989007189E+02  0.24817513709E+02  0.28618183879E+02  0.00000000000E+00 0.  1.
</event>
<event>
 5    1  0.1259474E-009  0.9118800E+02  0.7815553E-02  0.1125453E+00
         25   -1    0    0    0    0  0.00000000000E+00  0.00000000000E+00  0.99999998245E-14  0.12509000000E+03  0.12509000000E+03 0.  0.
        -13    1    3    3    0    0  0.51776948969E+02 -0.14114117535E+02 -0.19338150267E+02  0.57044158142E+02  0.10566000000E+00 0.  1.
         23    2    1    0    0    0  0.10139203442E+02 -0.13736609017E+02 -0.20134307469E+02  0.98691359675E+02  0.95095195797E+02 0.  0.
         13    1    3    3    0    0 -0.41637745527E+02  0.37750851885E+00 -0.79615720251E+00  0.41647201533E+02  0.10566000000E+00 0. -1.
         22    1    1    0    0    0 -0.10139203442E+02  0.13736609017E+02  0.20134307469E+02  0.26398640325E+02  0.00000000000E+00 0.  1.
</event>
<event>
 5    1  0.1259474E-009  0.9118800E+02  0.7815553E-02  0.1125453E+00
         25   -1    0    0    0    0  0.00000000000E+00  0.00000000000E+00  0.99999998245E-14  0.12509000000E+03  0.12509000000E+03 0.  0.
        -13    1    3    3    0    0 -0.21753838145E+02  0.57627555287E+01  0.23348248726E+02  0.32428239359E+02  0.10566000000E+00 0. -1.
         23    2    1    0    0    0  0.23447023674E+02  0.22262862431E+02 -0.10313708793E+02  0.91152254762E+02  0.84598835667E+02 0.  0.
         13    1    3    3    0    0  0.45200861819E+02  0.16500106903E+02 -0.33661957519E+02  0.58724015403E+02  0.10566000000E+00 0.  1.
         22    1    1    0    0    0 -0.23447023674E+02 -0.22262862431E+02  0.10313708793E+02  0.33937745238E+02  0.00000000000E+00 0.  1.
</event>
<event>
 5    1  0.1259474E-009  0.9118800E+02  0.7815553E-02  0.1125453E+00
         25   -1    0    0    0    0  0.00000000000E+00  0.00000000000E+00  0.99999998245E-14  0.12509000000E+03  0.12509000000E+03 0.  0.
        -13    1    3    3    0    0 -0.25410320353E+02  0.54220005948E+02  0.90010220957E+00  0.59885847856E+02  0.10566000000E+00 0.  1.
         23    2    1    0    0    0 -0.27441080340E+00  0.28147853308E+02 -0.47597919231E+01  0.96541224785E+02  0.92223508482E+02 0.  0.
         13    1    3    3    0    0  0.25135909550E+02 -0.26072152640E+02 -0.56598941327E+01  0.36655376929E+02  0.10566000000E+00 0. -1.
         22    1    1    0    0    0  0.27441080340E+00 -0.28147853308E+02  0.47597919231E+01  0.28548775215E+02  0.00000000000E+00 0.  1.
</event>
<event>
 5    1  0.1259474E-009  0.9118800E+02  0.7815553E-02  0.1125453E+00
         25   -1    0    0    0    0  0.00000000000E+00  0.00000000000E+00  0.99999998245E-14  0.12509000000E+03  0.12509000000E+03 0.  0.
        -13    1    3    3    0    0 -0.23402819795E+02 -0.22390519308E+02  0.89899573609E+01  0.33613357860E+02  0.10566000000E+00 0.  1.
         23    2    1    0    0    0  0.11954425152E+02  0.24675542993E+02 -0.10657366706E+02  0.95672825291E+02  0.91038010366E+02 0.  0.
         13    1    3    3    0    0  0.35357244947E+02  0.47066062301E+02 -0.19647324067E+02  0.62059467431E+02  0.10566000000E+00 0. -1.
         22    1    1    0    0    0 -0.11954425152E+02 -0.24675542993E+02  0.10657366706E+02  0.29417174709E+02  0.00000000000E+00 0. -1.
</event>
<event>
 5    1  0.1259474E-009  0.9118800E+02  0.7815553E-02  0.1125453E+00
         25   -1    0    0    0    0  0.00000000000E+00  0.00000000000E+00  0.99999998245E-14  0.12509000000E+03  0.12509000000E+03 0.  0.
        -13    1    3    3    0    0 -0.71096797396E+01  0.32817963276E+02 -0.17418256071E+02  0.37828204665E+02  0.10566000000E+00 0.  1.
         23    2    1    0    0    0  0.10504891141E+02  0.14035772692E+00  0.27235948504E+02  0.95898060546E+02  0.91346968682E+02 0.  0.
         13    1    3    3    0    0  0.17614570881E+02 -0.32677605550E+02  0.44654204575E+02  0.58069855881E+02  0.10566000000E+00 0. -1.
         22    1    1    0    0    0 -0.10504891141E+02 -0.14035772692E+00 -0.27235948504E+02  0.29191939454E+02  0.00000000000E+00 0. -1.
</event>
<event>
 5    1  0.1259474E-009  0.9118800E+02  0.7815553E-02  0.1125453E+00
         25   -1    0    0    0    0  0.00000000000E+00  0.00000000000E+00  0.99999998245E-14  0.12509000000E+03  0.12509000000E+03 0.  0.
        -13    1    3    3    0    0 -0.14364981634E+02 -0.71838781039E+01  0.44460771511E+02  0.47272953889E+02  0.10566000000E+00 0. -1.
         23    2    1    0    0    0  0.51516853706E+01 -0.31148553454E+02  0.14393425958E+02  0.90392118865E+02  0.83467312151E+02 0.  0.
         13    1    3    3    0    0  0.19516667005E+02 -0.23964675350E+02 -0.30067345553E+02  0.43119164977E+02  0.10566000000E+00 0.  1.
         22    1    1    0    0    0 -0.51516853706E+01  0.31148553454E+02 -0.14393425958E+02  0.34697881135E+02  0.00000000000E+00 0.  1.
</event>
<event>
 5    1  0.1259474E-009  0.9118800E+02  0.7815553E-02  0.1125453E+00
         25   -1    0    0    0    0  0.00000000000E+00  0.00000000000E+00  0.99999998245E-14  0.12509000000E+03  0.12509000000E+03 0.  0.
        -13    1    3    3    0    0  0.40704764700E+02  0.46159469376E+01 -0.12245172271E+02  0.42756756699E+02  0.10566000000E+00 0.  1.
         23    2    1    0    0    0 -0.53233439136E+01  0.20048337295E+02  0.15974007891E+02  0.98909038466E+02  0.95381104751E+02 0.  0.
         13    1    3    3    0    0 -0.46028108614E+02  0.15432390358E+02  0.28219180161E+02  0.56152281768E+02  0.10566000000E+00 0. -1.
         22    1    1    0    0    0  0.53233439136E+01 -0.20048337295E+02 -0.15974007891E+02  0.26180961534E+02  0.00000000000E+00 0. -1.
</event>
<event>
 5    1  0.1259474E-009  0.9118800E+02  0.7815553E-02  0.1125453E+00
         25   -1    0    0    0    0  0.00000000000E+00  0.00000000000E+00  0.99999998245E-14  0.12509000000E+03  0.12509000000E+03 0.  0.
        -13    1    3    3    0    0  0.35699577418E+02  0.25057949560E+00  0.24226943662E+02  0.43144855790E+02  0.10566000000E+00 0.  1.
         23    2    1    0    0    0  0.13935957327E+02 -0.12624733017E+02 -0.22190718549E+02  0.96003529260E+02  0.91491282919E+02 0.  0.
         13    1    3    3    0    0 -0.21763620091E+02 -0.12875312513E+02 -0.46417662212E+02  0.52858673470E+02  0.10566000000E+00 0. -1.
         22    1    1    0    0    0 -0.13935957327E+02  0.12624733017E+02  0.22190718549E+02  0.29086470740E+02  0.00000000000E+00 0. -1.
</event>
<event>
 5    1  0.1259474E-009  0.9118800E+02  0.7815553E-02  0.1125453E+00
         25   -1    0    0    0    0  0.00000000000E+00  0.00000000000E+00  0.99999998245E-14  0.12509000000E+03  0.12509000000E+03 0.  0.
        -13    1    3    3    0    0  0.42880682497E+02  0.18417234168E+02  0.79393522295E+01  0.47339116212E+02  0.10566000000E+00 0.  1.
         23    2    1    0    0    0  0.10768443749E+02  0.16388704656E+02 -0.24953729671E+02  0.93352992492E+02  0.87792616783E+02 0.  0.
         13    1    3    3    0    0 -0.32112238748E+02 -0.20285295121E+01 -0.32893081900E+02  0.46013876280E+02  0.10566000000E+00 0. -1.
         22    1    1    0    0    0 -0.10768443749E+02 -0.16388704656E+02  0.24953729671E+02  0.31737007508E+02  0.00000000000E+00 0. -1.
</event>
<event>
 5    1  0.1259474E-009  0.9118800E+02  0.7815553E-02  0.1125453E+00
         25   -1    0    0    0    0  0.00000000000E+00  0.00000000000E+00  0.99999998245E-14  0.12509000000E+03  0.12509000000E+03 0.  0.
        -13    1    3    3    0    0  0.40419345466E+02  0.54337682688E+00  0.70577659123E+00  0.40429296691E+02  0.10566000000E+00 0.  1.
         23    2    1    0    0    0 -0.72492444125E+01 -0.13938424981E+02  0.24770823360E+02  0.95756999379E+02  0.91153595675E+02 0.  0.
         13    1    3    3    0    0 -0.47668589879E+02 -0.14481801808E+02  0.24065046769E+02  0.55327702688E+02  0.10566000000E+00 0. -1.
         22    1    1    0    0    0  0.72492444125E+01  0.13938424981E+02 -0.24770823360E+02  0.29333000621E+02  0.00000000000E+00 0. -1.
</event>
<event>
 5    1  0.1259474E-009  0.9118800E+02  0.7815553E-02  0.1125453E+00
         25   -1    0    0    0    0  0.00000000000E+00  0.00000000000E+00  0.99999998245E-14  0.12509000000E+03  0.12509000000E+03 0.  0.
        -13    1    3    3    0    0 -0.41130685860E+02 -0.42698110851E+02 -0.15365572966E+02  0.61245195617E+02  0.10566000000E+00 0.  1.
         23    2    1    0    0    0 -0.25797635612E+02 -0.16721652491E+02 -0.18721375173E+01  0.94290055778E+02  0.89117776310E+02 0.  0.
         13    1    3    3    0    0  0.15333050248E+02  0.25976458360E+02  0.13493435449E+02  0.33044860161E+02  0.10566000000E+00 0. -1.
         22    1    1    0    0    0  0.25797635612E+02  0.16721652491E+02  0.18721375173E+01  0.30799944222E+02  0.00000000000E+00 0.  1.
</event>
<event>
 5    1  0.1259474E-009  0.9118800E+02  0.7815553E-02  0.1125453E+00
         25   -1    0    0    0    0  0.00000000000E+00  0.00000000000E+00  0.99999998245E-14  0.12509000000E+03  0.12509000000E+03 0.  0.
        -13    1    3    3    0    0 -0.20656397543E+02  0.44666291217E+02 -0.13011534466E+02  0.50902608222E+02  0.10566000000E+00 0. -1.
         23    2    1    0    0    0 -0.26778501464E+02  0.55374146978E+01  0.91105524004E+01  0.96267209239E+02  0.91851087677E+02 0.  0.
         13    1    3    3    0    0 -0.61221039212E+01 -0.39128876520E+02  0.22122086866E+02  0.45364601017E+02  0.10566000000E+00 0.  1.
         22    1    1    0    0    0  0.26778501464E+02 -0.55374146978E+01 -0.91105524004E+01  0.28822790761E+02  0.00000000000E+00 0. -1.
</event>
<event>
 5    1  0.1259474E-009  0.9118800E+02  0.7815553E-02  0.1125453E+00
         25   -1    0    0    0    0  0.00000000000E+00  0.00000000000E+00  0.99999998245E-14  0.12509000000E+03  0.12509000000E+03 0.  0.
        -13    1    3    3    0    0  0.29983452352E+02  0.54229256512E+01  0.13175368119E+02  0.33196641798E+02  0.10566000000E+00 0.  1.
         23    2    1    0    0    0 -0.25815738097E+02  0.53624863916E+01 -0.13972673079E+02  0.95249688561E+02  0.90454734449E+02 0.  0.
         13    1    3    3    0    0 -0.55799190449E+02 -0.60439259511E-01 -0.27148041198E+02  0.62053046763E+02  0.10566000000E+00 0. -1.
         22    1    1    0    0    0  0.25815738097E+02 -0.53624863916E+01  0.13972673079E+02  0.29840311439E+02  0.00000000000E+00 0. -1.
</event>
<event>
 5    1  0.1259474E-009  0.9118800E+02  0.7815553E-02  0.1125453E+00
         25   -1    0    0    0    0  0.00000000000E+00  0.00000000000E+00  0.99999998245E-14  0.12509000000E+03  0.12509000000E+03 0.  0.
        -13    1    3    3    0    0 -0.26843699189E+02 -0.50255503992E+01  0.53870676700E+02  0.60397858531E+02  0.10566000000E+00 0.  1.
         23    2    1    0    0    0 -0.58778778031E-02 -0.35013711915E+01  0.25001804534E+02  0.99844210950E+02  0.96599775339E+02 0.  0.
         13    1    3    3    0    0  0.26837821312E+02  0.15241792077E+01 -0.28868872166E+02  0.39446352419E+02  0.10566000000E+00 0. -1.
         22    1    1    0    0    0  0.58778778031E-02  0.35013711915E+01 -0.25001804534E+02  0.25245789050E+02  0.00000000000E+00 0.  1.
</event>
<event>
 5    1  0.1259474E-009  0.9118800E+02  0.7815553E-02  0.1125453E+00
         25   -1    0    0    0    0  0.00000000000E+00  0.00000000000E+00  0.99999998245E-14  0.12509000000E+03  0.12509000000E+03 0.  0.
        -13    1    3    3    0    0  0.23574239971E+02  0.43273022481E+02  0.52303308957E+01  0.49554684846E+02  0.10566000000E+00 0.  1.
         23    2    1    0    0    0  0.91773729715E+01  0.17562840245E+02 -0.25939022519E+02  0.92447842881E+02  0.86493313222E+02 0.  0.
         13    1    3    3    0    0 -0.14396867000E+02 -0.25710182235E+02 -0.31169353414E+02  0.42893158036E+02  0.10566000000E+00 0. -1.
         22    1    1    0    0    0 -0.91773729715E+01 -0.17562840245E+02  0.25939022519E+02  0.32642157119E+02  0.00000000000E+00 0.  1.
</event>
<event>
 5    1  0.1259474E-009  0.9118800E+02  0.7815553E-02  0.1125453E+00
         25   -1    0    0    0    0  0.00000000000E+00  0.00000000000E+00  0.99999998245E-14  0.12509000000E+03  0.12509000000E+03 0.  0.
        -13    1    3    3    0    0 -0.13153967783E+02  0.31388077833E+02 -0.14023098943E+02  0.36808922376E+02  0.10566000000E+00 0. -1.
         23    2    1    0    0    0  0.54826623421E+01 -0.31739379924E+01  0.29203297714E+02  0.95207462188E+02  0.90396320667E+02 0.  0.
         13    1    3    3    0    0  0.18636630125E+02 -0.34562015825E+02  0.43226396656E+02  0.58398539812E+02  0.10566000000E+00 0.  1.
         22    1    1    0    0    0 -0.54826623421E+01  0.31739379924E+01 -0.29203297714E+02  0.29882537812E+02  0.00000000000E+00 0.  1.
</event>
<event>
 5    1  0.1259474E-009  0.9118800E+02  0.7815553E-02  0.1125453E+00
         25   -1    0    0    0    0  0.00000000000E+00  0.00000000000E+00  0.99999998245E-14  0.12509000000E+03  0.12509000000E+03 0.  0.
        -13    1    3    3    0    0  0.57511588215E+02 -0.83948534753E+01 -0.16618462820E+02  0.60450316909E+02  0.10566000000E+00 0.  1.
         23    2    1    0    0    0  0.27298403688E+02  0.61611347169E+01 -0.13160124025E+02  0.94165070101E+02  0.88942167377E+02 0.  0.
         13    1    3    3    0    0 -0.30213184527E+02  0.14555988192E+02  0.34583387953E+01  0.33714753191E+02  0.10566000000E+00 0. -1.
         22    1    1    0    0    0 -0.27298403688E+02 -0.61611347169E+01  0.13160124025E+02  0.30924929899E+02  0.00000000000E+00 0.  1.
</event>
<event>
 5    1  0.1259474E-009  0.9118800E+02  0.7815553E-02  0.1125453E+00
         25   -1    0    0    0    0  0.00000000000E+00  0.00000000000E+00  0.99999998245E-14  0.12509000000E+03  0.12509000000E+03 0.  0.
        -13    1    3    3    0    0 -0.11047352529E+02 -0.37111995195E+02  0.42530046567E+02  0.57516608125E+02  0.10566000000E+00 0. -1.
         23    2    1    0    0    0  0.91689906535E+01 -0.22227027456E+02  0.32754389777E+02  0.84457978283E+02  0.74041805130E+02 0.  0.
         13    1    3    3    0    0  0.20216343183E+02  0.14884967739E+02 -0.97756567902E+01  0.26941370158E+02  0.10566000000E+00 0.  1.
         22    1    1    0    0    0 -0.91689906535E+01  0.22227027456E+02 -0.32754389777E+02  0.40632021717E+02  0.00000000000E+00 0. -1.
</event>
<event>
 5    1  0.1259474E-009  0.9118800E+02  0.7815553E-02  0.1125453E+00
         25   -1    0    0    0    0  0.00000000000E+00  0.00000000000E+00  0.99999998245E-14  0.12509000000E+03  0.12509000000E+03 0.  0.
        -13    1    3    3    0    0  0.13792447568E+02 -0.23963111556E+02  0.39464001970E+02  0.48185899814E+02  0.10566000000E+00 0.  1.
         23    2    1    0    0    0 -0.80878347324E+01 -0.31189504928E+02  0.12073290435E+01  0.92846304000E+02  0.87067676177E+02 0.  0.
         13    1    3    3    0    0 -0.21880282300E+02 -0.72263933715E+01 -0.38256672926E+02  0.44660404187E+02  0.10566000000E+00 0. -1.
         22    1    1    0    0    0  0.80878347324E+01  0.31189504928E+02 -0.12073290435E+01  0.32243696000E+02  0.00000000000E+00 0. -1.
</event>
<event>
 5    1  0.1259474E-009  0.9118800E+02  0.7815553E-02  0.1125453E+00
         25   -1    0    0    0    0  0.00000000000E+00  0.00000000000E+00  0.99999998245E-14  0.12509000000E+03  0.12509000000E+03 0.  0.
        -13    1    3    3    0    0  0.58345007152E+01  0.45611065918E+02  0.15536844059E+02  0.48536742991E+02  0.10566000000E+00 0. -1.
         23    2    1    0    0    0 -0.17758578999E+02  0.41519283680E+01  0.21821137736E+02  0.96651158791E+02  0.92372500271E+02 0.  0.
         13    1    3    3    0    0 -0.23593079714E+02 -0.41459137550E+02  0.62842936771E+01  0.48114415801E+02  0.10566000000E+00 0.  1.
         22    1    1    0    0    0  0.17758578999E+02 -0.41519283680E+01 -0.21821137736E+02  0.28438841209E+02  0.00000000000E+00 0. -1.
</event>
<event>
 5    1  0.1259474E-009  0.9118800E+02  0.7815553E-02  0.1125453E+00
         25   -1    0    0    0    0  0.00000000000E+00  0.00000000000E+00  0.99999998245E-14  0.12509000000E+03  0.12509000000E+03 0.  0.
        -13    1    3    3    0    0 -0.72538142654E+01 -0.52021866385E+02 -0.15473929741E+02  0.54757155416E+02  0.10566000000E+00 0. -1.
         23    2    1    0    0    0 -0.23202121645E+02 -0.18208458487E+02 -0.14664117386E+02  0.92151834477E+02  0.86064149618E+02 0.  0.
         13    1    3    3    0    0 -0.15948307380E+02  0.33813407898E+02  0.80981235491E+00  0.37394679061E+02  0.10566000000E+00 0.  1.
         22    1    1    0    0    0  0.23202121645E+02  0.18208458487E+02  0.14664117386E+02  0.32938165523E+02  0.00000000000E+00 0. -1.
</event>
<event>
 5    1  0.1259474E-009  0.9118800E+02  0.7815553E-02  0.1125453E+00
         25   -1    0    0    0    0  0.00000000000E+00  0.00000000000E+00  0.99999998245E-14  0.12509000000E+03  0.12509000000E+03 0.  0.
        -13    1    3    3    0    0  0.59383166713E+02  0.72582070186E-01 -0.69866819824E+01  0.59792897957E+02  0.10566000000E+00 0.  1.
         23    2    1    0    0    0  0.25711340416E+02 -0.12659511786E+02 -0.60254526857E+01  0.95804468680E+02  0.91218714497E+02 0.  0.
         13    1    3    3    0    0 -0.33671826297E+02 -0.12732093856E+02  0.96122929669E+00  0.36011570723E+02  0.10566000000E+00 0. -1.
         22    1    1    0    0    0 -0.25711340416E+02  0.12659511786E+02  0.60254526857E+01  0.29285531320E+02  0.00000000000E+00 0.  1.
</event>
<event>
 5    1  0.1259474E-009  0.9118800E+02  0.7815553E-02  0.1125453E+00
         25   -1    0    0    0    0  0.00000000000E+00  0.00000000000E+00  0.99999998245E-14  0.12509000000E+03  0.12509000000E+03 0.  0.
        -13    1    3    3    0    0 -0.30331236424E+02 -0.37857549450E+02  0.10674239778E+02  0.49670197425E+02  0.10566000000E+00 0. -1.
         23    2    1    0    0    0 -0.14393933479E+02  0.44664345542E+01  0.23940185107E+02  0.96801012362E+02  0.92575208197E+02 0.  0.
         13    1    3    3    0    0  0.15937302945E+02  0.42323984004E+02  0.13265945330E+02  0.47130814937E+02  0.10566000000E+00 0.  1.
         22    1    1    0    0    0  0.14393933479E+02 -0.44664345542E+01 -0.23940185107E+02  0.28288987638E+02  0.00000000000E+00 0. -1.
</event>
<event>
 5    1  0.1259474E-009  0.9118800E+02  0.7815553E-02  0.1125453E+00
         25   -1    0    0    0    0  0.00000000000E+00  0.00000000000E+00  0.99999998245E-14  0.12509000000E+03  0.12509000000E+03 0.  0.
        -13    1    3    3    0    0 -0.33063743904E+02  0.17052895971E+01  0.10859392342E+02  0.34843317001E+02  0.10566000000E+00 0. -1.
         23    2    1    0    0    0  0.26916738318E+02 -0.86552936194E+01  0.76624042130E+01  0.95796018577E+02  0.91207125969E+02 0.  0.
         13    1    3    3    0    0  0.59980482222E+02 -0.10360583217E+02 -0.31969881287E+01  0.60952701575E+02  0.10566000000E+00 0.  1.
         22    1    1    0    0    0 -0.26916738318E+02  0.86552936194E+01 -0.76624042130E+01  0.29293981423E+02  0.00000000000E+00 0.  1.
</event>
<event>
 5    1  0.1259474E-009  0.9118800E+02  0.7815553E-02  0.1125453E+00
         25   -1    0    0    0    0  0.00000000000E+00  0.00000000000E+00  0.99999998245E-14  0.12509000000E+03  0.12509000000E+03 0.  0.
        -13    1    3    3    0    0 -0.40031120903E+02 -0.11756727984E+02 -0.21203636124E+02  0.46800818824E+02  0.10566000000E+00 0. -1.
         23    2    1    0    0    0 -0.10572774354E+02 -0.25493051464E+02  0.13514979189E+02  0.94359983844E+02  0.89215876716E+02 0.  0.
         13    1    3    3    0    0  0.29458346549E+02 -0.13736323479E+02  0.34718615313E+02  0.47559165021E+02  0.10566000000E+00 0.  1.
         22    1    1    0    0    0  0.10572774354E+02  0.25493051464E+02 -0.13514979189E+02  0.30730016156E+02  0.00000000000E+00 0. -1.
</event>
<event>
 5    1  0.1259474E-009  0.9118800E+02  0.7815553E-02  0.1125453E+00
         25   -1    0    0    0    0  0.00000000000E+00  0.00000000000E+00  0.99999998245E-14  0.12509000000E+03  0.12509000000E+03 0.  0.
        -13    1    3    3    0    0  0.17931204696E+02  0.29899780822E+02  0.19086973951E+02  0.39747311025E+02  0.10566000000E+00 0.  1.
         23    2    1    0    0    0 -0.25980537928E+02 -0.25141173287E+01  0.16129114577E+02  0.94406820992E+02  0.89281523149E+02 0.  0.
         13    1    3    3    0    0 -0.43911742625E+02 -0.32413898151E+02 -0.29578593744E+01  0.54659509967E+02  0.10566000000E+00 0. -1.
         22    1    1    0    0    0  0.25980537928E+02  0.25141173287E+01 -0.16129114577E+02  0.30683179008E+02  0.00000000000E+00 0. -1.
</event>
<event>
 4    1  0.1259474E-009  0.9118800E+02  0.7815553E-02  0.1125453E+00
         25   -1    0    0    0    0  0.00000000000E+00  0.00000000000E+00  0.99999998245E-14  0.12509000000E+03  0.12509000000E+03 0.  0.
        -13    1    1    0    0    0  0.13881564637E+02 -0.16358260732E+02  0.12859541353E+02  0.25013386392E+02  0.10566000000E+00 0. -1.
         13    1    1    0    0    0 -0.50268445989E+01  0.10080657460E+02  0.42343626960E+02  0.43816466420E+02  0.10566000000E+00 0.  1.
         22    1    1    0    0    0 -0.88547200377E+01  0.62776032723E+01 -0.55203168313E+02  0.56260147188E+02  0.00000000000E+00 0.  1.
</event>
<event>
 5    1  0.1259474E-009  0.9118800E+02  0.7815553E-02  0.1125453E+00
         25   -1    0    0    0    0  0.00000000000E+00  0.00000000000E+00  0.99999998245E-14  0.12509000000E+03  0.12509000000E+03 0.  0.
        -13    1    3    3    0    0  0.22919831198E+02 -0.75688219388E+01 -0.13129818626E+02  0.27477427625E+02  0.10566000000E+00 0. -1.
         23    2    1    0    0    0 -0.74846416198E+01  0.65528808842E+01 -0.48130026656E+02  0.75942674804E+02  0.57894993587E+02 0.  0.
         13    1    3    3    0    0 -0.30404472818E+02  0.14121702823E+02 -0.35000208029E+02  0.48465247179E+02  0.10566000000E+00 0.  1.
         22    1    1    0    0    0  0.74846416198E+01 -0.65528808842E+01  0.48130026656E+02  0.49147325196E+02  0.00000000000E+00 0. -1.
</event>
<event>
 5    1  0.1259474E-009  0.9118800E+02  0.7815553E-02  0.1125453E+00
         25   -1    0    0    0    0  0.00000000000E+00  0.00000000000E+00  0.99999998245E-14  0.12509000000E+03  0.12509000000E+03 0.  0.
        -13    1    3    3    0    0  0.32802945248E+02  0.14574125281E+02 -0.66576007785E+01  0.36507165829E+02  0.10566000000E+00 0. -1.
         23    2    1    0    0    0 -0.25948114598E+02  0.12065019197E+02 -0.81678044162E+01  0.95331263998E+02  0.90567474996E+02 0.  0.
         13    1    3    3    0    0 -0.58751059847E+02 -0.25091060844E+01 -0.15102036377E+01  0.58824098170E+02  0.10566000000E+00 0.  1.
         22    1    1    0    0    0  0.25948114598E+02 -0.12065019197E+02  0.81678044162E+01  0.29758736002E+02  0.00000000000E+00 0.  1.
</event>
<event>
 5    1  0.1259474E-009  0.9118800E+02  0.7815553E-02  0.1125453E+00
         25   -1    0    0    0    0  0.00000000000E+00  0.00000000000E+00  0.99999998245E-14  0.12509000000E+03  0.12509000000E+03 0.  0.
        -13    1    3    3    0    0  0.34618965162E+01  0.10412496137E+02  0.35244215208E+02  0.36913014953E+02  0.10566000000E+00 0.  1.
         23    2    1    0    0    0 -0.21739412487E+02 -0.15791418975E+02 -0.11272498874E+02  0.95951705620E+02  0.91420400415E+02 0.  0.
         13    1    3    3    0    0 -0.25201309003E+02 -0.26203915112E+02 -0.46516714082E+02  0.59038690667E+02  0.10566000000E+00 0. -1.
         22    1    1    0    0    0  0.21739412487E+02  0.15791418975E+02  0.11272498874E+02  0.29138294380E+02  0.00000000000E+00 0. -1.
</event>
<event>
 5    1  0.1259474E-009  0.9118800E+02  0.7815553E-02  0.1125453E+00
         25   -1    0    0    0    0  0.00000000000E+00  0.00000000000E+00  0.99999998245E-14  0.12509000000E+03  0.12509000000E+03 0.  0.
        -13    1    3    3    0    0 -0.75633558247E+01 -0.22434048271E+02 -0.22011668160E+02  0.32326700611E+02  0.10566000000E+00 0.  1.
         23    2    1    0    0    0  0.37480751267E+02  0.22218365147E+01 -0.16848870698E+02  0.83936291579E+02  0.73155131927E+02 0.  0.
         13    1    3    3    0    0  0.45044107091E+02  0.24655884786E+02  0.51627974613E+01  0.51609590968E+02  0.10566000000E+00 0. -1.
         22    1    1    0    0    0 -0.37480751267E+02 -0.22218365147E+01  0.16848870698E+02  0.41153708421E+02  0.00000000000E+00 0. -1.
</event>
<event>
 5    1  0.1259474E-009  0.9118800E+02  0.7815553E-02  0.1125453E+00
         25   -1    0    0    0    0  0.00000000000E+00  0.00000000000E+00  0.99999998245E-14  0.12509000000E+03  0.12509000000E+03 0.  0.
        -13    1    3    3    0    0  0.39996158298E+02 -0.25558516789E+00  0.10116080557E+01  0.40009905239E+02  0.10566000000E+00 0. -1.
         23    2    1    0    0    0 -0.62756034810E+01  0.21146533050E+02 -0.20154531281E+02  0.95210840202E+02  0.90400995027E+02 0.  0.
         13    1    3    3    0    0 -0.46271761779E+02  0.21402118217E+02 -0.21166139337E+02  0.55200934963E+02  0.10566000000E+00 0.  1.
         22    1    1    0    0    0  0.62756034810E+01 -0.21146533050E+02  0.20154531281E+02  0.29879159798E+02  0.00000000000E+00 0. -1.
</event>
<event>
 5    1  0.1259474E-009  0.9118800E+02  0.7815553E-02  0.1125453E+00
         25   -1    0    0    0    0  0.00000000000E+00  0.00000000000E+00  0.99999998245E-14  0.12509000000E+03  0.12509000000E+03 0.  0.
        -13    1    3    3    0    0  0.20555661984E+01  0.23356033485E+02 -0.50899724052E+02  0.56040366925E+02  0.10566000000E+00 0. -1.
         23    2    1    0    0    0  0.12368124323E+02 -0.61219465234E+01 -0.24662727957E+02  0.96828738903E+02  0.92612665434E+02 0.  0.
         13    1    3    3    0    0  0.10312558125E+02 -0.29477980009E+02  0.26236996095E+02  0.40788371978E+02  0.10566000000E+00 0.  1.
         22    1    1    0    0    0 -0.12368124323E+02  0.61219465234E+01  0.24662727957E+02  0.28261261097E+02  0.00000000000E+00 0. -1.
</event>
<event>
 5    1  0.1259474E-009  0.9118800E+02  0.7815553E-02  0.1125453E+00
         25   -1    0    0    0    0  0.00000000000E+00  0.00000000000E+00  0.99999998245E-14  0.12509000000E+03  0.12509000000E+03 0.  0.
        -13    1    3    3    0    0  0.28084066821E+02 -0.14916106656E+02  0.19928791297E+02  0.37528295106E+02  0.10566000000E+00 0. -1.
         23    2    1    0    0    0 -0.22563247218E+02 -0.24812009587E+02  0.55728993462E+01  0.91093042020E+02  0.84511236842E+02 0.  0.
         13    1    3    3    0    0 -0.50647314039E+02 -0.98959029315E+01 -0.14355891951E+02  0.53564746914E+02  0.10566000000E+00 0.  1.
         22    1    1    0    0    0  0.22563247218E+02  0.24812009587E+02 -0.55728993462E+01  0.33996957980E+02  0.00000000000E+00 0. -1.
</event>
<event>
 5    1  0.1259474E-009  0.9118800E+02  0.7815553E-02  0.1125453E+00
         25   -1    0    0    0    0  0.00000000000E+00  0.00000000000E+00  0.99999998245E-14  0.12509000000E+03  0.12509000000E+03 0.  0.
        -13    1    3    3    0    0  0.90898706200E+01  0.60760700230E+02 -0.82000593146E+01  0.61981776169E+02  0.10566000000E+00 0.  1.
         23    2    1    0    0    0 -0.11480559430E+00  0.29851191475E+02 -0.78040907615E+01  0.94235330249E+02  0.89040927790E+02 0.  0.
         13    1    3    3    0    0 -0.92046762143E+01 -0.30909508754E+02  0.39596855312E+00  0.32253554080E+02  0.10566000000E+00 0. -1.
         22    1    1    0    0    0  0.11480559430E+00 -0.29851191475E+02  0.78040907615E+01  0.30854669751E+02  0.00000000000E+00 0.  1.
</event>
<event>
 5    1  0.1259474E-009  0.9118800E+02  0.7815553E-02  0.1125453E+00
         25   -1    0    0    0    0  0.00000000000E+00  0.00000000000E+00  0.99999998245E-14  0.12509000000E+03  0.12509000000E+03 0.  0.
        -13    1    3    3    0    0 -0.23498331576E+02 -0.45375258484E+02  0.22096535556E+02  0.55671839533E+02  0.10566000000E+00 0. -1.
         23    2    1    0    0    0 -0.21953959940E+02 -0.65862476627E+01  0.20200750839E+02  0.94537989432E+02  0.89465111055E+02 0.  0.
         13    1    3    3    0    0  0.15443716360E+01  0.38789010821E+02 -0.18957847165E+01  0.38866149899E+02  0.10566000000E+00 0.  1.
         22    1    1    0    0    0  0.21953959940E+02  0.65862476627E+01 -0.20200750839E+02  0.30552010568E+02  0.00000000000E+00 0. -1.
</event>
<event>
 5    1  0.1259474E-009  0.9118800E+02  0.7815553E-02  0.1125453E+00
         25   -1    0    0    0    0  0.00000000000E+00  0.00000000000E+00  0.99999998245E-14  0.12509000000E+03  0.12509000000E+03 0.  0.
        -13    1    3    3    0    0 -0.50842325832E+01  0.78639590225E+01 -0.20351433294E+02  0.22402751475E+02  0.10566000000E+00 0.  1.
         23    2    1    0    0    0  0.14733916270E+02  0.34336509650E+02  0.26164639919E+02  0.79475610103E+02  0.65082255919E+02 0.  0.
         13    1    3    3    0    0  0.19818148854E+02  0.26472550628E+02  0.46516073213E+02  0.57072858628E+02  0.10566000000E+00 0. -1.
         22    1    1    0    0    0 -0.14733916270E+02 -0.34336509650E+02 -0.26164639919E+02  0.45614389897E+02  0.00000000000E+00 0. -1.
</event>
<event>
 5    1  0.1259474E-009  0.9118800E+02  0.7815553E-02  0.1125453E+00
         25   -1    0    0    0    0  0.00000000000E+00  0.00000000000E+00  0.99999998245E-14  0.12509000000E+03  0.12509000000E+03 0.  0.
        -13    1    3    3    0    0  0.21846603318E+02  0.36419901918E+02 -0.36616382233E+02  0.56075430843E+02  0.10566000000E+00 0. -1.
         23    2    1    0    0    0 -0.90256942837E+01  0.20924377010E+02 -0.21426745806E+02  0.93810643446E+02  0.88442290096E+02 0.  0.
         13    1    3    3    0    0 -0.30872297602E+02 -0.15495524908E+02  0.15189636427E+02  0.37735212603E+02  0.10566000000E+00 0.  1.
         22    1    1    0    0    0  0.90256942837E+01 -0.20924377010E+02  0.21426745806E+02  0.31279356554E+02  0.00000000000E+00 0. -1.
</event>
<event>
 5    1  0.1259474E-009  0.9118800E+02  0.7815553E-02  0.1125453E+00
         25   -1    0    0    0    0  0.00000000000E+00  0.00000000000E+00  0.99999998245E-14  0.12509000000E+03  0.12509000000E+03 0.  0.
        -13    1    3    3    0    0 -0.19991397357E+02  0.18930141833E+02  0.28628645484E+02  0.39719223865E+02  0.10566000000E+00 0.  1.
         23    2    1    0    0    0  0.30956528026E+01 -0.27808168913E+02  0.64166906912E+01  0.96383707241E+02  0.92009606985E+02 0.  0.
         13    1    3    3    0    0  0.23087050160E+02 -0.46738310746E+02 -0.22211954793E+02  0.56664483376E+02  0.10566000000E+00 0. -1.
         22    1    1    0    0    0 -0.30956528026E+01  0.27808168913E+02 -0.64166906912E+01  0.28706292759E+02  0.00000000000E+00 0. -1.
</event>
<event>
 5    1  0.1259474E-009  0.9118800E+02  0.7815553E-02  0.1125453E+00
         25   -1    0    0    0    0  0.00000000000E+00  0.00000000000E+00  0.99999998245E-14  0.12509000000E+03  0.12509000000E+03 0.  0.
        -13    1    3    3    0    0  0.22784530930E+02 -0.26711670882E+02 -0.78057822975E+00  0.35117925300E+02  0.10566000000E+00 0.  1.
         23    2    1    0    0    0 -0.24347782167E+02  0.70384100673E+01 -0.16082158352E+02  0.95073512364E+02  0.90210771105E+02 0.  0.
         13    1    3    3    0    0 -0.47132313096E+02  0.33750080949E+02 -0.15301580123E+02  0.59955587064E+02  0.10566000000E+00 0. -1.
         22    1    1    0    0    0  0.24347782167E+02 -0.70384100673E+01  0.16082158352E+02  0.30016487636E+02  0.00000000000E+00 0. -1.
</event>
<event>
 5    1  0.1259474E-009  0.9118800E+02  0.7815553E-02  0.1125453E+00
         25   -1    0    0    0    0  0.00000000000E+00  0.00000000000E+00  0.99999998245E-14  0.12509000000E+03  0.12509000000E+03 0.  0.
        -13    1    3    3    0    0 -0.27747757819E+02  0.83308689192E+01  0.12366200119E+02  0.31500404924E+02  0.10566000000E+00 0.  1.
         23    2    1    0    0    0  0.25279208088E+02 -0.95647174738E+01 -0.15407807795E+02  0.93978543542E+02  0.88679444762E+02 0.  0.
         13    1    3    3    0    0  0.53026965906E+02 -0.17895586393E+02 -0.27774007914E+02  0.62478138619E+02  0.10566000000E+00 0. -1.
         22    1    1    0    0    0 -0.25279208088E+02  0.95647174738E+01  0.15407807795E+02  0.31111456458E+02  0.00000000000E+00 0. -1.
</event>
<event>
 5    1  0.1259474E-009  0.9118800E+02  0.7815553E-02  0.1125453E+00
         25   -1    0    0    0    0  0.00000000000E+00  0.00000000000E+00  0.99999998245E-14  0.12509000000E+03  0.12509000000E+03 0.  0.
        -13    1    3    3    0    0 -0.11658516767E+02 -0.14232466135E+02  0.52595087194E+02  0.55720180065E+02  0.10566000000E+00 0.  1.
         23    2    1    0    0    0 -0.22306347222E+02  0.43266404159E+01  0.19405460282E+02  0.95209156096E+02  0.90398664658E+02 0.  0.
         13    1    3    3    0    0 -0.10647830455E+02  0.18559106551E+02 -0.33189626912E+02  0.39488976031E+02  0.10566000000E+00 0. -1.
         22    1    1    0    0    0  0.22306347222E+02 -0.43266404159E+01 -0.19405460282E+02  0.29880843904E+02  0.00000000000E+00 0.  1.
</event>
<event>
 5    1  0.1259474E-009  0.9118800E+02  0.7815553E-02  0.1125453E+00
         25   -1    0    0    0    0  0.00000000000E+00  0.00000000000E+00  0.99999998245E-14  0.12509000000E+03  0.12509000000E+03 0.  0.
        -13    1    3    3    0    0 -0.24882244678E+02  0.24067429635E+02  0.74130915395E+01  0.35402434375E+02  0.10566000000E+00 0. -1.
         23    2    1    0    0    0  0.80335397295E+00 -0.28094099932E+02  0.13587769917E+02  0.93872195466E+02  0.88529304536E+02 0.  0.
         13    1    3    3    0    0  0.25685598651E+02 -0.52161529568E+02  0.61746783772E+01  0.58469761091E+02  0.10566000000E+00 0.  1.
         22    1    1    0    0    0 -0.80335397295E+00  0.28094099932E+02 -0.13587769917E+02  0.31217804534E+02  0.00000000000E+00 0.  1.
</event>
<event>
 5    1  0.1259474E-009  0.9118800E+02  0.7815553E-02  0.1125453E+00
         25   -1    0    0    0    0  0.00000000000E+00  0.00000000000E+00  0.99999998245E-14  0.12509000000E+03  0.12509000000E+03 0.  0.
        -13    1    3    3    0    0 -0.52442462948E+01 -0.24088260361E+02 -0.46581652174E+02  0.52703015945E+02  0.10566000000E+00 0. -1.
         23    2    1    0    0    0  0.32406890891E+01 -0.27168505924E+02 -0.25953806365E+01  0.97606081419E+02  0.93656720792E+02 0.  0.
         13    1    3    3    0    0  0.84849353838E+01 -0.30802455631E+01  0.43986271537E+02  0.44903065474E+02  0.10566000000E+00 0.  1.
         22    1    1    0    0    0 -0.32406890891E+01  0.27168505924E+02  0.25953806365E+01  0.27483918581E+02  0.00000000000E+00 0.  1.
</event>
<event>
 5    1  0.1259474E-009  0.9118800E+02  0.7815553E-02  0.1125453E+00
         25   -1    0    0    0    0  0.00000000000E+00  0.00000000000E+00  0.99999998245E-14  0.12509000000E+03  0.12509000000E+03 0.  0.
        -13    1    3    3    0    0 -0.99443680054E+01 -0.19580779832E+01 -0.38687615879E+02  0.39993340831E+02  0.10566000000E+00 0.  1.
         23    2    1    0    0    0  0.29275778710E+02  0.80128475571E-01  0.95859120065E+00  0.95798422085E+02  0.91210422306E+02 0.  0.
         13    1    3    3    0    0  0.39220146715E+02  0.20382064588E+01  0.39646207079E+02  0.55805081254E+02  0.10566000000E+00 0. -1.
         22    1    1    0    0    0 -0.29275778710E+02 -0.80128475571E-01 -0.95859120065E+00  0.29291577915E+02  0.00000000000E+00 0. -1.
</event>
<event>
 5    1  0.1259474E-009  0.9118800E+02  0.7815553E-02  0.1125453E+00
         25   -1    0    0    0    0  0.00000000000E+00  0.00000000000E+00  0.99999998245E-14  0.12509000000E+03  0.12509000000E+03 0.  0.
        -13    1    3    3    0    0 -0.29078517636E+02  0.88614613697E+01  0.24348764697E+02  0.38948160314E+02  0.10566000000E+00 0. -1.
         23    2    1    0    0    0 -0.17125236129E+02  0.21781838334E+02 -0.22756707511E+02  0.89234875813E+02  0.81714583343E+02 0.  0.
         13    1    3    3    0    0  0.11953281508E+02  0.12920376965E+02 -0.47105472208E+02  0.50286715499E+02  0.10566000000E+00 0.  1.
         22    1    1    0    0    0  0.17125236129E+02 -0.21781838334E+02  0.22756707511E+02  0.35855124187E+02  0.00000000000E+00 0.  1.
</event>
<event>
 5    1  0.1259474E-009  0.9118800E+02  0.7815553E-02  0.1125453E+00
         25   -1    0    0    0    0  0.00000000000E+00  0.00000000000E+00  0.99999998245E-14  0.12509000000E+03  0.12509000000E+03 0.  0.
        -13    1    3    3    0    0  0.47745105612E+02  0.27489841782E+02 -0.18336708295E+02  0.58064899433E+02  0.10566000000E+00 0.  1.
         23    2    1    0    0    0  0.15345718375E+02  0.57780101942E+01 -0.22456974711E+02  0.97283666415E+02  0.93225101576E+02 0.  0.
         13    1    3    3    0    0 -0.32399387237E+02 -0.21711831588E+02 -0.41202664161E+01  0.39218766982E+02  0.10566000000E+00 0. -1.
         22    1    1    0    0    0 -0.15345718375E+02 -0.57780101942E+01  0.22456974711E+02  0.27806333585E+02  0.00000000000E+00 0.  1.
</event>
<event>
 5    1  0.1259474E-009  0.9118800E+02  0.7815553E-02  0.1125453E+00
         25   -1    0    0    0    0  0.00000000000E+00  0.00000000000E+00  0.99999998245E-14  0.12509000000E+03  0.12509000000E+03 0.  0.
        -13    1    3    3    0    0 -0.31487049319E+02  0.20561768002E+02 -0.86724338659E+01  0.38593300603E+02  0.10566000000E+00 0.  1.
         23    2    1    0    0    0  0.23744631200E+02  0.19650946684E+02 -0.30869944685E+01  0.94114255437E+02  0.88870671907E+02 0.  0.
         13    1    3    3    0    0  0.55231680519E+02 -0.91082131744E+00  0.55854393975E+01  0.55520954834E+02  0.10566000000E+00 0. -1.
         22    1    1    0    0    0 -0.23744631200E+02 -0.19650946684E+02  0.30869944685E+01  0.30975744563E+02  0.00000000000E+00 0. -1.
</event>
<event>
 5    1  0.1259474E-009  0.9118800E+02  0.7815553E-02  0.1125453E+00
         25   -1    0    0    0    0  0.00000000000E+00  0.00000000000E+00  0.99999998245E-14  0.12509000000E+03  0.12509000000E+03 0.  0.
        -13    1    3    3    0    0 -0.12262089556E+02  0.41856791966E+02  0.29955263719E+02  0.52911991670E+02  0.10566000000E+00 0. -1.
         23    2    1    0    0    0 -0.24426132138E+02  0.27357773310E+01  0.13366575672E+02  0.97111691365E+02  0.92994058121E+02 0.  0.
         13    1    3    3    0    0 -0.12164042583E+02 -0.39121014635E+02 -0.16588688046E+02  0.44199699696E+02  0.10566000000E+00 0.  1.
         22    1    1    0    0    0  0.24426132138E+02 -0.27357773310E+01 -0.13366575672E+02  0.27978308635E+02  0.00000000000E+00 0. -1.
</event>
<event>
 5    1  0.1259474E-009  0.9118800E+02  0.7815553E-02  0.1125453E+00
         25   -1    0    0    0    0  0.00000000000E+00  0.00000000000E+00  0.99999998245E-14  0.12509000000E+03  0.12509000000E+03 0.  0.
        -13    1    3    3    0    0  0.32036121781E+02  0.20976384564E+02  0.13624220548E+01  0.38316956639E+02  0.10566000000E+00 0.  1.
         23    2    1    0    0    0 -0.24102941391E+02  0.11777173604E+02  0.11146489161E+02  0.96040080509E+02  0.91541243392E+02 0.  0.
         13    1    3    3    0    0 -0.56139063173E+02 -0.91992109597E+01  0.97840671058E+01  0.57723123871E+02  0.10566000000E+00 0. -1.
         22    1    1    0    0    0  0.24102941391E+02 -0.11777173604E+02 -0.11146489161E+02  0.29049919491E+02  0.00000000000E+00 0. -1.
</event>
<event>
 5    1  0.1259474E-009  0.9118800E+02  0.7815553E-02  0.1125453E+00
         25   -1    0    0    0    0  0.00000000000E+00  0.00000000000E+00  0.99999998245E-14  0.12509000000E+03  0.12509000000E+03 0.  0.
        -13    1    3    3    0    0 -0.18980646136E+02 -0.40380264019E+02  0.32949937220E+02  0.55466568100E+02  0.10566000000E+00 0. -1.
         23    2    1    0    0    0  0.92523044975E+01 -0.13298036163E+02  0.24861281991E+02  0.95416337494E+02  0.90684900696E+02 0.  0.
         13    1    3    3    0    0  0.28232950633E+02  0.27082227857E+02 -0.80886552287E+01  0.39949769394E+02  0.10566000000E+00 0.  1.
         22    1    1    0    0    0 -0.92523044975E+01  0.13298036163E+02 -0.24861281991E+02  0.29673662506E+02  0.00000000000E+00 0. -1.
</event>
<event>
 5    1  0.1259474E-009  0.9118800E+02  0.7815553E-02  0.1125453E+00
         25   -1    0    0    0    0  0.00000000000E+00  0.00000000000E+00  0.99999998245E-14  0.12509000000E+03  0.12509000000E+03 0.  0.
        -13    1    3    3    0    0 -0.33432958858E+02 -0.16261941997E+02 -0.17004055978E+02  0.40882301541E+02  0.10566000000E+00 0.  1.
         23    2    1    0    0    0 -0.14034395037E+01 -0.13479335477E+02  0.26705566122E+02  0.95142556215E+02  0.90306459425E+02 0.  0.
         13    1    3    3    0    0  0.32029519355E+02  0.27826065193E+01  0.43709622100E+02  0.54260254674E+02  0.10566000000E+00 0. -1.
         22    1    1    0    0    0  0.14034395037E+01  0.13479335477E+02 -0.26705566122E+02  0.29947443785E+02  0.00000000000E+00 0. -1.
</event>
<event>
 5    1  0.1259474E-009  0.9118800E+02  0.7815553E-02  0.1125453E+00
         25   -1    0    0    0    0  0.00000000000E+00  0.00000000000E+00  0.99999998245E-14  0.12509000000E+03  0.12509000000E+03 0.  0.
        -13    1    3    3    0    0 -0.46834340924E+01 -0.28684504518E+02  0.22547107615E+02  0.36784760162E+02  0.10566000000E+00 0.  1.
         23    2    1    0    0    0 -0.97569420985E+01  0.26572102348E+02 -0.26988103409E+00  0.96781920269E+02  0.92549406874E+02 0.  0.
         13    1    3    3    0    0 -0.50735080061E+01  0.55256606866E+02 -0.22816988650E+02  0.59997160107E+02  0.10566000000E+00 0. -1.
         22    1    1    0    0    0  0.97569420985E+01 -0.26572102348E+02  0.26988103409E+00  0.28308079731E+02  0.00000000000E+00 0. -1.
</event>
<event>
 5    1  0.1259474E-009  0.9118800E+02  0.7815553E-02  0.1125453E+00
         25   -1    0    0    0    0  0.00000000000E+00  0.00000000000E+00  0.99999998245E-14  0.12509000000E+03  0.12509000000E+03 0.  0.
        -13    1    3    3    0    0  0.14873654111E+02  0.44682880842E+02 -0.13008779132E+02  0.48857189087E+02  0.10566000000E+00 0. -1.
         23    2    1    0    0    0  0.29690381632E+02  0.19469931318E+01 -0.73502583746E+01  0.94441413705E+02  0.89329976944E+02 0.  0.
         13    1    3    3    0    0  0.14816727520E+02 -0.42735887710E+02  0.56585207570E+01  0.45584224618E+02  0.10566000000E+00 0.  1.
         22    1    1    0    0    0 -0.29690381632E+02 -0.19469931318E+01  0.73502583746E+01  0.30648586295E+02  0.00000000000E+00 0.  1.
</event>
<event>
 5    1  0.1259474E-009  0.9118800E+02  0.7815553E-02  0.1125453E+00
         25   -1    0    0    0    0  0.00000000000E+00  0.00000000000E+00  0.99999998245E-14  0.12509000000E+03  0.12509000000E+03 0.  0.
        -13    1    3    3    0    0  0.22168556287E+02  0.38456307642E+02 -0.21338333086E+02  0.49251072153E+02  0.10566000000E+00 0.  1.
         23    2    1    0    0    0  0.69871363154E+01  0.22464452827E+02  0.18751693752E+02  0.95005157749E+02  0.90115937911E+02 0.  0.
         13    1    3    3    0    0 -0.15181419971E+02 -0.15991854815E+02  0.40090026838E+02  0.45754085596E+02  0.10566000000E+00 0. -1.
         22    1    1    0    0    0 -0.69871363154E+01 -0.22464452827E+02 -0.18751693752E+02  0.30084842251E+02  0.00000000000E+00 0. -1.
</event>
<event>
 5    1  0.1259474E-009  0.9118800E+02  0.7815553E-02  0.1125453E+00
         25   -1    0    0    0    0  0.00000000000E+00  0.00000000000E+00  0.99999998245E-14  0.12509000000E+03  0.12509000000E+03 0.  0.
        -13    1    3    3    0    0  0.20729187885E+02  0.96534972165E+01  0.24053635179E+02  0.33188518621E+02  0.10566000000E+00 0. -1.
         23    2    1    0    0    0 -0.87030659022E+01 -0.82381588346E+01 -0.27444240363E+02  0.95143431813E+02  0.90307672271E+02 0.  0.
         13    1    3    3    0    0 -0.29432253787E+02 -0.17891656051E+02 -0.51497875542E+02  0.61954913192E+02  0.10566000000E+00 0.  1.
         22    1    1    0    0    0  0.87030659022E+01  0.82381588346E+01  0.27444240363E+02  0.29946568187E+02  0.00000000000E+00 0.  1.
</event>
<event>
 5    1  0.1259474E-009  0.9118800E+02  0.7815553E-02  0.1125453E+00
         25   -1    0    0    0    0  0.00000000000E+00  0.00000000000E+00  0.99999998245E-14  0.12509000000E+03  0.12509000000E+03 0.  0.
        -13    1    3    3    0    0  0.31025381914E+02 -0.15414953799E+02 -0.52058146556E+02  0.62532047067E+02  0.10566000000E+00 0. -1.
         23    2    1    0    0    0  0.13929663864E+02 -0.65770278895E+01 -0.24662610136E+02  0.96011878156E+02  0.91502697103E+02 0.  0.
         13    1    3    3    0    0 -0.17095718050E+02  0.88379259093E+01  0.27395536419E+02  0.33479831089E+02  0.10566000000E+00 0.  1.
         22    1    1    0    0    0 -0.13929663864E+02  0.65770278895E+01  0.24662610136E+02  0.29078121844E+02  0.00000000000E+00 0. -1.
</event>
<event>
 5    1  0.1259474E-009  0.9118800E+02  0.7815553E-02  0.1125453E+00
         25   -1    0    0    0    0  0.00000000000E+00  0.00000000000E+00  0.99999998245E-14  0.12509000000E+03  0.12509000000E+03 0.  0.
        -13    1    3    3    0    0  0.23740719916E+02  0.25884738301E+02  0.47022640938E+01  0.35436759314E+02  0.10566000000E+00 0.  1.
         23    2    1    0    0    0 -0.39746016899E+01  0.51507395390E+01  0.39818232475E+02  0.84743758368E+02  0.74523052598E+02 0.  0.
         13    1    3    3    0    0 -0.27715321605E+02 -0.20733998762E+02  0.35115968381E+02  0.49306999054E+02  0.10566000000E+00 0. -1.
         22    1    1    0    0    0  0.39746016899E+01 -0.51507395390E+01 -0.39818232475E+02  0.40346241632E+02  0.00000000000E+00 0. -1.
</event>
<event>
 5    1  0.1259474E-009  0.9118800E+02  0.7815553E-02  0.1125453E+00
         25   -1    0    0    0    0  0.00000000000E+00  0.00000000000E+00  0.99999998245E-14  0.12509000000E+03  0.12509000000E+03 0.  0.
        -13    1    3    3    0    0  0.28393923876E+02 -0.18679943091E+02  0.16924734274E+02  0.37968578868E+02  0.10566000000E+00 0. -1.
         23    2    1    0    0    0 -0.22634736576E+02 -0.14012730257E+02 -0.10953896931E+02  0.96303270990E+02  0.91900186269E+02 0.  0.
         13    1    3    3    0    0 -0.51028660452E+02  0.46672128346E+01 -0.27878631205E+02  0.58334692122E+02  0.10566000000E+00 0.  1.
         22    1    1    0    0    0  0.22634736576E+02  0.14012730257E+02  0.10953896931E+02  0.28786729010E+02  0.00000000000E+00 0.  1.
</event>
<event>
 5    1  0.1259474E-009  0.9118800E+02  0.7815553E-02  0.1125453E+00
         25   -1    0    0    0    0  0.00000000000E+00  0.00000000000E+00  0.99999998245E-14  0.12509000000E+03  0.12509000000E+03 0.  0.
        -13    1    3    3    0    0 -0.29508348787E+02 -0.74870720991E+01  0.29569084726E+01  0.30586816907E+02  0.10566000000E+00 0.  1.
         23    2    1    0    0    0  0.13150846873E+02  0.20825430352E+02 -0.25891605900E+02  0.89354603278E+02  0.81897658990E+02 0.  0.
         13    1    3    3    0    0  0.42659195660E+02  0.28312502451E+02 -0.28848514372E+02  0.58767786371E+02  0.10566000000E+00 0. -1.
         22    1    1    0    0    0 -0.13150846873E+02 -0.20825430352E+02  0.25891605900E+02  0.35735396722E+02  0.00000000000E+00 0. -1.
</event>
<event>
 5    1  0.1259474E-009  0.9118800E+02  0.7815553E-02  0.1125453E+00
         25   -1    0    0    0    0  0.00000000000E+00  0.00000000000E+00  0.99999998245E-14  0.12509000000E+03  0.12509000000E+03 0.  0.
        -13    1    3    3    0    0 -0.11931254412E+02  0.49545896640E+01  0.57778481585E+02  0.59205294433E+02  0.10566000000E+00 0.  1.
         23    2    1    0    0    0 -0.10782645810E+02  0.15322230063E+02  0.23503582029E+02  0.95032479262E+02  0.90153854946E+02 0.  0.
         13    1    3    3    0    0  0.11486086019E+01  0.10367640399E+02 -0.34274899556E+02  0.35827184829E+02  0.10566000000E+00 0. -1.
         22    1    1    0    0    0  0.10782645810E+02 -0.15322230063E+02 -0.23503582029E+02  0.30057520738E+02  0.00000000000E+00 0.  1.
</event>
<event>
 5    1  0.1259474E-009  0.9118800E+02  0.7815553E-02  0.1125453E+00
         25   -1    0    0    0    0  0.00000000000E+00  0.00000000000E+00  0.99999998245E-14  0.12509000000E+03  0.12509000000E+03 0.  0.
        -13    1    3    3    0    0 -0.48182582704E+01 -0.32880017364E+02  0.19712735791E+02  0.38638248809E+02  0.10566000000E+00 0.  1.
         23    2    1    0    0    0  0.18455549098E+02 -0.32172884010E+01 -0.22878287656E+02  0.95520179520E+02  0.90828026579E+02 0.  0.
         13    1    3    3    0    0  0.23273807369E+02  0.29662728963E+02 -0.42591023448E+02  0.56881930710E+02  0.10566000000E+00 0. -1.
         22    1    1    0    0    0 -0.18455549098E+02  0.32172884010E+01  0.22878287656E+02  0.29569820480E+02  0.00000000000E+00 0. -1.
</event>
<event>
 5    1  0.1259474E-009  0.9118800E+02  0.7815553E-02  0.1125453E+00
         25   -1    0    0    0    0  0.00000000000E+00  0.00000000000E+00  0.99999998245E-14  0.12509000000E+03  0.12509000000E+03 0.  0.
        -13    1    3    3    0    0  0.49089923161E+02  0.48280732566E+01  0.38021977121E+02  0.62280115249E+02  0.10566000000E+00 0. -1.
         23    2    1    0    0    0  0.25984803598E+02  0.48921310680E+01  0.16085675458E+02  0.94140170931E+02  0.88907141803E+02 0.  0.
         13    1    3    3    0    0 -0.23105119562E+02  0.64057811331E-01 -0.21936301663E+02  0.31860055682E+02  0.10566000000E+00 0.  1.
         22    1    1    0    0    0 -0.25984803598E+02 -0.48921310680E+01 -0.16085675458E+02  0.30949829069E+02  0.00000000000E+00 0. -1.
</event>
<event>
 5    1  0.1259474E-009  0.9118800E+02  0.7815553E-02  0.1125453E+00
         25   -1    0    0    0    0  0.00000000000E+00  0.00000000000E+00  0.99999998245E-14  0.12509000000E+03  0.12509000000E+03 0.  0.
        -13    1    3    3    0    0  0.16338774159E+02 -0.49682205937E+01 -0.57343599814E+02  0.59832586109E+02  0.10566000000E+00 0.  1.
         23    2    1    0    0    0  0.72770380269E+01 -0.14900071780E+02 -0.22822777094E+02  0.96879247160E+02  0.92680860778E+02 0.  0.
         13    1    3    3    0    0 -0.90617361317E+01 -0.99318511867E+01  0.34520822720E+02  0.37046661051E+02  0.10566000000E+00 0. -1.
         22    1    1    0    0    0 -0.72770380269E+01  0.14900071780E+02  0.22822777094E+02  0.28210752840E+02  0.00000000000E+00 0.  1.
</event>
<event>
 5    1  0.1259474E-009  0.9118800E+02  0.7815553E-02  0.1125453E+00
         25   -1    0    0    0    0  0.00000000000E+00  0.00000000000E+00  0.99999998245E-14  0.12509000000E+03  0.12509000000E+03 0.  0.
        -13    1    3    3    0    0 -0.83216141489E+01  0.15537872190E+02 -0.36623449442E+02  0.40644347052E+02  0.10566000000E+00 0. -1.
         23    2    1    0    0    0 -0.20831901411E+02 -0.13952506073E+02  0.10731807690E+02  0.97817078660E+02  0.93938110686E+02 0.  0.
         13    1    3    3    0    0 -0.12510287262E+02 -0.29490378263E+02  0.47355257132E+02  0.57172731608E+02  0.10566000000E+00 0.  1.
         22    1    1    0    0    0  0.20831901411E+02  0.13952506073E+02 -0.10731807690E+02  0.27272921340E+02  0.00000000000E+00 0.  1.
</event>
<event>
 5    1  0.1259474E-009  0.9118800E+02  0.7815553E-02  0.1125453E+00
         25   -1    0    0    0    0  0.00000000000E+00  0.00000000000E+00  0.99999998245E-14  0.12509000000E+03  0.12509000000E+03 0.  0.
        -13    1    3    3    0    0 -0.29488828622E+02  0.15534199851E+02 -0.39768235457E+02  0.51888593100E+02  0.10566000000E+00 0. -1.
         23    2    1    0    0    0  0.20669982205E+01  0.27342060591E+02 -0.14019842289E+02  0.94293624616E+02  0.89122785562E+02 0.  0.
         13    1    3    3    0    0  0.31555826843E+02  0.11807860740E+02  0.25748393169E+02  0.42405031515E+02  0.10566000000E+00 0.  1.
         22    1    1    0    0    0 -0.20669982205E+01 -0.27342060591E+02  0.14019842289E+02  0.30796375384E+02  0.00000000000E+00 0.  1.
</event>
<event>
 5    1  0.1259474E-009  0.9118800E+02  0.7815553E-02  0.1125453E+00
         25   -1    0    0    0    0  0.00000000000E+00  0.00000000000E+00  0.99999998245E-14  0.12509000000E+03  0.12509000000E+03 0.  0.
        -13    1    3    3    0    0 -0.46158704200E+01  0.87157473376E+01 -0.33204344508E+02  0.34638276078E+02  0.10566000000E+00 0. -1.
         23    2    1    0    0    0 -0.10308550540E+02 -0.21711580843E+02  0.18403961254E+02  0.94818482913E+02  0.89856440811E+02 0.  0.
         13    1    3    3    0    0 -0.56926801196E+01 -0.30427328180E+02  0.51608305762E+02  0.60180206835E+02  0.10566000000E+00 0.  1.
         22    1    1    0    0    0  0.10308550540E+02  0.21711580843E+02 -0.18403961254E+02  0.30271517087E+02  0.00000000000E+00 0.  1.
</event>
<event>
 5    1  0.1259474E-009  0.9118800E+02  0.7815553E-02  0.1125453E+00
         25   -1    0    0    0    0  0.00000000000E+00  0.00000000000E+00  0.99999998245E-14  0.12509000000E+03  0.12509000000E+03 0.  0.
        -13    1    3    3    0    0 -0.28924653166E+02  0.11207682942E+02 -0.47885076292E+02  0.57054705443E+02  0.10566000000E+00 0.  1.
         23    2    1    0    0    0 -0.24933413119E+02  0.22098662466E+02 -0.22722974878E+02  0.84761851520E+02  0.74553416509E+02 0.  0.
         13    1    3    3    0    0  0.39912400473E+01  0.10890979524E+02  0.25162101414E+02  0.27707146076E+02  0.10566000000E+00 0. -1.
         22    1    1    0    0    0  0.24933413119E+02 -0.22098662466E+02  0.22722974878E+02  0.40328148480E+02  0.00000000000E+00 0.  1.
</event>
<event>
 5    1  0.1259474E-009  0.9118800E+02  0.7815553E-02  0.1125453E+00
         25   -1    0    0    0    0  0.00000000000E+00  0.00000000000E+00  0.99999998245E-14  0.12509000000E+03  0.12509000000E+03 0.  0.
        -13    1    3    3    0    0  0.31451620022E+01 -0.58750197390E+01  0.26035228986E+02  0.26874750479E+02  0.10566000000E+00 0.  1.
         23    2    1    0    0    0 -0.18116519867E+02  0.35732391415E+02 -0.74251488478E+01  0.84345123957E+02  0.73850897162E+02 0.  0.
         13    1    3    3    0    0 -0.21261681869E+02  0.41607411154E+02 -0.33460377834E+02  0.57470373478E+02  0.10566000000E+00 0. -1.
         22    1    1    0    0    0  0.18116519867E+02 -0.35732391415E+02  0.74251488478E+01  0.40744876043E+02  0.00000000000E+00 0. -1.
</event>
<event>
 5    1  0.1259474E-009  0.9118800E+02  0.7815553E-02  0.1125453E+00
         25   -1    0    0    0    0  0.00000000000E+00  0.00000000000E+00  0.99999998245E-14  0.12509000000E+03  0.12509000000E+03 0.  0.
        -13    1    3    3    0    0 -0.25474689711E+02  0.51646473049E+01 -0.48145126943E+02  0.54713780806E+02  0.10566000000E+00 0.  1.
         23    2    1    0    0    0 -0.21805943445E+02 -0.15422226393E+02 -0.13542599364E+02  0.95144278537E+02  0.90308845106E+02 0.  0.
         13    1    3    3    0    0  0.36687462664E+01 -0.20586873698E+02  0.34602527580E+02  0.40430497731E+02  0.10566000000E+00 0. -1.
         22    1    1    0    0    0  0.21805943445E+02  0.15422226393E+02  0.13542599364E+02  0.29945721463E+02  0.00000000000E+00 0.  1.
</event>
<event>
 5    1  0.1259474E-009  0.9118800E+02  0.7815553E-02  0.1125453E+00
         25   -1    0    0    0    0  0.00000000000E+00  0.00000000000E+00  0.99999998245E-14  0.12509000000E+03  0.12509000000E+03 0.  0.
        -13    1    3    3    0    0  0.39240099448E+02 -0.22519871011E+02 -0.37042939057E+02  0.58473245960E+02  0.10566000000E+00 0. -1.
         23    2    1    0    0    0  0.11687410156E+02 -0.10962318835E+01 -0.28297903555E+02  0.94453932594E+02  0.89347505597E+02 0.  0.
         13    1    3    3    0    0 -0.27552689293E+02  0.21423639127E+02  0.87450355024E+01  0.35980686634E+02  0.10566000000E+00 0.  1.
         22    1    1    0    0    0 -0.11687410156E+02  0.10962318835E+01  0.28297903555E+02  0.30636067406E+02  0.00000000000E+00 0. -1.
</event>
<event>
 5    1  0.1259474E-009  0.9118800E+02  0.7815553E-02  0.1125453E+00
         25   -1    0    0    0    0  0.00000000000E+00  0.00000000000E+00  0.99999998245E-14  0.12509000000E+03  0.12509000000E+03 0.  0.
        -13    1    3    3    0    0  0.21633505100E+02 -0.48825921177E+02 -0.10604120822E+02  0.54446649706E+02  0.10566000000E+00 0. -1.
         23    2    1    0    0    0  0.15019160556E+02 -0.10375456243E+02 -0.23313710998E+02  0.95479961220E+02  0.90772620311E+02 0.  0.
         13    1    3    3    0    0 -0.66143445438E+01  0.38450464934E+02 -0.12709590175E+02  0.41033311515E+02  0.10566000000E+00 0.  1.
         22    1    1    0    0    0 -0.15019160556E+02  0.10375456243E+02  0.23313710998E+02  0.29610038780E+02  0.00000000000E+00 0. -1.
</event>
<event>
 5    1  0.1259474E-009  0.9118800E+02  0.7815553E-02  0.1125453E+00
         25   -1    0    0    0    0  0.00000000000E+00  0.00000000000E+00  0.99999998245E-14  0.12509000000E+03  0.12509000000E+03 0.  0.
        -13    1    3    3    0    0  0.29238525022E+02  0.53781678126E+02  0.12024647188E+02  0.62385603720E+02  0.10566000000E+00 0.  1.
         23    2    1    0    0    0  0.12443271870E+02  0.23975650493E+02  0.21619425323E+01  0.97991276286E+02  0.94169790280E+02 0.  0.
         13    1    3    3    0    0 -0.16795253152E+02 -0.29806027633E+02 -0.98627046555E+01  0.35605672566E+02  0.10566000000E+00 0. -1.
         22    1    1    0    0    0 -0.12443271870E+02 -0.23975650493E+02 -0.21619425323E+01  0.27098723714E+02  0.00000000000E+00 0.  1.
</event>
<event>
 5    1  0.1259474E-009  0.9118800E+02  0.7815553E-02  0.1125453E+00
         25   -1    0    0    0    0  0.00000000000E+00  0.00000000000E+00  0.99999998245E-14  0.12509000000E+03  0.12509000000E+03 0.  0.
        -13    1    3    3    0    0 -0.44502358799E+02 -0.64334018814E+01 -0.18826933001E+02  0.48747442689E+02  0.10566000000E+00 0.  1.
         23    2    1    0    0    0 -0.50492340407E+01 -0.28388442764E+02 -0.73620783092E+01  0.95330990541E+02  0.90567097300E+02 0.  0.
         13    1    3    3    0    0  0.39453124758E+02 -0.21955040883E+02  0.11464854691E+02  0.46583547852E+02  0.10566000000E+00 0. -1.
         22    1    1    0    0    0  0.50492340407E+01  0.28388442764E+02  0.73620783092E+01  0.29759009459E+02  0.00000000000E+00 0.  1.
</event>
<event>
 5    1  0.1259474E-009  0.9118800E+02  0.7815553E-02  0.1125453E+00
         25   -1    0    0    0    0  0.00000000000E+00  0.00000000000E+00  0.99999998245E-14  0.12509000000E+03  0.12509000000E+03 0.  0.
        -13    1    3    3    0    0 -0.26062505489E+02 -0.37213834226E+01 -0.32098097576E+02  0.41513876222E+02  0.10566000000E+00 0. -1.
         23    2    1    0    0    0 -0.17949566107E+02 -0.26216767550E+02  0.11549532186E+02  0.91283232661E+02  0.84792281766E+02 0.  0.
         13    1    3    3    0    0  0.81129393816E+01 -0.22495384127E+02  0.43647629762E+02  0.49769356439E+02  0.10566000000E+00 0.  1.
         22    1    1    0    0    0  0.17949566107E+02  0.26216767550E+02 -0.11549532186E+02  0.33806767339E+02  0.00000000000E+00 0.  1.
</event>
<event>
 5    1  0.1259474E-009  0.9118800E+02  0.7815553E-02  0.1125453E+00
         25   -1    0    0    0    0  0.00000000000E+00  0.00000000000E+00  0.99999998245E-14  0.12509000000E+03  0.12509000000E+03 0.  0.
        -13    1    3    3    0    0  0.35367718055E+02 -0.22478872304E+02 -0.35878841050E+02  0.55167722262E+02  0.10566000000E+00 0.  1.
         23    2    1    0    0    0  0.42472966436E+01 -0.28054854549E+02 -0.15972360763E+02  0.92528816039E+02  0.86610340588E+02 0.  0.
         13    1    3    3    0    0 -0.31120421411E+02 -0.55759822454E+01  0.19906480286E+02  0.37361093777E+02  0.10566000000E+00 0. -1.
         22    1    1    0    0    0 -0.42472966436E+01  0.28054854549E+02  0.15972360763E+02  0.32561183961E+02  0.00000000000E+00 0.  1.
</event>
<event>
 5    1  0.1259474E-009  0.9118800E+02  0.7815553E-02  0.1125453E+00
         25   -1    0    0    0    0  0.00000000000E+00  0.00000000000E+00  0.99999998245E-14  0.12509000000E+03  0.12509000000E+03 0.  0.
        -13    1    3    3    0    0  0.47566035175E+02  0.24686388273E+02  0.71851155344E-01  0.53590687576E+02  0.10566000000E+00 0.  1.
         23    2    1    0    0    0  0.24687251959E+02 -0.29537671166E+01 -0.18600293876E+02  0.94039137182E+02  0.88764876163E+02 0.  0.
         13    1    3    3    0    0 -0.22878783217E+02 -0.27640155389E+02 -0.18672145032E+02  0.40448449606E+02  0.10566000000E+00 0. -1.
         22    1    1    0    0    0 -0.24687251959E+02  0.29537671166E+01  0.18600293876E+02  0.31050862818E+02  0.00000000000E+00 0.  1.
</event>
<event>
 5    1  0.1259474E-009  0.9118800E+02  0.7815553E-02  0.1125453E+00
         25   -1    0    0    0    0  0.00000000000E+00  0.00000000000E+00  0.99999998245E-14  0.12509000000E+03  0.12509000000E+03 0.  0.
        -13    1    3    3    0    0  0.17112237610E+01  0.35321839121E+02  0.32533701982E+02  0.48052195937E+02  0.10566000000E+00 0. -1.
         23    2    1    0    0    0  0.13279323443E+02 -0.25981644769E+01  0.34789490011E+02  0.87761733164E+02  0.79427465671E+02 0.  0.
         13    1    3    3    0    0  0.11568099682E+02 -0.37920003598E+02  0.22557880297E+01  0.39709537227E+02  0.10566000000E+00 0.  1.
         22    1    1    0    0    0 -0.13279323443E+02  0.25981644769E+01 -0.34789490011E+02  0.37328266836E+02  0.00000000000E+00 0. -1.
</event>
<event>
 5    1  0.1259474E-009  0.9118800E+02  0.7815553E-02  0.1125453E+00
         25   -1    0    0    0    0  0.00000000000E+00  0.00000000000E+00  0.99999998245E-14  0.12509000000E+03  0.12509000000E+03 0.  0.
        -13    1    3    3    0    0  0.36069818586E+02  0.32516394416E+01  0.14881064311E+02  0.39154338341E+02  0.10566000000E+00 0. -1.
         23    2    1    0    0    0  0.38477144635E+01 -0.88570614130E+01 -0.28768663314E+02  0.94743856384E+02  0.89752492390E+02 0.  0.
         13    1    3    3    0    0 -0.32222104122E+02 -0.12108700855E+02 -0.43649727625E+02  0.55589518043E+02  0.10566000000E+00 0.  1.
         22    1    1    0    0    0 -0.38477144635E+01  0.88570614130E+01  0.28768663314E+02  0.30346143616E+02  0.00000000000E+00 0.  1.
</event>
<event>
 5    1  0.1259474E-009  0.9118800E+02  0.7815553E-02  0.1125453E+00
         25   -1    0    0    0    0  0.00000000000E+00  0.00000000000E+00  0.99999998245E-14  0.12509000000E+03  0.12509000000E+03 0.  0.
        -13    1    3    3    0    0 -0.10665259425E+01 -0.47795449172E+02 -0.47188776218E+01  0.48039789853E+02  0.10566000000E+00 0.  1.
         23    2    1    0    0    0  0.12734225186E+02 -0.11982056966E+02  0.23586650311E+02  0.95729137391E+02  0.91115352672E+02 0.  0.
         13    1    3    3    0    0  0.13800751128E+02  0.35813392206E+02  0.28305527933E+02  0.47689347538E+02  0.10566000000E+00 0. -1.
         22    1    1    0    0    0 -0.12734225186E+02  0.11982056966E+02 -0.23586650311E+02  0.29360862609E+02  0.00000000000E+00 0. -1.
</event>
<event>
 5    1  0.1259474E-009  0.9118800E+02  0.7815553E-02  0.1125453E+00
         25   -1    0    0    0    0  0.00000000000E+00  0.00000000000E+00  0.99999998245E-14  0.12509000000E+03  0.12509000000E+03 0.  0.
        -13    1    3    3    0    0 -0.14909333871E+01 -0.39622872986E+02 -0.47248392725E+02  0.61681575249E+02  0.10566000000E+00 0. -1.
         23    2    1    0    0    0  0.59463592518E+01 -0.18438321291E+02 -0.17264248624E+02  0.99140334088E+02  0.95683962513E+02 0.  0.
         13    1    3    3    0    0  0.74372926389E+01  0.21184551695E+02  0.29984144101E+02  0.37458758839E+02  0.10566000000E+00 0.  1.
         22    1    1    0    0    0 -0.59463592518E+01  0.18438321291E+02  0.17264248624E+02  0.25949665912E+02  0.00000000000E+00 0. -1.
</event>
<event>
 5    1  0.1259474E-009  0.9118800E+02  0.7815553E-02  0.1125453E+00
         25   -1    0    0    0    0  0.00000000000E+00  0.00000000000E+00  0.99999998245E-14  0.12509000000E+03  0.12509000000E+03 0.  0.
        -13    1    3    3    0    0  0.27003194683E+02  0.47151201504E+02  0.14058062837E+02  0.56125293951E+02  0.10566000000E+00 0. -1.
         23    2    1    0    0    0  0.32454037798E+01  0.16840553188E+02  0.23709001514E+02  0.95828188194E+02  0.91251235731E+02 0.  0.
         13    1    3    3    0    0 -0.23757790903E+02 -0.30310648316E+02  0.96509386766E+01  0.39702894243E+02  0.10566000000E+00 0.  1.
         22    1    1    0    0    0 -0.32454037798E+01 -0.16840553188E+02 -0.23709001514E+02  0.29261811806E+02  0.00000000000E+00 0. -1.
</event>
<event>
 5    1  0.1259474E-009  0.9118800E+02  0.7815553E-02  0.1125453E+00
         25   -1    0    0    0    0  0.00000000000E+00  0.00000000000E+00  0.99999998245E-14  0.12509000000E+03  0.12509000000E+03 0.  0.
        -13    1    3    3    0    0  0.46162921409E+02 -0.23114794414E+02  0.71493183272E+01  0.52119410495E+02  0.10566000000E+00 0.  1.
         23    2    1    0    0    0  0.17919776018E+01 -0.26583203257E+02  0.97916179175E+01  0.96704199666E+02  0.92444299838E+02 0.  0.
         13    1    3    3    0    0 -0.44370943807E+02 -0.34684088435E+01  0.26422995904E+01  0.44584789171E+02  0.10566000000E+00 0. -1.
         22    1    1    0    0    0 -0.17919776018E+01  0.26583203257E+02 -0.97916179175E+01  0.28385800334E+02  0.00000000000E+00 0.  1.
</event>
<event>
 5    1  0.1259474E-009  0.9118800E+02  0.7815553E-02  0.1125453E+00
         25   -1    0    0    0    0  0.00000000000E+00  0.00000000000E+00  0.99999998245E-14  0.12509000000E+03  0.12509000000E+03 0.  0.
        -13    1    3    3    0    0 -0.23256112278E+02  0.26565744768E+02 -0.29380921505E+02  0.45932943144E+02  0.10566000000E+00 0.  1.
         23    2    1    0    0    0  0.21969291898E+02  0.77189556500E+01 -0.16367983780E+02  0.96626989691E+02  0.92339764895E+02 0.  0.
         13    1    3    3    0    0  0.45225404176E+02 -0.18846789119E+02  0.13012937725E+02  0.50694046546E+02  0.10566000000E+00 0. -1.
         22    1    1    0    0    0 -0.21969291898E+02 -0.77189556500E+01  0.16367983780E+02  0.28463010309E+02  0.00000000000E+00 0.  1.
</event>
<event>
 5    1  0.1259474E-009  0.9118800E+02  0.7815553E-02  0.1125453E+00
         25   -1    0    0    0    0  0.00000000000E+00  0.00000000000E+00  0.99999998245E-14  0.12509000000E+03  0.12509000000E+03 0.  0.
        -13    1    3    3    0    0 -0.25853660825E+02  0.22786392555E+02  0.14072239087E+02  0.37224595910E+02  0.10566000000E+00 0.  1.
         23    2    1    0    0    0  0.11709722021E+02  0.48648954700E+01 -0.26727715825E+02  0.95506971234E+02  0.90809834068E+02 0.  0.
         13    1    3    3    0    0  0.37563382846E+02 -0.17921497085E+02 -0.40799954912E+02  0.58282375324E+02  0.10566000000E+00 0. -1.
         22    1    1    0    0    0 -0.11709722021E+02 -0.48648954700E+01  0.26727715825E+02  0.29583028766E+02  0.00000000000E+00 0. -1.
</event>
<event>
 5    1  0.1259474E-009  0.9118800E+02  0.7815553E-02  0.1125453E+00
         25   -1    0    0    0    0  0.00000000000E+00  0.00000000000E+00  0.99999998245E-14  0.12509000000E+03  0.12509000000E+03 0.  0.
        -13    1    3    3    0    0  0.51313590358E+02  0.49220255591E+01  0.14723328199E+02  0.53610618802E+02  0.10566000000E+00 0.  1.
         23    2    1    0    0    0  0.14895370301E+02  0.24038792793E+02  0.10360807993E+02  0.94972198659E+02  0.90070175755E+02 0.  0.
         13    1    3    3    0    0 -0.36418220058E+02  0.19116767234E+02 -0.43625202057E+01  0.41361579857E+02  0.10566000000E+00 0. -1.
         22    1    1    0    0    0 -0.14895370301E+02 -0.24038792793E+02 -0.10360807993E+02  0.30117801341E+02  0.00000000000E+00 0.  1.
</event>
<event>
 5    1  0.1259474E-009  0.9118800E+02  0.7815553E-02  0.1125453E+00
         25   -1    0    0    0    0  0.00000000000E+00  0.00000000000E+00  0.99999998245E-14  0.12509000000E+03  0.12509000000E+03 0.  0.
        -13    1    3    3    0    0 -0.33047275069E+02 -0.35041185957E+02  0.36106533105E+02  0.60197176011E+02  0.10566000000E+00 0. -1.
         23    2    1    0    0    0 -0.12477726069E+02 -0.50595147762E+01  0.22201006164E+02  0.99125081122E+02  0.95664019857E+02 0.  0.
         13    1    3    3    0    0  0.20569549000E+02  0.29981671181E+02 -0.13905526940E+02  0.38927905112E+02  0.10566000000E+00 0.  1.
         22    1    1    0    0    0  0.12477726069E+02  0.50595147762E+01 -0.22201006164E+02  0.25964918878E+02  0.00000000000E+00 0. -1.
</event>
<event>
 5    1  0.1259474E-009  0.9118800E+02  0.7815553E-02  0.1125453E+00
         25   -1    0    0    0    0  0.00000000000E+00  0.00000000000E+00  0.99999998245E-14  0.12509000000E+03  0.12509000000E+03 0.  0.
        -13    1    3    3    0    0 -0.26018150755E+02  0.27866652684E+01 -0.35399627594E+02  0.44021068477E+02  0.10566000000E+00 0.  1.
         23    2    1    0    0    0 -0.26894473217E+02 -0.62417728634E+01  0.13921461540E+02  0.94169464599E+02  0.88948347671E+02 0.  0.
         13    1    3    3    0    0 -0.87632246164E+00 -0.90284381318E+01  0.49321089134E+02  0.50148396122E+02  0.10566000000E+00 0. -1.
         22    1    1    0    0    0  0.26894473217E+02  0.62417728634E+01 -0.13921461540E+02  0.30920535401E+02  0.00000000000E+00 0.  1.
</event>
<event>
 5    1  0.1259474E-009  0.9118800E+02  0.7815553E-02  0.1125453E+00
         25   -1    0    0    0    0  0.00000000000E+00  0.00000000000E+00  0.99999998245E-14  0.12509000000E+03  0.12509000000E+03 0.  0.
        -13    1    3    3    0    0  0.22086264133E+02  0.56372278952E+02  0.15617792106E+02  0.62526502316E+02  0.10566000000E+00 0.  1.
         23    2    1    0    0    0  0.10987483719E+02  0.28908381408E+02  0.90371440258E+01  0.92870606985E+02  0.87102585241E+02 0.  0.
         13    1    3    3    0    0 -0.11098780414E+02 -0.27463897544E+02 -0.65806480802E+01  0.30344104669E+02  0.10566000000E+00 0. -1.
         22    1    1    0    0    0 -0.10987483719E+02 -0.28908381408E+02 -0.90371440258E+01  0.32219393015E+02  0.00000000000E+00 0.  1.
</event>
<event>
 5    1  0.1259474E-009  0.9118800E+02  0.7815553E-02  0.1125453E+00
         25   -1    0    0    0    0  0.00000000000E+00  0.00000000000E+00  0.99999998245E-14  0.12509000000E+03  0.12509000000E+03 0.  0.
        -13    1    3    3    0    0 -0.28805945332E+02  0.22630849982E+02  0.99657942952E+01  0.37964010291E+02  0.10566000000E+00 0. -1.
         23    2    1    0    0    0  0.21829955444E+02  0.73729177209E-01  0.21351292075E+02  0.94554282160E+02  0.89487888627E+02 0.  0.
         13    1    3    3    0    0  0.50635900777E+02 -0.22557120805E+02  0.11385497780E+02  0.56590271869E+02  0.10566000000E+00 0.  1.
         22    1    1    0    0    0 -0.21829955444E+02 -0.73729177209E-01 -0.21351292075E+02  0.30535717840E+02  0.00000000000E+00 0. -1.
</event>
<event>
 5    1  0.1259474E-009  0.9118800E+02  0.7815553E-02  0.1125453E+00
         25   -1    0    0    0    0  0.00000000000E+00  0.00000000000E+00  0.99999998245E-14  0.12509000000E+03  0.12509000000E+03 0.  0.
        -13    1    3    3    0    0 -0.34079025236E+02  0.85355224208E+01 -0.19862736448E+02  0.40358079331E+02  0.10566000000E+00 0.  1.
         23    2    1    0    0    0  0.15082624044E+01  0.15294192648E+02  0.23593959817E+02  0.96932192485E+02  0.92752292779E+02 0.  0.
         13    1    3    3    0    0  0.35587287641E+02  0.67586702268E+01  0.43456696265E+02  0.56574113154E+02  0.10566000000E+00 0. -1.
         22    1    1    0    0    0 -0.15082624044E+01 -0.15294192648E+02 -0.23593959817E+02  0.28157807515E+02  0.00000000000E+00 0. -1.
</event>
<event>
 5    1  0.1259474E-009  0.9118800E+02  0.7815553E-02  0.1125453E+00
         25   -1    0    0    0    0  0.00000000000E+00  0.00000000000E+00  0.99999998245E-14  0.12509000000E+03  0.12509000000E+03 0.  0.
        -13    1    3    3    0    0 -0.31461885275E+02 -0.35157865289E+02  0.63129338461E+01  0.47600315278E+02  0.10566000000E+00 0.  1.
         23    2    1    0    0    0 -0.12640732771E+02 -0.40432562504E+01 -0.25775709446E+02  0.96098221105E+02  0.91620657365E+02 0.  0.
         13    1    3    3    0    0  0.18821152504E+02  0.31114609039E+02 -0.32088643292E+02  0.48497905827E+02  0.10566000000E+00 0. -1.
         22    1    1    0    0    0  0.12640732771E+02  0.40432562504E+01  0.25775709446E+02  0.28991778895E+02  0.00000000000E+00 0. -1.
</event>
<event>
 4    1  0.1259474E-009  0.9118800E+02  0.7815553E-02  0.1125453E+00
         25   -1    0    0    0    0  0.00000000000E+00  0.00000000000E+00  0.99999998245E-14  0.12509000000E+03  0.12509000000E+03 0.  0.
        -13    1    1    0    0    0 -0.47373901317E+02 -0.18269661333E+02 -0.23770120419E+02  0.56063328834E+02  0.10566000000E+00 0. -1.
         13    1    1    0    0    0  0.11715561509E+02 -0.11880001280E+02  0.12593055261E+00  0.16685797387E+02  0.10566000000E+00 0.  1.
         22    1    1    0    0    0  0.35658339807E+02  0.30149662613E+02  0.23644189866E+02  0.52340873779E+02  0.00000000000E+00 0. -1.
</event>
<event>
 5    1  0.1259474E-009  0.9118800E+02  0.7815553E-02  0.1125453E+00
         25   -1    0    0    0    0  0.00000000000E+00  0.00000000000E+00  0.99999998245E-14  0.12509000000E+03  0.12509000000E+03 0.  0.
        -13    1    3    3    0    0 -0.10220558233E+02 -0.27652908290E+02  0.34004360468E+02  0.45005009081E+02  0.10566000000E+00 0.  1.
         23    2    1    0    0    0 -0.17375687234E+02 -0.19620332894E+02 -0.14807270719E+02  0.94988052623E+02  0.90092191145E+02 0.  0.
         13    1    3    3    0    0 -0.71551290010E+01  0.80325753963E+01 -0.48811631187E+02  0.49983043542E+02  0.10566000000E+00 0. -1.
         22    1    1    0    0    0  0.17375687234E+02  0.19620332894E+02  0.14807270719E+02  0.30101947377E+02  0.00000000000E+00 0. -1.
</event>
<event>
 5    1  0.1259474E-009  0.9118800E+02  0.7815553E-02  0.1125453E+00
         25   -1    0    0    0    0  0.00000000000E+00  0.00000000000E+00  0.99999998245E-14  0.12509000000E+03  0.12509000000E+03 0.  0.
        -13    1    3    3    0    0 -0.54929128065E+02 -0.10544462609E+02 -0.31102332769E+00  0.55933019776E+02  0.10566000000E+00 0. -1.
         23    2    1    0    0    0 -0.22434900828E+02  0.57734222289E+00 -0.19573649488E+02  0.95311050162E+02  0.90539551741E+02 0.  0.
         13    1    3    3    0    0  0.32494227237E+02  0.11121804832E+02 -0.19262626161E+02  0.39378030386E+02  0.10566000000E+00 0.  1.
         22    1    1    0    0    0  0.22434900828E+02 -0.57734222289E+00  0.19573649488E+02  0.29778949838E+02  0.00000000000E+00 0. -1.
</event>
<event>
 5    1  0.1259474E-009  0.9118800E+02  0.7815553E-02  0.1125453E+00
         25   -1    0    0    0    0  0.00000000000E+00  0.00000000000E+00  0.99999998245E-14  0.12509000000E+03  0.12509000000E+03 0.  0.
        -13    1    3    3    0    0 -0.94885371413E+00 -0.17796148278E+02  0.29133044706E+02  0.34151847312E+02  0.10566000000E+00 0. -1.
         23    2    1    0    0    0 -0.37325616056E+01  0.56326174154E+01 -0.28169406382E+02  0.96121502438E+02  0.91652437937E+02 0.  0.
         13    1    3    3    0    0 -0.27837078915E+01  0.23428765694E+02 -0.57302451089E+02  0.61969655126E+02  0.10566000000E+00 0.  1.
         22    1    1    0    0    0  0.37325616056E+01 -0.56326174154E+01  0.28169406382E+02  0.28968497562E+02  0.00000000000E+00 0.  1.
</event>
<event>
 5    1  0.1259474E-009  0.9118800E+02  0.7815553E-02  0.1125453E+00
         25   -1    0    0    0    0  0.00000000000E+00  0.00000000000E+00  0.99999998245E-14  0.12509000000E+03  0.12509000000E+03 0.  0.
        -13    1    3    3    0    0  0.41919190199E+02  0.78266827472E+01  0.19108778385E+02  0.46729348863E+02  0.10566000000E+00 0. -1.
         23    2    1    0    0    0 -0.74716433525E+01  0.12816817003E+02  0.24275732200E+02  0.96639913422E+02  0.92357270639E+02 0.  0.
         13    1    3    3    0    0 -0.49390833552E+02  0.49901342557E+01  0.51669538145E+01  0.49910564559E+02  0.10566000000E+00 0.  1.
         22    1    1    0    0    0  0.74716433525E+01 -0.12816817003E+02 -0.24275732200E+02  0.28450086578E+02  0.00000000000E+00 0. -1.
</event>
<event>
 5    1  0.1259474E-009  0.9118800E+02  0.7815553E-02  0.1125453E+00
         25   -1    0    0    0    0  0.00000000000E+00  0.00000000000E+00  0.99999998245E-14  0.12509000000E+03  0.12509000000E+03 0.  0.
        -13    1    3    3    0    0  0.49739931983E+02 -0.72438414812E+01  0.22202671909E+02  0.54950012530E+02  0.10566000000E+00 0. -1.
         23    2    1    0    0    0  0.11393271117E+02 -0.33374827186E+01  0.28693005149E+02  0.94037883130E+02  0.88763108899E+02 0.  0.
         13    1    3    3    0    0 -0.38346660867E+02  0.39063587626E+01  0.64903332407E+01  0.39087870600E+02  0.10566000000E+00 0.  1.
         22    1    1    0    0    0 -0.11393271117E+02  0.33374827186E+01 -0.28693005149E+02  0.31052116870E+02  0.00000000000E+00 0. -1.
</event>
<event>
 5    1  0.1259474E-009  0.9118800E+02  0.7815553E-02  0.1125453E+00
         25   -1    0    0    0    0  0.00000000000E+00  0.00000000000E+00  0.99999998245E-14  0.12509000000E+03  0.12509000000E+03 0.  0.
        -13    1    3    3    0    0 -0.21220201727E+02  0.42716285125E+02 -0.16364319921E+02  0.50425986423E+02  0.10566000000E+00 0.  1.
         23    2    1    0    0    0 -0.11640512799E+02 -0.40411976931E+00 -0.26847523620E+02  0.95824758235E+02  0.91246533717E+02 0.  0.
         13    1    3    3    0    0  0.95796889277E+01 -0.43120404895E+02 -0.10483203699E+02  0.45398771812E+02  0.10566000000E+00 0. -1.
         22    1    1    0    0    0  0.11640512799E+02  0.40411976931E+00  0.26847523620E+02  0.29265241765E+02  0.00000000000E+00 0. -1.
</event>
<event>
 5    1  0.1259474E-009  0.9118800E+02  0.7815553E-02  0.1125453E+00
         25   -1    0    0    0    0  0.00000000000E+00  0.00000000000E+00  0.99999998245E-14  0.12509000000E+03  0.12509000000E+03 0.  0.
        -13    1    3    3    0    0 -0.30262141520E+02 -0.32355610318E+02  0.41058770755E+02  0.60402951487E+02  0.10566000000E+00 0. -1.
         23    2    1    0    0    0 -0.75712446469E+01 -0.23931301805E+02  0.15572445074E+02  0.95551347404E+02  0.90870941414E+02 0.  0.
         13    1    3    3    0    0  0.22690896873E+02  0.84243085128E+01 -0.25486325681E+02  0.35148395917E+02  0.10566000000E+00 0.  1.
         22    1    1    0    0    0  0.75712446469E+01  0.23931301805E+02 -0.15572445074E+02  0.29538652596E+02  0.00000000000E+00 0. -1.
</event>
<event>
 5    1  0.1259474E-009  0.9118800E+02  0.7815553E-02  0.1125453E+00
         25   -1    0    0    0    0  0.00000000000E+00  0.00000000000E+00  0.99999998245E-14  0.12509000000E+03  0.12509000000E+03 0.  0.
        -13    1    3    3    0    0 -0.23481313563E+02  0.51707812028E+02 -0.73029545273E+01  0.57257438122E+02  0.10566000000E+00 0.  1.
         23    2    1    0    0    0 -0.97488949464E+01  0.39421336736E+02  0.10779722717E+02  0.83074703207E+02  0.71666736694E+02 0.  0.
         13    1    3    3    0    0  0.13732418616E+02 -0.12286475292E+02  0.18082677244E+02  0.25817265086E+02  0.10566000000E+00 0. -1.
         22    1    1    0    0    0  0.97488949464E+01 -0.39421336736E+02 -0.10779722717E+02  0.42015296793E+02  0.00000000000E+00 0.  1.
</event>
<event>
 5    1  0.1259474E-009  0.9118800E+02  0.7815553E-02  0.1125453E+00
         25   -1    0    0    0    0  0.00000000000E+00  0.00000000000E+00  0.99999998245E-14  0.12509000000E+03  0.12509000000E+03 0.  0.
        -13    1    3    3    0    0  0.47957831184E+01 -0.67928946172E+01  0.45490219573E+02  0.46244071986E+02  0.10566000000E+00 0. -1.
         23    2    1    0    0    0 -0.10231190858E+02 -0.26701526077E+02  0.19424697722E+01  0.96429540303E+02  0.92071897412E+02 0.  0.
         13    1    3    3    0    0 -0.15026973977E+02 -0.19908631460E+02 -0.43547749801E+02  0.50185468317E+02  0.10566000000E+00 0.  1.
         22    1    1    0    0    0  0.10231190858E+02  0.26701526077E+02 -0.19424697722E+01  0.28660459697E+02  0.00000000000E+00 0.  1.
</event>
<event>
 5    1  0.1259474E-009  0.9118800E+02  0.7815553E-02  0.1125453E+00
         25   -1    0    0    0    0  0.00000000000E+00  0.00000000000E+00  0.99999998245E-14  0.12509000000E+03  0.12509000000E+03 0.  0.
        -13    1    3    3    0    0 -0.19606815943E+02  0.27910735897E+02  0.42798325568E+01  0.34376802360E+02  0.10566000000E+00 0.  1.
         23    2    1    0    0    0  0.21332841962E+02 -0.16132753064E+02  0.13363234318E+02  0.95191306065E+02  0.90373961135E+02 0.  0.
         13    1    3    3    0    0  0.40939657905E+02 -0.44043488962E+02  0.90834017608E+01  0.60814503705E+02  0.10566000000E+00 0. -1.
         22    1    1    0    0    0 -0.21332841962E+02  0.16132753064E+02 -0.13363234318E+02  0.29898693935E+02  0.00000000000E+00 0. -1.
</event>
<event>
 5    1  0.1259474E-009  0.9118800E+02  0.7815553E-02  0.1125453E+00
         25   -1    0    0    0    0  0.00000000000E+00  0.00000000000E+00  0.99999998245E-14  0.12509000000E+03  0.12509000000E+03 0.  0.
        -13    1    3    3    0    0 -0.50991804930E+02  0.58837223618E+01 -0.12243783704E+02  0.52770292422E+02  0.10566000000E+00 0.  1.
         23    2    1    0    0    0 -0.18982098025E+02 -0.19869576862E+02  0.47013342345E+01  0.97211286370E+02  0.93127930955E+02 0.  0.
         13    1    3    3    0    0  0.32009706905E+02 -0.25753299224E+02  0.16945117938E+02  0.44440993948E+02  0.10566000000E+00 0. -1.
         22    1    1    0    0    0  0.18982098025E+02  0.19869576862E+02 -0.47013342345E+01  0.27878713630E+02  0.00000000000E+00 0.  1.
</event>
<event>
 5    1  0.1259474E-009  0.9118800E+02  0.7815553E-02  0.1125453E+00
         25   -1    0    0    0    0  0.00000000000E+00  0.00000000000E+00  0.99999998245E-14  0.12509000000E+03  0.12509000000E+03 0.  0.
        -13    1    3    3    0    0 -0.51629256883E+02 -0.26370021030E+02 -0.20456382551E+02  0.61477092697E+02  0.10566000000E+00 0. -1.
         23    2    1    0    0    0 -0.30167761900E+02 -0.10962412326E+02 -0.18670390295E+02  0.87957106014E+02  0.79734563914E+02 0.  0.
         13    1    3    3    0    0  0.21461494983E+02  0.15407608704E+02  0.17859922560E+01  0.26480013317E+02  0.10566000000E+00 0.  1.
         22    1    1    0    0    0  0.30167761900E+02  0.10962412326E+02  0.18670390295E+02  0.37132893986E+02  0.00000000000E+00 0. -1.
</event>
<event>
 5    1  0.1259474E-009  0.9118800E+02  0.7815553E-02  0.1125453E+00
         25   -1    0    0    0    0  0.00000000000E+00  0.00000000000E+00  0.99999998245E-14  0.12509000000E+03  0.12509000000E+03 0.  0.
        -13    1    3    3    0    0  0.26779896837E+02 -0.40707076241E+01 -0.13255699183E+02  0.30157225669E+02  0.10566000000E+00 0.  1.
         23    2    1    0    0    0 -0.32862163762E+02 -0.65509738983E+01 -0.10733290522E+02  0.89904199006E+02  0.82732849626E+02 0.  0.
         13    1    3    3    0    0 -0.59642060600E+02 -0.24802662742E+01  0.25224086616E+01  0.59746973337E+02  0.10566000000E+00 0. -1.
         22    1    1    0    0    0  0.32862163762E+02  0.65509738983E+01  0.10733290522E+02  0.35185800994E+02  0.00000000000E+00 0. -1.
</event>
<event>
 5    1  0.1259474E-009  0.9118800E+02  0.7815553E-02  0.1125453E+00
         25   -1    0    0    0    0  0.00000000000E+00  0.00000000000E+00  0.99999998245E-14  0.12509000000E+03  0.12509000000E+03 0.  0.
        -13    1    3    3    0    0  0.31433327381E+01  0.38588730608E+02  0.14324179604E+02  0.41281520756E+02  0.10566000000E+00 0.  1.
         23    2    1    0    0    0  0.28861679170E+02 -0.64695702162E+01 -0.13566803320E+01  0.95481007365E+02  0.90774061949E+02 0.  0.
         13    1    3    3    0    0  0.25718346432E+02 -0.45058300824E+02 -0.15680859936E+02  0.54199486609E+02  0.10566000000E+00 0. -1.
         22    1    1    0    0    0 -0.28861679170E+02  0.64695702162E+01  0.13566803320E+01  0.29608992635E+02  0.00000000000E+00 0. -1.
</event>
<event>
 5    1  0.1259474E-009  0.9118800E+02  0.7815553E-02  0.1125453E+00
         25   -1    0    0    0    0  0.00000000000E+00  0.00000000000E+00  0.99999998245E-14  0.12509000000E+03  0.12509000000E+03 0.  0.
        -13    1    3    3    0    0 -0.53584925810E+02 -0.76434211153E+00  0.22630350974E+02  0.58172780939E+02  0.10566000000E+00 0. -1.
         23    2    1    0    0    0 -0.16038655576E+02 -0.16855267976E+01  0.24479223253E+02  0.95775978707E+02  0.91179637271E+02 0.  0.
         13    1    3    3    0    0  0.37546270233E+02 -0.92118468603E+00  0.18488722794E+01  0.37603197768E+02  0.10566000000E+00 0.  1.
         22    1    1    0    0    0  0.16038655576E+02  0.16855267976E+01 -0.24479223253E+02  0.29314021293E+02  0.00000000000E+00 0. -1.
</event>
<event>
 5    1  0.1259474E-009  0.9118800E+02  0.7815553E-02  0.1125453E+00
         25   -1    0    0    0    0  0.00000000000E+00  0.00000000000E+00  0.99999998245E-14  0.12509000000E+03  0.12509000000E+03 0.  0.
        -13    1    3    3    0    0  0.10556881376E+02  0.21342311033E+01  0.38434341603E+02  0.39915065643E+02  0.10566000000E+00 0.  1.
         23    2    1    0    0    0 -0.26835720721E+02  0.93980989275E+01 -0.33537791871E+01  0.96459107508E+02  0.92112059017E+02 0.  0.
         13    1    3    3    0    0 -0.37392602097E+02  0.72638678241E+01 -0.41788120790E+02  0.56544041866E+02  0.10566000000E+00 0. -1.
         22    1    1    0    0    0  0.26835720721E+02 -0.93980989275E+01  0.33537791871E+01  0.28630892492E+02  0.00000000000E+00 0. -1.
</event>
<event>
 5    1  0.1259474E-009  0.9118800E+02  0.7815553E-02  0.1125453E+00
         25   -1    0    0    0    0  0.00000000000E+00  0.00000000000E+00  0.99999998245E-14  0.12509000000E+03  0.12509000000E+03 0.  0.
        -13    1    3    3    0    0 -0.47469645229E+02  0.20406650608E+02 -0.22922085552E+02  0.56526381251E+02  0.10566000000E+00 0.  1.
         23    2    1    0    0    0 -0.86446140863E+01  0.17565992856E+02 -0.22238805966E+02  0.95461332320E+02  0.90746944961E+02 0.  0.
         13    1    3    3    0    0  0.38825031143E+02 -0.28406577517E+01  0.68327958567E+00  0.38934951069E+02  0.10566000000E+00 0. -1.
         22    1    1    0    0    0  0.86446140863E+01 -0.17565992856E+02  0.22238805966E+02  0.29628667680E+02  0.00000000000E+00 0.  1.
</event>
<event>
 5    1  0.1259474E-009  0.9118800E+02  0.7815553E-02  0.1125453E+00
         25   -1    0    0    0    0  0.00000000000E+00  0.00000000000E+00  0.99999998245E-14  0.12509000000E+03  0.12509000000E+03 0.  0.
        -13    1    3    3    0    0  0.50211019931E+02  0.25572310691E+02 -0.64386310536E+01  0.56714695895E+02  0.10566000000E+00 0. -1.
         23    2    1    0    0    0  0.12053490316E+02  0.27298288539E+02 -0.38937794794E+01  0.94996068642E+02  0.90103320432E+02 0.  0.
         13    1    3    3    0    0 -0.38157529615E+02  0.17259778483E+01  0.25448515743E+01  0.38281372747E+02  0.10566000000E+00 0.  1.
         22    1    1    0    0    0 -0.12053490316E+02 -0.27298288539E+02  0.38937794794E+01  0.30093931358E+02  0.00000000000E+00 0. -1.
</event>
<event>
 5    1  0.1259474E-009  0.9118800E+02  0.7815553E-02  0.1125453E+00
         25   -1    0    0    0    0  0.00000000000E+00  0.00000000000E+00  0.99999998245E-14  0.12509000000E+03  0.12509000000E+03 0.  0.
        -13    1    3    3    0    0 -0.73838171406E+01  0.28167424491E+02  0.35138808660E+02  0.45636296915E+02  0.10566000000E+00 0.  1.
         23    2    1    0    0    0 -0.20547430032E+02 -0.15424994369E+02  0.13814078001E+02  0.95918848442E+02  0.91375431070E+02 0.  0.
         13    1    3    3    0    0 -0.13163612891E+02 -0.43592418860E+02 -0.21324730659E+02  0.50282551527E+02  0.10566000000E+00 0. -1.
         22    1    1    0    0    0  0.20547430032E+02  0.15424994369E+02 -0.13814078001E+02  0.29171151558E+02  0.00000000000E+00 0. -1.
</event>
<event>
 5    1  0.1259474E-009  0.9118800E+02  0.7815553E-02  0.1125453E+00
         25   -1    0    0    0    0  0.00000000000E+00  0.00000000000E+00  0.99999998245E-14  0.12509000000E+03  0.12509000000E+03 0.  0.
        -13    1    3    3    0    0  0.37585203759E+02 -0.44713539131E+02 -0.21842605450E+02  0.62362317950E+02  0.10566000000E+00 0.  1.
         23    2    1    0    0    0  0.18235201736E+02 -0.26658122962E+02 -0.13125031083E+02  0.90226773770E+02  0.83219145404E+02 0.  0.
         13    1    3    3    0    0 -0.19350002023E+02  0.18055416168E+02  0.87175743665E+01  0.27864455821E+02  0.10566000000E+00 0. -1.
         22    1    1    0    0    0 -0.18235201736E+02  0.26658122962E+02  0.13125031083E+02  0.34863226230E+02  0.00000000000E+00 0.  1.
</event>
<event>
 5    1  0.1259474E-009  0.9118800E+02  0.7815553E-02  0.1125453E+00
         25   -1    0    0    0    0  0.00000000000E+00  0.00000000000E+00  0.99999998245E-14  0.12509000000E+03  0.12509000000E+03 0.  0.
        -13    1    3    3    0    0  0.68142159978E+01 -0.83180597038E+01 -0.58661526015E+02  0.59638992743E+02  0.10566000000E+00 0. -1.
         23    2    1    0    0    0 -0.10293672323E+02 -0.33931952185E+01 -0.27558844807E+02  0.95476432319E+02  0.90767757148E+02 0.  0.
         13    1    3    3    0    0 -0.17107888321E+02  0.49248644853E+01  0.31102681209E+02  0.35837439576E+02  0.10566000000E+00 0.  1.
         22    1    1    0    0    0  0.10293672323E+02  0.33931952185E+01  0.27558844807E+02  0.29613567681E+02  0.00000000000E+00 0. -1.
</event>
<event>
 5    1  0.1259474E-009  0.9118800E+02  0.7815553E-02  0.1125453E+00
         25   -1    0    0    0    0  0.00000000000E+00  0.00000000000E+00  0.99999998245E-14  0.12509000000E+03  0.12509000000E+03 0.  0.
        -13    1    3    3    0    0 -0.16581691408E+02  0.36379846763E+02  0.46654236931E+02  0.61441636763E+02  0.10566000000E+00 0.  1.
         23    2    1    0    0    0 -0.47784377546E+01  0.11704524856E+02  0.27466171197E+02  0.94853929989E+02  0.89905773478E+02 0.  0.
         13    1    3    3    0    0  0.11803253653E+02 -0.24675321907E+02 -0.19188065734E+02  0.33412293226E+02  0.10566000000E+00 0. -1.
         22    1    1    0    0    0  0.47784377546E+01 -0.11704524856E+02 -0.27466171197E+02  0.30236070011E+02  0.00000000000E+00 0.  1.
</event>
<event>
 5    1  0.1259474E-009  0.9118800E+02  0.7815553E-02  0.1125453E+00
         25   -1    0    0    0    0  0.00000000000E+00  0.00000000000E+00  0.99999998245E-14  0.12509000000E+03  0.12509000000E+03 0.  0.
        -13    1    3    3    0    0  0.86037215751E+01 -0.29185939430E+02  0.44686186773E+02  0.54062089653E+02  0.10566000000E+00 0. -1.
         23    2    1    0    0    0 -0.12352736363E+02  0.15387964638E+01  0.27236698615E+02  0.95143451924E+02  0.90307700128E+02 0.  0.
         13    1    3    3    0    0 -0.20956457938E+02  0.30724735894E+02 -0.17449488157E+02  0.41081362271E+02  0.10566000000E+00 0.  1.
         22    1    1    0    0    0  0.12352736363E+02 -0.15387964638E+01 -0.27236698615E+02  0.29946548076E+02  0.00000000000E+00 0. -1.
</event>
<event>
 5    1  0.1259474E-009  0.9118800E+02  0.7815553E-02  0.1125453E+00
         25   -1    0    0    0    0  0.00000000000E+00  0.00000000000E+00  0.99999998245E-14  0.12509000000E+03  0.12509000000E+03 0.  0.
        -13    1    3    3    0    0 -0.16915979148E+01 -0.36605534928E+02 -0.20397611451E+02  0.41939246629E+02  0.10566000000E+00 0.  1.
         23    2    1    0    0    0  0.30585946076E+02 -0.36811658578E+01  0.38672607883E+01  0.94041541335E+02  0.88768264099E+02 0.  0.
         13    1    3    3    0    0  0.32277543991E+02  0.32924369071E+02  0.24264872239E+02  0.52102294706E+02  0.10566000000E+00 0. -1.
         22    1    1    0    0    0 -0.30585946076E+02  0.36811658578E+01 -0.38672607883E+01  0.31048458665E+02  0.00000000000E+00 0. -1.
</event>
<event>
 4    1  0.1259474E-009  0.9118800E+02  0.7815553E-02  0.1125453E+00
         25   -1    0    0    0    0  0.00000000000E+00  0.00000000000E+00  0.99999998245E-14  0.12509000000E+03  0.12509000000E+03 0.  0.
        -13    1    1    0    0    0 -0.12257462282E+02  0.15215351751E+00 -0.29010053818E+02  0.31493855255E+02  0.10566000000E+00 0. -1.
         13    1    1    0    0    0  0.35154413785E+02 -0.13784034200E+02 -0.16222608155E+02  0.41097646974E+02  0.10566000000E+00 0.  1.
         22    1    1    0    0    0 -0.22896951503E+02  0.13631880682E+02  0.45232661973E+02  0.52498497771E+02  0.00000000000E+00 0.  1.
</event>
<event>
 5    1  0.1259474E-009  0.9118800E+02  0.7815553E-02  0.1125453E+00
         25   -1    0    0    0    0  0.00000000000E+00  0.00000000000E+00  0.99999998245E-14  0.12509000000E+03  0.12509000000E+03 0.  0.
        -13    1    3    3    0    0 -0.30631663137E+00 -0.51139678447E+01 -0.51886126764E+02  0.52138544395E+02  0.10566000000E+00 0. -1.
         23    2    1    0    0    0  0.20446181357E+02 -0.15575916083E+02 -0.16258440603E+02  0.94676312543E+02  0.89658305649E+02 0.  0.
         13    1    3    3    0    0  0.20752497989E+02 -0.10461948238E+02  0.35627686162E+02  0.42537768148E+02  0.10566000000E+00 0.  1.
         22    1    1    0    0    0 -0.20446181357E+02  0.15575916083E+02  0.16258440603E+02  0.30413687457E+02  0.00000000000E+00 0. -1.
</event>
<event>
 5    1  0.1259474E-009  0.9118800E+02  0.7815553E-02  0.1125453E+00
         25   -1    0    0    0    0  0.00000000000E+00  0.00000000000E+00  0.99999998245E-14  0.12509000000E+03  0.12509000000E+03 0.  0.
        -13    1    3    3    0    0 -0.50082120752E+02  0.28243681361E+02 -0.20028617528E+02  0.60885803271E+02  0.10566000000E+00 0.  1.
         23    2    1    0    0    0 -0.27062087388E+02  0.99469515868E+01 -0.37410716960E+00  0.96255326847E+02  0.91834903879E+02 0.  0.
         13    1    3    3    0    0  0.23020033364E+02 -0.18296729775E+02  0.19654510358E+02  0.35369523576E+02  0.10566000000E+00 0. -1.
         22    1    1    0    0    0  0.27062087388E+02 -0.99469515868E+01  0.37410716960E+00  0.28834673153E+02  0.00000000000E+00 0.  1.
</event>
<event>
 5    1  0.1259474E-009  0.9118800E+02  0.7815553E-02  0.1125453E+00
         25   -1    0    0    0    0  0.00000000000E+00  0.00000000000E+00  0.99999998245E-14  0.12509000000E+03  0.12509000000E+03 0.  0.
        -13    1    3    3    0    0 -0.41322566925E+02  0.96770981180E+01 -0.16608736243E+02  0.45574796202E+02  0.10566000000E+00 0. -1.
         23    2    1    0    0    0 -0.65326701163E+01  0.27914780670E+02  0.11836999966E+02  0.94073466878E+02  0.88813241375E+02 0.  0.
         13    1    3    3    0    0  0.34789896809E+02  0.18237682552E+02  0.28445736209E+02  0.48498670676E+02  0.10566000000E+00 0.  1.
         22    1    1    0    0    0  0.65326701163E+01 -0.27914780670E+02 -0.11836999966E+02  0.31016533122E+02  0.00000000000E+00 0.  1.
</event>
<event>
 5    1  0.1259474E-009  0.9118800E+02  0.7815553E-02  0.1125453E+00
         25   -1    0    0    0    0  0.00000000000E+00  0.00000000000E+00  0.99999998245E-14  0.12509000000E+03  0.12509000000E+03 0.  0.
        -13    1    3    3    0    0 -0.27367315107E+02 -0.41018368234E+02 -0.46189598562E+01  0.49525977253E+02  0.10566000000E+00 0.  1.
         23    2    1    0    0    0  0.98492975883E+01 -0.21300618517E+02  0.16265178864E+02  0.96536873102E+02  0.92217605763E+02 0.  0.
         13    1    3    3    0    0  0.37216612695E+02  0.19717749717E+02  0.20884138720E+02  0.47010895849E+02  0.10566000000E+00 0. -1.
         22    1    1    0    0    0 -0.98492975883E+01  0.21300618517E+02 -0.16265178864E+02  0.28553126898E+02  0.00000000000E+00 0.  1.
</event>
<event>
 5    1  0.1259474E-009  0.9118800E+02  0.7815553E-02  0.1125453E+00
         25   -1    0    0    0    0  0.00000000000E+00  0.00000000000E+00  0.99999998245E-14  0.12509000000E+03  0.12509000000E+03 0.  0.
        -13    1    3    3    0    0  0.32586783709E+02  0.99738064907E+01 -0.37347393905E+02  0.50559017830E+02  0.10566000000E+00 0. -1.
         23    2    1    0    0    0  0.14215509037E+02  0.22316254385E+02  0.48325124476E+01  0.98192991179E+02  0.94437357191E+02 0.  0.
         13    1    3    3    0    0 -0.18371274672E+02  0.12342447894E+02  0.42179906352E+02  0.47633973349E+02  0.10566000000E+00 0.  1.
         22    1    1    0    0    0 -0.14215509037E+02 -0.22316254385E+02 -0.48325124476E+01  0.26897008821E+02  0.00000000000E+00 0. -1.
</event>
<event>
 5    1  0.1259474E-009  0.9118800E+02  0.7815553E-02  0.1125453E+00
         25   -1    0    0    0    0  0.00000000000E+00  0.00000000000E+00  0.99999998245E-14  0.12509000000E+03  0.12509000000E+03 0.  0.
        -13    1    3    3    0    0  0.37792127424E+02  0.19277972248E+02 -0.25616734732E+02  0.49559190586E+02  0.10566000000E+00 0. -1.
         23    2    1    0    0    0  0.28310362505E+02 -0.11726856420E+02  0.48683878141E+01  0.94062641322E+02  0.88797992690E+02 0.  0.
         13    1    3    3    0    0 -0.94817649194E+01 -0.31004828667E+02  0.30485122546E+02  0.44503450735E+02  0.10566000000E+00 0.  1.
         22    1    1    0    0    0 -0.28310362505E+02  0.11726856420E+02 -0.48683878141E+01  0.31027358678E+02  0.00000000000E+00 0.  1.
</event>
<event>
 5    1  0.1259474E-009  0.9118800E+02  0.7815553E-02  0.1125453E+00
         25   -1    0    0    0    0  0.00000000000E+00  0.00000000000E+00  0.99999998245E-14  0.12509000000E+03  0.12509000000E+03 0.  0.
        -13    1    3    3    0    0 -0.10898798137E+02 -0.19771398169E+01  0.52814765059E+02  0.53963908818E+02  0.10566000000E+00 0.  1.
         23    2    1    0    0    0 -0.21040573651E+02  0.16127448228E+02  0.25140630977E+02  0.88554378316E+02  0.80666140773E+02 0.  0.
         13    1    3    3    0    0 -0.10141775514E+02  0.18104588045E+02 -0.27674134082E+02  0.34590469498E+02  0.10566000000E+00 0. -1.
         22    1    1    0    0    0  0.21040573651E+02 -0.16127448228E+02 -0.25140630977E+02  0.36535621684E+02  0.00000000000E+00 0.  1.
</event>
<event>
 5    1  0.1259474E-009  0.9118800E+02  0.7815553E-02  0.1125453E+00
         25   -1    0    0    0    0  0.00000000000E+00  0.00000000000E+00  0.99999998245E-14  0.12509000000E+03  0.12509000000E+03 0.  0.
        -13    1    3    3    0    0  0.13090055200E+02  0.24286043111E+02  0.34314543173E+02  0.44030222261E+02  0.10566000000E+00 0. -1.
         23    2    1    0    0    0  0.32261122161E+02  0.11157876403E+02 -0.58738410302E+01  0.90452156283E+02  0.83557240015E+02 0.  0.
         13    1    3    3    0    0  0.19171066961E+02 -0.13128166708E+02 -0.40188384203E+02  0.46421934023E+02  0.10566000000E+00 0.  1.
         22    1    1    0    0    0 -0.32261122161E+02 -0.11157876403E+02  0.58738410302E+01  0.34637843717E+02  0.00000000000E+00 0.  1.
</event>
<event>
 5    1  0.1259474E-009  0.9118800E+02  0.7815553E-02  0.1125453E+00
         25   -1    0    0    0    0  0.00000000000E+00  0.00000000000E+00  0.99999998245E-14  0.12509000000E+03  0.12509000000E+03 0.  0.
        -13    1    3    3    0    0 -0.13294610012E+02  0.16379930855E+02  0.50106469012E+02  0.54366517187E+02  0.10566000000E+00 0. -1.
         23    2    1    0    0    0 -0.26605038480E+02  0.17008952045E+02  0.18925781464E+02  0.88275359894E+02  0.80232296728E+02 0.  0.
         13    1    3    3    0    0 -0.13310428468E+02  0.62902118968E+00 -0.31180687548E+02  0.33908842706E+02  0.10566000000E+00 0.  1.
         22    1    1    0    0    0  0.26605038480E+02 -0.17008952045E+02 -0.18925781464E+02  0.36814640106E+02  0.00000000000E+00 0. -1.
</event>
<event>
 5    1  0.1259474E-009  0.9118800E+02  0.7815553E-02  0.1125453E+00
         25   -1    0    0    0    0  0.00000000000E+00  0.00000000000E+00  0.99999998245E-14  0.12509000000E+03  0.12509000000E+03 0.  0.
        -13    1    3    3    0    0  0.25129746591E+02  0.21045286361E+02 -0.38413555848E+02  0.50497729441E+02  0.10566000000E+00 0.  1.
         23    2    1    0    0    0 -0.15425751028E+02  0.14445384576E+02 -0.21532065415E+02  0.94919604389E+02  0.89997102876E+02 0.  0.
         13    1    3    3    0    0 -0.40555497618E+02 -0.65999017857E+01  0.16881490433E+02  0.44421874948E+02  0.10566000000E+00 0. -1.
         22    1    1    0    0    0  0.15425751028E+02 -0.14445384576E+02  0.21532065415E+02  0.30170395611E+02  0.00000000000E+00 0.  1.
</event>
<event>
 5    1  0.1259474E-009  0.9118800E+02  0.7815553E-02  0.1125453E+00
         25   -1    0    0    0    0  0.00000000000E+00  0.00000000000E+00  0.99999998245E-14  0.12509000000E+03  0.12509000000E+03 0.  0.
        -13    1    3    3    0    0 -0.37757481493E+02  0.18241336063E+02  0.61483502093E+01  0.42381447880E+02  0.10566000000E+00 0. -1.
         23    2    1    0    0    0  0.11430712275E+02  0.29340628980E+02  0.70806505100E+01  0.92815097929E+02  0.87022830912E+02 0.  0.
         13    1    3    3    0    0  0.49188193768E+02  0.11099292916E+02  0.93230030066E+00  0.50433650049E+02  0.10566000000E+00 0.  1.
         22    1    1    0    0    0 -0.11430712275E+02 -0.29340628980E+02 -0.70806505100E+01  0.32274902071E+02  0.00000000000E+00 0.  1.
</event>
<event>
 5    1  0.1259474E-009  0.9118800E+02  0.7815553E-02  0.1125453E+00
         25   -1    0    0    0    0  0.00000000000E+00  0.00000000000E+00  0.99999998245E-14  0.12509000000E+03  0.12509000000E+03 0.  0.
        -13    1    3    3    0    0  0.12546076167E+02  0.19658238486E+02  0.34855521312E+02  0.41937678733E+02  0.10566000000E+00 0. -1.
         23    2    1    0    0    0  0.27163607565E+02 -0.67864650271E+01 -0.94271388522E+01  0.95547003699E+02  0.90864961814E+02 0.  0.
         13    1    3    3    0    0  0.14617531398E+02 -0.26444703513E+02 -0.44282660164E+02  0.53609324966E+02  0.10566000000E+00 0.  1.
         22    1    1    0    0    0 -0.27163607565E+02  0.67864650271E+01  0.94271388522E+01  0.29542996301E+02  0.00000000000E+00 0.  1.
</event>
<event>
 5    1  0.1259474E-009  0.9118800E+02  0.7815553E-02  0.1125453E+00
         25   -1    0    0    0    0  0.00000000000E+00  0.00000000000E+00  0.99999998245E-14  0.12509000000E+03  0.12509000000E+03 0.  0.
        -13    1    3    3    0    0  0.20679191566E+02 -0.60050258866E+01  0.42605610427E+02  0.47738228953E+02  0.10566000000E+00 0. -1.
         23    2    1    0    0    0 -0.21217142092E+02 -0.37249545988E+01  0.21299271872E+02  0.94796413425E+02  0.89825712413E+02 0.  0.
         13    1    3    3    0    0 -0.41896333658E+02  0.22800712878E+01 -0.21306338555E+02  0.47058184471E+02  0.10566000000E+00 0.  1.
         22    1    1    0    0    0  0.21217142092E+02  0.37249545988E+01 -0.21299271872E+02  0.30293586575E+02  0.00000000000E+00 0.  1.
</event>
<event>
 5    1  0.1259474E-009  0.9118800E+02  0.7815553E-02  0.1125453E+00
         25   -1    0    0    0    0  0.00000000000E+00  0.00000000000E+00  0.99999998245E-14  0.12509000000E+03  0.12509000000E+03 0.  0.
        -13    1    3    3    0    0  0.21216851919E+02  0.21641518334E+02 -0.30010866952E+02  0.42651769252E+02  0.10566000000E+00 0. -1.
         23    2    1    0    0    0 -0.25049942818E+02  0.17014961241E+02 -0.11563582996E+02  0.92675111555E+02  0.86821375875E+02 0.  0.
         13    1    3    3    0    0 -0.46266794737E+02 -0.46265570933E+01  0.18447283955E+02  0.50023342302E+02  0.10566000000E+00 0.  1.
         22    1    1    0    0    0  0.25049942818E+02 -0.17014961241E+02  0.11563582996E+02  0.32414888445E+02  0.00000000000E+00 0.  1.
</event>
<event>
 5    1  0.1259474E-009  0.9118800E+02  0.7815553E-02  0.1125453E+00
         25   -1    0    0    0    0  0.00000000000E+00  0.00000000000E+00  0.99999998245E-14  0.12509000000E+03  0.12509000000E+03 0.  0.
        -13    1    3    3    0    0  0.15261698366E+02 -0.30781042459E+02  0.15343765493E+00  0.34357338649E+02  0.10566000000E+00 0. -1.
         23    2    1    0    0    0 -0.23269999404E+02  0.17384677424E+02  0.44237132423E+00  0.96039774979E+02  0.91540825888E+02 0.  0.
         13    1    3    3    0    0 -0.38531697771E+02  0.48165719883E+02  0.28893366930E+00  0.61682436330E+02  0.10566000000E+00 0.  1.
         22    1    1    0    0    0  0.23269999404E+02 -0.17384677424E+02 -0.44237132423E+00  0.29050225021E+02  0.00000000000E+00 0.  1.
</event>
<event>
 5    1  0.1259474E-009  0.9118800E+02  0.7815553E-02  0.1125453E+00
         25   -1    0    0    0    0  0.00000000000E+00  0.00000000000E+00  0.99999998245E-14  0.12509000000E+03  0.12509000000E+03 0.  0.
        -13    1    3    3    0    0 -0.10742786425E+02 -0.50192419823E+02 -0.16793754963E+02  0.54006738817E+02  0.10566000000E+00 0.  1.
         23    2    1    0    0    0  0.10405370134E+02 -0.27046701807E+02  0.91490624947E+01  0.94700838267E+02  0.89692517066E+02 0.  0.
         13    1    3    3    0    0  0.21148156559E+02  0.23145718016E+02  0.25942817458E+02  0.40694099450E+02  0.10566000000E+00 0. -1.
         22    1    1    0    0    0 -0.10405370134E+02  0.27046701807E+02 -0.91490624947E+01  0.30389161733E+02  0.00000000000E+00 0.  1.
</event>
<event>
 5    1  0.1259474E-009  0.9118800E+02  0.7815553E-02  0.1125453E+00
         25   -1    0    0    0    0  0.00000000000E+00  0.00000000000E+00  0.99999998245E-14  0.12509000000E+03  0.12509000000E+03 0.  0.
        -13    1    3    3    0    0 -0.20368510660E+02 -0.29379472132E+02 -0.36400616765E+02  0.51020051687E+02  0.10566000000E+00 0. -1.
         23    2    1    0    0    0  0.41517134312E+01 -0.44165068099E+01 -0.38539413093E+02  0.86076814814E+02  0.76728022457E+02 0.  0.
         13    1    3    3    0    0  0.24520224091E+02  0.24962965322E+02 -0.21387963283E+01  0.35056763127E+02  0.10566000000E+00 0.  1.
         22    1    1    0    0    0 -0.41517134312E+01  0.44165068099E+01  0.38539413093E+02  0.39013185186E+02  0.00000000000E+00 0. -1.
</event>
<event>
 5    1  0.1259474E-009  0.9118800E+02  0.7815553E-02  0.1125453E+00
         25   -1    0    0    0    0  0.00000000000E+00  0.00000000000E+00  0.99999998245E-14  0.12509000000E+03  0.12509000000E+03 0.  0.
        -13    1    3    3    0    0 -0.70262737676E+01 -0.13765273355E+02 -0.31553700113E+02  0.35135429818E+02  0.10566000000E+00 0.  1.
         23    2    1    0    0    0 -0.92688542312E+01  0.18639527684E+02  0.20099574156E+02  0.96153232173E+02  0.91695733407E+02 0.  0.
         13    1    3    3    0    0 -0.22425804636E+01  0.32404801038E+02  0.51653274269E+02  0.61017802355E+02  0.10566000000E+00 0. -1.
         22    1    1    0    0    0  0.92688542312E+01 -0.18639527684E+02 -0.20099574156E+02  0.28936767827E+02  0.00000000000E+00 0. -1.
</event>
<event>
 5    1  0.1259474E-009  0.9118800E+02  0.7815553E-02  0.1125453E+00
         25   -1    0    0    0    0  0.00000000000E+00  0.00000000000E+00  0.99999998245E-14  0.12509000000E+03  0.12509000000E+03 0.  0.
        -13    1    3    3    0    0  0.30590332319E+00  0.55077844147E+02 -0.18825107350E+01  0.55110956292E+02  0.10566000000E+00 0. -1.
         23    2    1    0    0    0  0.16147930012E+02  0.19763853402E+02 -0.14395556470E+02  0.95788164033E+02  0.91196352875E+02 0.  0.
         13    1    3    3    0    0  0.15842026689E+02 -0.35313990745E+02 -0.12513045735E+02  0.40677207741E+02  0.10566000000E+00 0.  1.
         22    1    1    0    0    0 -0.16147930012E+02 -0.19763853402E+02  0.14395556470E+02  0.29301835967E+02  0.00000000000E+00 0. -1.
</event>
<event>
 5    1  0.1259474E-009  0.9118800E+02  0.7815553E-02  0.1125453E+00
         25   -1    0    0    0    0  0.00000000000E+00  0.00000000000E+00  0.99999998245E-14  0.12509000000E+03  0.12509000000E+03 0.  0.
        -13    1    3    3    0    0  0.12433913288E+02  0.16183682869E+01  0.29195459247E+02  0.31774318565E+02  0.10566000000E+00 0. -1.
         23    2    1    0    0    0  0.27494270929E+02 -0.29414076123E+02 -0.96114210562E+01  0.83695529079E+02  0.72742280450E+02 0.  0.
         13    1    3    3    0    0  0.15060357641E+02 -0.31032444410E+02 -0.38806880304E+02  0.51921210514E+02  0.10566000000E+00 0.  1.
         22    1    1    0    0    0 -0.27494270929E+02  0.29414076123E+02  0.96114210562E+01  0.41394470921E+02  0.00000000000E+00 0.  1.
</event>
<event>
 5    1  0.1259474E-009  0.9118800E+02  0.7815553E-02  0.1125453E+00
         25   -1    0    0    0    0  0.00000000000E+00  0.00000000000E+00  0.99999998245E-14  0.12509000000E+03  0.12509000000E+03 0.  0.
        -13    1    3    3    0    0 -0.42381482018E+02 -0.41628573397E+02  0.46351838789E+01  0.59587114670E+02  0.10566000000E+00 0.  1.
         23    2    1    0    0    0 -0.25043421847E+02 -0.10513579310E+02  0.11027676408E+02  0.95775874144E+02  0.91179493821E+02 0.  0.
         13    1    3    3    0    0  0.17338060171E+02  0.31114994087E+02  0.63924925291E+01  0.36188759474E+02  0.10566000000E+00 0. -1.
         22    1    1    0    0    0  0.25043421847E+02  0.10513579310E+02 -0.11027676408E+02  0.29314125856E+02  0.00000000000E+00 0.  1.
</event>
<event>
 5    1  0.1259474E-009  0.9118800E+02  0.7815553E-02  0.1125453E+00
         25   -1    0    0    0    0  0.00000000000E+00  0.00000000000E+00  0.99999998245E-14  0.12509000000E+03  0.12509000000E+03 0.  0.
        -13    1    3    3    0    0  0.16144043812E+02  0.28484526066E+02  0.12774665155E+02  0.35145435119E+02  0.10566000000E+00 0. -1.
         23    2    1    0    0    0 -0.18638256157E+02 -0.12909193421E+02 -0.16891937521E+02  0.96816878125E+02  0.92596643942E+02 0.  0.
         13    1    3    3    0    0 -0.34782299969E+02 -0.41393719487E+02 -0.29666602676E+02  0.61671443006E+02  0.10566000000E+00 0.  1.
         22    1    1    0    0    0  0.18638256157E+02  0.12909193421E+02  0.16891937521E+02  0.28273121875E+02  0.00000000000E+00 0.  1.
</event>
<event>
 5    1  0.1259474E-009  0.9118800E+02  0.7815553E-02  0.1125453E+00
         25   -1    0    0    0    0  0.00000000000E+00  0.00000000000E+00  0.99999998245E-14  0.12509000000E+03  0.12509000000E+03 0.  0.
        -13    1    3    3    0    0 -0.31669130580E+02  0.47265929895E+02 -0.24972639961E+02  0.62134095882E+02  0.10566000000E+00 0.  1.
         23    2    1    0    0    0 -0.13639175531E+02  0.24769371614E+02 -0.75377003011E+01  0.95826271510E+02  0.91248608243E+02 0.  0.
         13    1    3    3    0    0  0.18029955049E+02 -0.22496558281E+02  0.17434939660E+02  0.33692175627E+02  0.10566000000E+00 0. -1.
         22    1    1    0    0    0  0.13639175531E+02 -0.24769371614E+02  0.75377003011E+01  0.29263728490E+02  0.00000000000E+00 0.  1.
</event>
<event>
 5    1  0.1259474E-009  0.9118800E+02  0.7815553E-02  0.1125453E+00
         25   -1    0    0    0    0  0.00000000000E+00  0.00000000000E+00  0.99999998245E-14  0.12509000000E+03  0.12509000000E+03 0.  0.
        -13    1    3    3    0    0 -0.35766429421E+02  0.10559031357E+02  0.18913507438E+01  0.37340580986E+02  0.10566000000E+00 0. -1.
         23    2    1    0    0    0  0.85553220279E+01 -0.26544968584E+02  0.94669675922E+01  0.95637455670E+02  0.90989398061E+02 0.  0.
         13    1    3    3    0    0  0.44321751449E+02 -0.37103999941E+02  0.75756168484E+01  0.58296874683E+02  0.10566000000E+00 0.  1.
         22    1    1    0    0    0 -0.85553220279E+01  0.26544968584E+02 -0.94669675922E+01  0.29452544330E+02  0.00000000000E+00 0.  1.
</event>
<event>
 5    1  0.1259474E-009  0.9118800E+02  0.7815553E-02  0.1125453E+00
         25   -1    0    0    0    0  0.00000000000E+00  0.00000000000E+00  0.99999998245E-14  0.12509000000E+03  0.12509000000E+03 0.  0.
        -13    1    3    3    0    0 -0.19503450916E+02  0.76596409647E+01  0.37888756930E+02  0.43296925562E+02  0.10566000000E+00 0. -1.
         23    2    1    0    0    0  0.18126280661E+01 -0.27769211773E+02  0.35651466057E+01  0.97034251689E+02  0.92889832530E+02 0.  0.
         13    1    3    3    0    0  0.21316078983E+02 -0.35428852738E+02 -0.34323610325E+02  0.53737326127E+02  0.10566000000E+00 0.  1.
         22    1    1    0    0    0 -0.18126280661E+01  0.27769211773E+02 -0.35651466057E+01  0.28055748311E+02  0.00000000000E+00 0.  1.
</event>
<event>
 5    1  0.1259474E-009  0.9118800E+02  0.7815553E-02  0.1125453E+00
         25   -1    0    0    0    0  0.00000000000E+00  0.00000000000E+00  0.99999998245E-14  0.12509000000E+03  0.12509000000E+03 0.  0.
        -13    1    3    3    0    0  0.16592516338E+02 -0.31039127365E+02 -0.17228223716E+02  0.39186246088E+02  0.10566000000E+00 0.  1.
         23    2    1    0    0    0  0.23199701392E+02  0.18039633316E+02  0.78159500862E+01  0.94680402985E+02  0.89664012395E+02 0.  0.
         13    1    3    3    0    0  0.66071850534E+01  0.49078760681E+02  0.25044173802E+02  0.55494156898E+02  0.10566000000E+00 0. -1.
         22    1    1    0    0    0 -0.23199701392E+02 -0.18039633316E+02 -0.78159500862E+01  0.30409597015E+02  0.00000000000E+00 0. -1.
</event>
<event>
 5    1  0.1259474E-009  0.9118800E+02  0.7815553E-02  0.1125453E+00
         25   -1    0    0    0    0  0.00000000000E+00  0.00000000000E+00  0.99999998245E-14  0.12509000000E+03  0.12509000000E+03 0.  0.
        -13    1    3    3    0    0  0.11049477221E+02 -0.17515619938E+02 -0.19809713348E+02  0.28658747280E+02  0.10566000000E+00 0. -1.
         23    2    1    0    0    0  0.17094505795E+02  0.24452737656E+02  0.21856027574E+02  0.88105618856E+02  0.79967215942E+02 0.  0.
         13    1    3    3    0    0  0.60450285737E+01  0.41968357594E+02  0.41665740922E+02  0.59446871577E+02  0.10566000000E+00 0.  1.
         22    1    1    0    0    0 -0.17094505795E+02 -0.24452737656E+02 -0.21856027574E+02  0.36984381144E+02  0.00000000000E+00 0.  1.
</event>
<event>
 5    1  0.1259474E-009  0.9118800E+02  0.7815553E-02  0.1125453E+00
         25   -1    0    0    0    0  0.00000000000E+00  0.00000000000E+00  0.99999998245E-14  0.12509000000E+03  0.12509000000E+03 0.  0.
        -13    1    3    3    0    0 -0.44177625256E+01  0.32400830479E+02 -0.41096335243E+02  0.52519047744E+02  0.10566000000E+00 0. -1.
         23    2    1    0    0    0  0.18794071257E+02  0.13070481458E+01 -0.23071960874E+02  0.95303411276E+02  0.90528997194E+02 0.  0.
         13    1    3    3    0    0  0.23211833783E+02 -0.31093782333E+02  0.18024374370E+02  0.42784363532E+02  0.10566000000E+00 0.  1.
         22    1    1    0    0    0 -0.18794071257E+02 -0.13070481458E+01  0.23071960874E+02  0.29786588724E+02  0.00000000000E+00 0. -1.
</event>
<event>
 5    1  0.1259474E-009  0.9118800E+02  0.7815553E-02  0.1125453E+00
         25   -1    0    0    0    0  0.00000000000E+00  0.00000000000E+00  0.99999998245E-14  0.12509000000E+03  0.12509000000E+03 0.  0.
        -13    1    3    3    0    0 -0.27831047311E+02 -0.13714651676E+02 -0.47811070148E+02  0.56996214416E+02  0.10566000000E+00 0. -1.
         23    2    1    0    0    0 -0.52665022295E+01  0.10158823124E+02 -0.26690786840E+02  0.96049754906E+02  0.91554462384E+02 0.  0.
         13    1    3    3    0    0  0.22564545082E+02  0.23873474799E+02  0.21120283308E+02  0.39053540490E+02  0.10566000000E+00 0.  1.
         22    1    1    0    0    0  0.52665022295E+01 -0.10158823124E+02  0.26690786840E+02  0.29040245094E+02  0.00000000000E+00 0. -1.
</event>
<event>
 5    1  0.1259474E-009  0.9118800E+02  0.7815553E-02  0.1125453E+00
         25   -1    0    0    0    0  0.00000000000E+00  0.00000000000E+00  0.99999998245E-14  0.12509000000E+03  0.12509000000E+03 0.  0.
        -13    1    3    3    0    0  0.27095047871E+02  0.54722413319E+02  0.43470050075E+01  0.61217577175E+02  0.10566000000E+00 0.  1.
         23    2    1    0    0    0  0.55324446319E+01  0.27939027851E+02  0.71757896677E+01  0.95718429081E+02  0.91100650314E+02 0.  0.
         13    1    3    3    0    0 -0.21562603239E+02 -0.26783385468E+02  0.28287846601E+01  0.34500851906E+02  0.10566000000E+00 0. -1.
         22    1    1    0    0    0 -0.55324446319E+01 -0.27939027851E+02 -0.71757896677E+01  0.29371570919E+02  0.00000000000E+00 0.  1.
</event>
<event>
 5    1  0.1259474E-009  0.9118800E+02  0.7815553E-02  0.1125453E+00
         25   -1    0    0    0    0  0.00000000000E+00  0.00000000000E+00  0.99999998245E-14  0.12509000000E+03  0.12509000000E+03 0.  0.
        -13    1    3    3    0    0 -0.90646365651E+01  0.34742094490E+02 -0.28061471765E+02  0.45570145131E+02  0.10566000000E+00 0. -1.
         23    2    1    0    0    0 -0.27840814944E+02  0.66855176290E+01  0.83902733912E+01  0.95253716547E+02  0.90460304586E+02 0.  0.
         13    1    3    3    0    0 -0.18776178379E+02 -0.28056576861E+02  0.36451745157E+02  0.49683571416E+02  0.10566000000E+00 0.  1.
         22    1    1    0    0    0  0.27840814944E+02 -0.66855176290E+01 -0.83902733912E+01  0.29836283453E+02  0.00000000000E+00 0.  1.
</event>
<event>
 5    1  0.1259474E-009  0.9118800E+02  0.7815553E-02  0.1125453E+00
         25   -1    0    0    0    0  0.00000000000E+00  0.00000000000E+00  0.99999998245E-14  0.12509000000E+03  0.12509000000E+03 0.  0.
        -13    1    3    3    0    0 -0.32752854065E+02  0.30463454298E+02  0.29641709677E+02  0.53660167851E+02  0.10566000000E+00 0.  1.
         23    2    1    0    0    0 -0.22095725918E+02 -0.84695498769E+01  0.16980094837E+02  0.95964787561E+02  0.91438298606E+02 0.  0.
         13    1    3    3    0    0  0.10657128147E+02 -0.38933004175E+02 -0.12661614840E+02  0.42304619710E+02  0.10566000000E+00 0. -1.
         22    1    1    0    0    0  0.22095725918E+02  0.84695498769E+01 -0.16980094837E+02  0.29125212439E+02  0.00000000000E+00 0.  1.
</event>
<event>
 5    1  0.1259474E-009  0.9118800E+02  0.7815553E-02  0.1125453E+00
         25   -1    0    0    0    0  0.00000000000E+00  0.00000000000E+00  0.99999998245E-14  0.12509000000E+03  0.12509000000E+03 0.  0.
        -13    1    3    3    0    0  0.18074148459E+02  0.80515004384E+01 -0.29539183820E+02  0.35553847142E+02  0.10566000000E+00 0. -1.
         23    2    1    0    0    0  0.30085157739E+00 -0.18892935024E+02  0.21827241308E+02  0.96220258598E+02  0.91787124348E+02 0.  0.
         13    1    3    3    0    0 -0.17773296882E+02 -0.26944435463E+02  0.51366425128E+02  0.60666411456E+02  0.10566000000E+00 0.  1.
         22    1    1    0    0    0 -0.30085157739E+00  0.18892935024E+02 -0.21827241308E+02  0.28869741402E+02  0.00000000000E+00 0.  1.
</event>
<event>
 5    1  0.1259474E-009  0.9118800E+02  0.7815553E-02  0.1125453E+00
         25   -1    0    0    0    0  0.00000000000E+00  0.00000000000E+00  0.99999998245E-14  0.12509000000E+03  0.12509000000E+03 0.  0.
        -13    1    3    3    0    0 -0.18388800547E+01  0.17568458576E+02  0.35637708323E+02  0.39775490382E+02  0.10566000000E+00 0.  1.
         23    2    1    0    0    0  0.23159109195E+02 -0.19126831577E+02  0.29540054742E+01  0.94908777804E+02  0.89982053383E+02 0.  0.
         13    1    3    3    0    0  0.24997989250E+02 -0.36695290153E+02 -0.32683702849E+02  0.55133287422E+02  0.10566000000E+00 0. -1.
         22    1    1    0    0    0 -0.23159109195E+02  0.19126831577E+02 -0.29540054742E+01  0.30181222196E+02  0.00000000000E+00 0. -1.
</event>
<event>
 5    1  0.1259474E-009  0.9118800E+02  0.7815553E-02  0.1125453E+00
         25   -1    0    0    0    0  0.00000000000E+00  0.00000000000E+00  0.99999998245E-14  0.12509000000E+03  0.12509000000E+03 0.  0.
        -13    1    3    3    0    0 -0.20510101067E+02 -0.70691478331E+01 -0.23694224283E+02  0.32125761084E+02  0.10566000000E+00 0. -1.
         23    2    1    0    0    0  0.17506160717E+02  0.82472394547E+01  0.23509747453E+02  0.94640191348E+02  0.89607895698E+02 0.  0.
         13    1    3    3    0    0  0.38016261784E+02  0.15316387288E+02  0.47203971735E+02  0.62514430264E+02  0.10566000000E+00 0.  1.
         22    1    1    0    0    0 -0.17506160717E+02 -0.82472394547E+01 -0.23509747453E+02  0.30449808652E+02  0.00000000000E+00 0.  1.
</event>
<event>
 5    1  0.1259474E-009  0.9118800E+02  0.7815553E-02  0.1125453E+00
         25   -1    0    0    0    0  0.00000000000E+00  0.00000000000E+00  0.99999998245E-14  0.12509000000E+03  0.12509000000E+03 0.  0.
        -13    1    3    3    0    0 -0.39162704195E+00 -0.49109348292E+02  0.25361009773E+02  0.55272718788E+02  0.10566000000E+00 0.  1.
         23    2    1    0    0    0 -0.10926473193E+01 -0.94095564762E+01  0.28455442623E+02  0.95099237320E+02  0.90246435346E+02 0.  0.
         13    1    3    3    0    0 -0.70102027735E+00  0.39699791816E+02  0.30944328505E+01  0.39826518532E+02  0.10566000000E+00 0. -1.
         22    1    1    0    0    0  0.10926473193E+01  0.94095564762E+01 -0.28455442623E+02  0.29990762680E+02  0.00000000000E+00 0. -1.
</event>
<event>
 5    1  0.1259474E-009  0.9118800E+02  0.7815553E-02  0.1125453E+00
         25   -1    0    0    0    0  0.00000000000E+00  0.00000000000E+00  0.99999998245E-14  0.12509000000E+03  0.12509000000E+03 0.  0.
        -13    1    3    3    0    0  0.99921943094E+00 -0.57496855549E+02  0.27694319302E+01  0.57572282869E+02  0.10566000000E+00 0.  1.
         23    2    1    0    0    0  0.17684252773E+02 -0.21957467162E+02  0.70323951303E+00  0.96887913090E+02  0.92692556318E+02 0.  0.
         13    1    3    3    0    0  0.16685033342E+02  0.35539388387E+02 -0.20661924172E+01  0.39315630221E+02  0.10566000000E+00 0. -1.
         22    1    1    0    0    0 -0.17684252773E+02  0.21957467162E+02 -0.70323951303E+00  0.28202086910E+02  0.00000000000E+00 0.  1.
</event>
<event>
 5    1  0.1259474E-009  0.9118800E+02  0.7815553E-02  0.1125453E+00
         25   -1    0    0    0    0  0.00000000000E+00  0.00000000000E+00  0.99999998245E-14  0.12509000000E+03  0.12509000000E+03 0.  0.
        -13    1    3    3    0    0  0.48762075325E+02  0.17082624885E+02 -0.33846400804E+02  0.61766868744E+02  0.10566000000E+00 0.  1.
         23    2    1    0    0    0  0.17502840540E+02  0.13026935485E+02 -0.16406947730E+02  0.97790944908E+02  0.93903303973E+02 0.  0.
         13    1    3    3    0    0 -0.31259234785E+02 -0.40556894000E+01  0.17439453074E+02  0.36024076164E+02  0.10566000000E+00 0. -1.
         22    1    1    0    0    0 -0.17502840540E+02 -0.13026935485E+02  0.16406947730E+02  0.27299055092E+02  0.00000000000E+00 0.  1.
</event>
<event>
 5    1  0.1259474E-009  0.9118800E+02  0.7815553E-02  0.1125453E+00
         25   -1    0    0    0    0  0.00000000000E+00  0.00000000000E+00  0.99999998245E-14  0.12509000000E+03  0.12509000000E+03 0.  0.
        -13    1    3    3    0    0 -0.32287368512E+01  0.50622622143E+02 -0.59824353419E+01  0.51077150576E+02  0.10566000000E+00 0. -1.
         23    2    1    0    0    0 -0.25303041063E+02  0.13096269972E+02 -0.10221722425E+02  0.94820547022E+02  0.89859314231E+02 0.  0.
         13    1    3    3    0    0 -0.22074304212E+02 -0.37526352171E+02 -0.42392870834E+01  0.43743396447E+02  0.10566000000E+00 0.  1.
         22    1    1    0    0    0  0.25303041063E+02 -0.13096269972E+02  0.10221722425E+02  0.30269452978E+02  0.00000000000E+00 0. -1.
</event>
<event>
 5    1  0.1259474E-009  0.9118800E+02  0.7815553E-02  0.1125453E+00
         25   -1    0    0    0    0  0.00000000000E+00  0.00000000000E+00  0.99999998245E-14  0.12509000000E+03  0.12509000000E+03 0.  0.
        -13    1    3    3    0    0 -0.21053499423E+02  0.26347378949E+02  0.61521053675E+01  0.34282557955E+02  0.10566000000E+00 0. -1.
         23    2    1    0    0    0  0.16594983279E+02 -0.63525548523E+01 -0.25986773805E+02  0.93608881278E+02  0.88156462146E+02 0.  0.
         13    1    3    3    0    0  0.37648482703E+02 -0.32699933801E+02 -0.32138879173E+02  0.59326323323E+02  0.10566000000E+00 0.  1.
         22    1    1    0    0    0 -0.16594983279E+02  0.63525548523E+01  0.25986773805E+02  0.31481118722E+02  0.00000000000E+00 0.  1.
</event>
<event>
 5    1  0.1259474E-009  0.9118800E+02  0.7815553E-02  0.1125453E+00
         25   -1    0    0    0    0  0.00000000000E+00  0.00000000000E+00  0.99999998245E-14  0.12509000000E+03  0.12509000000E+03 0.  0.
        -13    1    3    3    0    0  0.91021759443E+01  0.34347716850E+02  0.87861953891E+01  0.36603601642E+02  0.10566000000E+00 0.  1.
         23    2    1    0    0    0 -0.17852991790E+02 -0.34021320531E+01 -0.25137534584E+02  0.94070659850E+02  0.88809287698E+02 0.  0.
         13    1    3    3    0    0 -0.26955167734E+02 -0.37749848903E+02 -0.33923729973E+02  0.57467058208E+02  0.10566000000E+00 0. -1.
         22    1    1    0    0    0  0.17852991790E+02  0.34021320531E+01  0.25137534584E+02  0.31019340150E+02  0.00000000000E+00 0. -1.
</event>
<event>
 5    1  0.1259474E-009  0.9118800E+02  0.7815553E-02  0.1125453E+00
         25   -1    0    0    0    0  0.00000000000E+00  0.00000000000E+00  0.99999998245E-14  0.12509000000E+03  0.12509000000E+03 0.  0.
        -13    1    3    3    0    0 -0.23251760071E+02 -0.27663276976E+02  0.17047755832E+02  0.39956706351E+02  0.10566000000E+00 0.  1.
         23    2    1    0    0    0  0.34748891567E+01 -0.89785128917E+01 -0.27949817451E+02  0.95528524327E+02  0.90839518472E+02 0.  0.
         13    1    3    3    0    0  0.26726649228E+02  0.18684764084E+02 -0.44997573283E+02  0.55571817977E+02  0.10566000000E+00 0. -1.
         22    1    1    0    0    0 -0.34748891567E+01  0.89785128917E+01  0.27949817451E+02  0.29561475673E+02  0.00000000000E+00 0. -1.
</event>
<event>
 5    1  0.1259474E-009  0.9118800E+02  0.7815553E-02  0.1125453E+00
         25   -1    0    0    0    0  0.00000000000E+00  0.00000000000E+00  0.99999998245E-14  0.12509000000E+03  0.12509000000E+03 0.  0.
        -13    1    3    3    0    0  0.21976141477E+02 -0.31826581327E+02 -0.12572637504E+02  0.40668961765E+02  0.10566000000E+00 0.  1.
         23    2    1    0    0    0  0.16580425144E+02  0.18087264330E+02  0.13334295926E+02  0.97163971339E+02  0.93064355420E+02 0.  0.
         13    1    3    3    0    0 -0.53957163327E+01  0.49913845658E+02  0.25906933429E+02  0.56495009574E+02  0.10566000000E+00 0. -1.
         22    1    1    0    0    0 -0.16580425144E+02 -0.18087264330E+02 -0.13334295926E+02  0.27926028661E+02  0.00000000000E+00 0. -1.
</event>
<event>
 5    1  0.1259474E-009  0.9118800E+02  0.7815553E-02  0.1125453E+00
         25   -1    0    0    0    0  0.00000000000E+00  0.00000000000E+00  0.99999998245E-14  0.12509000000E+03  0.12509000000E+03 0.  0.
        -13    1    3    3    0    0  0.21419091402E+02  0.76045301739E+01  0.32941558338E+02  0.40022041245E+02  0.10566000000E+00 0. -1.
         23    2    1    0    0    0 -0.28053451533E+02  0.61538767575E+01  0.90747472440E+01  0.94969950537E+02  0.90067053496E+02 0.  0.
         13    1    3    3    0    0 -0.49472542935E+02 -0.14506534164E+01 -0.23866811094E+02  0.54947909293E+02  0.10566000000E+00 0.  1.
         22    1    1    0    0    0  0.28053451533E+02 -0.61538767575E+01 -0.90747472440E+01  0.30120049463E+02  0.00000000000E+00 0.  1.
</event>
<event>
 5    1  0.1259474E-009  0.9118800E+02  0.7815553E-02  0.1125453E+00
         25   -1    0    0    0    0  0.00000000000E+00  0.00000000000E+00  0.99999998245E-14  0.12509000000E+03  0.12509000000E+03 0.  0.
        -13    1    3    3    0    0 -0.16931812023E+02 -0.12160304108E+02  0.47977867958E+02  0.52311052677E+02  0.10566000000E+00 0. -1.
         23    2    1    0    0    0  0.84106916824E+01 -0.24913182580E+02  0.21370695294E+02  0.91206183536E+02  0.84678538586E+02 0.  0.
         13    1    3    3    0    0  0.25342503705E+02 -0.12752878472E+02 -0.26607172664E+02  0.38895130859E+02  0.10566000000E+00 0.  1.
         22    1    1    0    0    0 -0.84106916824E+01  0.24913182580E+02 -0.21370695294E+02  0.33883816464E+02  0.00000000000E+00 0. -1.
</event>
<event>
 5    1  0.1259474E-009  0.9118800E+02  0.7815553E-02  0.1125453E+00
         25   -1    0    0    0    0  0.00000000000E+00  0.00000000000E+00  0.99999998245E-14  0.12509000000E+03  0.12509000000E+03 0.  0.
        -13    1    3    3    0    0 -0.11317646245E+02  0.37219261323E+02  0.17284868874E+01  0.38940484857E+02  0.10566000000E+00 0. -1.
         23    2    1    0    0    0  0.43760892081E+01 -0.12874205537E+02  0.25209472412E+02  0.96447150556E+02  0.92095819809E+02 0.  0.
         13    1    3    3    0    0  0.15693735453E+02 -0.50093466861E+02  0.23480985524E+02  0.57506665699E+02  0.10566000000E+00 0.  1.
         22    1    1    0    0    0 -0.43760892081E+01  0.12874205537E+02 -0.25209472412E+02  0.28642849444E+02  0.00000000000E+00 0.  1.
</event>
<event>
 5    1  0.1259474E-009  0.9118800E+02  0.7815553E-02  0.1125453E+00
         25   -1    0    0    0    0  0.00000000000E+00  0.00000000000E+00  0.99999998245E-14  0.12509000000E+03  0.12509000000E+03 0.  0.
        -13    1    3    3    0    0 -0.50829608687E+02  0.15089134670E+02  0.31179632438E+02  0.61510257254E+02  0.10566000000E+00 0. -1.
         23    2    1    0    0    0 -0.26958197102E+02  0.39929229226E+01  0.77349868693E+01  0.96761254063E+02  0.92521470165E+02 0.  0.
         13    1    3    3    0    0  0.23871411585E+02 -0.11096211748E+02 -0.23444645568E+02  0.35250996810E+02  0.10566000000E+00 0.  1.
         22    1    1    0    0    0  0.26958197102E+02 -0.39929229226E+01 -0.77349868693E+01  0.28328745937E+02  0.00000000000E+00 0. -1.
</event>
<event>
 5    1  0.1259474E-009  0.9118800E+02  0.7815553E-02  0.1125453E+00
         25   -1    0    0    0    0  0.00000000000E+00  0.00000000000E+00  0.99999998245E-14  0.12509000000E+03  0.12509000000E+03 0.  0.
        -13    1    3    3    0    0 -0.45238333678E+02 -0.39451541626E+02  0.71272386780E+01  0.60446171639E+02  0.10566000000E+00 0. -1.
         23    2    1    0    0    0 -0.21982699996E+02 -0.13023400866E+02 -0.73389255517E+01  0.98506021790E+02  0.94851085558E+02 0.  0.
         13    1    3    3    0    0  0.23255633682E+02  0.26428140760E+02 -0.14466164230E+02  0.38059850151E+02  0.10566000000E+00 0.  1.
         22    1    1    0    0    0  0.21982699996E+02  0.13023400866E+02  0.73389255517E+01  0.26583978210E+02  0.00000000000E+00 0. -1.
</event>
<event>
 5    1  0.1259474E-009  0.9118800E+02  0.7815553E-02  0.1125453E+00
         25   -1    0    0    0    0  0.00000000000E+00  0.00000000000E+00  0.99999998245E-14  0.12509000000E+03  0.12509000000E+03 0.  0.
        -13    1    3    3    0    0 -0.35823752763E+01  0.43933496947E+02  0.23089163892E+02  0.49760488541E+02  0.10566000000E+00 0. -1.
         23    2    1    0    0    0  0.20660310079E+02  0.41816488692E+00  0.13269554095E+02  0.10053181724E+03  0.97486111513E+02 0.  0.
         13    1    3    3    0    0  0.24242685356E+02 -0.43515332060E+02 -0.98196097975E+01  0.50771328702E+02  0.10566000000E+00 0.  1.
         22    1    1    0    0    0 -0.20660310079E+02 -0.41816488692E+00 -0.13269554095E+02  0.24558182757E+02  0.00000000000E+00 0. -1.
</event>
<event>
 5    1  0.1259474E-009  0.9118800E+02  0.7815553E-02  0.1125453E+00
         25   -1    0    0    0    0  0.00000000000E+00  0.00000000000E+00  0.99999998245E-14  0.12509000000E+03  0.12509000000E+03 0.  0.
        -13    1    3    3    0    0 -0.39344421843E+02 -0.23589548143E+02  0.48781500667E+00  0.45877003382E+02  0.10566000000E+00 0.  1.
         23    2    1    0    0    0  0.26349678117E+01 -0.13753802052E+02 -0.25340405675E+02  0.96137516755E+02  0.91674292154E+02 0.  0.
         13    1    3    3    0    0  0.41979389655E+02  0.98357460904E+01 -0.25828220682E+02  0.50260513374E+02  0.10566000000E+00 0. -1.
         22    1    1    0    0    0 -0.26349678117E+01  0.13753802052E+02  0.25340405675E+02  0.28952483245E+02  0.00000000000E+00 0. -1.
</event>
<event>
 5    1  0.1259474E-009  0.9118800E+02  0.7815553E-02  0.1125453E+00
         25   -1    0    0    0    0  0.00000000000E+00  0.00000000000E+00  0.99999998245E-14  0.12509000000E+03  0.12509000000E+03 0.  0.
        -13    1    3    3    0    0  0.22394717238E+02  0.23775667310E+02 -0.14787358585E+02  0.35853630976E+02  0.10566000000E+00 0. -1.
         23    2    1    0    0    0 -0.25609549093E+02 -0.11463763438E+02 -0.86980379494E+01  0.95714453349E+02  0.91095191085E+02 0.  0.
         13    1    3    3    0    0 -0.48004266331E+02 -0.35239430747E+02  0.60893206360E+01  0.59860822373E+02  0.10566000000E+00 0.  1.
         22    1    1    0    0    0  0.25609549093E+02  0.11463763438E+02  0.86980379494E+01  0.29375546651E+02  0.00000000000E+00 0.  1.
</event>
<event>
 5    1  0.1259474E-009  0.9118800E+02  0.7815553E-02  0.1125453E+00
         25   -1    0    0    0    0  0.00000000000E+00  0.00000000000E+00  0.99999998245E-14  0.12509000000E+03  0.12509000000E+03 0.  0.
        -13    1    3    3    0    0  0.29067885080E+02  0.22894061245E+00 -0.17473899966E+02  0.33916702388E+02  0.10566000000E+00 0. -1.
         23    2    1    0    0    0 -0.14148538773E+02 -0.17544526933E+02  0.20877015066E+02  0.94367999207E+02  0.89227114385E+02 0.  0.
         13    1    3    3    0    0 -0.43216423853E+02 -0.17773467545E+02  0.38350915032E+02  0.60451296818E+02  0.10566000000E+00 0.  1.
         22    1    1    0    0    0  0.14148538773E+02  0.17544526933E+02 -0.20877015066E+02  0.30722000793E+02  0.00000000000E+00 0.  1.
</event>
<event>
 5    1  0.1259474E-009  0.9118800E+02  0.7815553E-02  0.1125453E+00
         25   -1    0    0    0    0  0.00000000000E+00  0.00000000000E+00  0.99999998245E-14  0.12509000000E+03  0.12509000000E+03 0.  0.
        -13    1    3    3    0    0 -0.10990155327E+02  0.39337886627E+02  0.26428545457E+02  0.48649070057E+02  0.10566000000E+00 0. -1.
         23    2    1    0    0    0 -0.96966549320E+01  0.25791437059E+02 -0.16014331566E+02  0.93220231285E+02  0.87603249728E+02 0.  0.
         13    1    3    3    0    0  0.12935003952E+01 -0.13546449568E+02 -0.42442877023E+02  0.44571161228E+02  0.10566000000E+00 0.  1.
         22    1    1    0    0    0  0.96966549320E+01 -0.25791437059E+02  0.16014331566E+02  0.31869768715E+02  0.00000000000E+00 0. -1.
</event>
<event>
 5    1  0.1259474E-009  0.9118800E+02  0.7815553E-02  0.1125453E+00
         25   -1    0    0    0    0  0.00000000000E+00  0.00000000000E+00  0.99999998245E-14  0.12509000000E+03  0.12509000000E+03 0.  0.
        -13    1    3    3    0    0  0.33326340251E+02 -0.40876423648E+02  0.22945915311E+02  0.57515677500E+02  0.10566000000E+00 0.  1.
         23    2    1    0    0    0  0.10329358079E+01 -0.23138025800E+02  0.20018967022E+02  0.94476371745E+02  0.89378915764E+02 0.  0.
         13    1    3    3    0    0 -0.32293404443E+02  0.17738397848E+02 -0.29269482891E+01  0.36960694245E+02  0.10566000000E+00 0. -1.
         22    1    1    0    0    0 -0.10329358079E+01  0.23138025800E+02 -0.20018967022E+02  0.30613628255E+02  0.00000000000E+00 0.  1.
</event>
<event>
 5    1  0.1259474E-009  0.9118800E+02  0.7815553E-02  0.1125453E+00
         25   -1    0    0    0    0  0.00000000000E+00  0.00000000000E+00  0.99999998245E-14  0.12509000000E+03  0.12509000000E+03 0.  0.
        -13    1    3    3    0    0 -0.37584495983E+02 -0.34569416804E+02 -0.19307888287E+02  0.54593448605E+02  0.10566000000E+00 0.  1.
         23    2    1    0    0    0  0.17895520819E+01 -0.15032900271E+02 -0.21720487402E+02  0.98614158934E+02  0.94993590216E+02 0.  0.
         13    1    3    3    0    0  0.39374048065E+02  0.19536516534E+02 -0.24125991146E+01  0.44020710328E+02  0.10566000000E+00 0. -1.
         22    1    1    0    0    0 -0.17895520819E+01  0.15032900271E+02  0.21720487402E+02  0.26475841066E+02  0.00000000000E+00 0. -1.
</event>
<event>
 5    1  0.1259474E-009  0.9118800E+02  0.7815553E-02  0.1125453E+00
         25   -1    0    0    0    0  0.00000000000E+00  0.00000000000E+00  0.99999998245E-14  0.12509000000E+03  0.12509000000E+03 0.  0.
        -13    1    3    3    0    0 -0.43387393785E+02 -0.11638498980E+02 -0.13016862506E+02  0.46769332596E+02  0.10566000000E+00 0.  1.
         23    2    1    0    0    0 -0.87884907245E+01 -0.19277485590E+02  0.20548268281E+02  0.95575760229E+02  0.90904541108E+02 0.  0.
         13    1    3    3    0    0  0.34598903061E+02 -0.76389866107E+01  0.33565130787E+02  0.48806427633E+02  0.10566000000E+00 0. -1.
         22    1    1    0    0    0  0.87884907245E+01  0.19277485590E+02 -0.20548268281E+02  0.29514239771E+02  0.00000000000E+00 0. -1.
</event>
<event>
 5    1  0.1259474E-009  0.9118800E+02  0.7815553E-02  0.1125453E+00
         25   -1    0    0    0    0  0.00000000000E+00  0.00000000000E+00  0.99999998245E-14  0.12509000000E+03  0.12509000000E+03 0.  0.
        -13    1    3    3    0    0  0.32978422126E+02  0.46376344789E+02  0.76369768290E+00  0.56911651532E+02  0.10566000000E+00 0. -1.
         23    2    1    0    0    0 -0.33031726795E+01  0.24274131376E+02  0.64058753799E+01  0.99768474707E+02  0.96501652329E+02 0.  0.
         13    1    3    3    0    0 -0.36281594806E+02 -0.22102213414E+02  0.56421776970E+01  0.42856823175E+02  0.10566000000E+00 0.  1.
         22    1    1    0    0    0  0.33031726795E+01 -0.24274131376E+02 -0.64058753799E+01  0.25321525293E+02  0.00000000000E+00 0.  1.
</event>
<event>
 5    1  0.1259474E-009  0.9118800E+02  0.7815553E-02  0.1125453E+00
         25   -1    0    0    0    0  0.00000000000E+00  0.00000000000E+00  0.99999998245E-14  0.12509000000E+03  0.12509000000E+03 0.  0.
        -13    1    3    3    0    0  0.44324027556E+02  0.10375431217E+02 -0.41280046647E+02  0.61451789290E+02  0.10566000000E+00 0.  1.
         23    2    1    0    0    0  0.25167195465E+02  0.55406871157E+01 -0.12277245304E+02  0.96544988290E+02  0.92228613079E+02 0.  0.
         13    1    3    3    0    0 -0.19156832091E+02 -0.48347441012E+01  0.29002801343E+02  0.35093199000E+02  0.10566000000E+00 0. -1.
         22    1    1    0    0    0 -0.25167195465E+02 -0.55406871157E+01  0.12277245304E+02  0.28545011710E+02  0.00000000000E+00 0.  1.
</event>
<event>
 5    1  0.1259474E-009  0.9118800E+02  0.7815553E-02  0.1125453E+00
         25   -1    0    0    0    0  0.00000000000E+00  0.00000000000E+00  0.99999998245E-14  0.12509000000E+03  0.12509000000E+03 0.  0.
        -13    1    3    3    0    0  0.53679230989E+02 -0.15084677949E+02  0.74539417545E+01  0.56254597680E+02  0.10566000000E+00 0. -1.
         23    2    1    0    0    0  0.13639111482E+02 -0.21545114454E+02  0.11700407376E+02  0.97034397144E+02  0.92890028408E+02 0.  0.
         13    1    3    3    0    0 -0.40040119508E+02 -0.64604365046E+01  0.42464656211E+01  0.40779799464E+02  0.10566000000E+00 0.  1.
         22    1    1    0    0    0 -0.13639111482E+02  0.21545114454E+02 -0.11700407376E+02  0.28055602856E+02  0.00000000000E+00 0. -1.
</event>
<event>
 5    1  0.1259474E-009  0.9118800E+02  0.7815553E-02  0.1125453E+00
         25   -1    0    0    0    0  0.00000000000E+00  0.00000000000E+00  0.99999998245E-14  0.12509000000E+03  0.12509000000E+03 0.  0.
        -13    1    3    3    0    0  0.28375172428E+02 -0.19781895324E+01 -0.19769831270E+02  0.34639876395E+02  0.10566000000E+00 0.  1.
         23    2    1    0    0    0 -0.26438658243E+02  0.12115464818E+02  0.34277851055E+01  0.95806269907E+02  0.91221184521E+02 0.  0.
         13    1    3    3    0    0 -0.54813830671E+02  0.14093654350E+02  0.23197616376E+02  0.61166393512E+02  0.10566000000E+00 0. -1.
         22    1    1    0    0    0  0.26438658243E+02 -0.12115464818E+02 -0.34277851055E+01  0.29283730093E+02  0.00000000000E+00 0. -1.
</event>
<event>
 5    1  0.1259474E-009  0.9118800E+02  0.7815553E-02  0.1125453E+00
         25   -1    0    0    0    0  0.00000000000E+00  0.00000000000E+00  0.99999998245E-14  0.12509000000E+03  0.12509000000E+03 0.  0.
        -13    1    3    3    0    0 -0.25874458053E+02  0.32953926536E+02  0.14579292617E+02  0.44362324003E+02  0.10566000000E+00 0.  1.
         23    2    1    0    0    0 -0.20633854391E+02 -0.15665978587E+02  0.18247996878E+02  0.93401386553E+02  0.87861543282E+02 0.  0.
         13    1    3    3    0    0  0.52406036623E+01 -0.48619905123E+02  0.36687042610E+01  0.49039062551E+02  0.10566000000E+00 0. -1.
         22    1    1    0    0    0  0.20633854391E+02  0.15665978587E+02 -0.18247996878E+02  0.31688613447E+02  0.00000000000E+00 0.  1.
</event>
<event>
 5    1  0.1259474E-009  0.9118800E+02  0.7815553E-02  0.1125453E+00
         25   -1    0    0    0    0  0.00000000000E+00  0.00000000000E+00  0.99999998245E-14  0.12509000000E+03  0.12509000000E+03 0.  0.
        -13    1    3    3    0    0  0.83857387499E+01 -0.22693854468E+00 -0.51990950376E+02  0.52663480710E+02  0.10566000000E+00 0.  1.
         23    2    1    0    0    0  0.28487416737E+02 -0.38649094049E+01 -0.38071939751E+02  0.77383155277E+02  0.60927905652E+02 0.  0.
         13    1    3    3    0    0  0.20101677987E+02 -0.36379708603E+01  0.13919010625E+02  0.24719674567E+02  0.10566000000E+00 0. -1.
         22    1    1    0    0    0 -0.28487416737E+02  0.38649094049E+01  0.38071939751E+02  0.47706844723E+02  0.00000000000E+00 0.  1.
</event>
<event>
 5    1  0.1259474E-009  0.9118800E+02  0.7815553E-02  0.1125453E+00
         25   -1    0    0    0    0  0.00000000000E+00  0.00000000000E+00  0.99999998245E-14  0.12509000000E+03  0.12509000000E+03 0.  0.
        -13    1    3    3    0    0 -0.87277398598E+01 -0.15337339132E+02 -0.30593169078E+02  0.35317992199E+02  0.10566000000E+00 0.  1.
         23    2    1    0    0    0  0.46250614394E+01 -0.66058830027E+01  0.27951924663E+02  0.95998094323E+02  0.91483851787E+02 0.  0.
         13    1    3    3    0    0  0.13352801299E+02  0.87314561294E+01  0.58545093740E+02  0.60680102124E+02  0.10566000000E+00 0. -1.
         22    1    1    0    0    0 -0.46250614394E+01  0.66058830027E+01 -0.27951924663E+02  0.29091905677E+02  0.00000000000E+00 0. -1.
</event>
<event>
 5    1  0.1259474E-009  0.9118800E+02  0.7815553E-02  0.1125453E+00
         25   -1    0    0    0    0  0.00000000000E+00  0.00000000000E+00  0.99999998245E-14  0.12509000000E+03  0.12509000000E+03 0.  0.
        -13    1    3    3    0    0 -0.51529440312E+02  0.16518234061E+02 -0.11584264105E+00  0.54112474152E+02  0.10566000000E+00 0.  1.
         23    2    1    0    0    0 -0.27324592031E+02  0.84832438980E+01 -0.23001751941E+02  0.88379247501E+02  0.80394104509E+02 0.  0.
         13    1    3    3    0    0  0.24204848281E+02 -0.80349901626E+01 -0.22885909300E+02  0.34266773349E+02  0.10566000000E+00 0. -1.
         22    1    1    0    0    0  0.27324592031E+02 -0.84832438980E+01  0.23001751941E+02  0.36710752499E+02  0.00000000000E+00 0.  1.
</event>
<event>
 5    1  0.1259474E-009  0.9118800E+02  0.7815553E-02  0.1125453E+00
         25   -1    0    0    0    0  0.00000000000E+00  0.00000000000E+00  0.99999998245E-14  0.12509000000E+03  0.12509000000E+03 0.  0.
        -13    1    3    3    0    0 -0.17994051735E+02  0.34599428683E+02 -0.10257952175E+02  0.40325464782E+02  0.10566000000E+00 0.  1.
         23    2    1    0    0    0  0.23846360086E+01 -0.12910704298E+02 -0.27331807213E+02  0.94768382961E+02  0.89786669106E+02 0.  0.
         13    1    3    3    0    0  0.20378687743E+02 -0.47510132981E+02 -0.17073855037E+02  0.54442918179E+02  0.10566000000E+00 0. -1.
         22    1    1    0    0    0 -0.23846360086E+01  0.12910704298E+02  0.27331807213E+02  0.30321617039E+02  0.00000000000E+00 0. -1.
</event>
<event>
 5    1  0.1259474E-009  0.9118800E+02  0.7815553E-02  0.1125453E+00
         25   -1    0    0    0    0  0.00000000000E+00  0.00000000000E+00  0.99999998245E-14  0.12509000000E+03  0.12509000000E+03 0.  0.
        -13    1    3    3    0    0 -0.53717174970E+02  0.31799346580E+02 -0.16481039559E+00  0.62424127196E+02  0.10566000000E+00 0. -1.
         23    2    1    0    0    0 -0.27048153279E+02  0.17628942211E+02  0.22839007957E+01  0.92723375182E+02  0.86890885040E+02 0.  0.
         13    1    3    3    0    0  0.26669021691E+02 -0.14170404369E+02  0.24487111913E+01  0.30299247985E+02  0.10566000000E+00 0.  1.
         22    1    1    0    0    0  0.27048153279E+02 -0.17628942211E+02 -0.22839007957E+01  0.32366624818E+02  0.00000000000E+00 0. -1.
</event>
<event>
 5    1  0.1259474E-009  0.9118800E+02  0.7815553E-02  0.1125453E+00
         25   -1    0    0    0    0  0.00000000000E+00  0.00000000000E+00  0.99999998245E-14  0.12509000000E+03  0.12509000000E+03 0.  0.
        -13    1    3    3    0    0 -0.90865762907E+01 -0.39489334333E+02  0.17668632087E+02  0.44205939857E+02  0.10566000000E+00 0. -1.
         23    2    1    0    0    0 -0.27566195150E+02  0.63755805972E+01 -0.23465637843E+00  0.96795155830E+02  0.92567294363E+02 0.  0.
         13    1    3    3    0    0 -0.18479618859E+02  0.45864914930E+02 -0.17903288466E+02  0.52589215973E+02  0.10566000000E+00 0.  1.
         22    1    1    0    0    0  0.27566195150E+02 -0.63755805972E+01  0.23465637843E+00  0.28294844170E+02  0.00000000000E+00 0.  1.
</event>
<event>
 5    1  0.1259474E-009  0.9118800E+02  0.7815553E-02  0.1125453E+00
         25   -1    0    0    0    0  0.00000000000E+00  0.00000000000E+00  0.99999998245E-14  0.12509000000E+03  0.12509000000E+03 0.  0.
        -13    1    3    3    0    0  0.32625970216E+02  0.75247154044E+01  0.62907456306E+01  0.34068459300E+02  0.10566000000E+00 0.  1.
         23    2    1    0    0    0 -0.19466889505E+02  0.44997802071E+01 -0.23571449804E+02  0.94189821120E+02  0.88976970885E+02 0.  0.
         13    1    3    3    0    0 -0.52092859721E+02 -0.30249351973E+01 -0.29862195435E+02  0.60121361820E+02  0.10566000000E+00 0. -1.
         22    1    1    0    0    0  0.19466889505E+02 -0.44997802071E+01  0.23571449804E+02  0.30900178880E+02  0.00000000000E+00 0. -1.
</event>
<event>
 5    1  0.1259474E-009  0.9118800E+02  0.7815553E-02  0.1125453E+00
         25   -1    0    0    0    0  0.00000000000E+00  0.00000000000E+00  0.99999998245E-14  0.12509000000E+03  0.12509000000E+03 0.  0.
        -13    1    3    3    0    0 -0.56832178154E+01  0.12364971003E+01  0.31459653574E+02  0.31992950111E+02  0.10566000000E+00 0.  1.
         23    2    1    0    0    0  0.33193181195E+02 -0.10478246667E+01 -0.11470621295E+02  0.89955111823E+02  0.82809792753E+02 0.  0.
         13    1    3    3    0    0  0.38876399010E+02 -0.22843217670E+01 -0.42930274868E+02  0.57962161711E+02  0.10566000000E+00 0. -1.
         22    1    1    0    0    0 -0.33193181195E+02  0.10478246667E+01  0.11470621295E+02  0.35134888177E+02  0.00000000000E+00 0. -1.
</event>
<event>
 5    1  0.1259474E-009  0.9118800E+02  0.7815553E-02  0.1125453E+00
         25   -1    0    0    0    0  0.00000000000E+00  0.00000000000E+00  0.99999998245E-14  0.12509000000E+03  0.12509000000E+03 0.  0.
        -13    1    3    3    0    0 -0.40114905116E+02  0.91580775335E+01  0.30525755455E+02  0.51233864842E+02  0.10566000000E+00 0.  1.
         23    2    1    0    0    0 -0.22630067029E+02 -0.19890382629E+02  0.31770593436E+01  0.94794109834E+02  0.89822504409E+02 0.  0.
         13    1    3    3    0    0  0.17484838087E+02 -0.29048460163E+02 -0.27348696111E+02  0.43560244992E+02  0.10566000000E+00 0. -1.
         22    1    1    0    0    0  0.22630067029E+02  0.19890382629E+02 -0.31770593436E+01  0.30295890166E+02  0.00000000000E+00 0.  1.
</event>
<event>
 5    1  0.1259474E-009  0.9118800E+02  0.7815553E-02  0.1125453E+00
         25   -1    0    0    0    0  0.00000000000E+00  0.00000000000E+00  0.99999998245E-14  0.12509000000E+03  0.12509000000E+03 0.  0.
        -13    1    3    3    0    0 -0.25629159735E+02 -0.21543605064E+02  0.31739955955E+02  0.46134766889E+02  0.10566000000E+00 0.  1.
         23    2    1    0    0    0 -0.16722493600E+02 -0.13804669243E+02 -0.17784443006E+02  0.97045444412E+02  0.92904903977E+02 0.  0.
         13    1    3    3    0    0  0.89066661351E+01  0.77389358210E+01 -0.49524398961E+02  0.50910677522E+02  0.10566000000E+00 0. -1.
         22    1    1    0    0    0  0.16722493600E+02  0.13804669243E+02  0.17784443006E+02  0.28044555588E+02  0.00000000000E+00 0. -1.
</event>
<event>
 5    1  0.1259474E-009  0.9118800E+02  0.7815553E-02  0.1125453E+00
         25   -1    0    0    0    0  0.00000000000E+00  0.00000000000E+00  0.99999998245E-14  0.12509000000E+03  0.12509000000E+03 0.  0.
        -13    1    3    3    0    0 -0.28140899095E+02 -0.52639164098E+01  0.25251696231E+02  0.38174315245E+02  0.10566000000E+00 0.  1.
         23    2    1    0    0    0  0.76653659625E+00  0.87934644683E+01 -0.25419684435E+02  0.98181396311E+02  0.94421997591E+02 0.  0.
         13    1    3    3    0    0  0.28907435691E+02  0.14057380878E+02 -0.50671380666E+02  0.60007081066E+02  0.10566000000E+00 0. -1.
         22    1    1    0    0    0 -0.76653659625E+00 -0.87934644683E+01  0.25419684435E+02  0.26908603689E+02  0.00000000000E+00 0. -1.
</event>
<event>
 5    1  0.1259474E-009  0.9118800E+02  0.7815553E-02  0.1125453E+00
         25   -1    0    0    0    0  0.00000000000E+00  0.00000000000E+00  0.99999998245E-14  0.12509000000E+03  0.12509000000E+03 0.  0.
        -13    1    3    3    0    0  0.12417618685E+01  0.11388685109E+01  0.43502589184E+02  0.43535335347E+02  0.10566000000E+00 0.  1.
         23    2    1    0    0    0  0.83739420928E+01  0.30650028301E+02  0.44421468793E+01  0.93007609036E+02  0.87299115280E+02 0.  0.
         13    1    3    3    0    0  0.71321802243E+01  0.29511159791E+02 -0.39060442305E+02  0.49472273689E+02  0.10566000000E+00 0. -1.
         22    1    1    0    0    0 -0.83739420928E+01 -0.30650028301E+02 -0.44421468793E+01  0.32082390964E+02  0.00000000000E+00 0. -1.
</event>
<event>
 5    1  0.1259474E-009  0.9118800E+02  0.7815553E-02  0.1125453E+00
         25   -1    0    0    0    0  0.00000000000E+00  0.00000000000E+00  0.99999998245E-14  0.12509000000E+03  0.12509000000E+03 0.  0.
        -13    1    3    3    0    0 -0.39662618067E+02  0.36281380750E+02  0.23217924835E+02  0.58553779201E+02  0.10566000000E+00 0.  1.
         23    2    1    0    0    0 -0.27884283199E+02  0.66659366323E+01  0.30789166054E+01  0.96255165370E+02  0.91834683928E+02 0.  0.
         13    1    3    3    0    0  0.11778334868E+02 -0.29615444118E+02 -0.20139008229E+02  0.37701386169E+02  0.10566000000E+00 0. -1.
         22    1    1    0    0    0  0.27884283199E+02 -0.66659366323E+01 -0.30789166054E+01  0.28834834630E+02  0.00000000000E+00 0.  1.
</event>
<event>
 5    1  0.1259474E-009  0.9118800E+02  0.7815553E-02  0.1125453E+00
         25   -1    0    0    0    0  0.00000000000E+00  0.00000000000E+00  0.99999998245E-14  0.12509000000E+03  0.12509000000E+03 0.  0.
        -13    1    3    3    0    0  0.11813350675E+02 -0.54295969691E+02  0.19332240208E+02  0.58833275060E+02  0.10566000000E+00 0.  1.
         23    2    1    0    0    0  0.70258277991E+01 -0.19680555329E+02  0.23052265510E+02  0.93975799714E+02  0.88675574272E+02 0.  0.
         13    1    3    3    0    0 -0.47875228761E+01  0.34615414362E+02  0.37200253014E+01  0.35142524654E+02  0.10566000000E+00 0. -1.
         22    1    1    0    0    0 -0.70258277991E+01  0.19680555329E+02 -0.23052265510E+02  0.31114200286E+02  0.00000000000E+00 0.  1.
</event>
<event>
 5    1  0.1259474E-009  0.9118800E+02  0.7815553E-02  0.1125453E+00
         25   -1    0    0    0    0  0.00000000000E+00  0.00000000000E+00  0.99999998245E-14  0.12509000000E+03  0.12509000000E+03 0.  0.
        -13    1    3    3    0    0  0.34688126076E+02  0.11250857022E+02  0.13729943185E+01  0.36493069915E+02  0.10566000000E+00 0.  1.
         23    2    1    0    0    0 -0.19342944762E+02  0.25093640023E+01 -0.21718609188E+02  0.95898487452E+02  0.91347553283E+02 0.  0.
         13    1    3    3    0    0 -0.54031070839E+02 -0.87414930193E+01 -0.23091603506E+02  0.59405417537E+02  0.10566000000E+00 0. -1.
         22    1    1    0    0    0  0.19342944762E+02 -0.25093640023E+01  0.21718609188E+02  0.29191512548E+02  0.00000000000E+00 0. -1.
</event>
<event>
 5    1  0.1259474E-009  0.9118800E+02  0.7815553E-02  0.1125453E+00
         25   -1    0    0    0    0  0.00000000000E+00  0.00000000000E+00  0.99999998245E-14  0.12509000000E+03  0.12509000000E+03 0.  0.
        -13    1    3    3    0    0 -0.10098652409E+02 -0.62322121974E+01  0.31295264398E+02  0.33469807097E+02  0.10566000000E+00 0.  1.
         23    2    1    0    0    0  0.18358519420E+02 -0.17129306693E+01 -0.23404736204E+02  0.95294848657E+02  0.90517164875E+02 0.  0.
         13    1    3    3    0    0  0.28457171829E+02  0.45192815281E+01 -0.54700000602E+02  0.61825041560E+02  0.10566000000E+00 0. -1.
         22    1    1    0    0    0 -0.18358519420E+02  0.17129306693E+01  0.23404736204E+02  0.29795151343E+02  0.00000000000E+00 0. -1.
</event>
<event>
 5    1  0.1259474E-009  0.9118800E+02  0.7815553E-02  0.1125453E+00
         25   -1    0    0    0    0  0.00000000000E+00  0.00000000000E+00  0.99999998245E-14  0.12509000000E+03  0.12509000000E+03 0.  0.
        -13    1    3    3    0    0  0.21385118497E+01  0.40974745298E+00  0.43219283835E+02  0.43274227725E+02  0.10566000000E+00 0.  1.
         23    2    1    0    0    0 -0.19238381938E+02 -0.24208616843E+02  0.45814748325E+01  0.93830403383E+02  0.88470233515E+02 0.  0.
         13    1    3    3    0    0 -0.21376893788E+02 -0.24618364296E+02 -0.38637809003E+02  0.50556175658E+02  0.10566000000E+00 0. -1.
         22    1    1    0    0    0  0.19238381938E+02  0.24208616843E+02 -0.45814748325E+01  0.31259596617E+02  0.00000000000E+00 0.  1.
</event>
<event>
 5    1  0.1259474E-009  0.9118800E+02  0.7815553E-02  0.1125453E+00
         25   -1    0    0    0    0  0.00000000000E+00  0.00000000000E+00  0.99999998245E-14  0.12509000000E+03  0.12509000000E+03 0.  0.
        -13    1    3    3    0    0 -0.34377440049E+01  0.15487524449E+02  0.32184985397E+02  0.35882669166E+02  0.10566000000E+00 0. -1.
         23    2    1    0    0    0 -0.95750396251E+01 -0.24450498273E+02 -0.12397681198E+02  0.96051908659E+02  0.91557404989E+02 0.  0.
         13    1    3    3    0    0 -0.61372956202E+01 -0.39938022722E+02 -0.44582666595E+02  0.60169239494E+02  0.10566000000E+00 0.  1.
         22    1    1    0    0    0  0.95750396251E+01  0.24450498273E+02  0.12397681198E+02  0.29038091341E+02  0.00000000000E+00 0.  1.
</event>
<event>
 5    1  0.1259474E-009  0.9118800E+02  0.7815553E-02  0.1125453E+00
         25   -1    0    0    0    0  0.00000000000E+00  0.00000000000E+00  0.99999998245E-14  0.12509000000E+03  0.12509000000E+03 0.  0.
        -13    1    3    3    0    0 -0.22313493024E+02 -0.34763460510E+02 -0.27840737973E+02  0.49814736900E+02  0.10566000000E+00 0.  1.
         23    2    1    0    0    0 -0.28853761174E+02 -0.34999579412E+01  0.49677399772E+01  0.95603262644E+02  0.90942378175E+02 0.  0.
         13    1    3    3    0    0 -0.65402681495E+01  0.31263502569E+02  0.32808477950E+02  0.45788525743E+02  0.10566000000E+00 0. -1.
         22    1    1    0    0    0  0.28853761174E+02  0.34999579412E+01 -0.49677399772E+01  0.29486737356E+02  0.00000000000E+00 0.  1.
</event>
<event>
 5    1  0.1259474E-009  0.9118800E+02  0.7815553E-02  0.1125453E+00
         25   -1    0    0    0    0  0.00000000000E+00  0.00000000000E+00  0.99999998245E-14  0.12509000000E+03  0.12509000000E+03 0.  0.
        -13    1    3    3    0    0  0.24979587587E+02 -0.23516561786E+02  0.14022633753E+01  0.34336365283E+02  0.10566000000E+00 0.  1.
         23    2    1    0    0    0 -0.21638463002E+02  0.17998500782E+02 -0.21587075501E+01  0.96861838002E+02  0.92657360913E+02 0.  0.
         13    1    3    3    0    0 -0.46618050589E+02  0.41515062568E+02 -0.35609709254E+01  0.62525472719E+02  0.10566000000E+00 0. -1.
         22    1    1    0    0    0  0.21638463002E+02 -0.17998500782E+02  0.21587075501E+01  0.28228161998E+02  0.00000000000E+00 0. -1.
</event>
<event>
 5    1  0.1259474E-009  0.9118800E+02  0.7815553E-02  0.1125453E+00
         25   -1    0    0    0    0  0.00000000000E+00  0.00000000000E+00  0.99999998245E-14  0.12509000000E+03  0.12509000000E+03 0.  0.
        -13    1    3    3    0    0 -0.27396140937E+02 -0.25338903921E+02  0.14344111813E+01  0.37345378424E+02  0.10566000000E+00 0.  1.
         23    2    1    0    0    0  0.26788222127E+02 -0.57631661678E+01 -0.96979973969E+01  0.96023282220E+02  0.91518285855E+02 0.  0.
         13    1    3    3    0    0  0.54184363063E+02  0.19575737753E+02 -0.11132408578E+02  0.58677903796E+02  0.10566000000E+00 0. -1.
         22    1    1    0    0    0 -0.26788222127E+02  0.57631661678E+01  0.96979973969E+01  0.29066717780E+02  0.00000000000E+00 0. -1.
</event>
<event>
 5    1  0.1259474E-009  0.9118800E+02  0.7815553E-02  0.1125453E+00
         25   -1    0    0    0    0  0.00000000000E+00  0.00000000000E+00  0.99999998245E-14  0.12509000000E+03  0.12509000000E+03 0.  0.
        -13    1    3    3    0    0  0.62230024395E+01 -0.11784934518E+02 -0.37951591041E+02  0.40223685405E+02  0.10566000000E+00 0.  1.
         23    2    1    0    0    0 -0.34201941294E+02 -0.35357349869E+01 -0.20793075661E+02  0.84907588355E+02  0.74797542437E+02 0.  0.
         13    1    3    3    0    0 -0.40424943734E+02  0.82491995309E+01  0.17158515380E+02  0.44683902950E+02  0.10566000000E+00 0. -1.
         22    1    1    0    0    0  0.34201941294E+02  0.35357349869E+01  0.20793075661E+02  0.40182411645E+02  0.00000000000E+00 0. -1.
</event>
<event>
 5    1  0.1259474E-009  0.9118800E+02  0.7815553E-02  0.1125453E+00
         25   -1    0    0    0    0  0.00000000000E+00  0.00000000000E+00  0.99999998245E-14  0.12509000000E+03  0.12509000000E+03 0.  0.
        -13    1    3    3    0    0 -0.26350312107E+02 -0.23814251344E+02 -0.10075283787E+02  0.36918559325E+02  0.10566000000E+00 0. -1.
         23    2    1    0    0    0  0.26001370294E+02  0.41327814081E+01 -0.11687223258E+02  0.96284751748E+02  0.91874975333E+02 0.  0.
         13    1    3    3    0    0  0.52351682402E+02  0.27947032752E+02 -0.16119394710E+01  0.59366192423E+02  0.10566000000E+00 0.  1.
         22    1    1    0    0    0 -0.26001370294E+02 -0.41327814081E+01  0.11687223258E+02  0.28805248252E+02  0.00000000000E+00 0.  1.
</event>
<event>
 5    1  0.1259474E-009  0.9118800E+02  0.7815553E-02  0.1125453E+00
         25   -1    0    0    0    0  0.00000000000E+00  0.00000000000E+00  0.99999998245E-14  0.12509000000E+03  0.12509000000E+03 0.  0.
        -13    1    3    3    0    0 -0.14279769388E+02 -0.19128731428E+02 -0.56724722548E+02  0.61542875233E+02  0.10566000000E+00 0. -1.
         23    2    1    0    0    0 -0.75097753652E+01 -0.15603943443E+02 -0.22023873213E+02  0.97073384067E+02  0.92942515169E+02 0.  0.
         13    1    3    3    0    0  0.67699940230E+01  0.35247879848E+01  0.34700849334E+02  0.35530508834E+02  0.10566000000E+00 0.  1.
         22    1    1    0    0    0  0.75097753652E+01  0.15603943443E+02  0.22023873213E+02  0.28016615933E+02  0.00000000000E+00 0. -1.
</event>
<event>
 5    1  0.1259474E-009  0.9118800E+02  0.7815553E-02  0.1125453E+00
         25   -1    0    0    0    0  0.00000000000E+00  0.00000000000E+00  0.99999998245E-14  0.12509000000E+03  0.12509000000E+03 0.  0.
        -13    1    3    3    0    0 -0.38044959393E+02 -0.35154063947E+01 -0.31773035509E-01  0.38207187686E+02  0.10566000000E+00 0.  1.
         23    2    1    0    0    0  0.95325660962E+01  0.27106026087E+02 -0.77967533378E+01  0.95317599539E+02  0.90548599949E+02 0.  0.
         13    1    3    3    0    0  0.47577525489E+02  0.30621432481E+02 -0.77649803023E+01  0.57110411853E+02  0.10566000000E+00 0. -1.
         22    1    1    0    0    0 -0.95325660962E+01 -0.27106026087E+02  0.77967533378E+01  0.29772400461E+02  0.00000000000E+00 0. -1.
</event>
<event>
 5    1  0.1259474E-009  0.9118800E+02  0.7815553E-02  0.1125453E+00
         25   -1    0    0    0    0  0.00000000000E+00  0.00000000000E+00  0.99999998245E-14  0.12509000000E+03  0.12509000000E+03 0.  0.
        -13    1    3    3    0    0  0.16170903665E+02 -0.29971473072E+02  0.15708473985E+02  0.37504061679E+02  0.10566000000E+00 0. -1.
         23    2    1    0    0    0 -0.11449986437E+02  0.21912449787E+02  0.14771707308E+02  0.96289635734E+02  0.91881624757E+02 0.  0.
         13    1    3    3    0    0 -0.27620890102E+02  0.51883922858E+02 -0.93676667699E+00  0.58785574056E+02  0.10566000000E+00 0.  1.
         22    1    1    0    0    0  0.11449986437E+02 -0.21912449787E+02 -0.14771707308E+02  0.28800364266E+02  0.00000000000E+00 0.  1.
</event>
<event>
 5    1  0.1259474E-009  0.9118800E+02  0.7815553E-02  0.1125453E+00
         25   -1    0    0    0    0  0.00000000000E+00  0.00000000000E+00  0.99999998245E-14  0.12509000000E+03  0.12509000000E+03 0.  0.
        -13    1    3    3    0    0 -0.13013402749E+01  0.41368678554E+02  0.95867615792E+01  0.42485035170E+02  0.10566000000E+00 0. -1.
         23    2    1    0    0    0  0.28641040949E+02 -0.14870850906E+01  0.98517192181E+01  0.94765471640E+02  0.89782612988E+02 0.  0.
         13    1    3    3    0    0  0.29942381224E+02 -0.42855763644E+02  0.26495763888E+00  0.52280436470E+02  0.10566000000E+00 0.  1.
         22    1    1    0    0    0 -0.28641040949E+02  0.14870850906E+01 -0.98517192181E+01  0.30324528360E+02  0.00000000000E+00 0.  1.
</event>
<event>
 5    1  0.1259474E-009  0.9118800E+02  0.7815553E-02  0.1125453E+00
         25   -1    0    0    0    0  0.00000000000E+00  0.00000000000E+00  0.99999998245E-14  0.12509000000E+03  0.12509000000E+03 0.  0.
        -13    1    3    3    0    0  0.48137520677E+02  0.23534799598E+02 -0.19018072335E+02  0.56857769288E+02  0.10566000000E+00 0. -1.
         23    2    1    0    0    0  0.24368082109E+02 -0.79816129053E+01 -0.37842238989E+01  0.99170317888E+02  0.95723153047E+02 0.  0.
         13    1    3    3    0    0 -0.23769438568E+02 -0.31516412503E+02  0.15233848436E+02  0.42312548601E+02  0.10566000000E+00 0.  1.
         22    1    1    0    0    0 -0.24368082109E+02  0.79816129053E+01  0.37842238989E+01  0.25919682112E+02  0.00000000000E+00 0. -1.
</event>
<event>
 5    1  0.1259474E-009  0.9118800E+02  0.7815553E-02  0.1125453E+00
         25   -1    0    0    0    0  0.00000000000E+00  0.00000000000E+00  0.99999998245E-14  0.12509000000E+03  0.12509000000E+03 0.  0.
        -13    1    3    3    0    0 -0.52556244492E+01  0.66364224207E+00 -0.34782579868E+02  0.35183817810E+02  0.10566000000E+00 0.  1.
         23    2    1    0    0    0 -0.95180119223E+01 -0.13562974924E+02  0.24062631907E+02  0.95874300555E+02  0.91314426094E+02 0.  0.
         13    1    3    3    0    0 -0.42623874730E+01 -0.14226617166E+02  0.58845211775E+02  0.60690482745E+02  0.10566000000E+00 0. -1.
         22    1    1    0    0    0  0.95180119223E+01  0.13562974924E+02 -0.24062631907E+02  0.29215699445E+02  0.00000000000E+00 0. -1.
</event>
<event>
 5    1  0.1259474E-009  0.9118800E+02  0.7815553E-02  0.1125453E+00
         25   -1    0    0    0    0  0.00000000000E+00  0.00000000000E+00  0.99999998245E-14  0.12509000000E+03  0.12509000000E+03 0.  0.
        -13    1    3    3    0    0 -0.22865087416E+02 -0.27203256116E+02 -0.43012517667E+02  0.55793522975E+02  0.10566000000E+00 0.  1.
         23    2    1    0    0    0 -0.19906973597E+01 -0.27868777828E+02 -0.89452265940E+01  0.95753184692E+02  0.91148360634E+02 0.  0.
         13    1    3    3    0    0  0.20874390057E+02 -0.66552171194E+00  0.34067291073E+02  0.39959661717E+02  0.10566000000E+00 0. -1.
         22    1    1    0    0    0  0.19906973597E+01  0.27868777828E+02  0.89452265940E+01  0.29336815308E+02  0.00000000000E+00 0.  1.
</event>
<event>
 5    1  0.1259474E-009  0.9118800E+02  0.7815553E-02  0.1125453E+00
         25   -1    0    0    0    0  0.00000000000E+00  0.00000000000E+00  0.99999998245E-14  0.12509000000E+03  0.12509000000E+03 0.  0.
        -13    1    3    3    0    0 -0.76663483054E+01 -0.33337635945E+02 -0.65004070688E+01  0.34820070689E+02  0.10566000000E+00 0.  1.
         23    2    1    0    0    0  0.15705577305E+02  0.20478068204E+02  0.12396195723E+02  0.96459909112E+02  0.92113147605E+02 0.  0.
         13    1    3    3    0    0  0.23371925610E+02  0.53815704148E+02  0.18896602792E+02  0.61639838423E+02  0.10566000000E+00 0. -1.
         22    1    1    0    0    0 -0.15705577305E+02 -0.20478068204E+02 -0.12396195723E+02  0.28630090888E+02  0.00000000000E+00 0. -1.
</event>
<event>
 5    1  0.1259474E-009  0.9118800E+02  0.7815553E-02  0.1125453E+00
         25   -1    0    0    0    0  0.00000000000E+00  0.00000000000E+00  0.99999998245E-14  0.12509000000E+03  0.12509000000E+03 0.  0.
        -13    1    3    3    0    0  0.47273881733E+02  0.23069420177E+02  0.58739014861E+01  0.52929499565E+02  0.10566000000E+00 0.  1.
         23    2    1    0    0    0  0.71749068045E+01  0.22257844594E+02 -0.14149038397E+02  0.97757121974E+02  0.93858237121E+02 0.  0.
         13    1    3    3    0    0 -0.40098974929E+02 -0.81157558259E+00 -0.20022939883E+02  0.44827622409E+02  0.10566000000E+00 0. -1.
         22    1    1    0    0    0 -0.71749068045E+01 -0.22257844594E+02  0.14149038397E+02  0.27332878026E+02  0.00000000000E+00 0.  1.
</event>
<event>
 5    1  0.1259474E-009  0.9118800E+02  0.7815553E-02  0.1125453E+00
         25   -1    0    0    0    0  0.00000000000E+00  0.00000000000E+00  0.99999998245E-14  0.12509000000E+03  0.12509000000E+03 0.  0.
        -13    1    3    3    0    0 -0.46885234495E+02 -0.17923449074E+02 -0.10739030874E+02  0.51330431408E+02  0.10566000000E+00 0.  1.
         23    2    1    0    0    0 -0.25276819296E+02 -0.65540041302E+01  0.21144757518E+02  0.91489801573E+02  0.85096477351E+02 0.  0.
         13    1    3    3    0    0  0.21608415200E+02  0.11369444944E+02  0.31883788392E+02  0.40159370165E+02  0.10566000000E+00 0. -1.
         22    1    1    0    0    0  0.25276819296E+02  0.65540041302E+01 -0.21144757518E+02  0.33600198427E+02  0.00000000000E+00 0.  1.
</event>
<event>
 5    1  0.1259474E-009  0.9118800E+02  0.7815553E-02  0.1125453E+00
         25   -1    0    0    0    0  0.00000000000E+00  0.00000000000E+00  0.99999998245E-14  0.12509000000E+03  0.12509000000E+03 0.  0.
        -13    1    3    3    0    0  0.24934241938E+02  0.28950624423E+02 -0.32345767600E+02  0.50061111865E+02  0.10566000000E+00 0.  1.
         23    2    1    0    0    0 -0.14861074100E+02  0.23004360954E+02 -0.11382882279E+02  0.95431575307E+02  0.90705917173E+02 0.  0.
         13    1    3    3    0    0 -0.39795316039E+02 -0.59462634688E+01  0.20962885321E+02  0.45370463441E+02  0.10566000000E+00 0. -1.
         22    1    1    0    0    0  0.14861074100E+02 -0.23004360954E+02  0.11382882279E+02  0.29658424693E+02  0.00000000000E+00 0. -1.
</event>
<event>
 5    1  0.1259474E-009  0.9118800E+02  0.7815553E-02  0.1125453E+00
         25   -1    0    0    0    0  0.00000000000E+00  0.00000000000E+00  0.99999998245E-14  0.12509000000E+03  0.12509000000E+03 0.  0.
        -13    1    3    3    0    0  0.54476569271E+02  0.11574983002E+02 -0.29108121237E+01  0.55768815859E+02  0.10566000000E+00 0. -1.
         23    2    1    0    0    0  0.25753318760E+02 -0.14016111795E+02  0.57728998961E+01  0.95206707173E+02  0.90395275874E+02 0.  0.
         13    1    3    3    0    0 -0.28723250511E+02 -0.25591094796E+02  0.86837120198E+01  0.39437891314E+02  0.10566000000E+00 0.  1.
         22    1    1    0    0    0 -0.25753318760E+02  0.14016111795E+02 -0.57728998961E+01  0.29883292827E+02  0.00000000000E+00 0. -1.
</event>
<event>
 5    1  0.1259474E-009  0.9118800E+02  0.7815553E-02  0.1125453E+00
         25   -1    0    0    0    0  0.00000000000E+00  0.00000000000E+00  0.99999998245E-14  0.12509000000E+03  0.12509000000E+03 0.  0.
        -13    1    3    3    0    0 -0.21135123013E+02 -0.29456635373E+02 -0.15749257518E+01  0.36288818490E+02  0.10566000000E+00 0.  1.
         23    2    1    0    0    0 -0.73577162952E+01  0.27339237506E+02  0.83580918085E+01  0.95570047508E+02  0.90896679727E+02 0.  0.
         13    1    3    3    0    0  0.13777406718E+02  0.56795872878E+02  0.99330175602E+01  0.59281229017E+02  0.10566000000E+00 0. -1.
         22    1    1    0    0    0  0.73577162952E+01 -0.27339237506E+02 -0.83580918085E+01  0.29519952492E+02  0.00000000000E+00 0. -1.
</event>
<event>
 5    1  0.1259474E-009  0.9118800E+02  0.7815553E-02  0.1125453E+00
         25   -1    0    0    0    0  0.00000000000E+00  0.00000000000E+00  0.99999998245E-14  0.12509000000E+03  0.12509000000E+03 0.  0.
        -13    1    3    3    0    0 -0.11405885316E+02 -0.37465110873E+02  0.78535600051E+01  0.39942687958E+02  0.10566000000E+00 0.  1.
         23    2    1    0    0    0  0.18305841604E+02 -0.10634518125E+02 -0.25427231749E+02  0.92003130596E+02  0.85847743782E+02 0.  0.
         13    1    3    3    0    0  0.29711726920E+02  0.26830592748E+02 -0.33280791754E+02  0.52060442637E+02  0.10566000000E+00 0. -1.
         22    1    1    0    0    0 -0.18305841604E+02  0.10634518125E+02  0.25427231749E+02  0.33086869404E+02  0.00000000000E+00 0. -1.
</event>
<event>
 5    1  0.1259474E-009  0.9118800E+02  0.7815553E-02  0.1125453E+00
         25   -1    0    0    0    0  0.00000000000E+00  0.00000000000E+00  0.99999998245E-14  0.12509000000E+03  0.12509000000E+03 0.  0.
        -13    1    3    3    0    0  0.16614616246E+02  0.59165567518E+01  0.44685355168E+02  0.48040017146E+02  0.10566000000E+00 0. -1.
         23    2    1    0    0    0  0.11131772179E+02 -0.24967205558E+02  0.73896671044E+01  0.96772427979E+02  0.92536576184E+02 0.  0.
         13    1    3    3    0    0 -0.54828440666E+01 -0.30883762310E+02 -0.37295688064E+02  0.48732410834E+02  0.10566000000E+00 0.  1.
         22    1    1    0    0    0 -0.11131772179E+02  0.24967205558E+02 -0.73896671044E+01  0.28317572021E+02  0.00000000000E+00 0.  1.
</event>
<event>
 5    1  0.1259474E-009  0.9118800E+02  0.7815553E-02  0.1125453E+00
         25   -1    0    0    0    0  0.00000000000E+00  0.00000000000E+00  0.99999998245E-14  0.12509000000E+03  0.12509000000E+03 0.  0.
        -13    1    3    3    0    0 -0.22278363480E+02  0.18657172167E+02 -0.20231294269E+02  0.35408077955E+02  0.10566000000E+00 0. -1.
         23    2    1    0    0    0  0.24805988938E+02  0.46548722837E+01  0.14882336339E+02  0.95790019487E+02  0.91198897884E+02 0.  0.
         13    1    3    3    0    0  0.47084352418E+02 -0.14002299883E+02  0.35113630609E+02  0.60381941532E+02  0.10566000000E+00 0.  1.
         22    1    1    0    0    0 -0.24805988938E+02 -0.46548722837E+01 -0.14882336339E+02  0.29299980513E+02  0.00000000000E+00 0.  1.
</event>
<event>
 5    1  0.1259474E-009  0.9118800E+02  0.7815553E-02  0.1125453E+00
         25   -1    0    0    0    0  0.00000000000E+00  0.00000000000E+00  0.99999998245E-14  0.12509000000E+03  0.12509000000E+03 0.  0.
        -13    1    3    3    0    0  0.61962331892E+01 -0.39363156997E+02 -0.79527660593E+01  0.40633841641E+02  0.10566000000E+00 0.  1.
         23    2    1    0    0    0 -0.23517596938E+02  0.82715344638E+01 -0.12948122750E+02  0.96998194595E+02  0.92841263584E+02 0.  0.
         13    1    3    3    0    0 -0.29713830127E+02  0.47634691461E+02 -0.49953566910E+01  0.56364352954E+02  0.10566000000E+00 0. -1.
         22    1    1    0    0    0  0.23517596938E+02 -0.82715344638E+01  0.12948122750E+02  0.28091805405E+02  0.00000000000E+00 0. -1.
</event>
<event>
 5    1  0.1259474E-009  0.9118800E+02  0.7815553E-02  0.1125453E+00
         25   -1    0    0    0    0  0.00000000000E+00  0.00000000000E+00  0.99999998245E-14  0.12509000000E+03  0.12509000000E+03 0.  0.
        -13    1    3    3    0    0 -0.86657372395E+01 -0.53412403122E+02 -0.16588718542E+02  0.56596612585E+02  0.10566000000E+00 0. -1.
         23    2    1    0    0    0  0.97773240964E+00 -0.16148138555E+02 -0.24342708767E+02  0.95861831915E+02  0.91297343930E+02 0.  0.
         13    1    3    3    0    0  0.96434696491E+01  0.37264264567E+02 -0.77539902253E+01  0.39265219330E+02  0.10566000000E+00 0.  1.
         22    1    1    0    0    0 -0.97773240964E+00  0.16148138555E+02  0.24342708767E+02  0.29228168085E+02  0.00000000000E+00 0. -1.
</event>
<event>
 5    1  0.1259474E-009  0.9118800E+02  0.7815553E-02  0.1125453E+00
         25   -1    0    0    0    0  0.00000000000E+00  0.00000000000E+00  0.99999998245E-14  0.12509000000E+03  0.12509000000E+03 0.  0.
        -13    1    3    3    0    0 -0.22676811787E+02  0.17511862496E+02 -0.16503525480E+02  0.33064794544E+02  0.10566000000E+00 0.  1.
         23    2    1    0    0    0  0.94544198572E+01 -0.28441503460E+02  0.77106243685E+01  0.94142319924E+02  0.88910165328E+02 0.  0.
         13    1    3    3    0    0  0.32131231644E+02 -0.45953365956E+02  0.24214149849E+02  0.61077525381E+02  0.10566000000E+00 0. -1.
         22    1    1    0    0    0 -0.94544198572E+01  0.28441503460E+02 -0.77106243685E+01  0.30947680076E+02  0.00000000000E+00 0. -1.
</event>
<event>
 5    1  0.1259474E-009  0.9118800E+02  0.7815553E-02  0.1125453E+00
         25   -1    0    0    0    0  0.00000000000E+00  0.00000000000E+00  0.99999998245E-14  0.12509000000E+03  0.12509000000E+03 0.  0.
        -13    1    3    3    0    0 -0.20737340287E+02 -0.48235130628E+01  0.34659487432E+02  0.40676710702E+02  0.10566000000E+00 0. -1.
         23    2    1    0    0    0 -0.37303811221E+02  0.16436898172E+02  0.32822398453E+00  0.84324160329E+02  0.73815380045E+02 0.  0.
         13    1    3    3    0    0 -0.16566470934E+02  0.21260411235E+02 -0.34331263447E+02  0.43647449627E+02  0.10566000000E+00 0.  1.
         22    1    1    0    0    0  0.37303811221E+02 -0.16436898172E+02 -0.32822398453E+00  0.40765839671E+02  0.00000000000E+00 0.  1.
</event>
<event>
 5    1  0.1259474E-009  0.9118800E+02  0.7815553E-02  0.1125453E+00
         25   -1    0    0    0    0  0.00000000000E+00  0.00000000000E+00  0.99999998245E-14  0.12509000000E+03  0.12509000000E+03 0.  0.
        -13    1    3    3    0    0  0.36348221750E+02 -0.40537134201E+01 -0.28244012529E+02  0.46209968889E+02  0.10566000000E+00 0. -1.
         23    2    1    0    0    0 -0.18098913481E+02  0.21191394923E+01 -0.11642699922E+02  0.10346561832E+03  0.10118063200E+03 0.  0.
         13    1    3    3    0    0 -0.54447135231E+02  0.61728529124E+01  0.16601312608E+02  0.57255649436E+02  0.10566000000E+00 0.  1.
         22    1    1    0    0    0  0.18098913481E+02 -0.21191394923E+01  0.11642699922E+02  0.21624381676E+02  0.00000000000E+00 0.  1.
</event>
<event>
 5    1  0.1259474E-009  0.9118800E+02  0.7815553E-02  0.1125453E+00
         25   -1    0    0    0    0  0.00000000000E+00  0.00000000000E+00  0.99999998245E-14  0.12509000000E+03  0.12509000000E+03 0.  0.
        -13    1    3    3    0    0  0.20626826872E+02  0.18248181690E+02  0.19710363568E+02  0.33866970898E+02  0.10566000000E+00 0. -1.
         23    2    1    0    0    0 -0.25933483704E+02 -0.43411755406E+01 -0.13675078732E+02  0.95452200480E+02  0.90734356316E+02 0.  0.
         13    1    3    3    0    0 -0.46560310575E+02 -0.22589357231E+02 -0.33385442300E+02  0.61585229581E+02  0.10566000000E+00 0.  1.
         22    1    1    0    0    0  0.25933483704E+02  0.43411755406E+01  0.13675078732E+02  0.29637799520E+02  0.00000000000E+00 0.  1.
</event>
<event>
 5    1  0.1259474E-009  0.9118800E+02  0.7815553E-02  0.1125453E+00
         25   -1    0    0    0    0  0.00000000000E+00  0.00000000000E+00  0.99999998245E-14  0.12509000000E+03  0.12509000000E+03 0.  0.
        -13    1    3    3    0    0  0.53334529581E+02  0.10334119640E+02 -0.88881438054E+01  0.55048854108E+02  0.10566000000E+00 0. -1.
         23    2    1    0    0    0  0.18504129205E+02 -0.79237991658E+01 -0.20805526402E+02  0.96140745783E+02  0.91678698071E+02 0.  0.
         13    1    3    3    0    0 -0.34830400375E+02 -0.18257918806E+02 -0.11917382596E+02  0.41091891675E+02  0.10566000000E+00 0.  1.
         22    1    1    0    0    0 -0.18504129205E+02  0.79237991658E+01  0.20805526402E+02  0.28949254217E+02  0.00000000000E+00 0. -1.
</event>
<event>
 5    1  0.1259474E-009  0.9118800E+02  0.7815553E-02  0.1125453E+00
         25   -1    0    0    0    0  0.00000000000E+00  0.00000000000E+00  0.99999998245E-14  0.12509000000E+03  0.12509000000E+03 0.  0.
        -13    1    3    3    0    0 -0.99646520541E+01 -0.71034897715E+01  0.36881559864E+02  0.38858904765E+02  0.10566000000E+00 0.  1.
         23    2    1    0    0    0  0.60373915851E+01  0.27815611189E+02 -0.55464230717E+01  0.96091359828E+02  0.91611289161E+02 0.  0.
         13    1    3    3    0    0  0.16002043639E+02  0.34919100960E+02 -0.42427982936E+02  0.57232455063E+02  0.10566000000E+00 0. -1.
         22    1    1    0    0    0 -0.60373915851E+01 -0.27815611189E+02  0.55464230717E+01  0.28998640172E+02  0.00000000000E+00 0.  1.
</event>
<event>
 5    1  0.1259474E-009  0.9118800E+02  0.7815553E-02  0.1125453E+00
         25   -1    0    0    0    0  0.00000000000E+00  0.00000000000E+00  0.99999998245E-14  0.12509000000E+03  0.12509000000E+03 0.  0.
        -13    1    3    3    0    0  0.30618284315E+02  0.40037732987E+02  0.16508313540E+02  0.53038052161E+02  0.10566000000E+00 0. -1.
         23    2    1    0    0    0 -0.68468923233E+01  0.28517873380E+02 -0.48039895686E+00  0.95757768245E+02  0.91154650783E+02 0.  0.
         13    1    3    3    0    0 -0.37465176638E+02 -0.11519859607E+02 -0.16988712497E+02  0.42719716083E+02  0.10566000000E+00 0.  1.
         22    1    1    0    0    0  0.68468923233E+01 -0.28517873380E+02  0.48039895686E+00  0.29332231755E+02  0.00000000000E+00 0. -1.
</event>
<event>
 5    1  0.1259474E-009  0.9118800E+02  0.7815553E-02  0.1125453E+00
         25   -1    0    0    0    0  0.00000000000E+00  0.00000000000E+00  0.99999998245E-14  0.12509000000E+03  0.12509000000E+03 0.  0.
        -13    1    3    3    0    0  0.21573650050E+02 -0.27337601506E+02 -0.85097745739E+01  0.35849606133E+02  0.10566000000E+00 0.  1.
         23    2    1    0    0    0 -0.27592014494E+02  0.25660907012E+01  0.89227995853E+01  0.95977795725E+02  0.91456092386E+02 0.  0.
         13    1    3    3    0    0 -0.49165664544E+02  0.29903692207E+02  0.17432574159E+02  0.60128189591E+02  0.10566000000E+00 0. -1.
         22    1    1    0    0    0  0.27592014494E+02 -0.25660907012E+01 -0.89227995853E+01  0.29112204275E+02  0.00000000000E+00 0. -1.
</event>
<event>
 5    1  0.1259474E-009  0.9118800E+02  0.7815553E-02  0.1125453E+00
         25   -1    0    0    0    0  0.00000000000E+00  0.00000000000E+00  0.99999998245E-14  0.12509000000E+03  0.12509000000E+03 0.  0.
        -13    1    3    3    0    0  0.17052793105E+01  0.13246201684E+02  0.37975143290E+02  0.40255341366E+02  0.10566000000E+00 0. -1.
         23    2    1    0    0    0 -0.50136128401E+01 -0.29706104043E+02  0.56309978317E+01  0.94442046272E+02  0.89330862731E+02 0.  0.
         13    1    3    3    0    0 -0.67188921505E+01 -0.42952305728E+02 -0.32344145458E+02  0.54186704905E+02  0.10566000000E+00 0.  1.
         22    1    1    0    0    0  0.50136128401E+01  0.29706104043E+02 -0.56309978317E+01  0.30647953728E+02  0.00000000000E+00 0.  1.
</event>
<event>
 5    1  0.1259474E-009  0.9118800E+02  0.7815553E-02  0.1125453E+00
         25   -1    0    0    0    0  0.00000000000E+00  0.00000000000E+00  0.99999998245E-14  0.12509000000E+03  0.12509000000E+03 0.  0.
        -13    1    3    3    0    0  0.65160502986E+01 -0.36316524260E+02  0.21874656221E+02  0.42893596197E+02  0.10566000000E+00 0.  1.
         23    2    1    0    0    0 -0.28159356053E+02 -0.24997813996E+01 -0.17150976486E+01  0.96767927330E+02  0.92530492052E+02 0.  0.
         13    1    3    3    0    0 -0.34675406352E+02  0.33816742861E+02 -0.23589753870E+02  0.53874331133E+02  0.10566000000E+00 0. -1.
         22    1    1    0    0    0  0.28159356053E+02  0.24997813996E+01  0.17150976486E+01  0.28322072670E+02  0.00000000000E+00 0.  1.
</event>
<event>
 5    1  0.1259474E-009  0.9118800E+02  0.7815553E-02  0.1125453E+00
         25   -1    0    0    0    0  0.00000000000E+00  0.00000000000E+00  0.99999998245E-14  0.12509000000E+03  0.12509000000E+03 0.  0.
        -13    1    3    3    0    0  0.18855649495E+02 -0.66312873746E+01 -0.31461285481E+02  0.37273759380E+02  0.10566000000E+00 0. -1.
         23    2    1    0    0    0 -0.28039606336E+02  0.93737687826E+01 -0.86038301530E+00  0.95512519993E+02  0.90817477127E+02 0.  0.
         13    1    3    3    0    0 -0.46895255830E+02  0.16005056157E+02  0.30600902466E+02  0.58238760613E+02  0.10566000000E+00 0.  1.
         22    1    1    0    0    0  0.28039606336E+02 -0.93737687826E+01  0.86038301530E+00  0.29577480007E+02  0.00000000000E+00 0.  1.
</event>
<event>
 5    1  0.1259474E-009  0.9118800E+02  0.7815553E-02  0.1125453E+00
         25   -1    0    0    0    0  0.00000000000E+00  0.00000000000E+00  0.99999998245E-14  0.12509000000E+03  0.12509000000E+03 0.  0.
        -13    1    3    3    0    0  0.27886410022E+01  0.23317505645E+02 -0.38462050238E+02  0.45064654228E+02  0.10566000000E+00 0.  1.
         23    2    1    0    0    0  0.60084291656E+01  0.29035689040E+01  0.18374132551E+02  0.10554158113E+03  0.10371540226E+03 0.  0.
         13    1    3    3    0    0  0.32197881634E+01 -0.20413936741E+02  0.56836182789E+02  0.60476926899E+02  0.10566000000E+00 0. -1.
         22    1    1    0    0    0 -0.60084291656E+01 -0.29035689040E+01 -0.18374132551E+02  0.19548418872E+02  0.00000000000E+00 0. -1.
</event>
<event>
 5    1  0.1259474E-009  0.9118800E+02  0.7815553E-02  0.1125453E+00
         25   -1    0    0    0    0  0.00000000000E+00  0.00000000000E+00  0.99999998245E-14  0.12509000000E+03  0.12509000000E+03 0.  0.
        -13    1    3    3    0    0  0.52342874132E+01  0.25471647980E+02 -0.14495679485E+02  0.29771437710E+02  0.10566000000E+00 0.  1.
         23    2    1    0    0    0  0.67598795311E+01 -0.19332340379E+02  0.27231987247E+02  0.91016308019E+02  0.84397581957E+02 0.  0.
         13    1    3    3    0    0  0.15255921178E+01 -0.44803988359E+02  0.41727666732E+02  0.61244870309E+02  0.10566000000E+00 0. -1.
         22    1    1    0    0    0 -0.67598795311E+01  0.19332340379E+02 -0.27231987247E+02  0.34073691981E+02  0.00000000000E+00 0. -1.
</event>
<event>
 5    1  0.1259474E-009  0.9118800E+02  0.7815553E-02  0.1125453E+00
         25   -1    0    0    0    0  0.00000000000E+00  0.00000000000E+00  0.99999998245E-14  0.12509000000E+03  0.12509000000E+03 0.  0.
        -13    1    3    3    0    0 -0.22186718733E+02  0.43372486863E+02  0.32068268398E+02  0.58325021276E+02  0.10566000000E+00 0. -1.
         23    2    1    0    0    0 -0.48368722197E+00  0.27626418649E+02  0.39504567930E+01  0.97178370353E+02  0.93083707462E+02 0.  0.
         13    1    3    3    0    0  0.21703031511E+02 -0.15746068214E+02 -0.28117811605E+02  0.38853349076E+02  0.10566000000E+00 0.  1.
         22    1    1    0    0    0  0.48368722197E+00 -0.27626418649E+02 -0.39504567930E+01  0.27911629647E+02  0.00000000000E+00 0. -1.
</event>
<event>
 5    1  0.1259474E-009  0.9118800E+02  0.7815553E-02  0.1125453E+00
         25   -1    0    0    0    0  0.00000000000E+00  0.00000000000E+00  0.99999998245E-14  0.12509000000E+03  0.12509000000E+03 0.  0.
        -13    1    3    3    0    0 -0.54630120003E+01  0.40395232570E+02 -0.82954479307E+01  0.41598616983E+02  0.10566000000E+00 0.  1.
         23    2    1    0    0    0  0.13586588437E+02  0.10512692994E+02  0.27945504251E+02  0.92286596104E+02  0.86259796622E+02 0.  0.
         13    1    3    3    0    0  0.19049600437E+02 -0.29882539576E+02  0.36240952182E+02  0.50687979121E+02  0.10566000000E+00 0. -1.
         22    1    1    0    0    0 -0.13586588437E+02 -0.10512692994E+02 -0.27945504251E+02  0.32803403896E+02  0.00000000000E+00 0. -1.
</event>
<event>
 5    1  0.1259474E-009  0.9118800E+02  0.7815553E-02  0.1125453E+00
         25   -1    0    0    0    0  0.00000000000E+00  0.00000000000E+00  0.99999998245E-14  0.12509000000E+03  0.12509000000E+03 0.  0.
        -13    1    3    3    0    0 -0.36570783861E+02 -0.18811478815E+02  0.44186123309E+02  0.60363222450E+02  0.10566000000E+00 0.  1.
         23    2    1    0    0    0 -0.11124921990E+02 -0.22178055002E+01  0.28205881708E+02  0.94688448832E+02  0.89675236430E+02 0.  0.
         13    1    3    3    0    0  0.25445861872E+02  0.16593673315E+02 -0.15980241601E+02  0.34325226382E+02  0.10566000000E+00 0. -1.
         22    1    1    0    0    0  0.11124921990E+02  0.22178055002E+01 -0.28205881708E+02  0.30401551168E+02  0.00000000000E+00 0.  1.
</event>
<event>
 5    1  0.1259474E-009  0.9118800E+02  0.7815553E-02  0.1125453E+00
         25   -1    0    0    0    0  0.00000000000E+00  0.00000000000E+00  0.99999998245E-14  0.12509000000E+03  0.12509000000E+03 0.  0.
        -13    1    3    3    0    0  0.12543343237E+02  0.13789428074E+01 -0.23837989290E+02  0.26972167882E+02  0.10566000000E+00 0.  1.
         23    2    1    0    0    0 -0.78953590861E+01  0.32031169618E+01  0.34886219126E+02  0.89178373216E+02  0.81628042432E+02 0.  0.
         13    1    3    3    0    0 -0.20438702323E+02  0.18241741543E+01  0.58724208416E+02  0.62206205334E+02  0.10566000000E+00 0. -1.
         22    1    1    0    0    0  0.78953590861E+01 -0.32031169618E+01 -0.34886219126E+02  0.35911626784E+02  0.00000000000E+00 0. -1.
</event>
<event>
 5    1  0.1259474E-009  0.9118800E+02  0.7815553E-02  0.1125453E+00
         25   -1    0    0    0    0  0.00000000000E+00  0.00000000000E+00  0.99999998245E-14  0.12509000000E+03  0.12509000000E+03 0.  0.
        -13    1    3    3    0    0  0.23171363204E+02  0.35378820408E+02 -0.24800237281E+02  0.49026889962E+02  0.10566000000E+00 0. -1.
         23    2    1    0    0    0  0.11946460289E+02 -0.10843551041E+02 -0.23467542038E+02  0.96611481044E+02  0.92318753390E+02 0.  0.
         13    1    3    3    0    0 -0.11224902914E+02 -0.46222371448E+02  0.13326952427E+01  0.47584591081E+02  0.10566000000E+00 0.  1.
         22    1    1    0    0    0 -0.11946460289E+02  0.10843551041E+02  0.23467542038E+02  0.28478518956E+02  0.00000000000E+00 0.  1.
</event>
<event>
 5    1  0.1259474E-009  0.9118800E+02  0.7815553E-02  0.1125453E+00
         25   -1    0    0    0    0  0.00000000000E+00  0.00000000000E+00  0.99999998245E-14  0.12509000000E+03  0.12509000000E+03 0.  0.
        -13    1    3    3    0    0  0.11680473255E+02 -0.30346602108E+02 -0.67910912865E+01  0.33218666437E+02  0.10566000000E+00 0.  1.
         23    2    1    0    0    0 -0.34221740400E+02 -0.10997893585E+02 -0.18893762862E+02  0.84481436194E+02  0.74081425520E+02 0.  0.
         13    1    3    3    0    0 -0.45902213654E+02  0.19348708523E+02 -0.12102671576E+02  0.51262769757E+02  0.10566000000E+00 0. -1.
         22    1    1    0    0    0  0.34221740400E+02  0.10997893585E+02  0.18893762862E+02  0.40608563806E+02  0.00000000000E+00 0. -1.
</event>
<event>
 5    1  0.1259474E-009  0.9118800E+02  0.7815553E-02  0.1125453E+00
         25   -1    0    0    0    0  0.00000000000E+00  0.00000000000E+00  0.99999998245E-14  0.12509000000E+03  0.12509000000E+03 0.  0.
        -13    1    3    3    0    0 -0.23339220992E+02 -0.27963721055E+02  0.25313131732E+02  0.44355999976E+02  0.10566000000E+00 0. -1.
         23    2    1    0    0    0  0.23663923221E+02 -0.12126167913E+02  0.46088254074E+01  0.98103587083E+02  0.94318859813E+02 0.  0.
         13    1    3    3    0    0  0.47003144213E+02  0.15837553142E+02 -0.20704306325E+02  0.53747587107E+02  0.10566000000E+00 0.  1.
         22    1    1    0    0    0 -0.23663923221E+02  0.12126167913E+02 -0.46088254074E+01  0.26986412917E+02  0.00000000000E+00 0.  1.
</event>
<event>
 5    1  0.1259474E-009  0.9118800E+02  0.7815553E-02  0.1125453E+00
         25   -1    0    0    0    0  0.00000000000E+00  0.00000000000E+00  0.99999998245E-14  0.12509000000E+03  0.12509000000E+03 0.  0.
        -13    1    3    3    0    0  0.15092243219E+02  0.24710734273E+02  0.26533800804E+02  0.39274036498E+02  0.10566000000E+00 0.  1.
         23    2    1    0    0    0  0.22919412114E+02 -0.82467590100E+01 -0.17694013145E+02  0.94983745052E+02  0.90086210028E+02 0.  0.
         13    1    3    3    0    0  0.78271688950E+01 -0.32957493283E+02 -0.44227813949E+02  0.55709708554E+02  0.10566000000E+00 0. -1.
         22    1    1    0    0    0 -0.22919412114E+02  0.82467590100E+01  0.17694013145E+02  0.30106254948E+02  0.00000000000E+00 0. -1.
</event>
<event>
 5    1  0.1259474E-009  0.9118800E+02  0.7815553E-02  0.1125453E+00
         25   -1    0    0    0    0  0.00000000000E+00  0.00000000000E+00  0.99999998245E-14  0.12509000000E+03  0.12509000000E+03 0.  0.
        -13    1    3    3    0    0 -0.11105638933E+01  0.36122196272E+02  0.22882995358E+02  0.42774864772E+02  0.10566000000E+00 0. -1.
         23    2    1    0    0    0 -0.30073735630E+02 -0.31503367775E+01  0.99409396055E+01  0.93259566815E+02  0.87659399528E+02 0.  0.
         13    1    3    3    0    0 -0.28963171736E+02 -0.39272533050E+02 -0.12942055752E+02  0.50484702042E+02  0.10566000000E+00 0.  1.
         22    1    1    0    0    0  0.30073735630E+02  0.31503367775E+01 -0.99409396055E+01  0.31830433185E+02  0.00000000000E+00 0. -1.
</event>
<event>
 5    1  0.1259474E-009  0.9118800E+02  0.7815553E-02  0.1125453E+00
         25   -1    0    0    0    0  0.00000000000E+00  0.00000000000E+00  0.99999998245E-14  0.12509000000E+03  0.12509000000E+03 0.  0.
        -13    1    3    3    0    0  0.41620524454E+02  0.21492222607E+02 -0.22646046455E+02  0.52029205956E+02  0.10566000000E+00 0. -1.
         23    2    1    0    0    0  0.89238408428E+01  0.27510073839E+02  0.55729907975E+01  0.95636692470E+02  0.90988348827E+02 0.  0.
         13    1    3    3    0    0 -0.32696683611E+02  0.60178512322E+01  0.28219037252E+02  0.43607486514E+02  0.10566000000E+00 0.  1.
         22    1    1    0    0    0 -0.89238408428E+01 -0.27510073839E+02 -0.55729907975E+01  0.29453307530E+02  0.00000000000E+00 0.  1.
</event>
<event>
 5    1  0.1259474E-009  0.9118800E+02  0.7815553E-02  0.1125453E+00
         25   -1    0    0    0    0  0.00000000000E+00  0.00000000000E+00  0.99999998245E-14  0.12509000000E+03  0.12509000000E+03 0.  0.
        -13    1    3    3    0    0 -0.48355763990E+02 -0.19847489877E+02 -0.17962117297E+02  0.55270711840E+02  0.10566000000E+00 0.  1.
         23    2    1    0    0    0 -0.13775530332E+02 -0.28416761545E+02 -0.53696498969E+01  0.93057037092E+02  0.87369911524E+02 0.  0.
         13    1    3    3    0    0  0.34580233658E+02 -0.85692716684E+01  0.12592467400E+02  0.37786325252E+02  0.10566000000E+00 0. -1.
         22    1    1    0    0    0  0.13775530332E+02  0.28416761545E+02  0.53696498969E+01  0.32032962908E+02  0.00000000000E+00 0.  1.
</event>
<event>
 5    1  0.1259474E-009  0.9118800E+02  0.7815553E-02  0.1125453E+00
         25   -1    0    0    0    0  0.00000000000E+00  0.00000000000E+00  0.99999998245E-14  0.12509000000E+03  0.12509000000E+03 0.  0.
        -13    1    3    3    0    0 -0.10340313671E+02  0.26787185705E+02 -0.38505715845E+02  0.48033079452E+02  0.10566000000E+00 0.  1.
         23    2    1    0    0    0 -0.14973713816E+02  0.23052542703E+02  0.91953321905E+01  0.96104038491E+02  0.91628599519E+02 0.  0.
         13    1    3    3    0    0 -0.46334001444E+01 -0.37346430022E+01  0.47701048036E+02  0.48070959040E+02  0.10566000000E+00 0. -1.
         22    1    1    0    0    0  0.14973713816E+02 -0.23052542703E+02 -0.91953321905E+01  0.28985961509E+02  0.00000000000E+00 0. -1.
</event>
<event>
 5    1  0.1259474E-009  0.9118800E+02  0.7815553E-02  0.1125453E+00
         25   -1    0    0    0    0  0.00000000000E+00  0.00000000000E+00  0.99999998245E-14  0.12509000000E+03  0.12509000000E+03 0.  0.
        -13    1    3    3    0    0  0.57426022202E+01 -0.32699665271E+02 -0.19616458502E+02  0.38562445427E+02  0.10566000000E+00 0.  1.
         23    2    1    0    0    0 -0.25400449406E+02  0.13307147647E+02 -0.79904712050E+01  0.95322389438E+02  0.90555216799E+02 0.  0.
         13    1    3    3    0    0 -0.31143051626E+02  0.46006812918E+02  0.11625987297E+02  0.56759944011E+02  0.10566000000E+00 0. -1.
         22    1    1    0    0    0  0.25400449406E+02 -0.13307147647E+02  0.79904712050E+01  0.29767610562E+02  0.00000000000E+00 0. -1.
</event>
<event>
 5    1  0.1259474E-009  0.9118800E+02  0.7815553E-02  0.1125453E+00
         25   -1    0    0    0    0  0.00000000000E+00  0.00000000000E+00  0.99999998245E-14  0.12509000000E+03  0.12509000000E+03 0.  0.
        -13    1    3    3    0    0  0.70758598029E+01  0.33038689342E+02 -0.52121674146E+02  0.62115238591E+02  0.10566000000E+00 0.  1.
         23    2    1    0    0    0  0.18604603902E+01  0.10818201673E+02 -0.26372224379E+02  0.96524478492E+02  0.92200791369E+02 0.  0.
         13    1    3    3    0    0 -0.52153994127E+01 -0.22220487669E+02  0.25749449767E+02  0.34409239901E+02  0.10566000000E+00 0. -1.
         22    1    1    0    0    0 -0.18604603902E+01 -0.10818201673E+02  0.26372224379E+02  0.28565521508E+02  0.00000000000E+00 0.  1.
</event>
<event>
 5    1  0.1259474E-009  0.9118800E+02  0.7815553E-02  0.1125453E+00
         25   -1    0    0    0    0  0.00000000000E+00  0.00000000000E+00  0.99999998245E-14  0.12509000000E+03  0.12509000000E+03 0.  0.
        -13    1    3    3    0    0  0.39945770391E+02 -0.24197585775E+02  0.25644971901E+02  0.53280986077E+02  0.10566000000E+00 0.  1.
         23    2    1    0    0    0  0.22893132855E+02 -0.12682295548E+02 -0.12089626893E+02  0.96261277679E+02  0.91843009259E+02 0.  0.
         13    1    3    3    0    0 -0.17052637536E+02  0.11515290228E+02 -0.37734598794E+02  0.42980291602E+02  0.10566000000E+00 0. -1.
         22    1    1    0    0    0 -0.22893132855E+02  0.12682295548E+02  0.12089626893E+02  0.28828722321E+02  0.00000000000E+00 0.  1.
</event>
<event>
 5    1  0.1259474E-009  0.9118800E+02  0.7815553E-02  0.1125453E+00
         25   -1    0    0    0    0  0.00000000000E+00  0.00000000000E+00  0.99999998245E-14  0.12509000000E+03  0.12509000000E+03 0.  0.
        -13    1    3    3    0    0  0.22390501312E+02 -0.10335766390E+02  0.28267147826E+02  0.37512736852E+02  0.10566000000E+00 0. -1.
         23    2    1    0    0    0 -0.29067252157E+02  0.24236853790E+01  0.46413362024E+01  0.95554912383E+02  0.90875848717E+02 0.  0.
         13    1    3    3    0    0 -0.51457753469E+02  0.12759451769E+02 -0.23625811624E+02  0.58042175531E+02  0.10566000000E+00 0.  1.
         22    1    1    0    0    0  0.29067252157E+02 -0.24236853790E+01 -0.46413362024E+01  0.29535087617E+02  0.00000000000E+00 0.  1.
</event>
<event>
 5    1  0.1259474E-009  0.9118800E+02  0.7815553E-02  0.1125453E+00
         25   -1    0    0    0    0  0.00000000000E+00  0.00000000000E+00  0.99999998245E-14  0.12509000000E+03  0.12509000000E+03 0.  0.
        -13    1    3    3    0    0  0.29268280825E+02 -0.12963131032E+02  0.50313241249E+02  0.59633115277E+02  0.10566000000E+00 0.  1.
         23    2    1    0    0    0  0.63578277479E+01 -0.17397890358E+02  0.23039586492E+02  0.95527674173E+02  0.90838347765E+02 0.  0.
         13    1    3    3    0    0 -0.22910453077E+02 -0.44347593251E+01 -0.27273654758E+02  0.35894558896E+02  0.10566000000E+00 0. -1.
         22    1    1    0    0    0 -0.63578277479E+01  0.17397890358E+02 -0.23039586492E+02  0.29562325827E+02  0.00000000000E+00 0.  1.
</event>
<event>
 5    1  0.1259474E-009  0.9118800E+02  0.7815553E-02  0.1125453E+00
         25   -1    0    0    0    0  0.00000000000E+00  0.00000000000E+00  0.99999998245E-14  0.12509000000E+03  0.12509000000E+03 0.  0.
        -13    1    3    3    0    0 -0.29921417068E+02  0.32866759301E+02 -0.37494224381E+02  0.58149317213E+02  0.10566000000E+00 0.  1.
         23    2    1    0    0    0 -0.24764413342E+02  0.27785944683E+01 -0.16288716616E+02  0.95318889097E+02  0.90550381415E+02 0.  0.
         13    1    3    3    0    0  0.51570037263E+01 -0.30088164833E+02  0.21205507765E+02  0.37169571884E+02  0.10566000000E+00 0. -1.
         22    1    1    0    0    0  0.24764413342E+02 -0.27785944683E+01  0.16288716616E+02  0.29771110903E+02  0.00000000000E+00 0.  1.
</event>
<event>
 5    1  0.1259474E-009  0.9118800E+02  0.7815553E-02  0.1125453E+00
         25   -1    0    0    0    0  0.00000000000E+00  0.00000000000E+00  0.99999998245E-14  0.12509000000E+03  0.12509000000E+03 0.  0.
        -13    1    3    3    0    0 -0.42992927362E+02 -0.29316309704E+01 -0.41331362784E+01  0.43290648446E+02  0.10566000000E+00 0.  1.
         23    2    1    0    0    0 -0.59109626348E+01  0.27533546303E+02  0.12765777333E+02  0.94170738654E+02  0.88950139384E+02 0.  0.
         13    1    3    3    0    0  0.37081964727E+02  0.30465177273E+02  0.16898913611E+02  0.50880090208E+02  0.10566000000E+00 0. -1.
         22    1    1    0    0    0  0.59109626348E+01 -0.27533546303E+02 -0.12765777333E+02  0.30919261346E+02  0.00000000000E+00 0. -1.
</event>
<event>
 5    1  0.1259474E-009  0.9118800E+02  0.7815553E-02  0.1125453E+00
         25   -1    0    0    0    0  0.00000000000E+00  0.00000000000E+00  0.99999998245E-14  0.12509000000E+03  0.12509000000E+03 0.  0.
        -13    1    3    3    0    0 -0.24841426325E+02  0.14615054271E+02  0.16463577615E+02  0.33192722472E+02  0.10566000000E+00 0. -1.
         23    2    1    0    0    0  0.15409784559E+02 -0.25997950566E+02 -0.53609134603E+01  0.94396445515E+02  0.89266985156E+02 0.  0.
         13    1    3    3    0    0  0.40251210885E+02 -0.40613004837E+02 -0.21824491075E+02  0.61203723043E+02  0.10566000000E+00 0.  1.
         22    1    1    0    0    0 -0.15409784559E+02  0.25997950566E+02  0.53609134603E+01  0.30693554485E+02  0.00000000000E+00 0.  1.
</event>
<event>
 5    1  0.1259474E-009  0.9118800E+02  0.7815553E-02  0.1125453E+00
         25   -1    0    0    0    0  0.00000000000E+00  0.00000000000E+00  0.99999998245E-14  0.12509000000E+03  0.12509000000E+03 0.  0.
        -13    1    3    3    0    0 -0.11991114607E+02 -0.79974746400E+01  0.34059444687E+02  0.36983825743E+02  0.10566000000E+00 0.  1.
         23    2    1    0    0    0  0.22852283168E+02  0.16714022094E+02 -0.66663289804E+01  0.96003485554E+02  0.91491223163E+02 0.  0.
         13    1    3    3    0    0  0.34843397775E+02  0.24711496734E+02 -0.40725773668E+02  0.59019659811E+02  0.10566000000E+00 0. -1.
         22    1    1    0    0    0 -0.22852283168E+02 -0.16714022094E+02  0.66663289804E+01  0.29086514446E+02  0.00000000000E+00 0. -1.
</event>
<event>
 5    1  0.1259474E-009  0.9118800E+02  0.7815553E-02  0.1125453E+00
         25   -1    0    0    0    0  0.00000000000E+00  0.00000000000E+00  0.99999998245E-14  0.12509000000E+03  0.12509000000E+03 0.  0.
        -13    1    3    3    0    0  0.33618808378E+02  0.61040879074E+01 -0.13958969767E+02  0.36910000907E+02  0.10566000000E+00 0. -1.
         23    2    1    0    0    0 -0.20525042706E+02  0.19074645990E+02  0.66740652883E+01  0.96286134891E+02  0.91876858496E+02 0.  0.
         13    1    3    3    0    0 -0.54143851085E+02  0.12970558083E+02  0.20633035055E+02  0.59376133984E+02  0.10566000000E+00 0.  1.
         22    1    1    0    0    0  0.20525042706E+02 -0.19074645990E+02 -0.66740652883E+01  0.28803865109E+02  0.00000000000E+00 0.  1.
</event>
<event>
 5    1  0.1259474E-009  0.9118800E+02  0.7815553E-02  0.1125453E+00
         25   -1    0    0    0    0  0.00000000000E+00  0.00000000000E+00  0.99999998245E-14  0.12509000000E+03  0.12509000000E+03 0.  0.
        -13    1    3    3    0    0  0.11086901868E+02  0.40010899502E+01  0.54867931811E+02  0.56119775650E+02  0.10566000000E+00 0.  1.
         23    2    1    0    0    0 -0.98123070884E+01 -0.11836476211E+02  0.23540604132E+02  0.96973393121E+02  0.92807841215E+02 0.  0.
         13    1    3    3    0    0 -0.20899208956E+02 -0.15837566161E+02 -0.31327327679E+02  0.40853617471E+02  0.10566000000E+00 0. -1.
         22    1    1    0    0    0  0.98123070884E+01  0.11836476211E+02 -0.23540604132E+02  0.28116606879E+02  0.00000000000E+00 0.  1.
</event>
<event>
 5    1  0.1259474E-009  0.9118800E+02  0.7815553E-02  0.1125453E+00
         25   -1    0    0    0    0  0.00000000000E+00  0.00000000000E+00  0.99999998245E-14  0.12509000000E+03  0.12509000000E+03 0.  0.
        -13    1    3    3    0    0  0.32237065838E+02  0.27170431773E+01  0.53038834919E+02  0.62126805093E+02  0.10566000000E+00 0.  1.
         23    2    1    0    0    0  0.18003290559E+02  0.48219631449E+01  0.22593312922E+02  0.95801306135E+02  0.91214377534E+02 0.  0.
         13    1    3    3    0    0 -0.14233775279E+02  0.21049199676E+01 -0.30445521997E+02  0.33674501043E+02  0.10566000000E+00 0. -1.
         22    1    1    0    0    0 -0.18003290559E+02 -0.48219631449E+01 -0.22593312922E+02  0.29288693865E+02  0.00000000000E+00 0.  1.
</event>
<event>
 5    1  0.1259474E-009  0.9118800E+02  0.7815553E-02  0.1125453E+00
         25   -1    0    0    0    0  0.00000000000E+00  0.00000000000E+00  0.99999998245E-14  0.12509000000E+03  0.12509000000E+03 0.  0.
        -13    1    3    3    0    0  0.17340359477E+02 -0.14561685573E+01 -0.58604458895E+02  0.61133479045E+02  0.10566000000E+00 0. -1.
         23    2    1    0    0    0 -0.37696955437E+00 -0.48824500450E+01 -0.28022973626E+02  0.96642373116E+02  0.92360602023E+02 0.  0.
         13    1    3    3    0    0 -0.17717329031E+02 -0.34262814877E+01  0.30581485269E+02  0.35508894071E+02  0.10566000000E+00 0.  1.
         22    1    1    0    0    0  0.37696955437E+00  0.48824500450E+01  0.28022973626E+02  0.28447626884E+02  0.00000000000E+00 0. -1.
</event>
<event>
 5    1  0.1259474E-009  0.9118800E+02  0.7815553E-02  0.1125453E+00
         25   -1    0    0    0    0  0.00000000000E+00  0.00000000000E+00  0.99999998245E-14  0.12509000000E+03  0.12509000000E+03 0.  0.
        -13    1    3    3    0    0  0.11908512380E+02  0.40502759396E+02 -0.29405967039E+02  0.51449084028E+02  0.10566000000E+00 0.  1.
         23    2    1    0    0    0 -0.18642010400E+02  0.23738125114E+02 -0.38531116374E+01  0.94661894489E+02  0.89638187528E+02 0.  0.
         13    1    3    3    0    0 -0.30550522780E+02 -0.16764634282E+02  0.25552855402E+02  0.43212810461E+02  0.10566000000E+00 0. -1.
         22    1    1    0    0    0  0.18642010400E+02 -0.23738125114E+02  0.38531116374E+01  0.30428105511E+02  0.00000000000E+00 0.  1.
</event>
<event>
 5    1  0.1259474E-009  0.9118800E+02  0.7815553E-02  0.1125453E+00
         25   -1    0    0    0    0  0.00000000000E+00  0.00000000000E+00  0.99999998245E-14  0.12509000000E+03  0.12509000000E+03 0.  0.
        -13    1    3    3    0    0 -0.35009997779E+02 -0.43810510921E+02 -0.83003167673E+01  0.56691862151E+02  0.10566000000E+00 0. -1.
         23    2    1    0    0    0 -0.26724368331E+02 -0.63623692526E+01 -0.11772127934E+02  0.95202634755E+02  0.90389640242E+02 0.  0.
         13    1    3    3    0    0  0.82856294479E+01  0.37448141668E+02 -0.34718111672E+01  0.38510772604E+02  0.10566000000E+00 0.  1.
         22    1    1    0    0    0  0.26724368331E+02  0.63623692526E+01  0.11772127934E+02  0.29887365245E+02  0.00000000000E+00 0. -1.
</event>
<event>
 5    1  0.1259474E-009  0.9118800E+02  0.7815553E-02  0.1125453E+00
         25   -1    0    0    0    0  0.00000000000E+00  0.00000000000E+00  0.99999998245E-14  0.12509000000E+03  0.12509000000E+03 0.  0.
        -13    1    3    3    0    0 -0.63409031744E+01  0.66723178459E+01 -0.32868477446E+02  0.34133192821E+02  0.10566000000E+00 0. -1.
         23    2    1    0    0    0  0.14061277297E+01  0.24587115071E+02  0.21811588963E+02  0.92192449395E+02  0.86123161169E+02 0.  0.
         13    1    3    3    0    0  0.77470309041E+01  0.17914797225E+02  0.54680066409E+02  0.58059256574E+02  0.10566000000E+00 0.  1.
         22    1    1    0    0    0 -0.14061277297E+01 -0.24587115071E+02 -0.21811588963E+02  0.32897550605E+02  0.00000000000E+00 0.  1.
</event>
<event>
 5    1  0.1259474E-009  0.9118800E+02  0.7815553E-02  0.1125453E+00
         25   -1    0    0    0    0  0.00000000000E+00  0.00000000000E+00  0.99999998245E-14  0.12509000000E+03  0.12509000000E+03 0.  0.
        -13    1    3    3    0    0  0.24497895360E+02 -0.10661785802E+02  0.61629784738E+01  0.27419227218E+02  0.10566000000E+00 0.  1.
         23    2    1    0    0    0 -0.31403637838E+02 -0.49430513949E+01 -0.17966311143E+02  0.88574105343E+02  0.80696725923E+02 0.  0.
         13    1    3    3    0    0 -0.55901533197E+02  0.57187344071E+01 -0.24129289617E+02  0.61154878125E+02  0.10566000000E+00 0. -1.
         22    1    1    0    0    0  0.31403637838E+02  0.49430513949E+01  0.17966311143E+02  0.36515894657E+02  0.00000000000E+00 0. -1.
</event>
<event>
 5    1  0.1259474E-009  0.9118800E+02  0.7815553E-02  0.1125453E+00
         25   -1    0    0    0    0  0.00000000000E+00  0.00000000000E+00  0.99999998245E-14  0.12509000000E+03  0.12509000000E+03 0.  0.
        -13    1    3    3    0    0 -0.23024302617E+02 -0.32193832850E+02  0.25100861071E+02  0.46868174437E+02  0.10566000000E+00 0. -1.
         23    2    1    0    0    0 -0.24976413400E+01  0.10862042250E+02  0.28300334743E+02  0.94674031815E+02  0.89655123553E+02 0.  0.
         13    1    3    3    0    0  0.20526661277E+02  0.43055875100E+02  0.31994736723E+01  0.47805857377E+02  0.10566000000E+00 0.  1.
         22    1    1    0    0    0  0.24976413400E+01 -0.10862042250E+02 -0.28300334743E+02  0.30415968185E+02  0.00000000000E+00 0.  1.
</event>
<event>
 5    1  0.1259474E-009  0.9118800E+02  0.7815553E-02  0.1125453E+00
         25   -1    0    0    0    0  0.00000000000E+00  0.00000000000E+00  0.99999998245E-14  0.12509000000E+03  0.12509000000E+03 0.  0.
        -13    1    3    3    0    0 -0.53581265424E+02 -0.15979439836E+02 -0.20282537899E+02  0.59478458366E+02  0.10566000000E+00 0. -1.
         23    2    1    0    0    0 -0.28460591377E+02  0.58275417007E+01 -0.77887383026E+01  0.95012933186E+02  0.90126730355E+02 0.  0.
         13    1    3    3    0    0  0.25120674048E+02  0.21806981536E+02  0.12493799596E+02  0.35534474820E+02  0.10566000000E+00 0.  1.
         22    1    1    0    0    0  0.28460591377E+02 -0.58275417007E+01  0.77887383026E+01  0.30077066814E+02  0.00000000000E+00 0. -1.
</event>
<event>
 5    1  0.1259474E-009  0.9118800E+02  0.7815553E-02  0.1125453E+00
         25   -1    0    0    0    0  0.00000000000E+00  0.00000000000E+00  0.99999998245E-14  0.12509000000E+03  0.12509000000E+03 0.  0.
        -13    1    3    3    0    0  0.26168410035E+02  0.18466636061E+02  0.42803652070E+02  0.53459948801E+02  0.10566000000E+00 0. -1.
         23    2    1    0    0    0 -0.50739860567E+01 -0.75224611974E+01  0.26205762893E+02  0.97357802724E+02  0.93324525101E+02 0.  0.
         13    1    3    3    0    0 -0.31242396092E+02 -0.25989097259E+02 -0.16597889177E+02  0.43897853923E+02  0.10566000000E+00 0.  1.
         22    1    1    0    0    0  0.50739860567E+01  0.75224611974E+01 -0.26205762893E+02  0.27732197276E+02  0.00000000000E+00 0.  1.
</event>
<event>
 5    1  0.1259474E-009  0.9118800E+02  0.7815553E-02  0.1125453E+00
         25   -1    0    0    0    0  0.00000000000E+00  0.00000000000E+00  0.99999998245E-14  0.12509000000E+03  0.12509000000E+03 0.  0.
        -13    1    3    3    0    0 -0.40253850239E+02 -0.13923668472E+02  0.28041420163E+01  0.42686243443E+02  0.10566000000E+00 0.  1.
         23    2    1    0    0    0 -0.59853882971E+01  0.20597209149E+02 -0.19411544606E+02  0.96161156923E+02  0.91706543600E+02 0.  0.
         13    1    3    3    0    0  0.34268461942E+02  0.34520877621E+02 -0.22215686622E+02  0.53474913480E+02  0.10566000000E+00 0. -1.
         22    1    1    0    0    0  0.59853882971E+01 -0.20597209149E+02  0.19411544606E+02  0.28928843077E+02  0.00000000000E+00 0. -1.
</event>
<event>
 5    1  0.1259474E-009  0.9118800E+02  0.7815553E-02  0.1125453E+00
         25   -1    0    0    0    0  0.00000000000E+00  0.00000000000E+00  0.99999998245E-14  0.12509000000E+03  0.12509000000E+03 0.  0.
        -13    1    3    3    0    0 -0.16219086727E+02  0.26881547501E+02  0.12464192085E+02  0.33779337156E+02  0.10566000000E+00 0.  1.
         23    2    1    0    0    0  0.79470350411E+01 -0.19577256411E+02 -0.20493361739E+02  0.95655289030E+02  0.91013911627E+02 0.  0.
         13    1    3    3    0    0  0.24166121769E+02 -0.46458803912E+02 -0.32957553824E+02  0.61875951874E+02  0.10566000000E+00 0. -1.
         22    1    1    0    0    0 -0.79470350411E+01  0.19577256411E+02  0.20493361739E+02  0.29434710970E+02  0.00000000000E+00 0. -1.
</event>
<event>
 5    1  0.1259474E-009  0.9118800E+02  0.7815553E-02  0.1125453E+00
         25   -1    0    0    0    0  0.00000000000E+00  0.00000000000E+00  0.99999998245E-14  0.12509000000E+03  0.12509000000E+03 0.  0.
        -13    1    3    3    0    0  0.15058106652E+02  0.44020760418E+02  0.13845963694E+02  0.48541691343E+02  0.10566000000E+00 0.  1.
         23    2    1    0    0    0 -0.21529161757E+02  0.14429442421E+02  0.14072631643E+02  0.95598432122E+02  0.90935733616E+02 0.  0.
         13    1    3    3    0    0 -0.36587268409E+02 -0.29591317997E+02  0.22666794865E+00  0.47056740779E+02  0.10566000000E+00 0. -1.
         22    1    1    0    0    0  0.21529161757E+02 -0.14429442421E+02 -0.14072631643E+02  0.29491567878E+02  0.00000000000E+00 0.  1.
</event>
<event>
 5    1  0.1259474E-009  0.9118800E+02  0.7815553E-02  0.1125453E+00
         25   -1    0    0    0    0  0.00000000000E+00  0.00000000000E+00  0.99999998245E-14  0.12509000000E+03  0.12509000000E+03 0.  0.
        -13    1    3    3    0    0 -0.49091759651E+02  0.37415556978E+02  0.73475016326E+01  0.62160451365E+02  0.10566000000E+00 0.  1.
         23    2    1    0    0    0 -0.23549197678E+02  0.18828500975E+02 -0.12956315282E+01  0.94911268726E+02  0.89985516112E+02 0.  0.
         13    1    3    3    0    0  0.25542561972E+02 -0.18587056003E+02 -0.86431331608E+01  0.32750817362E+02  0.10566000000E+00 0. -1.
         22    1    1    0    0    0  0.23549197678E+02 -0.18828500975E+02  0.12956315282E+01  0.30178731274E+02  0.00000000000E+00 0.  1.
</event>
<event>
 5    1  0.1259474E-009  0.9118800E+02  0.7815553E-02  0.1125453E+00
         25   -1    0    0    0    0  0.00000000000E+00  0.00000000000E+00  0.99999998245E-14  0.12509000000E+03  0.12509000000E+03 0.  0.
        -13    1    3    3    0    0  0.58267334194E+02 -0.57292244791E+01 -0.95100861148E+01  0.59315758017E+02  0.10566000000E+00 0. -1.
         23    2    1    0    0    0  0.24347129527E+02 -0.16204502945E+02 -0.76194053340E+01  0.94867095282E+02  0.89924089085E+02 0.  0.
         13    1    3    3    0    0 -0.33920204666E+02 -0.10475278466E+02  0.18906807807E+01  0.35551337266E+02  0.10566000000E+00 0.  1.
         22    1    1    0    0    0 -0.24347129527E+02  0.16204502945E+02  0.76194053340E+01  0.30222904718E+02  0.00000000000E+00 0. -1.
</event>
<event>
 5    1  0.1259474E-009  0.9118800E+02  0.7815553E-02  0.1125453E+00
         25   -1    0    0    0    0  0.00000000000E+00  0.00000000000E+00  0.99999998245E-14  0.12509000000E+03  0.12509000000E+03 0.  0.
        -13    1    3    3    0    0  0.35200940459E+02  0.46171467418E+01  0.44751571758E+02  0.57123888103E+02  0.10566000000E+00 0. -1.
         23    2    1    0    0    0  0.18513062041E+02  0.68399976176E+01 -0.43926704273E+00  0.10534887569E+03  0.10348272136E+03 0.  0.
         13    1    3    3    0    0 -0.16687878418E+02  0.22228508757E+01 -0.45190838800E+02  0.48224987586E+02  0.10566000000E+00 0.  1.
         22    1    1    0    0    0 -0.18513062041E+02 -0.68399976176E+01  0.43926704273E+00  0.19741124311E+02  0.00000000000E+00 0. -1.
</event>
<event>
 5    1  0.1259474E-009  0.9118800E+02  0.7815553E-02  0.1125453E+00
         25   -1    0    0    0    0  0.00000000000E+00  0.00000000000E+00  0.99999998245E-14  0.12509000000E+03  0.12509000000E+03 0.  0.
        -13    1    3    3    0    0 -0.31529513529E+02  0.11308300513E+02  0.12899026996E+02  0.35894065600E+02  0.10566000000E+00 0. -1.
         23    2    1    0    0    0  0.27180473576E+02  0.77564827410E+01  0.11052267282E+02  0.94740473144E+02  0.89747776970E+02 0.  0.
         13    1    3    3    0    0  0.58709987105E+02 -0.35518177720E+01 -0.18467597143E+01  0.58846407544E+02  0.10566000000E+00 0.  1.
         22    1    1    0    0    0 -0.27180473576E+02 -0.77564827410E+01 -0.11052267282E+02  0.30349526856E+02  0.00000000000E+00 0.  1.
</event>
<event>
 5    1  0.1259474E-009  0.9118800E+02  0.7815553E-02  0.1125453E+00
         25   -1    0    0    0    0  0.00000000000E+00  0.00000000000E+00  0.99999998245E-14  0.12509000000E+03  0.12509000000E+03 0.  0.
        -13    1    3    3    0    0 -0.28598679778E+02 -0.35564467266E+02 -0.40222661858E+02  0.60832470835E+02  0.10566000000E+00 0.  1.
         23    2    1    0    0    0 -0.68881189949E+01 -0.24531115027E+02 -0.17180997298E+02  0.94358770674E+02  0.89214175707E+02 0.  0.
         13    1    3    3    0    0  0.21710560783E+02  0.11033352239E+02  0.23041664560E+02  0.33526299839E+02  0.10566000000E+00 0. -1.
         22    1    1    0    0    0  0.68881189949E+01  0.24531115027E+02  0.17180997298E+02  0.30731229326E+02  0.00000000000E+00 0.  1.
</event>
<event>
 5    1  0.1259474E-009  0.9118800E+02  0.7815553E-02  0.1125453E+00
         25   -1    0    0    0    0  0.00000000000E+00  0.00000000000E+00  0.99999998245E-14  0.12509000000E+03  0.12509000000E+03 0.  0.
        -13    1    3    3    0    0 -0.14537499033E+02 -0.23738348921E+02  0.26774986807E+02  0.38623298282E+02  0.10566000000E+00 0.  1.
         23    2    1    0    0    0 -0.57344742309E+01  0.11100870577E+02 -0.22347844697E+02  0.99486490770E+02  0.96135436551E+02 0.  0.
         13    1    3    3    0    0  0.88030248025E+01  0.34839219498E+02 -0.49122831504E+02  0.60863192488E+02  0.10566000000E+00 0. -1.
         22    1    1    0    0    0  0.57344742309E+01 -0.11100870577E+02  0.22347844697E+02  0.25603509230E+02  0.00000000000E+00 0. -1.
</event>
<event>
 5    1  0.1259474E-009  0.9118800E+02  0.7815553E-02  0.1125453E+00
         25   -1    0    0    0    0  0.00000000000E+00  0.00000000000E+00  0.99999998245E-14  0.12509000000E+03  0.12509000000E+03 0.  0.
        -13    1    3    3    0    0 -0.69230674594E+01 -0.59619330503E+02  0.54182642872E+00  0.60022480560E+02  0.10566000000E+00 0. -1.
         23    2    1    0    0    0 -0.15290855611E+02 -0.24817244152E+02 -0.17333301456E+01  0.95888796155E+02  0.91334281199E+02 0.  0.
         13    1    3    3    0    0 -0.83677881516E+01  0.34802086351E+02 -0.22751565743E+01  0.35866315595E+02  0.10566000000E+00 0.  1.
         22    1    1    0    0    0  0.15290855611E+02  0.24817244152E+02  0.17333301456E+01  0.29201203845E+02  0.00000000000E+00 0. -1.
</event>
<event>
 5    1  0.1259474E-009  0.9118800E+02  0.7815553E-02  0.1125453E+00
         25   -1    0    0    0    0  0.00000000000E+00  0.00000000000E+00  0.99999998245E-14  0.12509000000E+03  0.12509000000E+03 0.  0.
        -13    1    3    3    0    0  0.30812724259E+02  0.35424814801E+02  0.13930936440E+02  0.48973703496E+02  0.10566000000E+00 0.  1.
         23    2    1    0    0    0 -0.76830211056E+01  0.23808575090E+02 -0.12530577694E+02  0.97109784875E+02  0.92991493590E+02 0.  0.
         13    1    3    3    0    0 -0.38495745365E+02 -0.11616239712E+02 -0.26461514134E+02  0.48136081379E+02  0.10566000000E+00 0. -1.
         22    1    1    0    0    0  0.76830211056E+01 -0.23808575090E+02  0.12530577694E+02  0.27980215125E+02  0.00000000000E+00 0.  1.
</event>
<event>
 5    1  0.1259474E-009  0.9118800E+02  0.7815553E-02  0.1125453E+00
         25   -1    0    0    0    0  0.00000000000E+00  0.00000000000E+00  0.99999998245E-14  0.12509000000E+03  0.12509000000E+03 0.  0.
        -13    1    3    3    0    0  0.27684113498E+02  0.20438110009E+02 -0.14308103245E+02  0.37267404839E+02  0.10566000000E+00 0.  1.
         23    2    1    0    0    0 -0.12885561358E+02 -0.22045225947E+02 -0.13910908118E+02  0.96011777165E+02  0.91502559042E+02 0.  0.
         13    1    3    3    0    0 -0.40569674857E+02 -0.42483335956E+02  0.39719512744E+00  0.58744372326E+02  0.10566000000E+00 0. -1.
         22    1    1    0    0    0  0.12885561358E+02  0.22045225947E+02  0.13910908118E+02  0.29078222835E+02  0.00000000000E+00 0. -1.
</event>
<event>
 5    1  0.1259474E-009  0.9118800E+02  0.7815553E-02  0.1125453E+00
         25   -1    0    0    0    0  0.00000000000E+00  0.00000000000E+00  0.99999998245E-14  0.12509000000E+03  0.12509000000E+03 0.  0.
        -13    1    3    3    0    0 -0.18927345985E+02  0.56325459588E+02 -0.11990960776E+02  0.60618447095E+02  0.10566000000E+00 0. -1.
         23    2    1    0    0    0 -0.82560179237E+01  0.23616885756E+02 -0.16206291884E+02  0.95281225765E+02  0.90498336791E+02 0.  0.
         13    1    3    3    0    0  0.10671328061E+02 -0.32708573832E+02 -0.42153311078E+01  0.34662778670E+02  0.10566000000E+00 0.  1.
         22    1    1    0    0    0  0.82560179237E+01 -0.23616885756E+02  0.16206291884E+02  0.29808774235E+02  0.00000000000E+00 0. -1.
</event>
<event>
 5    1  0.1259474E-009  0.9118800E+02  0.7815553E-02  0.1125453E+00
         25   -1    0    0    0    0  0.00000000000E+00  0.00000000000E+00  0.99999998245E-14  0.12509000000E+03  0.12509000000E+03 0.  0.
        -13    1    3    3    0    0 -0.22509050179E+02  0.35406269939E+02  0.37880577037E+02  0.56526193677E+02  0.10566000000E+00 0. -1.
         23    2    1    0    0    0 -0.24803240038E+02  0.14495973179E+02  0.44583090566E+01  0.96017496247E+02  0.91510377068E+02 0.  0.
         13    1    3    3    0    0 -0.22941898593E+01 -0.20910296760E+02 -0.33422267980E+02  0.39491302570E+02  0.10566000000E+00 0.  1.
         22    1    1    0    0    0  0.24803240038E+02 -0.14495973179E+02 -0.44583090566E+01  0.29072503753E+02  0.00000000000E+00 0. -1.
</event>
<event>
 5    1  0.1259474E-009  0.9118800E+02  0.7815553E-02  0.1125453E+00
         25   -1    0    0    0    0  0.00000000000E+00  0.00000000000E+00  0.99999998245E-14  0.12509000000E+03  0.12509000000E+03 0.  0.
        -13    1    3    3    0    0 -0.13028434162E+02  0.32136347905E+02  0.62215980761E+01  0.35230730904E+02  0.10566000000E+00 0. -1.
         23    2    1    0    0    0  0.48747072960E+01 -0.16862027312E+02 -0.23875259389E+02  0.95456931526E+02  0.90740878490E+02 0.  0.
         13    1    3    3    0    0  0.17903141458E+02 -0.48998375217E+02 -0.30096857466E+02  0.60226200621E+02  0.10566000000E+00 0.  1.
         22    1    1    0    0    0 -0.48747072960E+01  0.16862027312E+02  0.23875259389E+02  0.29633068474E+02  0.00000000000E+00 0.  1.
</event>
<event>
 5    1  0.1259474E-009  0.9118800E+02  0.7815553E-02  0.1125453E+00
         25   -1    0    0    0    0  0.00000000000E+00  0.00000000000E+00  0.99999998245E-14  0.12509000000E+03  0.12509000000E+03 0.  0.
        -13    1    3    3    0    0 -0.28574850687E+02 -0.58925531306E+01  0.28053756613E+02  0.40475532095E+02  0.10566000000E+00 0.  1.
         23    2    1    0    0    0  0.18283348535E+02 -0.22529481059E+02  0.37099139890E+01  0.95838986133E+02  0.91266036677E+02 0.  0.
         13    1    3    3    0    0  0.46858199222E+02 -0.16636927929E+02 -0.24343842624E+02  0.55363454038E+02  0.10566000000E+00 0. -1.
         22    1    1    0    0    0 -0.18283348535E+02  0.22529481059E+02 -0.37099139890E+01  0.29251013867E+02  0.00000000000E+00 0. -1.
</event>
<event>
 5    1  0.1259474E-009  0.9118800E+02  0.7815553E-02  0.1125453E+00
         25   -1    0    0    0    0  0.00000000000E+00  0.00000000000E+00  0.99999998245E-14  0.12509000000E+03  0.12509000000E+03 0.  0.
        -13    1    3    3    0    0  0.54879796594E+02 -0.21586899564E+02 -0.17002641135E+02  0.61374972722E+02  0.10566000000E+00 0.  1.
         23    2    1    0    0    0  0.24650327927E+02 -0.18482191274E+02 -0.11168389813E+02  0.92318625414E+02  0.86306231560E+02 0.  0.
         13    1    3    3    0    0 -0.30229468667E+02  0.31047082900E+01  0.58342513219E+01  0.30943652693E+02  0.10566000000E+00 0. -1.
         22    1    1    0    0    0 -0.24650327927E+02  0.18482191274E+02  0.11168389813E+02  0.32771374586E+02  0.00000000000E+00 0.  1.
</event>
<event>
 5    1  0.1259474E-009  0.9118800E+02  0.7815553E-02  0.1125453E+00
         25   -1    0    0    0    0  0.00000000000E+00  0.00000000000E+00  0.99999998245E-14  0.12509000000E+03  0.12509000000E+03 0.  0.
        -13    1    3    3    0    0 -0.14169731525E+01  0.88085819412E+01  0.42388936396E+02  0.43317802594E+02  0.10566000000E+00 0. -1.
         23    2    1    0    0    0 -0.37629303524E+01 -0.28966544996E+02  0.71800663889E+01  0.95010543104E+02  0.90123413016E+02 0.  0.
         13    1    3    3    0    0 -0.23459571999E+01 -0.37775126937E+02 -0.35208870007E+02  0.51692740510E+02  0.10566000000E+00 0.  1.
         22    1    1    0    0    0  0.37629303524E+01  0.28966544996E+02 -0.71800663889E+01  0.30079456896E+02  0.00000000000E+00 0.  1.
</event>
<event>
 5    1  0.1259474E-009  0.9118800E+02  0.7815553E-02  0.1125453E+00
         25   -1    0    0    0    0  0.00000000000E+00  0.00000000000E+00  0.99999998245E-14  0.12509000000E+03  0.12509000000E+03 0.  0.
        -13    1    3    3    0    0 -0.34577931715E+02  0.24095835752E+02  0.23548484958E+01  0.42211362662E+02  0.10566000000E+00 0.  1.
         23    2    1    0    0    0 -0.21088403076E+02 -0.22693592762E+02 -0.10156534618E+02  0.92488234830E+02  0.86551709918E+02 0.  0.
         13    1    3    3    0    0  0.13489528639E+02 -0.46789428514E+02 -0.12511383114E+02  0.50276872168E+02  0.10566000000E+00 0. -1.
         22    1    1    0    0    0  0.21088403076E+02  0.22693592762E+02  0.10156534618E+02  0.32601765170E+02  0.00000000000E+00 0. -1.
</event>
<event>
 5    1  0.1259474E-009  0.9118800E+02  0.7815553E-02  0.1125453E+00
         25   -1    0    0    0    0  0.00000000000E+00  0.00000000000E+00  0.99999998245E-14  0.12509000000E+03  0.12509000000E+03 0.  0.
        -13    1    3    3    0    0 -0.48426971007E+02  0.18641600646E+02 -0.87366577278E+01  0.52621489411E+02  0.10566000000E+00 0.  1.
         23    2    1    0    0    0 -0.91800271717E+01  0.27590724931E+02  0.58355979702E+01  0.95432366838E+02  0.90707008745E+02 0.  0.
         13    1    3    3    0    0  0.39246943835E+02  0.89491242857E+01  0.14572255698E+02  0.42810877427E+02  0.10566000000E+00 0. -1.
         22    1    1    0    0    0  0.91800271717E+01 -0.27590724931E+02 -0.58355979702E+01  0.29657633162E+02  0.00000000000E+00 0.  1.
</event>
<event>
 5    1  0.1259474E-009  0.9118800E+02  0.7815553E-02  0.1125453E+00
         25   -1    0    0    0    0  0.00000000000E+00  0.00000000000E+00  0.99999998245E-14  0.12509000000E+03  0.12509000000E+03 0.  0.
        -13    1    3    3    0    0 -0.30463727620E+02 -0.15042049480E+02  0.26659767440E+02  0.43186297793E+02  0.10566000000E+00 0. -1.
         23    2    1    0    0    0  0.22553013557E+01 -0.30260411297E+02 -0.85095716440E+01  0.93575056154E+02  0.88108452764E+02 0.  0.
         13    1    3    3    0    0  0.32719028976E+02 -0.15218361817E+02 -0.35169339084E+02  0.50388758361E+02  0.10566000000E+00 0.  1.
         22    1    1    0    0    0 -0.22553013557E+01  0.30260411297E+02  0.85095716440E+01  0.31514943846E+02  0.00000000000E+00 0.  1.
</event>
<event>
 5    1  0.1259474E-009  0.9118800E+02  0.7815553E-02  0.1125453E+00
         25   -1    0    0    0    0  0.00000000000E+00  0.00000000000E+00  0.99999998245E-14  0.12509000000E+03  0.12509000000E+03 0.  0.
        -13    1    3    3    0    0  0.12358790129E+02  0.24529604413E+01  0.58128315201E+02  0.59478306134E+02  0.10566000000E+00 0.  1.
         23    2    1    0    0    0 -0.78579542887E+01 -0.85328010426E+00  0.28606984245E+02  0.95411134117E+02  0.90677722917E+02 0.  0.
         13    1    3    3    0    0 -0.20216744418E+02 -0.33062405456E+01 -0.29521330956E+02  0.35932827983E+02  0.10566000000E+00 0. -1.
         22    1    1    0    0    0  0.78579542887E+01  0.85328010426E+00 -0.28606984245E+02  0.29678865883E+02  0.00000000000E+00 0.  1.
</event>
<event>
 5    1  0.1259474E-009  0.9118800E+02  0.7815553E-02  0.1125453E+00
         25   -1    0    0    0    0  0.00000000000E+00  0.00000000000E+00  0.99999998245E-14  0.12509000000E+03  0.12509000000E+03 0.  0.
        -13    1    3    3    0    0  0.19900223057E+02 -0.48091223731E+02 -0.20339189614E+02  0.55879141688E+02  0.10566000000E+00 0.  1.
         23    2    1    0    0    0  0.55680196529E+01 -0.20283978724E+02  0.11999963477E+02  0.10087344039E+03  0.97923486548E+02 0.  0.
         13    1    3    3    0    0 -0.14332203404E+02  0.27807245007E+02  0.32339153091E+02  0.44994298705E+02  0.10566000000E+00 0. -1.
         22    1    1    0    0    0 -0.55680196529E+01  0.20283978724E+02 -0.11999963477E+02  0.24216559607E+02  0.00000000000E+00 0. -1.
</event>
<event>
 5    1  0.1259474E-009  0.9118800E+02  0.7815553E-02  0.1125453E+00
         25   -1    0    0    0    0  0.00000000000E+00  0.00000000000E+00  0.99999998245E-14  0.12509000000E+03  0.12509000000E+03 0.  0.
        -13    1    3    3    0    0 -0.20885903085E+02  0.38230945064E+01  0.45886593665E+02  0.50561127772E+02  0.10566000000E+00 0.  1.
         23    2    1    0    0    0  0.17869783012E+02  0.37389356882E+01  0.23546939906E+02  0.95294578138E+02  0.90516791031E+02 0.  0.
         13    1    3    3    0    0  0.38755686097E+02 -0.84158818209E-01 -0.22339653759E+02  0.44733450366E+02  0.10566000000E+00 0. -1.
         22    1    1    0    0    0 -0.17869783012E+02 -0.37389356882E+01 -0.23546939906E+02  0.29795421862E+02  0.00000000000E+00 0. -1.
</event>
<event>
 5    1  0.1259474E-009  0.9118800E+02  0.7815553E-02  0.1125453E+00
         25   -1    0    0    0    0  0.00000000000E+00  0.00000000000E+00  0.99999998245E-14  0.12509000000E+03  0.12509000000E+03 0.  0.
        -13    1    3    3    0    0 -0.79376464257E+01  0.58731093731E+02 -0.41724964527E+00  0.59266625203E+02  0.10566000000E+00 0. -1.
         23    2    1    0    0    0 -0.32963555206E+01  0.33626359808E+02  0.13920085834E+02  0.88547328733E+02  0.80655208155E+02 0.  0.
         13    1    3    3    0    0  0.46412909051E+01 -0.25104733922E+02  0.14337335479E+02  0.29280703531E+02  0.10566000000E+00 0.  1.
         22    1    1    0    0    0  0.32963555206E+01 -0.33626359808E+02 -0.13920085834E+02  0.36542671267E+02  0.00000000000E+00 0. -1.
</event>
<event>
 5    1  0.1259474E-009  0.9118800E+02  0.7815553E-02  0.1125453E+00
         25   -1    0    0    0    0  0.00000000000E+00  0.00000000000E+00  0.99999998245E-14  0.12509000000E+03  0.12509000000E+03 0.  0.
        -13    1    3    3    0    0 -0.55378917408E+02  0.24464201109E+01  0.10976754067E+02  0.56509377616E+02  0.10566000000E+00 0. -1.
         23    2    1    0    0    0 -0.21191714011E+02  0.19730896719E+02  0.89972178833E+00  0.96120938445E+02  0.91651668180E+02 0.  0.
         13    1    3    3    0    0  0.34187203397E+02  0.17284476608E+02 -0.10077032279E+02  0.39611560829E+02  0.10566000000E+00 0.  1.
         22    1    1    0    0    0  0.21191714011E+02 -0.19730896719E+02 -0.89972178833E+00  0.28969061555E+02  0.00000000000E+00 0. -1.
</event>
<event>
 5    1  0.1259474E-009  0.9118800E+02  0.7815553E-02  0.1125453E+00
         25   -1    0    0    0    0  0.00000000000E+00  0.00000000000E+00  0.99999998245E-14  0.12509000000E+03  0.12509000000E+03 0.  0.
        -13    1    3    3    0    0 -0.46707921138E+02  0.17816539092E+02 -0.51930207371E+01  0.50259701458E+02  0.10566000000E+00 0.  1.
         23    2    1    0    0    0 -0.21715644563E+02 -0.19621320142E+02  0.15814945819E+01  0.95780162948E+02  0.91185377481E+02 0.  0.
         13    1    3    3    0    0  0.24992276575E+02 -0.37437859233E+02  0.67745153190E+01  0.45520461490E+02  0.10566000000E+00 0. -1.
         22    1    1    0    0    0  0.21715644563E+02  0.19621320142E+02 -0.15814945819E+01  0.29309837052E+02  0.00000000000E+00 0.  1.
</event>
<event>
 5    1  0.1259474E-009  0.9118800E+02  0.7815553E-02  0.1125453E+00
         25   -1    0    0    0    0  0.00000000000E+00  0.00000000000E+00  0.99999998245E-14  0.12509000000E+03  0.12509000000E+03 0.  0.
        -13    1    3    3    0    0  0.56380573600E+01  0.22969248727E+02 -0.23523806901E+02  0.33357978551E+02  0.10566000000E+00 0.  1.
         23    2    1    0    0    0 -0.56953514664E+01 -0.27360366100E+02  0.10586853572E+02  0.95205085243E+02  0.90393031403E+02 0.  0.
         13    1    3    3    0    0 -0.11333408826E+02 -0.50329614827E+02  0.34110660472E+02  0.61847106692E+02  0.10566000000E+00 0. -1.
         22    1    1    0    0    0  0.56953514664E+01  0.27360366100E+02 -0.10586853572E+02  0.29884914757E+02  0.00000000000E+00 0. -1.
</event>
<event>
 5    1  0.1259474E-009  0.9118800E+02  0.7815553E-02  0.1125453E+00
         25   -1    0    0    0    0  0.00000000000E+00  0.00000000000E+00  0.99999998245E-14  0.12509000000E+03  0.12509000000E+03 0.  0.
        -13    1    3    3    0    0 -0.17592768958E+02 -0.14639284556E+02  0.33537996326E+02  0.40603233043E+02  0.10566000000E+00 0.  1.
         23    2    1    0    0    0 -0.20327193873E+02  0.25680831938E+01 -0.19728520431E+02  0.96646997690E+02  0.92366865174E+02 0.  0.
         13    1    3    3    0    0 -0.27344249145E+01  0.17207367750E+02 -0.53266516756E+02  0.56043764648E+02  0.10566000000E+00 0. -1.
         22    1    1    0    0    0  0.20327193873E+02 -0.25680831938E+01  0.19728520431E+02  0.28443002310E+02  0.00000000000E+00 0. -1.
</event>
<event>
 5    1  0.1259474E-009  0.9118800E+02  0.7815553E-02  0.1125453E+00
         25   -1    0    0    0    0  0.00000000000E+00  0.00000000000E+00  0.99999998245E-14  0.12509000000E+03  0.12509000000E+03 0.  0.
        -13    1    3    3    0    0  0.29509930625E+02 -0.32993126853E+02  0.33435762540E+02  0.55473811891E+02  0.10566000000E+00 0. -1.
         23    2    1    0    0    0  0.31315053698E+00 -0.29454343197E+02  0.74819784593E+01  0.94698613093E+02  0.89689413666E+02 0.  0.
         13    1    3    3    0    0 -0.29196780088E+02  0.35387836557E+01 -0.25953784080E+02  0.39224801203E+02  0.10566000000E+00 0.  1.
         22    1    1    0    0    0 -0.31315053698E+00  0.29454343197E+02 -0.74819784593E+01  0.30391386907E+02  0.00000000000E+00 0. -1.
</event>
<event>
 4    1  0.1259474E-009  0.9118800E+02  0.7815553E-02  0.1125453E+00
         25   -1    0    0    0    0  0.00000000000E+00  0.00000000000E+00  0.99999998245E-14  0.12509000000E+03  0.12509000000E+03 0.  0.
        -13    1    1    0    0    0 -0.10039337472E+02 -0.12979429784E+02  0.48873100806E+00  0.16416574443E+02  0.10566000000E+00 0.  1.
         13    1    1    0    0    0  0.49944470542E+02 -0.18427659308E+02  0.15478356535E+02  0.55440233138E+02  0.10566000000E+00 0. -1.
         22    1    1    0    0    0 -0.39905133070E+02  0.31407089092E+02 -0.15967087543E+02  0.53233192420E+02  0.00000000000E+00 0. -1.
</event>
<event>
 5    1  0.1259474E-009  0.9118800E+02  0.7815553E-02  0.1125453E+00
         25   -1    0    0    0    0  0.00000000000E+00  0.00000000000E+00  0.99999998245E-14  0.12509000000E+03  0.12509000000E+03 0.  0.
        -13    1    3    3    0    0  0.56485572749E+01  0.33213496702E+02 -0.50011970846E+02  0.60301334599E+02  0.10566000000E+00 0.  1.
         23    2    1    0    0    0  0.86171893484E+01  0.54237932844E+01 -0.26069626603E+02  0.97102522138E+02  0.92981723411E+02 0.  0.
         13    1    3    3    0    0  0.29686320735E+01 -0.27789703418E+02  0.23942344243E+02  0.36801187539E+02  0.10566000000E+00 0. -1.
         22    1    1    0    0    0 -0.86171893484E+01 -0.54237932844E+01  0.26069626603E+02  0.27987477862E+02  0.00000000000E+00 0.  1.
</event>
<event>
 5    1  0.1259474E-009  0.9118800E+02  0.7815553E-02  0.1125453E+00
         25   -1    0    0    0    0  0.00000000000E+00  0.00000000000E+00  0.99999998245E-14  0.12509000000E+03  0.12509000000E+03 0.  0.
        -13    1    3    3    0    0 -0.43662930587E+02 -0.16772751033E+02  0.34902382623E+02  0.58360638803E+02  0.10566000000E+00 0.  1.
         23    2    1    0    0    0 -0.87132705034E+01 -0.75644112983E+01  0.27519251666E+02  0.95249580877E+02  0.90454585533E+02 0.  0.
         13    1    3    3    0    0  0.34949660084E+02  0.92083397351E+01 -0.73831309568E+01  0.36888942075E+02  0.10566000000E+00 0. -1.
         22    1    1    0    0    0  0.87132705034E+01  0.75644112983E+01 -0.27519251666E+02  0.29840419123E+02  0.00000000000E+00 0.  1.
</event>
<event>
 5    1  0.1259474E-009  0.9118800E+02  0.7815553E-02  0.1125453E+00
         25   -1    0    0    0    0  0.00000000000E+00  0.00000000000E+00  0.99999998245E-14  0.12509000000E+03  0.12509000000E+03 0.  0.
        -13    1    3    3    0    0 -0.23510373817E+02  0.65108038258E+01  0.11817019488E+02  0.27106850741E+02  0.10566000000E+00 0.  1.
         23    2    1    0    0    0  0.25167334204E+02  0.79606601324E+00 -0.25912011875E+02  0.88958839052E+02  0.81290923565E+02 0.  0.
         13    1    3    3    0    0  0.48677708021E+02 -0.57147378126E+01 -0.37729031363E+02  0.61851988311E+02  0.10566000000E+00 0. -1.
         22    1    1    0    0    0 -0.25167334204E+02 -0.79606601324E+00  0.25912011875E+02  0.36131160948E+02  0.00000000000E+00 0. -1.
</event>
<event>
 5    1  0.1259474E-009  0.9118800E+02  0.7815553E-02  0.1125453E+00
         25   -1    0    0    0    0  0.00000000000E+00  0.00000000000E+00  0.99999998245E-14  0.12509000000E+03  0.12509000000E+03 0.  0.
        -13    1    3    3    0    0 -0.50887782666E+02 -0.22951446236E+02  0.29692248119E+00  0.55825035925E+02  0.10566000000E+00 0.  1.
         23    2    1    0    0    0 -0.16617126683E+02 -0.25390592013E+02  0.12480498079E+02  0.92278814495E+02  0.86248511352E+02 0.  0.
         13    1    3    3    0    0  0.34270655984E+02 -0.24391457766E+01  0.12183575597E+02  0.36453778570E+02  0.10566000000E+00 0. -1.
         22    1    1    0    0    0  0.16617126683E+02  0.25390592013E+02 -0.12480498079E+02  0.32811185505E+02  0.00000000000E+00 0.  1.
</event>
<event>
 5    1  0.1259474E-009  0.9118800E+02  0.7815553E-02  0.1125453E+00
         25   -1    0    0    0    0  0.00000000000E+00  0.00000000000E+00  0.99999998245E-14  0.12509000000E+03  0.12509000000E+03 0.  0.
        -13    1    3    3    0    0 -0.39477173853E+02 -0.12489400877E+02  0.42020770753E+02  0.58993124416E+02  0.10566000000E+00 0.  1.
         23    2    1    0    0    0 -0.20470182082E+02 -0.15517056400E+02  0.78172245918E+01  0.98240113704E+02  0.94499754214E+02 0.  0.
         13    1    3    3    0    0  0.19006991770E+02 -0.30276555231E+01 -0.34203546161E+02  0.39246989288E+02  0.10566000000E+00 0. -1.
         22    1    1    0    0    0  0.20470182082E+02  0.15517056400E+02 -0.78172245918E+01  0.26849886296E+02  0.00000000000E+00 0.  1.
</event>
<event>
 5    1  0.1259474E-009  0.9118800E+02  0.7815553E-02  0.1125453E+00
         25   -1    0    0    0    0  0.00000000000E+00  0.00000000000E+00  0.99999998245E-14  0.12509000000E+03  0.12509000000E+03 0.  0.
        -13    1    3    3    0    0 -0.23949126665E+02 -0.19117699781E+02 -0.17325684861E+02  0.35202807173E+02  0.10566000000E+00 0.  1.
         23    2    1    0    0    0  0.10628832948E+02 -0.84166261111E+01  0.28458657355E+02  0.93566883666E+02  0.88096849294E+02 0.  0.
         13    1    3    3    0    0  0.34577959613E+02  0.10701073670E+02  0.45784342216E+02  0.58364076493E+02  0.10566000000E+00 0. -1.
         22    1    1    0    0    0 -0.10628832948E+02  0.84166261111E+01 -0.28458657355E+02  0.31523116334E+02  0.00000000000E+00 0. -1.
</event>
<event>
 5    1  0.1259474E-009  0.9118800E+02  0.7815553E-02  0.1125453E+00
         25   -1    0    0    0    0  0.00000000000E+00  0.00000000000E+00  0.99999998245E-14  0.12509000000E+03  0.12509000000E+03 0.  0.
        -13    1    3    3    0    0 -0.22127887417E+02  0.39559997591E+02 -0.12969876457E+02  0.47147276383E+02  0.10566000000E+00 0.  1.
         23    2    1    0    0    0  0.14394800505E+02  0.78749273309E+01 -0.23302408703E+02  0.96590403277E+02  0.92290189033E+02 0.  0.
         13    1    3    3    0    0  0.36522687922E+02 -0.31685070260E+02 -0.10332532246E+02  0.49443126894E+02  0.10566000000E+00 0. -1.
         22    1    1    0    0    0 -0.14394800505E+02 -0.78749273309E+01  0.23302408703E+02  0.28499596723E+02  0.00000000000E+00 0.  1.
</event>
<event>
 5    1  0.1259474E-009  0.9118800E+02  0.7815553E-02  0.1125453E+00
         25   -1    0    0    0    0  0.00000000000E+00  0.00000000000E+00  0.99999998245E-14  0.12509000000E+03  0.12509000000E+03 0.  0.
        -13    1    3    3    0    0 -0.41756624732E+02  0.69008773609E+01 -0.43798741436E+01  0.42549174832E+02  0.10566000000E+00 0.  1.
         23    2    1    0    0    0 -0.22076142075E+01 -0.28111471396E+02  0.56969722362E+01  0.96322242403E+02  0.91926005593E+02 0.  0.
         13    1    3    3    0    0  0.39549010525E+02 -0.35012348757E+02  0.10076846380E+02  0.53773067570E+02  0.10566000000E+00 0. -1.
         22    1    1    0    0    0  0.22076142075E+01  0.28111471396E+02 -0.56969722362E+01  0.28767757597E+02  0.00000000000E+00 0. -1.
</event>
<event>
 5    1  0.1259474E-009  0.9118800E+02  0.7815553E-02  0.1125453E+00
         25   -1    0    0    0    0  0.00000000000E+00  0.00000000000E+00  0.99999998245E-14  0.12509000000E+03  0.12509000000E+03 0.  0.
        -13    1    3    3    0    0 -0.39811357191E+02 -0.34831941068E+02 -0.21006418881E+02  0.56916509716E+02  0.10566000000E+00 0.  1.
         23    2    1    0    0    0 -0.13550283678E+02 -0.22137003751E+02  0.78770363753E+01  0.97966120763E+02  0.94136369127E+02 0.  0.
         13    1    3    3    0    0  0.26261073513E+02  0.12694937317E+02  0.28883455256E+02  0.41049611047E+02  0.10566000000E+00 0. -1.
         22    1    1    0    0    0  0.13550283678E+02  0.22137003751E+02 -0.78770363753E+01  0.27123879237E+02  0.00000000000E+00 0.  1.
</event>
<event>
 5    1  0.1259474E-009  0.9118800E+02  0.7815553E-02  0.1125453E+00
         25   -1    0    0    0    0  0.00000000000E+00  0.00000000000E+00  0.99999998245E-14  0.12509000000E+03  0.12509000000E+03 0.  0.
        -13    1    3    3    0    0 -0.38479417552E+02  0.48792343402E+01  0.15799033880E+02  0.41881895115E+02  0.10566000000E+00 0.  1.
         23    2    1    0    0    0  0.12447022727E+02 -0.21023480614E+02  0.68678978428E+01  0.99711207029E+02  0.96427390686E+02 0.  0.
         13    1    3    3    0    0  0.50926440279E+02 -0.25902714954E+02 -0.89311360368E+01  0.57829311914E+02  0.10566000000E+00 0. -1.
         22    1    1    0    0    0 -0.12447022727E+02  0.21023480614E+02 -0.68678978428E+01  0.25378792971E+02  0.00000000000E+00 0. -1.
</event>
<event>
 5    1  0.1259474E-009  0.9118800E+02  0.7815553E-02  0.1125453E+00
         25   -1    0    0    0    0  0.00000000000E+00  0.00000000000E+00  0.99999998245E-14  0.12509000000E+03  0.12509000000E+03 0.  0.
        -13    1    3    3    0    0 -0.97978072884E+01 -0.19312284072E+02  0.33654364213E+02  0.40019854302E+02  0.10566000000E+00 0.  1.
         23    2    1    0    0    0 -0.25023035796E+02  0.74250588977E+01 -0.13018520368E+02  0.95922111961E+02  0.91379898612E+02 0.  0.
         13    1    3    3    0    0 -0.15225228508E+02  0.26737342970E+02 -0.46672884581E+02  0.55902257659E+02  0.10566000000E+00 0. -1.
         22    1    1    0    0    0  0.25023035796E+02 -0.74250588977E+01  0.13018520368E+02  0.29167888039E+02  0.00000000000E+00 0. -1.
</event>
<event>
 5    1  0.1259474E-009  0.9118800E+02  0.7815553E-02  0.1125453E+00
         25   -1    0    0    0    0  0.00000000000E+00  0.00000000000E+00  0.99999998245E-14  0.12509000000E+03  0.12509000000E+03 0.  0.
        -13    1    3    3    0    0 -0.43132271462E+02  0.29405110900E+02 -0.28655443527E+02  0.59549970581E+02  0.10566000000E+00 0. -1.
         23    2    1    0    0    0 -0.21950878982E+02  0.52407555573E+01 -0.24214942255E+02  0.91989093135E+02  0.85827287156E+02 0.  0.
         13    1    3    3    0    0  0.21181392479E+02 -0.24164355342E+02  0.44405012722E+01  0.32439122554E+02  0.10566000000E+00 0.  1.
         22    1    1    0    0    0  0.21950878982E+02 -0.52407555573E+01  0.24214942255E+02  0.33100906865E+02  0.00000000000E+00 0. -1.
</event>
<event>
 5    1  0.1259474E-009  0.9118800E+02  0.7815553E-02  0.1125453E+00
         25   -1    0    0    0    0  0.00000000000E+00  0.00000000000E+00  0.99999998245E-14  0.12509000000E+03  0.12509000000E+03 0.  0.
        -13    1    3    3    0    0  0.47016739239E+02  0.17291901585E+01  0.13962950365E+02  0.49076868423E+02  0.10566000000E+00 0.  1.
         23    2    1    0    0    0  0.18104347548E+02  0.73357227088E+01 -0.22071607470E+02  0.95615670761E+02  0.90959443770E+02 0.  0.
         13    1    3    3    0    0 -0.28912391692E+02  0.56065325503E+01 -0.36034557835E+02  0.46538802337E+02  0.10566000000E+00 0. -1.
         22    1    1    0    0    0 -0.18104347548E+02 -0.73357227088E+01  0.22071607470E+02  0.29474329239E+02  0.00000000000E+00 0.  1.
</event>
<event>
 5    1  0.1259474E-009  0.9118800E+02  0.7815553E-02  0.1125453E+00
         25   -1    0    0    0    0  0.00000000000E+00  0.00000000000E+00  0.99999998245E-14  0.12509000000E+03  0.12509000000E+03 0.  0.
        -13    1    3    3    0    0 -0.39666093672E+02 -0.45874343549E+02  0.28062922072E+01  0.60710302447E+02  0.10566000000E+00 0. -1.
         23    2    1    0    0    0 -0.16669733600E+02 -0.24648501187E+02  0.11497553880E+02  0.93189806046E+02  0.87559794293E+02 0.  0.
         13    1    3    3    0    0  0.22996360072E+02  0.21225842362E+02  0.86912616728E+01  0.32479503599E+02  0.10566000000E+00 0.  1.
         22    1    1    0    0    0  0.16669733600E+02  0.24648501187E+02 -0.11497553880E+02  0.31900193954E+02  0.00000000000E+00 0. -1.
</event>
<event>
 5    1  0.1259474E-009  0.9118800E+02  0.7815553E-02  0.1125453E+00
         25   -1    0    0    0    0  0.00000000000E+00  0.00000000000E+00  0.99999998245E-14  0.12509000000E+03  0.12509000000E+03 0.  0.
        -13    1    3    3    0    0  0.50907744170E+02  0.22720058577E+00 -0.33905180335E+01  0.51021140846E+02  0.10566000000E+00 0. -1.
         23    2    1    0    0    0  0.12632171873E+02 -0.24925500277E+02  0.16463681184E+01  0.97097807191E+02  0.92975380091E+02 0.  0.
         13    1    3    3    0    0 -0.38275572297E+02 -0.25152700862E+02  0.50368861519E+01  0.46076666345E+02  0.10566000000E+00 0.  1.
         22    1    1    0    0    0 -0.12632171873E+02  0.24925500277E+02 -0.16463681184E+01  0.27992192809E+02  0.00000000000E+00 0. -1.
</event>
<event>
 5    1  0.1259474E-009  0.9118800E+02  0.7815553E-02  0.1125453E+00
         25   -1    0    0    0    0  0.00000000000E+00  0.00000000000E+00  0.99999998245E-14  0.12509000000E+03  0.12509000000E+03 0.  0.
        -13    1    3    3    0    0 -0.26231405972E+02 -0.50228413058E+02  0.89159604226E+00  0.56672623418E+02  0.10566000000E+00 0.  1.
         23    2    1    0    0    0 -0.21642714371E+02 -0.13623164809E+02 -0.13378899527E+02  0.96228387825E+02  0.91798202412E+02 0.  0.
         13    1    3    3    0    0  0.45886916006E+01  0.36605248249E+02 -0.14270495570E+02  0.39555764407E+02  0.10566000000E+00 0. -1.
         22    1    1    0    0    0  0.21642714371E+02  0.13623164809E+02  0.13378899527E+02  0.28861612175E+02  0.00000000000E+00 0.  1.
</event>
<event>
 5    1  0.1259474E-009  0.9118800E+02  0.7815553E-02  0.1125453E+00
         25   -1    0    0    0    0  0.00000000000E+00  0.00000000000E+00  0.99999998245E-14  0.12509000000E+03  0.12509000000E+03 0.  0.
        -13    1    3    3    0    0 -0.22524780571E+02  0.26725788571E+02 -0.35892684925E+02  0.50099196697E+02  0.10566000000E+00 0. -1.
         23    2    1    0    0    0  0.52747613339E+01  0.27821641960E+02  0.15310320186E+01  0.96731387066E+02  0.92481080856E+02 0.  0.
         13    1    3    3    0    0  0.27799541904E+02  0.10958533893E+01  0.37423716944E+02  0.46632190370E+02  0.10566000000E+00 0.  1.
         22    1    1    0    0    0 -0.52747613339E+01 -0.27821641960E+02 -0.15310320186E+01  0.28358612934E+02  0.00000000000E+00 0. -1.
</event>
<event>
 5    1  0.1259474E-009  0.9118800E+02  0.7815553E-02  0.1125453E+00
         25   -1    0    0    0    0  0.00000000000E+00  0.00000000000E+00  0.99999998245E-14  0.12509000000E+03  0.12509000000E+03 0.  0.
        -13    1    3    3    0    0  0.49381384626E+02  0.25585695017E+02 -0.25849080442E+01  0.55676223388E+02  0.10566000000E+00 0. -1.
         23    2    1    0    0    0  0.19637886934E+02  0.16507209619E+01 -0.19438801750E+02  0.97408986717E+02  0.93393105724E+02 0.  0.
         13    1    3    3    0    0 -0.29743497692E+02 -0.23934974055E+02 -0.16853893706E+02  0.41732763329E+02  0.10566000000E+00 0.  1.
         22    1    1    0    0    0 -0.19637886934E+02 -0.16507209619E+01  0.19438801750E+02  0.27681013283E+02  0.00000000000E+00 0. -1.
</event>
<event>
 5    1  0.1259474E-009  0.9118800E+02  0.7815553E-02  0.1125453E+00
         25   -1    0    0    0    0  0.00000000000E+00  0.00000000000E+00  0.99999998245E-14  0.12509000000E+03  0.12509000000E+03 0.  0.
        -13    1    3    3    0    0 -0.28274955991E+02  0.43414116429E+02  0.86540576819E+00  0.51817166391E+02  0.10566000000E+00 0. -1.
         23    2    1    0    0    0 -0.35879540979E+02  0.13696457441E+02  0.12615791531E+02  0.84666088719E+02  0.74392566670E+02 0.  0.
         13    1    3    3    0    0 -0.76045849871E+01 -0.29717658988E+02  0.11750385763E+02  0.32848922328E+02  0.10566000000E+00 0.  1.
         22    1    1    0    0    0  0.35879540979E+02 -0.13696457441E+02 -0.12615791531E+02  0.40423911281E+02  0.00000000000E+00 0. -1.
</event>
<event>
 5    1  0.1259474E-009  0.9118800E+02  0.7815553E-02  0.1125453E+00
         25   -1    0    0    0    0  0.00000000000E+00  0.00000000000E+00  0.99999998245E-14  0.12509000000E+03  0.12509000000E+03 0.  0.
        -13    1    3    3    0    0 -0.12423346920E+02 -0.66732519031E+01  0.49661561479E+02  0.51625126559E+02  0.10566000000E+00 0. -1.
         23    2    1    0    0    0 -0.25035318723E+02 -0.14071644102E+02  0.87555106355E+01  0.95066054260E+02  0.90200428795E+02 0.  0.
         13    1    3    3    0    0 -0.12611971803E+02 -0.73983921987E+01 -0.40906050844E+02  0.43440927701E+02  0.10566000000E+00 0.  1.
         22    1    1    0    0    0  0.25035318723E+02  0.14071644102E+02 -0.87555106355E+01  0.30023945740E+02  0.00000000000E+00 0. -1.
</event>
<event>
 5    1  0.1259474E-009  0.9118800E+02  0.7815553E-02  0.1125453E+00
         25   -1    0    0    0    0  0.00000000000E+00  0.00000000000E+00  0.99999998245E-14  0.12509000000E+03  0.12509000000E+03 0.  0.
        -13    1    3    3    0    0 -0.45473725744E+02  0.28281557013E+02  0.21519077416E+02  0.57712979969E+02  0.10566000000E+00 0.  1.
         23    2    1    0    0    0 -0.31079571142E+02  0.22513529289E+01  0.88117136019E+00  0.93916537001E+02  0.88591936016E+02 0.  0.
         13    1    3    3    0    0  0.14394154602E+02 -0.26030204084E+02 -0.20637906056E+02  0.36203557032E+02  0.10566000000E+00 0. -1.
         22    1    1    0    0    0  0.31079571142E+02 -0.22513529289E+01 -0.88117136019E+00  0.31173462999E+02  0.00000000000E+00 0.  1.
</event>
<event>
 5    1  0.1259474E-009  0.9118800E+02  0.7815553E-02  0.1125453E+00
         25   -1    0    0    0    0  0.00000000000E+00  0.00000000000E+00  0.99999998245E-14  0.12509000000E+03  0.12509000000E+03 0.  0.
        -13    1    3    3    0    0 -0.26916003081E+01 -0.51806513848E+02  0.30089956457E+02  0.59971461821E+02  0.10566000000E+00 0.  1.
         23    2    1    0    0    0  0.10423361102E+02 -0.20255574629E+02  0.17417691090E+02  0.96414039282E+02  0.92050835127E+02 0.  0.
         13    1    3    3    0    0  0.13114961410E+02  0.31550939219E+02 -0.12672265367E+02  0.36442577461E+02  0.10566000000E+00 0. -1.
         22    1    1    0    0    0 -0.10423361102E+02  0.20255574629E+02 -0.17417691090E+02  0.28675960718E+02  0.00000000000E+00 0.  1.
</event>
<event>
 5    1  0.1259474E-009  0.9118800E+02  0.7815553E-02  0.1125453E+00
         25   -1    0    0    0    0  0.00000000000E+00  0.00000000000E+00  0.99999998245E-14  0.12509000000E+03  0.12509000000E+03 0.  0.
        -13    1    3    3    0    0  0.84264523962E+01  0.27823399489E+02  0.22797458777E+02  0.36944308761E+02  0.10566000000E+00 0. -1.
         23    2    1    0    0    0 -0.24038443611E+02 -0.16901234733E+02  0.34299995664E+01  0.95505149084E+02  0.90807324031E+02 0.  0.
         13    1    3    3    0    0 -0.32464896007E+02 -0.44724634221E+02 -0.19367459211E+02  0.58560840323E+02  0.10566000000E+00 0.  1.
         22    1    1    0    0    0  0.24038443611E+02  0.16901234733E+02 -0.34299995664E+01  0.29584850916E+02  0.00000000000E+00 0.  1.
</event>
<event>
 5    1  0.1259474E-009  0.9118800E+02  0.7815553E-02  0.1125453E+00
         25   -1    0    0    0    0  0.00000000000E+00  0.00000000000E+00  0.99999998245E-14  0.12509000000E+03  0.12509000000E+03 0.  0.
        -13    1    3    3    0    0  0.13644963129E+01  0.50753571484E+02  0.19979026407E+02  0.54561520587E+02  0.10566000000E+00 0. -1.
         23    2    1    0    0    0 -0.20488057796E+02  0.21771935948E+02  0.18435041949E+01  0.95137100059E+02  0.90298901393E+02 0.  0.
         13    1    3    3    0    0 -0.21852554109E+02 -0.28981635537E+02 -0.18135522213E+02  0.40575579471E+02  0.10566000000E+00 0.  1.
         22    1    1    0    0    0  0.20488057796E+02 -0.21771935948E+02 -0.18435041949E+01  0.29952899941E+02  0.00000000000E+00 0. -1.
</event>
<event>
 5    1  0.1259474E-009  0.9118800E+02  0.7815553E-02  0.1125453E+00
         25   -1    0    0    0    0  0.00000000000E+00  0.00000000000E+00  0.99999998245E-14  0.12509000000E+03  0.12509000000E+03 0.  0.
        -13    1    3    3    0    0  0.12638439602E+02  0.34071235231E+02 -0.13083186236E+02  0.38623310991E+02  0.10566000000E+00 0. -1.
         23    2    1    0    0    0 -0.28870252025E+02  0.11579147360E+01 -0.16694113679E+02  0.91720468238E+02  0.85434879550E+02 0.  0.
         13    1    3    3    0    0 -0.41508691627E+02 -0.32913320495E+02 -0.36109274430E+01  0.53097157247E+02  0.10566000000E+00 0.  1.
         22    1    1    0    0    0  0.28870252025E+02 -0.11579147360E+01  0.16694113679E+02  0.33369531762E+02  0.00000000000E+00 0. -1.
</event>
<event>
 5    1  0.1259474E-009  0.9118800E+02  0.7815553E-02  0.1125453E+00
         25   -1    0    0    0    0  0.00000000000E+00  0.00000000000E+00  0.99999998245E-14  0.12509000000E+03  0.12509000000E+03 0.  0.
        -13    1    3    3    0    0  0.10299167451E+02  0.32645715646E+01 -0.38995814029E+02  0.40464984289E+02  0.10566000000E+00 0. -1.
         23    2    1    0    0    0 -0.19561555614E+02  0.20337214574E+02  0.51258178252E+01  0.96410202877E+02  0.92045621600E+02 0.  0.
         13    1    3    3    0    0 -0.29860723065E+02  0.17072643009E+02  0.44121631855E+02  0.55945218588E+02  0.10566000000E+00 0.  1.
         22    1    1    0    0    0  0.19561555614E+02 -0.20337214574E+02 -0.51258178252E+01  0.28679797123E+02  0.00000000000E+00 0.  1.
</event>
<event>
 5    1  0.1259474E-009  0.9118800E+02  0.7815553E-02  0.1125453E+00
         25   -1    0    0    0    0  0.00000000000E+00  0.00000000000E+00  0.99999998245E-14  0.12509000000E+03  0.12509000000E+03 0.  0.
        -13    1    3    3    0    0  0.11657006602E+02 -0.50526180512E+02  0.20889242468E+02  0.55903061946E+02  0.10566000000E+00 0.  1.
         23    2    1    0    0    0 -0.23633139974E+01 -0.13053299101E+02  0.25667348124E+02  0.96197325666E+02  0.91755865399E+02 0.  0.
         13    1    3    3    0    0 -0.14020320599E+02  0.37472881412E+02  0.47781056559E+01  0.40294263719E+02  0.10566000000E+00 0. -1.
         22    1    1    0    0    0  0.23633139974E+01  0.13053299101E+02 -0.25667348124E+02  0.28892674334E+02  0.00000000000E+00 0.  1.
</event>
<event>
 5    1  0.1259474E-009  0.9118800E+02  0.7815553E-02  0.1125453E+00
         25   -1    0    0    0    0  0.00000000000E+00  0.00000000000E+00  0.99999998245E-14  0.12509000000E+03  0.12509000000E+03 0.  0.
        -13    1    3    3    0    0 -0.27854760220E+02  0.83375620670E+01  0.51137376883E+02  0.58825547908E+02  0.10566000000E+00 0.  1.
         23    2    1    0    0    0 -0.20150075317E+02  0.11086157536E+02  0.11353623594E+02  0.99441740938E+02  0.96077191090E+02 0.  0.
         13    1    3    3    0    0  0.77046849028E+01  0.27485954692E+01 -0.39783753289E+02  0.40616193030E+02  0.10566000000E+00 0. -1.
         22    1    1    0    0    0  0.20150075317E+02 -0.11086157536E+02 -0.11353623594E+02  0.25648259062E+02  0.00000000000E+00 0.  1.
</event>
<event>
 5    1  0.1259474E-009  0.9118800E+02  0.7815553E-02  0.1125453E+00
         25   -1    0    0    0    0  0.00000000000E+00  0.00000000000E+00  0.99999998245E-14  0.12509000000E+03  0.12509000000E+03 0.  0.
        -13    1    3    3    0    0  0.47329384985E+02  0.25671191029E+02 -0.93217692481E+01  0.54644187960E+02  0.10566000000E+00 0.  1.
         23    2    1    0    0    0  0.98353832997E+01  0.25016894619E+02  0.94709991593E+01  0.96589480600E+02  0.92288938429E+02 0.  0.
         13    1    3    3    0    0 -0.37494001685E+02 -0.65429640984E+00  0.18792768407E+02  0.41945292639E+02  0.10566000000E+00 0. -1.
         22    1    1    0    0    0 -0.98353832997E+01 -0.25016894619E+02 -0.94709991593E+01  0.28500519400E+02  0.00000000000E+00 0.  1.
</event>
<event>
 5    1  0.1259474E-009  0.9118800E+02  0.7815553E-02  0.1125453E+00
         25   -1    0    0    0    0  0.00000000000E+00  0.00000000000E+00  0.99999998245E-14  0.12509000000E+03  0.12509000000E+03 0.  0.
        -13    1    3    3    0    0  0.37680071812E+02  0.22527741102E+02 -0.23534007057E+02  0.49811119072E+02  0.10566000000E+00 0. -1.
         23    2    1    0    0    0  0.26502590055E+02 -0.32336789205E+01  0.12594085821E+02  0.95569584071E+02  0.90896041953E+02 0.  0.
         13    1    3    3    0    0 -0.11177481758E+02 -0.25761420023E+02  0.36128092878E+02  0.45758464999E+02  0.10566000000E+00 0.  1.
         22    1    1    0    0    0 -0.26502590055E+02  0.32336789205E+01 -0.12594085821E+02  0.29520415929E+02  0.00000000000E+00 0. -1.
</event>
<event>
 5    1  0.1259474E-009  0.9118800E+02  0.7815553E-02  0.1125453E+00
         25   -1    0    0    0    0  0.00000000000E+00  0.00000000000E+00  0.99999998245E-14  0.12509000000E+03  0.12509000000E+03 0.  0.
        -13    1    3    3    0    0  0.40423362240E+02  0.46179800764E+02  0.74386759506E+01  0.61822061413E+02  0.10566000000E+00 0.  1.
         23    2    1    0    0    0  0.21187721577E+02  0.19067301253E+02 -0.23849399093E+01  0.96486338328E+02  0.92149031590E+02 0.  0.
         13    1    3    3    0    0 -0.19235640663E+02 -0.27112499511E+02 -0.98236158600E+01  0.34664276916E+02  0.10566000000E+00 0. -1.
         22    1    1    0    0    0 -0.21187721577E+02 -0.19067301253E+02  0.23849399093E+01  0.28603661672E+02  0.00000000000E+00 0.  1.
</event>
<event>
 5    1  0.1259474E-009  0.9118800E+02  0.7815553E-02  0.1125453E+00
         25   -1    0    0    0    0  0.00000000000E+00  0.00000000000E+00  0.99999998245E-14  0.12509000000E+03  0.12509000000E+03 0.  0.
        -13    1    3    3    0    0  0.32981921618E+02  0.29767221586E+02 -0.25293111937E+02  0.51123842873E+02  0.10566000000E+00 0. -1.
         23    2    1    0    0    0  0.94748511045E+01 -0.76729523730E+01 -0.27105064597E+02  0.95369106198E+02  0.90619726819E+02 0.  0.
         13    1    3    3    0    0 -0.23507070514E+02 -0.37440173959E+02 -0.18119526599E+01  0.44245263325E+02  0.10566000000E+00 0.  1.
         22    1    1    0    0    0 -0.94748511045E+01  0.76729523730E+01  0.27105064597E+02  0.29720893802E+02  0.00000000000E+00 0. -1.
</event>
<event>
 5    1  0.1259474E-009  0.9118800E+02  0.7815553E-02  0.1125453E+00
         25   -1    0    0    0    0  0.00000000000E+00  0.00000000000E+00  0.99999998245E-14  0.12509000000E+03  0.12509000000E+03 0.  0.
        -13    1    3    3    0    0 -0.48120876784E+02 -0.25033848382E+02 -0.16783971772E+02  0.56780500348E+02  0.10566000000E+00 0.  1.
         23    2    1    0    0    0 -0.91395264726E+01 -0.13496613653E+02 -0.21938474182E+02  0.97758952203E+02  0.93860676335E+02 0.  0.
         13    1    3    3    0    0  0.38981350311E+02  0.11537234729E+02 -0.51545024101E+01  0.40978451855E+02  0.10566000000E+00 0. -1.
         22    1    1    0    0    0  0.91395264726E+01  0.13496613653E+02  0.21938474182E+02  0.27331047797E+02  0.00000000000E+00 0.  1.
</event>
<event>
 5    1  0.1259474E-009  0.9118800E+02  0.7815553E-02  0.1125453E+00
         25   -1    0    0    0    0  0.00000000000E+00  0.00000000000E+00  0.99999998245E-14  0.12509000000E+03  0.12509000000E+03 0.  0.
        -13    1    3    3    0    0 -0.78419430917E+01 -0.55423467298E+02 -0.13363970849E+02  0.57548793903E+02  0.10566000000E+00 0.  1.
         23    2    1    0    0    0 -0.19863309004E+02 -0.19573449400E+02 -0.98126148881E+01  0.95527212971E+02  0.90837712658E+02 0.  0.
         13    1    3    3    0    0 -0.12021365912E+02  0.35850017898E+02  0.35513559605E+01  0.37978419068E+02  0.10566000000E+00 0. -1.
         22    1    1    0    0    0  0.19863309004E+02  0.19573449400E+02  0.98126148881E+01  0.29562787029E+02  0.00000000000E+00 0.  1.
</event>
<event>
 5    1  0.1259474E-009  0.9118800E+02  0.7815553E-02  0.1125453E+00
         25   -1    0    0    0    0  0.00000000000E+00  0.00000000000E+00  0.99999998245E-14  0.12509000000E+03  0.12509000000E+03 0.  0.
        -13    1    3    3    0    0  0.94621437889E+01 -0.28891448131E+02 -0.17719833185E+02  0.35188799246E+02  0.10566000000E+00 0.  1.
         23    2    1    0    0    0  0.91871770422E+01  0.28043295014E+02  0.21749749030E+01  0.95500117724E+02  0.90800392908E+02 0.  0.
         13    1    3    3    0    0 -0.27496674661E+00  0.56934743145E+02  0.19894808088E+02  0.60311318479E+02  0.10566000000E+00 0. -1.
         22    1    1    0    0    0 -0.91871770422E+01 -0.28043295014E+02 -0.21749749030E+01  0.29589882276E+02  0.00000000000E+00 0. -1.
</event>
<event>
 5    1  0.1259474E-009  0.9118800E+02  0.7815553E-02  0.1125453E+00
         25   -1    0    0    0    0  0.00000000000E+00  0.00000000000E+00  0.99999998245E-14  0.12509000000E+03  0.12509000000E+03 0.  0.
        -13    1    3    3    0    0 -0.15564993739E+01  0.53012910013E+02  0.27261276234E+02  0.59632035554E+02  0.10566000000E+00 0. -1.
         23    2    1    0    0    0 -0.10154410894E+02  0.18058583204E+02  0.19879051466E+02  0.96377612863E+02  0.92001321110E+02 0.  0.
         13    1    3    3    0    0 -0.85979115198E+01 -0.34954326810E+02 -0.73822247678E+01  0.36745577309E+02  0.10566000000E+00 0.  1.
         22    1    1    0    0    0  0.10154410894E+02 -0.18058583204E+02 -0.19879051466E+02  0.28712387137E+02  0.00000000000E+00 0. -1.
</event>
<event>
 5    1  0.1259474E-009  0.9118800E+02  0.7815553E-02  0.1125453E+00
         25   -1    0    0    0    0  0.00000000000E+00  0.00000000000E+00  0.99999998245E-14  0.12509000000E+03  0.12509000000E+03 0.  0.
        -13    1    3    3    0    0  0.46701923298E+02  0.36756727084E+02 -0.88061844002E+00  0.59438314903E+02  0.10566000000E+00 0.  1.
         23    2    1    0    0    0  0.19610696924E+02  0.17211760982E+02 -0.14178898709E+02  0.95393782757E+02  0.90653783540E+02 0.  0.
         13    1    3    3    0    0 -0.27091226374E+02 -0.19544966103E+02 -0.13298280269E+02  0.35955467853E+02  0.10566000000E+00 0. -1.
         22    1    1    0    0    0 -0.19610696924E+02 -0.17211760982E+02  0.14178898709E+02  0.29696217243E+02  0.00000000000E+00 0.  1.
</event>
<event>
 5    1  0.1259474E-009  0.9118800E+02  0.7815553E-02  0.1125453E+00
         25   -1    0    0    0    0  0.00000000000E+00  0.00000000000E+00  0.99999998245E-14  0.12509000000E+03  0.12509000000E+03 0.  0.
        -13    1    3    3    0    0 -0.56758669981E+02  0.71811829135E+01  0.24888813063E+02  0.62390545644E+02  0.10566000000E+00 0. -1.
         23    2    1    0    0    0 -0.30325816162E+02  0.66137657460E+01  0.11895030358E+02  0.91850132815E+02  0.85624518263E+02 0.  0.
         13    1    3    3    0    0  0.26432853819E+02 -0.56741716748E+00 -0.12993782705E+02  0.29459587171E+02  0.10566000000E+00 0.  1.
         22    1    1    0    0    0  0.30325816162E+02 -0.66137657460E+01 -0.11895030358E+02  0.33239867185E+02  0.00000000000E+00 0. -1.
</event>
<event>
 5    1  0.1259474E-009  0.9118800E+02  0.7815553E-02  0.1125453E+00
         25   -1    0    0    0    0  0.00000000000E+00  0.00000000000E+00  0.99999998245E-14  0.12509000000E+03  0.12509000000E+03 0.  0.
        -13    1    3    3    0    0 -0.30850674255E+02  0.44633959893E+02  0.34602184243E+01  0.54368545624E+02  0.10566000000E+00 0. -1.
         23    2    1    0    0    0  0.20632350588E+00  0.26061798686E+02 -0.15028548705E+02  0.95004834281E+02  0.90115488904E+02 0.  0.
         13    1    3    3    0    0  0.31056997761E+02 -0.18572161206E+02 -0.18488767130E+02  0.40636288657E+02  0.10566000000E+00 0.  1.
         22    1    1    0    0    0 -0.20632350588E+00 -0.26061798686E+02  0.15028548705E+02  0.30085165719E+02  0.00000000000E+00 0. -1.
</event>
<event>
 5    1  0.1259474E-009  0.9118800E+02  0.7815553E-02  0.1125453E+00
         25   -1    0    0    0    0  0.00000000000E+00  0.00000000000E+00  0.99999998245E-14  0.12509000000E+03  0.12509000000E+03 0.  0.
        -13    1    3    3    0    0  0.22198255049E+02  0.12522450890E+02  0.24022110388E+02  0.35023524309E+02  0.10566000000E+00 0.  1.
         23    2    1    0    0    0  0.36167736103E+02 -0.15384337573E+02 -0.13228927949E+02  0.83619679142E+02  0.72611729271E+02 0.  0.
         13    1    3    3    0    0  0.13969481054E+02 -0.27906788464E+02 -0.37251038337E+02  0.48596154832E+02  0.10566000000E+00 0. -1.
         22    1    1    0    0    0 -0.36167736103E+02  0.15384337573E+02  0.13228927949E+02  0.41470320858E+02  0.00000000000E+00 0. -1.
</event>
<event>
 5    1  0.1259474E-009  0.9118800E+02  0.7815553E-02  0.1125453E+00
         25   -1    0    0    0    0  0.00000000000E+00  0.00000000000E+00  0.99999998245E-14  0.12509000000E+03  0.12509000000E+03 0.  0.
        -13    1    3    3    0    0 -0.82203666047E+01  0.40125155443E+02  0.13422882748E+02  0.43102058788E+02  0.10566000000E+00 0. -1.
         23    2    1    0    0    0  0.17369359777E+02  0.10843969112E+02 -0.21521721226E+02  0.95383589754E+02  0.90639717479E+02 0.  0.
         13    1    3    3    0    0  0.25589726381E+02 -0.29281186331E+02 -0.34944603974E+02  0.52281530966E+02  0.10566000000E+00 0.  1.
         22    1    1    0    0    0 -0.17369359777E+02 -0.10843969112E+02  0.21521721226E+02  0.29706410246E+02  0.00000000000E+00 0.  1.
</event>
<event>
 5    1  0.1259474E-009  0.9118800E+02  0.7815553E-02  0.1125453E+00
         25   -1    0    0    0    0  0.00000000000E+00  0.00000000000E+00  0.99999998245E-14  0.12509000000E+03  0.12509000000E+03 0.  0.
        -13    1    3    3    0    0  0.17487536909E+02  0.24002257927E+02 -0.23029964376E+02  0.37580749806E+02  0.10566000000E+00 0.  1.
         23    2    1    0    0    0 -0.11749542416E+02 -0.24677795051E+02 -0.40181527197E+01  0.97464090660E+02  0.93466882378E+02 0.  0.
         13    1    3    3    0    0 -0.29237079325E+02 -0.48680052979E+02  0.19011811656E+02  0.59883340855E+02  0.10566000000E+00 0. -1.
         22    1    1    0    0    0  0.11749542416E+02  0.24677795051E+02  0.40181527197E+01  0.27625909340E+02  0.00000000000E+00 0. -1.
</event>
<event>
 5    1  0.1259474E-009  0.9118800E+02  0.7815553E-02  0.1125453E+00
         25   -1    0    0    0    0  0.00000000000E+00  0.00000000000E+00  0.99999998245E-14  0.12509000000E+03  0.12509000000E+03 0.  0.
        -13    1    3    3    0    0 -0.14581893273E+02 -0.27622664815E+01  0.55191433063E+02  0.57152140600E+02  0.10566000000E+00 0.  1.
         23    2    1    0    0    0  0.75600170611E+01 -0.12834114635E+02  0.25745315913E+02  0.95346267082E+02  0.90588194588E+02 0.  0.
         13    1    3    3    0    0  0.22141910334E+02 -0.10071848153E+02 -0.29446117151E+02  0.38194126482E+02  0.10566000000E+00 0. -1.
         22    1    1    0    0    0 -0.75600170611E+01  0.12834114635E+02 -0.25745315913E+02  0.29743732918E+02  0.00000000000E+00 0.  1.
</event>
<event>
 5    1  0.1259474E-009  0.9118800E+02  0.7815553E-02  0.1125453E+00
         25   -1    0    0    0    0  0.00000000000E+00  0.00000000000E+00  0.99999998245E-14  0.12509000000E+03  0.12509000000E+03 0.  0.
        -13    1    3    3    0    0  0.32197993726E+02 -0.26200066725E+02  0.11432512891E+01  0.41526768282E+02  0.10566000000E+00 0. -1.
         23    2    1    0    0    0  0.33790814099E+01  0.69672839440E+01 -0.29171409061E+02  0.94908344258E+02  0.89981450680E+02 0.  0.
         13    1    3    3    0    0 -0.28818912316E+02  0.33167350669E+02 -0.30314660350E+02  0.53381575976E+02  0.10566000000E+00 0.  1.
         22    1    1    0    0    0 -0.33790814099E+01 -0.69672839440E+01  0.29171409061E+02  0.30181655742E+02  0.00000000000E+00 0.  1.
</event>
<event>
 5    1  0.1259474E-009  0.9118800E+02  0.7815553E-02  0.1125453E+00
         25   -1    0    0    0    0  0.00000000000E+00  0.00000000000E+00  0.99999998245E-14  0.12509000000E+03  0.12509000000E+03 0.  0.
        -13    1    3    3    0    0 -0.15551802232E+02 -0.21398401862E+02 -0.38846082076E+02  0.46997653257E+02  0.10566000000E+00 0. -1.
         23    2    1    0    0    0  0.24108889893E+02 -0.87579018405E+01 -0.10420448310E+02  0.97403809227E+02  0.93386170777E+02 0.  0.
         13    1    3    3    0    0  0.39660692125E+02  0.12640500022E+02  0.28425633766E+02  0.50406155970E+02  0.10566000000E+00 0.  1.
         22    1    1    0    0    0 -0.24108889893E+02  0.87579018405E+01  0.10420448310E+02  0.27686190773E+02  0.00000000000E+00 0.  1.
</event>
<event>
 5    1  0.1259474E-009  0.9118800E+02  0.7815553E-02  0.1125453E+00
         25   -1    0    0    0    0  0.00000000000E+00  0.00000000000E+00  0.99999998245E-14  0.12509000000E+03  0.12509000000E+03 0.  0.
        -13    1    3    3    0    0  0.14075364312E+02  0.36010337498E+02  0.47460601062E+02  0.61215848475E+02  0.10566000000E+00 0.  1.
         23    2    1    0    0    0  0.99310726301E+01  0.22658063593E+02  0.16041133457E+02  0.95605563225E+02  0.90945542538E+02 0.  0.
         13    1    3    3    0    0 -0.41442916816E+01 -0.13352273905E+02 -0.31419467605E+02  0.34389714750E+02  0.10566000000E+00 0. -1.
         22    1    1    0    0    0 -0.99310726301E+01 -0.22658063593E+02 -0.16041133457E+02  0.29484436775E+02  0.00000000000E+00 0.  1.
</event>
<event>
 5    1  0.1259474E-009  0.9118800E+02  0.7815553E-02  0.1125453E+00
         25   -1    0    0    0    0  0.00000000000E+00  0.00000000000E+00  0.99999998245E-14  0.12509000000E+03  0.12509000000E+03 0.  0.
        -13    1    3    3    0    0  0.13176925988E+02 -0.30210161418E+02  0.12934932701E+02  0.35406339537E+02  0.10566000000E+00 0.  1.
         23    2    1    0    0    0 -0.15652434272E+02  0.23196808019E+02  0.57504934783E+01  0.96521507282E+02  0.92196760203E+02 0.  0.
         13    1    3    3    0    0 -0.28829360260E+02  0.53406969437E+02 -0.71844392231E+01  0.61115167745E+02  0.10566000000E+00 0. -1.
         22    1    1    0    0    0  0.15652434272E+02 -0.23196808019E+02 -0.57504934783E+01  0.28568492718E+02  0.00000000000E+00 0. -1.
</event>
<event>
 5    1  0.1259474E-009  0.9118800E+02  0.7815553E-02  0.1125453E+00
         25   -1    0    0    0    0  0.00000000000E+00  0.00000000000E+00  0.99999998245E-14  0.12509000000E+03  0.12509000000E+03 0.  0.
        -13    1    3    3    0    0 -0.32294423228E+02 -0.12914718283E+02 -0.34963921656E+02  0.49317407693E+02  0.10566000000E+00 0. -1.
         23    2    1    0    0    0  0.10830284419E+02 -0.18156358954E+02 -0.21828335748E+02  0.94702096607E+02  0.89694271998E+02 0.  0.
         13    1    3    3    0    0  0.43124707648E+02 -0.52416406718E+01  0.13135585908E+02  0.45384688914E+02  0.10566000000E+00 0.  1.
         22    1    1    0    0    0 -0.10830284419E+02  0.18156358954E+02  0.21828335748E+02  0.30387903393E+02  0.00000000000E+00 0. -1.
</event>
<event>
 5    1  0.1259474E-009  0.9118800E+02  0.7815553E-02  0.1125453E+00
         25   -1    0    0    0    0  0.00000000000E+00  0.00000000000E+00  0.99999998245E-14  0.12509000000E+03  0.12509000000E+03 0.  0.
        -13    1    3    3    0    0 -0.82918620083E+01  0.29443758308E+02  0.33541044845E+02  0.45394963732E+02  0.10566000000E+00 0.  1.
         23    2    1    0    0    0 -0.20897399174E+02  0.15199300493E+02 -0.13355569526E+02  0.96002352018E+02  0.91489673341E+02 0.  0.
         13    1    3    3    0    0 -0.12605537166E+02 -0.14244457815E+02 -0.46896614371E+02  0.50607388287E+02  0.10566000000E+00 0. -1.
         22    1    1    0    0    0  0.20897399174E+02 -0.15199300493E+02  0.13355569526E+02  0.29087647982E+02  0.00000000000E+00 0. -1.
</event>
<event>
 5    1  0.1259474E-009  0.9118800E+02  0.7815553E-02  0.1125453E+00
         25   -1    0    0    0    0  0.00000000000E+00  0.00000000000E+00  0.99999998245E-14  0.12509000000E+03  0.12509000000E+03 0.  0.
        -13    1    3    3    0    0 -0.50444829855E+02  0.55574937860E+01  0.32409394397E+02  0.60215833512E+02  0.10566000000E+00 0. -1.
         23    2    1    0    0    0 -0.26168101363E+02  0.10466012430E+02  0.62866760587E+01  0.96213898446E+02  0.91778456149E+02 0.  0.
         13    1    3    3    0    0  0.24276728492E+02  0.49085186435E+01 -0.26122718338E+02  0.35998064934E+02  0.10566000000E+00 0.  1.
         22    1    1    0    0    0  0.26168101363E+02 -0.10466012430E+02 -0.62866760587E+01  0.28876101554E+02  0.00000000000E+00 0. -1.
</event>
<event>
 5    1  0.1259474E-009  0.9118800E+02  0.7815553E-02  0.1125453E+00
         25   -1    0    0    0    0  0.00000000000E+00  0.00000000000E+00  0.99999998245E-14  0.12509000000E+03  0.12509000000E+03 0.  0.
        -13    1    3    3    0    0  0.14804223374E+02 -0.32676194316E+02 -0.25642692949E+02  0.44096004019E+02  0.10566000000E+00 0. -1.
         23    2    1    0    0    0  0.27090181703E+02  0.74011401011E+01  0.56975095958E+01  0.96434870702E+02  0.92079139072E+02 0.  0.
         13    1    3    3    0    0  0.12285958329E+02  0.40077334418E+02  0.31340202545E+02  0.52338866683E+02  0.10566000000E+00 0.  1.
         22    1    1    0    0    0 -0.27090181703E+02 -0.74011401011E+01 -0.56975095958E+01  0.28655129298E+02  0.00000000000E+00 0.  1.
</event>
<event>
 5    1  0.1259474E-009  0.9118800E+02  0.7815553E-02  0.1125453E+00
         25   -1    0    0    0    0  0.00000000000E+00  0.00000000000E+00  0.99999998245E-14  0.12509000000E+03  0.12509000000E+03 0.  0.
        -13    1    3    3    0    0  0.60704234858E+02  0.52174643118E+01  0.95005750711E+01  0.61664399407E+02  0.10566000000E+00 0. -1.
         23    2    1    0    0    0  0.27570208548E+02  0.76024285916E+01  0.97173678566E+01  0.94885024285E+02  0.89949025985E+02 0.  0.
         13    1    3    3    0    0 -0.33134026310E+02  0.23849642798E+01  0.21679278552E+00  0.33220624878E+02  0.10566000000E+00 0.  1.
         22    1    1    0    0    0 -0.27570208548E+02 -0.76024285916E+01 -0.97173678566E+01  0.30204975715E+02  0.00000000000E+00 0. -1.
</event>
<event>
 5    1  0.1259474E-009  0.9118800E+02  0.7815553E-02  0.1125453E+00
         25   -1    0    0    0    0  0.00000000000E+00  0.00000000000E+00  0.99999998245E-14  0.12509000000E+03  0.12509000000E+03 0.  0.
        -13    1    3    3    0    0 -0.23307818225E+02 -0.56287711927E+02 -0.11218758996E+02  0.61947014632E+02  0.10566000000E+00 0. -1.
         23    2    1    0    0    0 -0.13795329088E+02 -0.23470517625E+02 -0.98356661745E+01  0.96143210345E+02  0.91682060755E+02 0.  0.
         13    1    3    3    0    0  0.95124891370E+01  0.32817194302E+02  0.13830928211E+01  0.34196195713E+02  0.10566000000E+00 0.  1.
         22    1    1    0    0    0  0.13795329088E+02  0.23470517625E+02  0.98356661745E+01  0.28946789655E+02  0.00000000000E+00 0. -1.
</event>
<event>
 5    1  0.1259474E-009  0.9118800E+02  0.7815553E-02  0.1125453E+00
         25   -1    0    0    0    0  0.00000000000E+00  0.00000000000E+00  0.99999998245E-14  0.12509000000E+03  0.12509000000E+03 0.  0.
        -13    1    3    3    0    0 -0.11358835445E+02 -0.44846152205E+02  0.29469345881E+02  0.54851198902E+02  0.10566000000E+00 0. -1.
         23    2    1    0    0    0 -0.20034143926E+02 -0.70379777741E+01  0.22296858846E+02  0.94299579925E+02  0.89131143858E+02 0.  0.
         13    1    3    3    0    0 -0.86753084815E+01  0.37808174431E+02 -0.71724870346E+01  0.39448381023E+02  0.10566000000E+00 0.  1.
         22    1    1    0    0    0  0.20034143926E+02  0.70379777741E+01 -0.22296858846E+02  0.30790420075E+02  0.00000000000E+00 0. -1.
</event>
<event>
 5    1  0.1259474E-009  0.9118800E+02  0.7815553E-02  0.1125453E+00
         25   -1    0    0    0    0  0.00000000000E+00  0.00000000000E+00  0.99999998245E-14  0.12509000000E+03  0.12509000000E+03 0.  0.
        -13    1    3    3    0    0  0.20913915212E+02 -0.30509715994E+02  0.23427083365E+02  0.43784403827E+02  0.10566000000E+00 0.  1.
         23    2    1    0    0    0  0.34519659917E+02  0.83175588932E+01  0.17992345499E+02  0.85284055679E+02  0.75424511598E+02 0.  0.
         13    1    3    3    0    0  0.13605744705E+02  0.38827274887E+02 -0.54347378662E+01  0.41499651852E+02  0.10566000000E+00 0. -1.
         22    1    1    0    0    0 -0.34519659917E+02 -0.83175588932E+01 -0.17992345499E+02  0.39805944321E+02  0.00000000000E+00 0. -1.
</event>
<event>
 5    1  0.1259474E-009  0.9118800E+02  0.7815553E-02  0.1125453E+00
         25   -1    0    0    0    0  0.00000000000E+00  0.00000000000E+00  0.99999998245E-14  0.12509000000E+03  0.12509000000E+03 0.  0.
        -13    1    3    3    0    0  0.59009084360E+01  0.40834176340E+02  0.42462441820E+02  0.59205749781E+02  0.10566000000E+00 0. -1.
         23    2    1    0    0    0  0.54175019821E+01  0.66290414029E+01  0.27034165515E+02  0.96732644292E+02  0.92482781365E+02 0.  0.
         13    1    3    3    0    0 -0.48340645393E+00 -0.34205134937E+02 -0.15428276305E+02  0.37526894511E+02  0.10566000000E+00 0.  1.
         22    1    1    0    0    0 -0.54175019821E+01 -0.66290414029E+01 -0.27034165515E+02  0.28357355708E+02  0.00000000000E+00 0. -1.
</event>
<event>
 5    1  0.1259474E-009  0.9118800E+02  0.7815553E-02  0.1125453E+00
         25   -1    0    0    0    0  0.00000000000E+00  0.00000000000E+00  0.99999998245E-14  0.12509000000E+03  0.12509000000E+03 0.  0.
        -13    1    3    3    0    0  0.79080713530E+01  0.36069464505E+02  0.18671046200E+02  0.41378291319E+02  0.10566000000E+00 0. -1.
         23    2    1    0    0    0 -0.21963783487E+02  0.16474192869E+02 -0.17750348094E+02  0.92396244125E+02  0.86418656869E+02 0.  0.
         13    1    3    3    0    0 -0.29871854840E+02 -0.19595271636E+02 -0.36421394294E+02  0.51017952806E+02  0.10566000000E+00 0.  1.
         22    1    1    0    0    0  0.21963783487E+02 -0.16474192869E+02  0.17750348094E+02  0.32693755875E+02  0.00000000000E+00 0.  1.
</event>
<event>
 5    1  0.1259474E-009  0.9118800E+02  0.7815553E-02  0.1125453E+00
         25   -1    0    0    0    0  0.00000000000E+00  0.00000000000E+00  0.99999998245E-14  0.12509000000E+03  0.12509000000E+03 0.  0.
        -13    1    3    3    0    0  0.32373786402E+02  0.32881844724E+01 -0.20781789737E+02  0.38610466869E+02  0.10566000000E+00 0.  1.
         23    2    1    0    0    0 -0.23578618643E+02 -0.97402166168E+01 -0.12591279201E+02  0.96640687376E+02  0.92358318888E+02 0.  0.
         13    1    3    3    0    0 -0.55952405045E+02 -0.13028401089E+02  0.81905105362E+01  0.58030220507E+02  0.10566000000E+00 0. -1.
         22    1    1    0    0    0  0.23578618643E+02  0.97402166168E+01  0.12591279201E+02  0.28449312624E+02  0.00000000000E+00 0. -1.
</event>
<event>
 4    1  0.1259474E-009  0.9118800E+02  0.7815553E-02  0.1125453E+00
         25   -1    0    0    0    0  0.00000000000E+00  0.00000000000E+00  0.99999998245E-14  0.12509000000E+03  0.12509000000E+03 0.  0.
        -13    1    1    0    0    0 -0.24862083717E+02  0.39907483189E+02 -0.21347903374E+01  0.47066962033E+02  0.10566000000E+00 0.  1.
         13    1    1    0    0    0  0.38753658911E+01  0.15385963488E+02  0.93903837652E+01  0.18437375207E+02  0.10566000000E+00 0. -1.
         22    1    1    0    0    0  0.20986717826E+02 -0.55293446677E+02 -0.72555934278E+01  0.59585662759E+02  0.00000000000E+00 0. -1.
</event>
<event>
 5    1  0.1259474E-009  0.9118800E+02  0.7815553E-02  0.1125453E+00
         25   -1    0    0    0    0  0.00000000000E+00  0.00000000000E+00  0.99999998245E-14  0.12509000000E+03  0.12509000000E+03 0.  0.
        -13    1    3    3    0    0  0.13359764500E+02  0.36412866974E+02 -0.29380088973E+01  0.38897599529E+02  0.10566000000E+00 0.  1.
         23    2    1    0    0    0  0.81203312601E+01 -0.23133283711E+02  0.72222925751E+01  0.99531242106E+02  0.96193648699E+02 0.  0.
         13    1    3    3    0    0 -0.52394332397E+01 -0.59546150686E+02  0.10160301472E+02  0.60633642577E+02  0.10566000000E+00 0. -1.
         22    1    1    0    0    0 -0.81203312601E+01  0.23133283711E+02 -0.72222925751E+01  0.25558757894E+02  0.00000000000E+00 0. -1.
</event>
<event>
 5    1  0.1259474E-009  0.9118800E+02  0.7815553E-02  0.1125453E+00
         25   -1    0    0    0    0  0.00000000000E+00  0.00000000000E+00  0.99999998245E-14  0.12509000000E+03  0.12509000000E+03 0.  0.
        -13    1    3    3    0    0  0.40520264666E+01 -0.16466625995E+02  0.37458694401E+02  0.41118531593E+02  0.10566000000E+00 0. -1.
         23    2    1    0    0    0  0.53475555449E+01 -0.23547768120E+02 -0.16685120438E+02  0.95738901592E+02  0.91128756714E+02 0.  0.
         13    1    3    3    0    0  0.12955290783E+01 -0.70811421250E+01 -0.54143814839E+02  0.54620369998E+02  0.10566000000E+00 0.  1.
         22    1    1    0    0    0 -0.53475555449E+01  0.23547768120E+02  0.16685120438E+02  0.29351098408E+02  0.00000000000E+00 0.  1.
</event>
<event>
 5    1  0.1259474E-009  0.9118800E+02  0.7815553E-02  0.1125453E+00
         25   -1    0    0    0    0  0.00000000000E+00  0.00000000000E+00  0.99999998245E-14  0.12509000000E+03  0.12509000000E+03 0.  0.
        -13    1    3    3    0    0  0.21599055221E+02  0.28725019870E+02  0.14000770681E+01  0.35966892176E+02  0.10566000000E+00 0. -1.
         23    2    1    0    0    0  0.47612098299E+01 -0.20350284224E+02 -0.23605450183E+02  0.93561909899E+02  0.88089786687E+02 0.  0.
         13    1    3    3    0    0 -0.16837845391E+02 -0.49075304094E+02 -0.25005527251E+02  0.57595017723E+02  0.10566000000E+00 0.  1.
         22    1    1    0    0    0 -0.47612098299E+01  0.20350284224E+02  0.23605450183E+02  0.31528090101E+02  0.00000000000E+00 0.  1.
</event>
<event>
 5    1  0.1259474E-009  0.9118800E+02  0.7815553E-02  0.1125453E+00
         25   -1    0    0    0    0  0.00000000000E+00  0.00000000000E+00  0.99999998245E-14  0.12509000000E+03  0.12509000000E+03 0.  0.
        -13    1    3    3    0    0 -0.38788632204E+02  0.34213612561E+02  0.13653535779E+02  0.53493546115E+02  0.10566000000E+00 0.  1.
         23    2    1    0    0    0 -0.26877153552E+02 -0.53233403610E+01  0.12931824120E+02  0.94792287038E+02  0.89819965882E+02 0.  0.
         13    1    3    3    0    0  0.11911478651E+02 -0.39536952922E+02 -0.72171165917E+00  0.41298740922E+02  0.10566000000E+00 0. -1.
         22    1    1    0    0    0  0.26877153552E+02  0.53233403610E+01 -0.12931824120E+02  0.30297712962E+02  0.00000000000E+00 0.  1.
</event>
<event>
 5    1  0.1259474E-009  0.9118800E+02  0.7815553E-02  0.1125453E+00
         25   -1    0    0    0    0  0.00000000000E+00  0.00000000000E+00  0.99999998245E-14  0.12509000000E+03  0.12509000000E+03 0.  0.
        -13    1    3    3    0    0 -0.13754045578E+01 -0.16582290573E+02 -0.52129269372E+02  0.54720526200E+02  0.10566000000E+00 0. -1.
         23    2    1    0    0    0  0.81614200223E+01 -0.25403365410E+02 -0.14092081674E+02  0.94915068073E+02  0.89990797476E+02 0.  0.
         13    1    3    3    0    0  0.95368245801E+01 -0.88210748369E+01  0.38037187698E+02  0.40194541872E+02  0.10566000000E+00 0.  1.
         22    1    1    0    0    0 -0.81614200223E+01  0.25403365410E+02  0.14092081674E+02  0.30174931927E+02  0.00000000000E+00 0. -1.
</event>
<event>
 5    1  0.1259474E-009  0.9118800E+02  0.7815553E-02  0.1125453E+00
         25   -1    0    0    0    0  0.00000000000E+00  0.00000000000E+00  0.99999998245E-14  0.12509000000E+03  0.12509000000E+03 0.  0.
        -13    1    3    3    0    0  0.94334986477E+01  0.41145383654E+02  0.15973223017E+02  0.45134116922E+02  0.10566000000E+00 0.  1.
         23    2    1    0    0    0  0.27338596826E+02  0.93642391592E+01 -0.14584773603E+02  0.92720207407E+02  0.86886324523E+02 0.  0.
         13    1    3    3    0    0  0.17905098178E+02 -0.31781144494E+02 -0.30557996621E+02  0.47586090485E+02  0.10566000000E+00 0. -1.
         22    1    1    0    0    0 -0.27338596826E+02 -0.93642391592E+01  0.14584773603E+02  0.32369792593E+02  0.00000000000E+00 0. -1.
</event>
<event>
 5    1  0.1259474E-009  0.9118800E+02  0.7815553E-02  0.1125453E+00
         25   -1    0    0    0    0  0.00000000000E+00  0.00000000000E+00  0.99999998245E-14  0.12509000000E+03  0.12509000000E+03 0.  0.
        -13    1    3    3    0    0  0.94108378031E+01  0.17425876265E+02 -0.31296756351E+02  0.37036781095E+02  0.10566000000E+00 0. -1.
         23    2    1    0    0    0 -0.16482625966E+02  0.10619947602E+02  0.21351349110E+02  0.96101375427E+02  0.91624963871E+02 0.  0.
         13    1    3    3    0    0 -0.25893463769E+02 -0.68059286631E+01  0.52648105461E+02  0.59064594332E+02  0.10566000000E+00 0.  1.
         22    1    1    0    0    0  0.16482625966E+02 -0.10619947602E+02 -0.21351349110E+02  0.28988624573E+02  0.00000000000E+00 0.  1.
</event>
<event>
 5    1  0.1259474E-009  0.9118800E+02  0.7815553E-02  0.1125453E+00
         25   -1    0    0    0    0  0.00000000000E+00  0.00000000000E+00  0.99999998245E-14  0.12509000000E+03  0.12509000000E+03 0.  0.
        -13    1    3    3    0    0 -0.54059593291E+02  0.13384094416E+02  0.71500150502E+01  0.56148975853E+02  0.10566000000E+00 0. -1.
         23    2    1    0    0    0 -0.24267270732E+02  0.38098336910E+01 -0.16607172474E+02  0.95438466496E+02  0.90715420123E+02 0.  0.
         13    1    3    3    0    0  0.29792322559E+02 -0.95742607253E+01 -0.23757187524E+02  0.39289490643E+02  0.10566000000E+00 0.  1.
         22    1    1    0    0    0  0.24267270732E+02 -0.38098336910E+01  0.16607172474E+02  0.29651533504E+02  0.00000000000E+00 0. -1.
</event>
<event>
 5    1  0.1259474E-009  0.9118800E+02  0.7815553E-02  0.1125453E+00
         25   -1    0    0    0    0  0.00000000000E+00  0.00000000000E+00  0.99999998245E-14  0.12509000000E+03  0.12509000000E+03 0.  0.
        -13    1    3    3    0    0  0.17864383543E+02 -0.42424902068E+02  0.41650291525E+02  0.62078711834E+02  0.10566000000E+00 0.  1.
         23    2    1    0    0    0  0.10696846375E+02 -0.17321078749E+02  0.24127936686E+02  0.93521033908E+02  0.88031722482E+02 0.  0.
         13    1    3    3    0    0 -0.71675371677E+01  0.25103823319E+02 -0.17522354839E+02  0.31442322074E+02  0.10566000000E+00 0. -1.
         22    1    1    0    0    0 -0.10696846375E+02  0.17321078749E+02 -0.24127936686E+02  0.31568966092E+02  0.00000000000E+00 0.  1.
</event>
<event>
 5    1  0.1259474E-009  0.9118800E+02  0.7815553E-02  0.1125453E+00
         25   -1    0    0    0    0  0.00000000000E+00  0.00000000000E+00  0.99999998245E-14  0.12509000000E+03  0.12509000000E+03 0.  0.
        -13    1    3    3    0    0 -0.28478107943E+02  0.33567794018E+02  0.40680602376E+02  0.59939319323E+02  0.10566000000E+00 0.  1.
         23    2    1    0    0    0 -0.17352041076E+02  0.55274686172E+01  0.25620117822E+02  0.93656949304E+02  0.88224642118E+02 0.  0.
         13    1    3    3    0    0  0.11126066867E+02 -0.28040325401E+02 -0.15060484553E+02  0.33717629981E+02  0.10566000000E+00 0. -1.
         22    1    1    0    0    0  0.17352041076E+02 -0.55274686172E+01 -0.25620117822E+02  0.31433050696E+02  0.00000000000E+00 0.  1.
</event>
<event>
 5    1  0.1259474E-009  0.9118800E+02  0.7815553E-02  0.1125453E+00
         25   -1    0    0    0    0  0.00000000000E+00  0.00000000000E+00  0.99999998245E-14  0.12509000000E+03  0.12509000000E+03 0.  0.
        -13    1    3    3    0    0 -0.29616428676E+02  0.46237102305E+01 -0.17203022310E+02  0.34561057340E+02  0.10566000000E+00 0. -1.
         23    2    1    0    0    0  0.28361698683E+02  0.34799172509E+00  0.40060396418E+01  0.96444661740E+02  0.92092439289E+02 0.  0.
         13    1    3    3    0    0  0.57978127358E+02 -0.42757185054E+01  0.21209061951E+02  0.61883604401E+02  0.10566000000E+00 0.  1.
         22    1    1    0    0    0 -0.28361698683E+02 -0.34799172509E+00 -0.40060396418E+01  0.28645338260E+02  0.00000000000E+00 0.  1.
</event>
<event>
 5    1  0.1259474E-009  0.9118800E+02  0.7815553E-02  0.1125453E+00
         25   -1    0    0    0    0  0.00000000000E+00  0.00000000000E+00  0.99999998245E-14  0.12509000000E+03  0.12509000000E+03 0.  0.
        -13    1    3    3    0    0 -0.54235138025E+02  0.22128254980E+02  0.10078978607E+02  0.59436578290E+02  0.10566000000E+00 0. -1.
         23    2    1    0    0    0 -0.18788066972E+02  0.21960740093E+02  0.38241660302E+00  0.96186508715E+02  0.91741117556E+02 0.  0.
         13    1    3    3    0    0  0.35447071053E+02 -0.16751488647E+00 -0.96965620041E+01  0.36749930425E+02  0.10566000000E+00 0.  1.
         22    1    1    0    0    0  0.18788066972E+02 -0.21960740093E+02 -0.38241660302E+00  0.28903491285E+02  0.00000000000E+00 0. -1.
</event>
<event>
 5    1  0.1259474E-009  0.9118800E+02  0.7815553E-02  0.1125453E+00
         25   -1    0    0    0    0  0.00000000000E+00  0.00000000000E+00  0.99999998245E-14  0.12509000000E+03  0.12509000000E+03 0.  0.
        -13    1    3    3    0    0  0.43144439903E+02  0.72027351781E+01 -0.19416679579E+02  0.47857504098E+02  0.10566000000E+00 0.  1.
         23    2    1    0    0    0 -0.54099513225E+01  0.11893632268E+02 -0.24924734579E+02  0.96948065886E+02  0.92773697908E+02 0.  0.
         13    1    3    3    0    0 -0.48554391225E+02  0.46908970902E+01 -0.55080550001E+01  0.49090561788E+02  0.10566000000E+00 0. -1.
         22    1    1    0    0    0  0.54099513225E+01 -0.11893632268E+02  0.24924734579E+02  0.28141934114E+02  0.00000000000E+00 0. -1.
</event>
<event>
 5    1  0.1259474E-009  0.9118800E+02  0.7815553E-02  0.1125453E+00
         25   -1    0    0    0    0  0.00000000000E+00  0.00000000000E+00  0.99999998245E-14  0.12509000000E+03  0.12509000000E+03 0.  0.
        -13    1    3    3    0    0 -0.28365498255E+02 -0.54867917840E+02  0.55041544960E+01  0.62011263333E+02  0.10566000000E+00 0. -1.
         23    2    1    0    0    0 -0.98970156445E+01 -0.26791318846E+02  0.71147506852E+01  0.95656254715E+02  0.91015238860E+02 0.  0.
         13    1    3    3    0    0  0.18468482610E+02  0.28076598994E+02  0.16105961892E+01  0.33644991383E+02  0.10566000000E+00 0.  1.
         22    1    1    0    0    0  0.98970156445E+01  0.26791318846E+02 -0.71147506852E+01  0.29433745285E+02  0.00000000000E+00 0. -1.
</event>
<event>
 5    1  0.1259474E-009  0.9118800E+02  0.7815553E-02  0.1125453E+00
         25   -1    0    0    0    0  0.00000000000E+00  0.00000000000E+00  0.99999998245E-14  0.12509000000E+03  0.12509000000E+03 0.  0.
        -13    1    3    3    0    0 -0.28146988214E+02  0.80871005150E+01  0.30477435049E+02  0.42267473919E+02  0.10566000000E+00 0.  1.
         23    2    1    0    0    0  0.19979665640E+02  0.18983129478E+02  0.88472147656E+01  0.96144888963E+02  0.91684351013E+02 0.  0.
         13    1    3    3    0    0  0.48126653854E+02  0.10896028963E+02 -0.21630220283E+02  0.53877415044E+02  0.10566000000E+00 0. -1.
         22    1    1    0    0    0 -0.19979665640E+02 -0.18983129478E+02 -0.88472147656E+01  0.28945111037E+02  0.00000000000E+00 0.  1.
</event>
<event>
 5    1  0.1259474E-009  0.9118800E+02  0.7815553E-02  0.1125453E+00
         25   -1    0    0    0    0  0.00000000000E+00  0.00000000000E+00  0.99999998245E-14  0.12509000000E+03  0.12509000000E+03 0.  0.
        -13    1    3    3    0    0 -0.25368848229E+02 -0.13140804034E+02  0.55214390354E+02  0.62168313934E+02  0.10566000000E+00 0. -1.
         23    2    1    0    0    0 -0.84653983391E+01 -0.86840982442E+01  0.28767925773E+02  0.93870293329E+02  0.88526616817E+02 0.  0.
         13    1    3    3    0    0  0.16903449890E+02  0.44567057901E+01 -0.26446464581E+02  0.31701979395E+02  0.10566000000E+00 0.  1.
         22    1    1    0    0    0  0.84653983391E+01  0.86840982442E+01 -0.28767925773E+02  0.31219706671E+02  0.00000000000E+00 0. -1.
</event>
<event>
 5    1  0.1259474E-009  0.9118800E+02  0.7815553E-02  0.1125453E+00
         25   -1    0    0    0    0  0.00000000000E+00  0.00000000000E+00  0.99999998245E-14  0.12509000000E+03  0.12509000000E+03 0.  0.
        -13    1    3    3    0    0 -0.29318284723E+02 -0.43974741832E+02 -0.31953753349E+02  0.61760774408E+02  0.10566000000E+00 0.  1.
         23    2    1    0    0    0 -0.13585172664E+02 -0.16583155243E+02 -0.20688032320E+02  0.95298178381E+02  0.90521766262E+02 0.  0.
         13    1    3    3    0    0  0.15733112060E+02  0.27391586589E+02  0.11265721029E+02  0.33537403973E+02  0.10566000000E+00 0. -1.
         22    1    1    0    0    0  0.13585172664E+02  0.16583155243E+02  0.20688032320E+02  0.29791821619E+02  0.00000000000E+00 0.  1.
</event>
<event>
 5    1  0.1259474E-009  0.9118800E+02  0.7815553E-02  0.1125453E+00
         25   -1    0    0    0    0  0.00000000000E+00  0.00000000000E+00  0.99999998245E-14  0.12509000000E+03  0.12509000000E+03 0.  0.
        -13    1    3    3    0    0  0.41992603426E+01  0.31401852614E+02 -0.17765378355E+02  0.36322582055E+02  0.10566000000E+00 0.  1.
         23    2    1    0    0    0  0.54796310328E+01 -0.27500381277E+02 -0.49777701828E+01  0.96610612320E+02  0.92317576281E+02 0.  0.
         13    1    3    3    0    0  0.12803706903E+01 -0.58902233891E+02  0.12787608173E+02  0.60288030265E+02  0.10566000000E+00 0. -1.
         22    1    1    0    0    0 -0.54796310328E+01  0.27500381277E+02  0.49777701828E+01  0.28479387680E+02  0.00000000000E+00 0. -1.
</event>
<event>
 5    1  0.1259474E-009  0.9118800E+02  0.7815553E-02  0.1125453E+00
         25   -1    0    0    0    0  0.00000000000E+00  0.00000000000E+00  0.99999998245E-14  0.12509000000E+03  0.12509000000E+03 0.  0.
        -13    1    3    3    0    0 -0.54349114163E+02  0.82550679140E+01  0.63486223372E+01  0.55337948337E+02  0.10566000000E+00 0. -1.
         23    2    1    0    0    0 -0.23198545755E+02  0.41234643106E+01 -0.18284323090E+02  0.95265648307E+02  0.90476802515E+02 0.  0.
         13    1    3    3    0    0  0.31150568407E+02 -0.41316036034E+01 -0.24632945427E+02  0.39927699970E+02  0.10566000000E+00 0.  1.
         22    1    1    0    0    0  0.23198545755E+02 -0.41234643106E+01  0.18284323090E+02  0.29824351693E+02  0.00000000000E+00 0. -1.
</event>
<event>
 5    1  0.1259474E-009  0.9118800E+02  0.7815553E-02  0.1125453E+00
         25   -1    0    0    0    0  0.00000000000E+00  0.00000000000E+00  0.99999998245E-14  0.12509000000E+03  0.12509000000E+03 0.  0.
        -13    1    3    3    0    0  0.39181887801E+01  0.10609394567E+02  0.33337466861E+02  0.35203825320E+02  0.10566000000E+00 0. -1.
         23    2    1    0    0    0  0.20899602402E+02 -0.65564085216E+00 -0.22338525099E+02  0.94492076065E+02  0.89400891998E+02 0.  0.
         13    1    3    3    0    0  0.16981413622E+02 -0.11265035419E+02 -0.55675991961E+02  0.59288250745E+02  0.10566000000E+00 0.  1.
         22    1    1    0    0    0 -0.20899602402E+02  0.65564085216E+00  0.22338525099E+02  0.30597923935E+02  0.00000000000E+00 0.  1.
</event>
<event>
 5    1  0.1259474E-009  0.9118800E+02  0.7815553E-02  0.1125453E+00
         25   -1    0    0    0    0  0.00000000000E+00  0.00000000000E+00  0.99999998245E-14  0.12509000000E+03  0.12509000000E+03 0.  0.
        -13    1    3    3    0    0 -0.31889737793E+02 -0.40500673132E+02 -0.67372356183E+01  0.51987127334E+02  0.10566000000E+00 0.  1.
         23    2    1    0    0    0 -0.93044604649E+01 -0.15663762978E+02  0.22244325831E+02  0.96336974301E+02  0.91946050109E+02 0.  0.
         13    1    3    3    0    0  0.22585277328E+02  0.24836910153E+02  0.28981561449E+02  0.44349846967E+02  0.10566000000E+00 0. -1.
         22    1    1    0    0    0  0.93044604649E+01  0.15663762978E+02 -0.22244325831E+02  0.28753025699E+02  0.00000000000E+00 0. -1.
</event>
<event>
 5    1  0.1259474E-009  0.9118800E+02  0.7815553E-02  0.1125453E+00
         25   -1    0    0    0    0  0.00000000000E+00  0.00000000000E+00  0.99999998245E-14  0.12509000000E+03  0.12509000000E+03 0.  0.
        -13    1    3    3    0    0 -0.91441933206E+01  0.73467518046E+01 -0.37364012121E+02  0.39162119444E+02  0.10566000000E+00 0.  1.
         23    2    1    0    0    0 -0.33031896833E+01 -0.26919534715E+02  0.84610118993E+01  0.96679418631E+02  0.92410761566E+02 0.  0.
         13    1    3    3    0    0  0.58410036373E+01 -0.34266286519E+02  0.45825024020E+02  0.57517299187E+02  0.10566000000E+00 0. -1.
         22    1    1    0    0    0  0.33031896833E+01  0.26919534715E+02 -0.84610118993E+01  0.28410581369E+02  0.00000000000E+00 0. -1.
</event>
<event>
 5    1  0.1259474E-009  0.9118800E+02  0.7815553E-02  0.1125453E+00
         25   -1    0    0    0    0  0.00000000000E+00  0.00000000000E+00  0.99999998245E-14  0.12509000000E+03  0.12509000000E+03 0.  0.
        -13    1    3    3    0    0  0.36817077748E+02  0.24746178296E+02  0.28442949679E+02  0.52696139371E+02  0.10566000000E+00 0. -1.
         23    2    1    0    0    0  0.28107709759E+02 -0.85938385366E+01  0.29698480201E+01  0.95548209162E+02  0.90866621309E+02 0.  0.
         13    1    3    3    0    0 -0.87093679890E+01 -0.33340016833E+02 -0.25473101659E+02  0.42852069791E+02  0.10566000000E+00 0.  1.
         22    1    1    0    0    0 -0.28107709759E+02  0.85938385366E+01 -0.29698480201E+01  0.29541790838E+02  0.00000000000E+00 0. -1.
</event>
<event>
 5    1  0.1259474E-009  0.9118800E+02  0.7815553E-02  0.1125453E+00
         25   -1    0    0    0    0  0.00000000000E+00  0.00000000000E+00  0.99999998245E-14  0.12509000000E+03  0.12509000000E+03 0.  0.
        -13    1    3    3    0    0  0.22134761841E+02 -0.33821575753E+02  0.38856988333E+02  0.56068916296E+02  0.10566000000E+00 0.  1.
         23    2    1    0    0    0  0.22451271906E+02  0.20687608744E+00  0.20255491104E+02  0.94851161931E+02  0.89901922070E+02 0.  0.
         13    1    3    3    0    0  0.31651006449E+00  0.34028451841E+02 -0.18601497230E+02  0.38782245635E+02  0.10566000000E+00 0. -1.
         22    1    1    0    0    0 -0.22451271906E+02 -0.20687608744E+00 -0.20255491104E+02  0.30238838069E+02  0.00000000000E+00 0.  1.
</event>
<event>
 5    1  0.1259474E-009  0.9118800E+02  0.7815553E-02  0.1125453E+00
         25   -1    0    0    0    0  0.00000000000E+00  0.00000000000E+00  0.99999998245E-14  0.12509000000E+03  0.12509000000E+03 0.  0.
        -13    1    3    3    0    0 -0.25495848757E+02 -0.44844442735E+02  0.14387254577E+02  0.53554333217E+02  0.10566000000E+00 0. -1.
         23    2    1    0    0    0 -0.16681721661E+02 -0.43842446895E+01  0.23485360327E+02  0.95951304272E+02  0.91419851250E+02 0.  0.
         13    1    3    3    0    0  0.88141270962E+01  0.40460198045E+02  0.90981057500E+01  0.42396971054E+02  0.10566000000E+00 0.  1.
         22    1    1    0    0    0  0.16681721661E+02  0.43842446895E+01 -0.23485360327E+02  0.29138695728E+02  0.00000000000E+00 0.  1.
</event>
<event>
 5    1  0.1259474E-009  0.9118800E+02  0.7815553E-02  0.1125453E+00
         25   -1    0    0    0    0  0.00000000000E+00  0.00000000000E+00  0.99999998245E-14  0.12509000000E+03  0.12509000000E+03 0.  0.
        -13    1    3    3    0    0  0.52185230809E+02 -0.28196522239E+02 -0.10806718255E+02  0.60292109802E+02  0.10566000000E+00 0.  1.
         23    2    1    0    0    0  0.20647992368E+02 -0.22979621780E+02 -0.11110192104E+02  0.92259541968E+02  0.86220555030E+02 0.  0.
         13    1    3    3    0    0 -0.31537238441E+02  0.52169004589E+01 -0.30347384930E+00  0.31967432166E+02  0.10566000000E+00 0. -1.
         22    1    1    0    0    0 -0.20647992368E+02  0.22979621780E+02  0.11110192104E+02  0.32830458032E+02  0.00000000000E+00 0.  1.
</event>
<event>
 5    1  0.1259474E-009  0.9118800E+02  0.7815553E-02  0.1125453E+00
         25   -1    0    0    0    0  0.00000000000E+00  0.00000000000E+00  0.99999998245E-14  0.12509000000E+03  0.12509000000E+03 0.  0.
        -13    1    3    3    0    0  0.14098273141E+01  0.30909001059E+02 -0.47284962853E+02  0.56508696991E+02  0.10566000000E+00 0. -1.
         23    2    1    0    0    0  0.78749169814E+01 -0.47182934268E+01 -0.23576571486E+02  0.99789183149E+02  0.96528491857E+02 0.  0.
         13    1    3    3    0    0  0.64650896673E+01 -0.35627294486E+02  0.23708391367E+02  0.43280486158E+02  0.10566000000E+00 0.  1.
         22    1    1    0    0    0 -0.78749169814E+01  0.47182934268E+01  0.23576571486E+02  0.25300816851E+02  0.00000000000E+00 0. -1.
</event>
<event>
 5    1  0.1259474E-009  0.9118800E+02  0.7815553E-02  0.1125453E+00
         25   -1    0    0    0    0  0.00000000000E+00  0.00000000000E+00  0.99999998245E-14  0.12509000000E+03  0.12509000000E+03 0.  0.
        -13    1    3    3    0    0  0.55865405894E+02  0.18823792396E+02 -0.14279620228E+01  0.58968881416E+02  0.10566000000E+00 0.  1.
         23    2    1    0    0    0  0.19417785102E+02  0.19564046893E+02  0.75436153040E+01  0.96511888779E+02  0.92183709162E+02 0.  0.
         13    1    3    3    0    0 -0.36447620792E+02  0.74025449719E+00  0.89715773268E+01  0.37543007364E+02  0.10566000000E+00 0. -1.
         22    1    1    0    0    0 -0.19417785102E+02 -0.19564046893E+02 -0.75436153040E+01  0.28578111221E+02  0.00000000000E+00 0. -1.
</event>
<event>
 5    1  0.1259474E-009  0.9118800E+02  0.7815553E-02  0.1125453E+00
         25   -1    0    0    0    0  0.00000000000E+00  0.00000000000E+00  0.99999998245E-14  0.12509000000E+03  0.12509000000E+03 0.  0.
        -13    1    3    3    0    0  0.17190794439E+02  0.40889378632E+02  0.64743732973E+01  0.44826257618E+02  0.10566000000E+00 0.  1.
         23    2    1    0    0    0 -0.11408818512E+02  0.16830402273E+02 -0.24418133657E+02  0.93314713505E+02  0.87738058588E+02 0.  0.
         13    1    3    3    0    0 -0.28599612951E+02 -0.24058976359E+02 -0.30892506954E+02  0.48488455888E+02  0.10566000000E+00 0. -1.
         22    1    1    0    0    0  0.11408818512E+02 -0.16830402273E+02  0.24418133657E+02  0.31775286495E+02  0.00000000000E+00 0.  1.
</event>
<event>
 5    1  0.1259474E-009  0.9118800E+02  0.7815553E-02  0.1125453E+00
         25   -1    0    0    0    0  0.00000000000E+00  0.00000000000E+00  0.99999998245E-14  0.12509000000E+03  0.12509000000E+03 0.  0.
        -13    1    3    3    0    0  0.14235714111E+02  0.82095307737E+01  0.57530646026E+02  0.59831750333E+02  0.10566000000E+00 0. -1.
         23    2    1    0    0    0  0.15565458868E+02 -0.53591961531E+01  0.24423006108E+02  0.95636855507E+02  0.90988572968E+02 0.  0.
         13    1    3    3    0    0  0.13297447569E+01 -0.13568726927E+02 -0.33107639918E+02  0.35805105174E+02  0.10566000000E+00 0.  1.
         22    1    1    0    0    0 -0.15565458868E+02  0.53591961531E+01 -0.24423006108E+02  0.29453144493E+02  0.00000000000E+00 0. -1.
</event>
<event>
 5    1  0.1259474E-009  0.9118800E+02  0.7815553E-02  0.1125453E+00
         25   -1    0    0    0    0  0.00000000000E+00  0.00000000000E+00  0.99999998245E-14  0.12509000000E+03  0.12509000000E+03 0.  0.
        -13    1    3    3    0    0  0.15657094056E+02  0.11726314463E+02  0.41621805603E+02  0.45989530448E+02  0.10566000000E+00 0. -1.
         23    2    1    0    0    0 -0.95973401960E+01 -0.21330875225E+02  0.25183088006E+02  0.90719909831E+02  0.83957125615E+02 0.  0.
         13    1    3    3    0    0 -0.25254434252E+02 -0.33057189688E+02 -0.16438717597E+02  0.44730379383E+02  0.10566000000E+00 0.  1.
         22    1    1    0    0    0  0.95973401960E+01  0.21330875225E+02 -0.25183088006E+02  0.34370090169E+02  0.00000000000E+00 0.  1.
</event>
<event>
 5    1  0.1259474E-009  0.9118800E+02  0.7815553E-02  0.1125453E+00
         25   -1    0    0    0    0  0.00000000000E+00  0.00000000000E+00  0.99999998245E-14  0.12509000000E+03  0.12509000000E+03 0.  0.
        -13    1    3    3    0    0  0.33886135545E+02 -0.11482746367E+02  0.71623178536E+01  0.36488814825E+02  0.10566000000E+00 0.  1.
         23    2    1    0    0    0 -0.16763027783E+02  0.10007347925E+02  0.24116715932E+02  0.94061592044E+02  0.88796514557E+02 0.  0.
         13    1    3    3    0    0 -0.50649163327E+02  0.21490094292E+02  0.16954398079E+02  0.57572777219E+02  0.10566000000E+00 0. -1.
         22    1    1    0    0    0  0.16763027783E+02 -0.10007347925E+02 -0.24116715932E+02  0.31028407956E+02  0.00000000000E+00 0. -1.
</event>
<event>
 5    1  0.1259474E-009  0.9118800E+02  0.7815553E-02  0.1125453E+00
         25   -1    0    0    0    0  0.00000000000E+00  0.00000000000E+00  0.99999998245E-14  0.12509000000E+03  0.12509000000E+03 0.  0.
        -13    1    3    3    0    0 -0.24337166323E+02  0.21476742829E+02 -0.40519051774E+02  0.51916787919E+02  0.10566000000E+00 0.  1.
         23    2    1    0    0    0 -0.25861105842E+01 -0.13900296059E+02 -0.25225611115E+02  0.96172225974E+02  0.91721640818E+02 0.  0.
         13    1    3    3    0    0  0.21751055739E+02 -0.35377038888E+02  0.15293440659E+02  0.44255438055E+02  0.10566000000E+00 0. -1.
         22    1    1    0    0    0  0.25861105842E+01  0.13900296059E+02  0.25225611115E+02  0.28917774026E+02  0.00000000000E+00 0.  1.
</event>
<event>
 5    1  0.1259474E-009  0.9118800E+02  0.7815553E-02  0.1125453E+00
         25   -1    0    0    0    0  0.00000000000E+00  0.00000000000E+00  0.99999998245E-14  0.12509000000E+03  0.12509000000E+03 0.  0.
        -13    1    3    3    0    0 -0.28253852152E+01 -0.12122249506E+02 -0.33029208958E+02  0.35296905574E+02  0.10566000000E+00 0. -1.
         23    2    1    0    0    0 -0.13206756399E+02 -0.61881162167E+01  0.25866907230E+02  0.95394746397E+02  0.90655113224E+02 0.  0.
         13    1    3    3    0    0 -0.10381371184E+02  0.59341332891E+01  0.58896116188E+02  0.60097840823E+02  0.10566000000E+00 0.  1.
         22    1    1    0    0    0  0.13206756399E+02  0.61881162167E+01 -0.25866907230E+02  0.29695253603E+02  0.00000000000E+00 0.  1.
</event>
<event>
 5    1  0.1259474E-009  0.9118800E+02  0.7815553E-02  0.1125453E+00
         25   -1    0    0    0    0  0.00000000000E+00  0.00000000000E+00  0.99999998245E-14  0.12509000000E+03  0.12509000000E+03 0.  0.
        -13    1    3    3    0    0  0.29475962551E+01  0.20248666820E+02  0.95489955575E+01  0.22580773058E+02  0.10566000000E+00 0.  1.
         23    2    1    0    0    0 -0.18053744055E+02 -0.17376189722E+02 -0.33344472475E+02  0.83380007333E+02  0.72197660174E+02 0.  0.
         13    1    3    3    0    0 -0.21001340310E+02 -0.37624856542E+02 -0.42893468032E+02  0.60799234276E+02  0.10566000000E+00 0. -1.
         22    1    1    0    0    0  0.18053744055E+02  0.17376189722E+02  0.33344472475E+02  0.41709992667E+02  0.00000000000E+00 0. -1.
</event>
<event>
 5    1  0.1259474E-009  0.9118800E+02  0.7815553E-02  0.1125453E+00
         25   -1    0    0    0    0  0.00000000000E+00  0.00000000000E+00  0.99999998245E-14  0.12509000000E+03  0.12509000000E+03 0.  0.
        -13    1    3    3    0    0 -0.19050176927E+02 -0.22833156826E+02  0.11300035091E+02  0.31811385520E+02  0.10566000000E+00 0. -1.
         23    2    1    0    0    0  0.25410724070E+02  0.14642287829E+02 -0.10540583030E+02  0.93925831774E+02  0.88605059072E+02 0.  0.
         13    1    3    3    0    0  0.44460900996E+02  0.37475444655E+02 -0.21840618121E+02  0.62114446254E+02  0.10566000000E+00 0.  1.
         22    1    1    0    0    0 -0.25410724070E+02 -0.14642287829E+02  0.10540583030E+02  0.31164168226E+02  0.00000000000E+00 0.  1.
</event>
<event>
 5    1  0.1259474E-009  0.9118800E+02  0.7815553E-02  0.1125453E+00
         25   -1    0    0    0    0  0.00000000000E+00  0.00000000000E+00  0.99999998245E-14  0.12509000000E+03  0.12509000000E+03 0.  0.
        -13    1    3    3    0    0  0.40571366942E+02  0.30296426418E+02 -0.23327571118E+02  0.55750300515E+02  0.10566000000E+00 0.  1.
         23    2    1    0    0    0  0.72094818307E+01  0.36415435629E+01 -0.25333626630E+02  0.98499962279E+02  0.94843093913E+02 0.  0.
         13    1    3    3    0    0 -0.33361885111E+02 -0.26654882855E+02 -0.20060555119E+01  0.42749661764E+02  0.10566000000E+00 0. -1.
         22    1    1    0    0    0 -0.72094818307E+01 -0.36415435629E+01  0.25333626630E+02  0.26590037721E+02  0.00000000000E+00 0.  1.
</event>
<event>
 5    1  0.1259474E-009  0.9118800E+02  0.7815553E-02  0.1125453E+00
         25   -1    0    0    0    0  0.00000000000E+00  0.00000000000E+00  0.99999998245E-14  0.12509000000E+03  0.12509000000E+03 0.  0.
        -13    1    3    3    0    0  0.18278916163E+01  0.40237387312E+02 -0.41739891016E+02  0.58005328993E+02  0.10566000000E+00 0. -1.
         23    2    1    0    0    0 -0.21305723580E+01  0.33583168003E+01 -0.26807050404E+02  0.97989528017E+02  0.94167467946E+02 0.  0.
         13    1    3    3    0    0 -0.39584639743E+01 -0.36879070512E+02  0.14932840612E+02  0.39984199025E+02  0.10566000000E+00 0.  1.
         22    1    1    0    0    0  0.21305723580E+01 -0.33583168003E+01  0.26807050404E+02  0.27100471983E+02  0.00000000000E+00 0. -1.
</event>
<event>
 5    1  0.1259474E-009  0.9118800E+02  0.7815553E-02  0.1125453E+00
         25   -1    0    0    0    0  0.00000000000E+00  0.00000000000E+00  0.99999998245E-14  0.12509000000E+03  0.12509000000E+03 0.  0.
        -13    1    3    3    0    0  0.27806309516E+01  0.16059319656E+02  0.26873583555E+02  0.31429831584E+02  0.10566000000E+00 0. -1.
         23    2    1    0    0    0 -0.38708323460E+01 -0.62696819074E+00 -0.31932121694E+02  0.92918011749E+02  0.87170637713E+02 0.  0.
         13    1    3    3    0    0 -0.66514632976E+01 -0.16686287846E+02 -0.58805705249E+02  0.61488180165E+02  0.10566000000E+00 0.  1.
         22    1    1    0    0    0  0.38708323460E+01  0.62696819074E+00  0.31932121694E+02  0.32171988251E+02  0.00000000000E+00 0.  1.
</event>
<event>
 5    1  0.1259474E-009  0.9118800E+02  0.7815553E-02  0.1125453E+00
         25   -1    0    0    0    0  0.00000000000E+00  0.00000000000E+00  0.99999998245E-14  0.12509000000E+03  0.12509000000E+03 0.  0.
        -13    1    3    3    0    0 -0.32121477786E+02 -0.28325961778E+02 -0.39830544021E+02  0.58486176544E+02  0.10566000000E+00 0.  1.
         23    2    1    0    0    0 -0.19006657305E+02 -0.22042179315E+02 -0.59126923467E+01  0.95390326236E+02  0.90649013882E+02 0.  0.
         13    1    3    3    0    0  0.13114820480E+02  0.62837824626E+01  0.33917851674E+02  0.36904149692E+02  0.10566000000E+00 0. -1.
         22    1    1    0    0    0  0.19006657305E+02  0.22042179315E+02  0.59126923467E+01  0.29699673764E+02  0.00000000000E+00 0.  1.
</event>
<event>
 5    1  0.1259474E-009  0.9118800E+02  0.7815553E-02  0.1125453E+00
         25   -1    0    0    0    0  0.00000000000E+00  0.00000000000E+00  0.99999998245E-14  0.12509000000E+03  0.12509000000E+03 0.  0.
        -13    1    3    3    0    0 -0.49822634312E+02 -0.15563850144E+02 -0.12326221843E+02  0.53632781300E+02  0.10566000000E+00 0.  1.
         23    2    1    0    0    0 -0.75662152789E+01 -0.22261199171E+02 -0.16117095859E+02  0.96584397374E+02  0.92282048281E+02 0.  0.
         13    1    3    3    0    0  0.42256419033E+02 -0.66973490270E+01 -0.37908740159E+01  0.42951616073E+02  0.10566000000E+00 0. -1.
         22    1    1    0    0    0  0.75662152789E+01  0.22261199171E+02  0.16117095859E+02  0.28505602626E+02  0.00000000000E+00 0.  1.
</event>
<event>
 5    1  0.1259474E-009  0.9118800E+02  0.7815553E-02  0.1125453E+00
         25   -1    0    0    0    0  0.00000000000E+00  0.00000000000E+00  0.99999998245E-14  0.12509000000E+03  0.12509000000E+03 0.  0.
        -13    1    3    3    0    0  0.53366527815E+02 -0.22444130805E+02  0.12264832899E+02  0.59179072219E+02  0.10566000000E+00 0.  1.
         23    2    1    0    0    0  0.29181586991E+02  0.89629119945E+00 -0.22875901126E+01  0.95805167309E+02  0.91219672535E+02 0.  0.
         13    1    3    3    0    0 -0.24184940824E+02  0.23340422004E+02 -0.14552423011E+02  0.36626095090E+02  0.10566000000E+00 0. -1.
         22    1    1    0    0    0 -0.29181586991E+02 -0.89629119945E+00  0.22875901126E+01  0.29284832691E+02  0.00000000000E+00 0.  1.
</event>
<event>
 5    1  0.1259474E-009  0.9118800E+02  0.7815553E-02  0.1125453E+00
         25   -1    0    0    0    0  0.00000000000E+00  0.00000000000E+00  0.99999998245E-14  0.12509000000E+03  0.12509000000E+03 0.  0.
        -13    1    3    3    0    0  0.19590217655E+02  0.45336835946E+02 -0.28441878685E+02  0.56992604332E+02  0.10566000000E+00 0.  1.
         23    2    1    0    0    0  0.88458296739E+01  0.30530173588E+02  0.27834205108E+01  0.93182514488E+02  0.87549376781E+02 0.  0.
         13    1    3    3    0    0 -0.10744387981E+02 -0.14806662358E+02  0.31225299196E+02  0.36189910157E+02  0.10566000000E+00 0. -1.
         22    1    1    0    0    0 -0.88458296739E+01 -0.30530173588E+02 -0.27834205108E+01  0.31907485512E+02  0.00000000000E+00 0.  1.
</event>
<event>
 5    1  0.1259474E-009  0.9118800E+02  0.7815553E-02  0.1125453E+00
         25   -1    0    0    0    0  0.00000000000E+00  0.00000000000E+00  0.99999998245E-14  0.12509000000E+03  0.12509000000E+03 0.  0.
        -13    1    3    3    0    0  0.65259402924E+01  0.39135867078E+02 -0.46115312671E+02  0.60834506782E+02  0.10566000000E+00 0.  1.
         23    2    1    0    0    0  0.12493414407E+02  0.21373382187E+02 -0.18600106025E+02  0.94124360755E+02  0.88884894520E+02 0.  0.
         13    1    3    3    0    0  0.59674741148E+01 -0.17762484890E+02  0.27515206645E+02  0.33289853973E+02  0.10566000000E+00 0. -1.
         22    1    1    0    0    0 -0.12493414407E+02 -0.21373382187E+02  0.18600106025E+02  0.30965639245E+02  0.00000000000E+00 0.  1.
</event>
<event>
 5    1  0.1259474E-009  0.9118800E+02  0.7815553E-02  0.1125453E+00
         25   -1    0    0    0    0  0.00000000000E+00  0.00000000000E+00  0.99999998245E-14  0.12509000000E+03  0.12509000000E+03 0.  0.
        -13    1    3    3    0    0 -0.26597231075E+02  0.91159067741E+01 -0.14852183262E+02  0.31797971143E+02  0.10566000000E+00 0.  1.
         23    2    1    0    0    0  0.56947974150E+01 -0.32481075561E+02  0.10821569933E+02  0.90383266316E+02  0.83454044042E+02 0.  0.
         13    1    3    3    0    0  0.32292028490E+02 -0.41596982335E+02  0.25673753195E+02  0.58585295173E+02  0.10566000000E+00 0. -1.
         22    1    1    0    0    0 -0.56947974150E+01  0.32481075561E+02 -0.10821569933E+02  0.34706733684E+02  0.00000000000E+00 0. -1.
</event>
<event>
 5    1  0.1259474E-009  0.9118800E+02  0.7815553E-02  0.1125453E+00
         25   -1    0    0    0    0  0.00000000000E+00  0.00000000000E+00  0.99999998245E-14  0.12509000000E+03  0.12509000000E+03 0.  0.
        -13    1    3    3    0    0  0.57250708762E+02 -0.15608795709E+02  0.74616288782E+01  0.59807735509E+02  0.10566000000E+00 0. -1.
         23    2    1    0    0    0  0.21009123430E+02 -0.17824998918E+02  0.88726307008E+01  0.96144578440E+02  0.91683927349E+02 0.  0.
         13    1    3    3    0    0 -0.36241585331E+02 -0.22162032088E+01  0.14110018227E+01  0.36336842931E+02  0.10566000000E+00 0.  1.
         22    1    1    0    0    0 -0.21009123430E+02  0.17824998918E+02 -0.88726307008E+01  0.28945421560E+02  0.00000000000E+00 0. -1.
</event>
<event>
 5    1  0.1259474E-009  0.9118800E+02  0.7815553E-02  0.1125453E+00
         25   -1    0    0    0    0  0.00000000000E+00  0.00000000000E+00  0.99999998245E-14  0.12509000000E+03  0.12509000000E+03 0.  0.
        -13    1    3    3    0    0 -0.26795172658E+02  0.44027439721E+02 -0.33905003250E+02  0.61692439858E+02  0.10566000000E+00 0. -1.
         23    2    1    0    0    0 -0.18382623165E+02  0.17726029170E+02 -0.12348872739E+02  0.96724041485E+02  0.92471144681E+02 0.  0.
         13    1    3    3    0    0  0.84125494936E+01 -0.26301410551E+02  0.21556130511E+02  0.35031601627E+02  0.10566000000E+00 0.  1.
         22    1    1    0    0    0  0.18382623165E+02 -0.17726029170E+02  0.12348872739E+02  0.28365958515E+02  0.00000000000E+00 0. -1.
</event>
<event>
 5    1  0.1259474E-009  0.9118800E+02  0.7815553E-02  0.1125453E+00
         25   -1    0    0    0    0  0.00000000000E+00  0.00000000000E+00  0.99999998245E-14  0.12509000000E+03  0.12509000000E+03 0.  0.
        -13    1    3    3    0    0 -0.23520132076E+02  0.16346445570E+02  0.31398912950E+02  0.42500656397E+02  0.10566000000E+00 0.  1.
         23    2    1    0    0    0  0.17708468187E+02  0.23687857821E+02 -0.10771440795E+01  0.95494988714E+02  0.90793326717E+02 0.  0.
         13    1    3    3    0    0  0.41228600263E+02  0.73414122509E+01 -0.32476057030E+02  0.52994332317E+02  0.10566000000E+00 0. -1.
         22    1    1    0    0    0 -0.17708468187E+02 -0.23687857821E+02  0.10771440795E+01  0.29595011286E+02  0.00000000000E+00 0. -1.
</event>
<event>
 5    1  0.1259474E-009  0.9118800E+02  0.7815553E-02  0.1125453E+00
         25   -1    0    0    0    0  0.00000000000E+00  0.00000000000E+00  0.99999998245E-14  0.12509000000E+03  0.12509000000E+03 0.  0.
        -13    1    3    3    0    0  0.14529861244E+02 -0.26855492474E+02 -0.15959421380E+02  0.34453572219E+02  0.10566000000E+00 0. -1.
         23    2    1    0    0    0 -0.71543641366E+01  0.15805678570E+02  0.23082065815E+02  0.96214644357E+02  0.91779472788E+02 0.  0.
         13    1    3    3    0    0 -0.21684225381E+02  0.42661171044E+02  0.39041487195E+02  0.61761072138E+02  0.10566000000E+00 0.  1.
         22    1    1    0    0    0  0.71543641366E+01 -0.15805678570E+02 -0.23082065815E+02  0.28875355643E+02  0.00000000000E+00 0.  1.
</event>
<event>
 5    1  0.1259474E-009  0.9118800E+02  0.7815553E-02  0.1125453E+00
         25   -1    0    0    0    0  0.00000000000E+00  0.00000000000E+00  0.99999998245E-14  0.12509000000E+03  0.12509000000E+03 0.  0.
        -13    1    3    3    0    0 -0.73860998488E+01  0.15369036005E+02 -0.30007624832E+02  0.34514206507E+02  0.10566000000E+00 0.  1.
         23    2    1    0    0    0  0.18093977825E+02 -0.14068634884E+02  0.17728233240E+02  0.96113996569E+02  0.91642193130E+02 0.  0.
         13    1    3    3    0    0  0.25480077674E+02 -0.29437670889E+02  0.47735858073E+02  0.61599790061E+02  0.10566000000E+00 0. -1.
         22    1    1    0    0    0 -0.18093977825E+02  0.14068634884E+02 -0.17728233240E+02  0.28976003431E+02  0.00000000000E+00 0. -1.
</event>
<event>
 5    1  0.1259474E-009  0.9118800E+02  0.7815553E-02  0.1125453E+00
         25   -1    0    0    0    0  0.00000000000E+00  0.00000000000E+00  0.99999998245E-14  0.12509000000E+03  0.12509000000E+03 0.  0.
        -13    1    3    3    0    0 -0.45920107377E+02 -0.12033056791E+02 -0.40665590337E+02  0.62507216533E+02  0.10566000000E+00 0.  1.
         23    2    1    0    0    0 -0.21039794890E+02 -0.56514497703E+01 -0.20676046449E+02  0.95054841431E+02  0.90184877497E+02 0.  0.
         13    1    3    3    0    0  0.24880312487E+02  0.63816070202E+01  0.19989543888E+02  0.32547624898E+02  0.10566000000E+00 0. -1.
         22    1    1    0    0    0  0.21039794890E+02  0.56514497703E+01  0.20676046449E+02  0.30035158569E+02  0.00000000000E+00 0.  1.
</event>
<event>
 5    1  0.1259474E-009  0.9118800E+02  0.7815553E-02  0.1125453E+00
         25   -1    0    0    0    0  0.00000000000E+00  0.00000000000E+00  0.99999998245E-14  0.12509000000E+03  0.12509000000E+03 0.  0.
        -13    1    3    3    0    0 -0.30595470962E+02  0.13880910578E+02  0.53218694523E+01  0.34016113540E+02  0.10566000000E+00 0. -1.
         23    2    1    0    0    0  0.28578013075E+02 -0.45450325101E+01  0.12464005894E+01  0.96125993609E+02  0.91658567417E+02 0.  0.
         13    1    3    3    0    0  0.59173484036E+02 -0.18425943088E+02 -0.40754688629E+01  0.62109880069E+02  0.10566000000E+00 0.  1.
         22    1    1    0    0    0 -0.28578013075E+02  0.45450325101E+01 -0.12464005894E+01  0.28964006391E+02  0.00000000000E+00 0.  1.
</event>
<event>
 5    1  0.1259474E-009  0.9118800E+02  0.7815553E-02  0.1125453E+00
         25   -1    0    0    0    0  0.00000000000E+00  0.00000000000E+00  0.99999998245E-14  0.12509000000E+03  0.12509000000E+03 0.  0.
        -13    1    3    3    0    0  0.51802253726E+02  0.17126719147E+02 -0.13098371994E+02  0.56110395763E+02  0.10566000000E+00 0. -1.
         23    2    1    0    0    0  0.21932388698E+02 -0.10018203769E+02 -0.15302067050E+02  0.96532210576E+02  0.92211280991E+02 0.  0.
         13    1    3    3    0    0 -0.29869865028E+02 -0.27144922916E+02 -0.22036950558E+01  0.40421814813E+02  0.10566000000E+00 0.  1.
         22    1    1    0    0    0 -0.21932388698E+02  0.10018203769E+02  0.15302067050E+02  0.28557789424E+02  0.00000000000E+00 0. -1.
</event>
<event>
 5    1  0.1259474E-009  0.9118800E+02  0.7815553E-02  0.1125453E+00
         25   -1    0    0    0    0  0.00000000000E+00  0.00000000000E+00  0.99999998245E-14  0.12509000000E+03  0.12509000000E+03 0.  0.
        -13    1    3    3    0    0 -0.54859554607E+02 -0.16712381391E+02 -0.21822480915E+02  0.61360461706E+02  0.10566000000E+00 0.  1.
         23    2    1    0    0    0 -0.25996538430E+02 -0.13186868267E+02 -0.34967773493E+01  0.95731169014E+02  0.91118141794E+02 0.  0.
         13    1    3    3    0    0  0.28863016178E+02  0.35255131242E+01  0.18325703566E+02  0.34370707308E+02  0.10566000000E+00 0. -1.
         22    1    1    0    0    0  0.25996538430E+02  0.13186868267E+02  0.34967773493E+01  0.29358830986E+02  0.00000000000E+00 0.  1.
</event>
<event>
 5    1  0.1259474E-009  0.9118800E+02  0.7815553E-02  0.1125453E+00
         25   -1    0    0    0    0  0.00000000000E+00  0.00000000000E+00  0.99999998245E-14  0.12509000000E+03  0.12509000000E+03 0.  0.
        -13    1    3    3    0    0  0.25155907294E+02  0.25311591742E+02 -0.46992345992E+02  0.59006678386E+02  0.10566000000E+00 0. -1.
         23    2    1    0    0    0  0.56722042432E+01 -0.11461279141E+01 -0.27017628838E+02  0.97459585993E+02  0.93460853429E+02 0.  0.
         13    1    3    3    0    0 -0.19483703051E+02 -0.26457719656E+02  0.19974717154E+02  0.38452907606E+02  0.10566000000E+00 0.  1.
         22    1    1    0    0    0 -0.56722042432E+01  0.11461279141E+01  0.27017628838E+02  0.27630414007E+02  0.00000000000E+00 0. -1.
</event>
<event>
 5    1  0.1259474E-009  0.9118800E+02  0.7815553E-02  0.1125453E+00
         25   -1    0    0    0    0  0.00000000000E+00  0.00000000000E+00  0.99999998245E-14  0.12509000000E+03  0.12509000000E+03 0.  0.
        -13    1    3    3    0    0  0.39213417228E+00  0.35284960174E+02 -0.21145977028E+02  0.41138129420E+02  0.10566000000E+00 0. -1.
         23    2    1    0    0    0 -0.29792268913E+02 -0.19028715477E+01  0.35506651711E+01  0.95026609800E+02  0.90145710602E+02 0.  0.
         13    1    3    3    0    0 -0.30184403086E+02 -0.37187831722E+02  0.24696642199E+02  0.53888480381E+02  0.10566000000E+00 0.  1.
         22    1    1    0    0    0  0.29792268913E+02  0.19028715477E+01 -0.35506651711E+01  0.30063390200E+02  0.00000000000E+00 0.  1.
</event>
<event>
 5    1  0.1259474E-009  0.9118800E+02  0.7815553E-02  0.1125453E+00
         25   -1    0    0    0    0  0.00000000000E+00  0.00000000000E+00  0.99999998245E-14  0.12509000000E+03  0.12509000000E+03 0.  0.
        -13    1    3    3    0    0  0.12567808720E+02 -0.45509858492E+02 -0.39906802094E+02  0.61819584707E+02  0.10566000000E+00 0.  1.
         23    2    1    0    0    0  0.10121411304E+02 -0.24752560434E+02 -0.14667647284E+02  0.94589637844E+02  0.89537296674E+02 0.  0.
         13    1    3    3    0    0 -0.24463974152E+01  0.20757298058E+02  0.25239154810E+02  0.32770053136E+02  0.10566000000E+00 0. -1.
         22    1    1    0    0    0 -0.10121411304E+02  0.24752560434E+02  0.14667647284E+02  0.30500362156E+02  0.00000000000E+00 0.  1.
</event>
<event>
 5    1  0.1259474E-009  0.9118800E+02  0.7815553E-02  0.1125453E+00
         25   -1    0    0    0    0  0.00000000000E+00  0.00000000000E+00  0.99999998245E-14  0.12509000000E+03  0.12509000000E+03 0.  0.
        -13    1    3    3    0    0  0.28940814508E+02 -0.21457792017E+02  0.16869946385E+02  0.39782079354E+02  0.10566000000E+00 0.  1.
         23    2    1    0    0    0 -0.37749230017E+01  0.24077469357E+02  0.16144196377E+02  0.95856292556E+02  0.91289753925E+02 0.  0.
         13    1    3    3    0    0 -0.32715737510E+02  0.45535261373E+02 -0.72575000827E+00  0.56074213202E+02  0.10566000000E+00 0. -1.
         22    1    1    0    0    0  0.37749230017E+01 -0.24077469357E+02 -0.16144196377E+02  0.29233707444E+02  0.00000000000E+00 0. -1.
</event>
<event>
 5    1  0.1259474E-009  0.9118800E+02  0.7815553E-02  0.1125453E+00
         25   -1    0    0    0    0  0.00000000000E+00  0.00000000000E+00  0.99999998245E-14  0.12509000000E+03  0.12509000000E+03 0.  0.
        -13    1    3    3    0    0  0.33382258837E+02 -0.25568990881E+02 -0.33677847860E+02  0.53873528752E+02  0.10566000000E+00 0.  1.
         23    2    1    0    0    0  0.45769514065E+01 -0.29092475239E+02 -0.40217781470E+01  0.95366351180E+02  0.90615923757E+02 0.  0.
         13    1    3    3    0    0 -0.28805307430E+02 -0.35234843580E+01  0.29656069713E+02  0.41492822428E+02  0.10566000000E+00 0. -1.
         22    1    1    0    0    0 -0.45769514065E+01  0.29092475239E+02  0.40217781470E+01  0.29723648820E+02  0.00000000000E+00 0.  1.
</event>
<event>
 5    1  0.1259474E-009  0.9118800E+02  0.7815553E-02  0.1125453E+00
         25   -1    0    0    0    0  0.00000000000E+00  0.00000000000E+00  0.99999998245E-14  0.12509000000E+03  0.12509000000E+03 0.  0.
        -13    1    3    3    0    0 -0.86965926930E+00 -0.33653029044E+02 -0.19281089617E+02  0.38795028701E+02  0.10566000000E+00 0.  1.
         23    2    1    0    0    0  0.19110252092E+01  0.24739831427E+02 -0.11400052589E+02  0.97782995854E+02  0.93892714322E+02 0.  0.
         13    1    3    3    0    0  0.27806844785E+01  0.58392860471E+02  0.78810370284E+01  0.58987967153E+02  0.10566000000E+00 0. -1.
         22    1    1    0    0    0 -0.19110252092E+01 -0.24739831427E+02  0.11400052589E+02  0.27307004146E+02  0.00000000000E+00 0. -1.
</event>
<event>
 5    1  0.1259474E-009  0.9118800E+02  0.7815553E-02  0.1125453E+00
         25   -1    0    0    0    0  0.00000000000E+00  0.00000000000E+00  0.99999998245E-14  0.12509000000E+03  0.12509000000E+03 0.  0.
        -13    1    3    3    0    0 -0.27345193627E+02  0.80837489023E+01 -0.38925180046E+02  0.48252330684E+02  0.10566000000E+00 0. -1.
         23    2    1    0    0    0 -0.73000612208E+01  0.27876167142E+02 -0.34252659334E-01  0.96273810773E+02  0.91860077722E+02 0.  0.
         13    1    3    3    0    0  0.20045132406E+02  0.19792418239E+02  0.38890927386E+02  0.48021480089E+02  0.10566000000E+00 0.  1.
         22    1    1    0    0    0  0.73000612208E+01 -0.27876167142E+02  0.34252659334E-01  0.28816189227E+02  0.00000000000E+00 0.  1.
</event>
<event>
 5    1  0.1259474E-009  0.9118800E+02  0.7815553E-02  0.1125453E+00
         25   -1    0    0    0    0  0.00000000000E+00  0.00000000000E+00  0.99999998245E-14  0.12509000000E+03  0.12509000000E+03 0.  0.
        -13    1    3    3    0    0 -0.16464995549E+02  0.27603558581E+02 -0.13320634904E+02  0.34792283671E+02  0.10566000000E+00 0.  1.
         23    2    1    0    0    0  0.12115294990E+01 -0.29190984686E+02  0.54481360880E+00  0.95868805422E+02  0.91306898100E+02 0.  0.
         13    1    3    3    0    0  0.17676525048E+02 -0.56794543267E+02  0.13865448513E+02  0.61076521751E+02  0.10566000000E+00 0. -1.
         22    1    1    0    0    0 -0.12115294990E+01  0.29190984686E+02 -0.54481360880E+00  0.29221194578E+02  0.00000000000E+00 0. -1.
</event>
<event>
 5    1  0.1259474E-009  0.9118800E+02  0.7815553E-02  0.1125453E+00
         25   -1    0    0    0    0  0.00000000000E+00  0.00000000000E+00  0.99999998245E-14  0.12509000000E+03  0.12509000000E+03 0.  0.
        -13    1    3    3    0    0  0.32580742753E+02 -0.16857303209E+02 -0.19613754470E+02  0.41597884541E+02  0.10566000000E+00 0. -1.
         23    2    1    0    0    0 -0.22068256127E+02 -0.12989060735E+02 -0.11642015079E+02  0.96960653360E+02  0.92790668484E+02 0.  0.
         13    1    3    3    0    0 -0.54648998880E+02  0.38682424745E+01  0.79717393916E+01  0.55362768820E+02  0.10566000000E+00 0.  1.
         22    1    1    0    0    0  0.22068256127E+02  0.12989060735E+02  0.11642015079E+02  0.28129346640E+02  0.00000000000E+00 0.  1.
</event>
<event>
 5    1  0.1259474E-009  0.9118800E+02  0.7815553E-02  0.1125453E+00
         25   -1    0    0    0    0  0.00000000000E+00  0.00000000000E+00  0.99999998245E-14  0.12509000000E+03  0.12509000000E+03 0.  0.
        -13    1    3    3    0    0 -0.57160783088E+02  0.11371474335E+02 -0.66693241346E+01  0.58661372301E+02  0.10566000000E+00 0.  1.
         23    2    1    0    0    0 -0.34411271383E+02 -0.21962283007E+01  0.90211889642E+01  0.89448158475E+02  0.82040430199E+02 0.  0.
         13    1    3    3    0    0  0.22749511704E+02 -0.13567702636E+02  0.15690513099E+02  0.30786786174E+02  0.10566000000E+00 0. -1.
         22    1    1    0    0    0  0.34411271383E+02  0.21962283007E+01 -0.90211889642E+01  0.35641841525E+02  0.00000000000E+00 0.  1.
</event>
<event>
 5    1  0.1259474E-009  0.9118800E+02  0.7815553E-02  0.1125453E+00
         25   -1    0    0    0    0  0.00000000000E+00  0.00000000000E+00  0.99999998245E-14  0.12509000000E+03  0.12509000000E+03 0.  0.
        -13    1    3    3    0    0 -0.23415378119E+02  0.45233791749E+02 -0.36062398768E+02  0.62409002696E+02  0.10566000000E+00 0. -1.
         23    2    1    0    0    0 -0.89905807173E+01  0.19433672369E+02 -0.18505624873E+02  0.96788828376E+02  0.92558743417E+02 0.  0.
         13    1    3    3    0    0  0.14424797402E+02 -0.25800119381E+02  0.17556773895E+02  0.34379825680E+02  0.10566000000E+00 0.  1.
         22    1    1    0    0    0  0.89905807173E+01 -0.19433672369E+02  0.18505624873E+02  0.28301171624E+02  0.00000000000E+00 0. -1.
</event>
<event>
 5    1  0.1259474E-009  0.9118800E+02  0.7815553E-02  0.1125453E+00
         25   -1    0    0    0    0  0.00000000000E+00  0.00000000000E+00  0.99999998245E-14  0.12509000000E+03  0.12509000000E+03 0.  0.
        -13    1    3    3    0    0 -0.35560280098E+02  0.16412593489E+02  0.27425111070E+02  0.47812703615E+02  0.10566000000E+00 0.  1.
         23    2    1    0    0    0 -0.23058009773E+02 -0.21197580262E+02  0.49362607526E+01  0.93382336985E+02  0.87834417895E+02 0.  0.
         13    1    3    3    0    0  0.12502270325E+02 -0.37610173751E+02 -0.22488850318E+02  0.45569633371E+02  0.10566000000E+00 0. -1.
         22    1    1    0    0    0  0.23058009773E+02  0.21197580262E+02 -0.49362607526E+01  0.31707663015E+02  0.00000000000E+00 0.  1.
</event>
<event>
 5    1  0.1259474E-009  0.9118800E+02  0.7815553E-02  0.1125453E+00
         25   -1    0    0    0    0  0.00000000000E+00  0.00000000000E+00  0.99999998245E-14  0.12509000000E+03  0.12509000000E+03 0.  0.
        -13    1    3    3    0    0 -0.13837861908E+02  0.26295770062E+02 -0.66489219716E+01  0.30449520075E+02  0.10566000000E+00 0.  1.
         23    2    1    0    0    0  0.12003672794E+01 -0.26037346079E+02  0.21092189227E+02  0.91559943054E+02  0.85199521438E+02 0.  0.
         13    1    3    3    0    0  0.15038229188E+02 -0.52333116141E+02  0.27741111198E+02  0.61110422979E+02  0.10566000000E+00 0. -1.
         22    1    1    0    0    0 -0.12003672794E+01  0.26037346079E+02 -0.21092189227E+02  0.33530056946E+02  0.00000000000E+00 0. -1.
</event>
<event>
 5    1  0.1259474E-009  0.9118800E+02  0.7815553E-02  0.1125453E+00
         25   -1    0    0    0    0  0.00000000000E+00  0.00000000000E+00  0.99999998245E-14  0.12509000000E+03  0.12509000000E+03 0.  0.
        -13    1    3    3    0    0 -0.52037794510E+01  0.14393670122E+02  0.36596382317E+02  0.39668166366E+02  0.10566000000E+00 0. -1.
         23    2    1    0    0    0  0.80522201564E+01  0.20877237095E+02 -0.18093337538E+02  0.96313861596E+02  0.91914600549E+02 0.  0.
         13    1    3    3    0    0  0.13255999607E+02  0.64835669731E+01 -0.54689719855E+02  0.56645695230E+02  0.10566000000E+00 0.  1.
         22    1    1    0    0    0 -0.80522201564E+01 -0.20877237095E+02  0.18093337538E+02  0.28776138404E+02  0.00000000000E+00 0.  1.
</event>
<event>
 5    1  0.1259474E-009  0.9118800E+02  0.7815553E-02  0.1125453E+00
         25   -1    0    0    0    0  0.00000000000E+00  0.00000000000E+00  0.99999998245E-14  0.12509000000E+03  0.12509000000E+03 0.  0.
        -13    1    3    3    0    0 -0.36417333448E+02  0.34838034919E+01  0.43938244588E+02  0.57174640915E+02  0.10566000000E+00 0.  1.
         23    2    1    0    0    0 -0.10136463789E+01  0.57188015638E+01  0.28742477709E+02  0.95766593050E+02  0.91166760112E+02 0.  0.
         13    1    3    3    0    0  0.35403687070E+02  0.22349980719E+01 -0.15195766879E+02  0.38591952135E+02  0.10566000000E+00 0. -1.
         22    1    1    0    0    0  0.10136463789E+01 -0.57188015638E+01 -0.28742477709E+02  0.29323406950E+02  0.00000000000E+00 0. -1.
</event>
<event>
 5    1  0.1259474E-009  0.9118800E+02  0.7815553E-02  0.1125453E+00
         25   -1    0    0    0    0  0.00000000000E+00  0.00000000000E+00  0.99999998245E-14  0.12509000000E+03  0.12509000000E+03 0.  0.
        -13    1    3    3    0    0 -0.19984376482E+02  0.26399005493E+02  0.24223425143E+02  0.41025215223E+02  0.10566000000E+00 0.  1.
         23    2    1    0    0    0  0.27733677366E+02  0.65465842681E+01  0.12223344564E+02  0.94083149497E+02  0.88826877920E+02 0.  0.
         13    1    3    3    0    0  0.47718053847E+02 -0.19852421225E+02 -0.12000080579E+02  0.53057934274E+02  0.10566000000E+00 0. -1.
         22    1    1    0    0    0 -0.27733677366E+02 -0.65465842681E+01 -0.12223344564E+02  0.31006850503E+02  0.00000000000E+00 0. -1.
</event>
<event>
 5    1  0.1259474E-009  0.9118800E+02  0.7815553E-02  0.1125453E+00
         25   -1    0    0    0    0  0.00000000000E+00  0.00000000000E+00  0.99999998245E-14  0.12509000000E+03  0.12509000000E+03 0.  0.
        -13    1    3    3    0    0 -0.36598392223E+02  0.10943735975E+02  0.62929760740E+01  0.38714601668E+02  0.10566000000E+00 0.  1.
         23    2    1    0    0    0 -0.13190608869E+02 -0.23903929471E+02 -0.22576290652E+02  0.89662907174E+02  0.82367214453E+02 0.  0.
         13    1    3    3    0    0  0.23407783354E+02 -0.34847665446E+02 -0.28869266726E+02  0.50948305506E+02  0.10566000000E+00 0. -1.
         22    1    1    0    0    0  0.13190608869E+02  0.23903929471E+02  0.22576290652E+02  0.35427092826E+02  0.00000000000E+00 0. -1.
</event>
<event>
 5    1  0.1259474E-009  0.9118800E+02  0.7815553E-02  0.1125453E+00
         25   -1    0    0    0    0  0.00000000000E+00  0.00000000000E+00  0.99999998245E-14  0.12509000000E+03  0.12509000000E+03 0.  0.
        -13    1    3    3    0    0  0.90348207262E+01  0.38930907074E+02 -0.66286574863E+01  0.40511649871E+02  0.10566000000E+00 0. -1.
         23    2    1    0    0    0  0.13676424480E+02 -0.14369264311E+02 -0.21294317997E+02  0.95987279812E+02  0.91469063422E+02 0.  0.
         13    1    3    3    0    0  0.46416037542E+01 -0.53300171385E+02 -0.14665660511E+02  0.55475629941E+02  0.10566000000E+00 0.  1.
         22    1    1    0    0    0 -0.13676424480E+02  0.14369264311E+02  0.21294317997E+02  0.29102720188E+02  0.00000000000E+00 0. -1.
</event>
<event>
 5    1  0.1259474E-009  0.9118800E+02  0.7815553E-02  0.1125453E+00
         25   -1    0    0    0    0  0.00000000000E+00  0.00000000000E+00  0.99999998245E-14  0.12509000000E+03  0.12509000000E+03 0.  0.
        -13    1    3    3    0    0  0.34389332805E+02  0.17948893279E+02  0.39960024155E+02  0.55692043195E+02  0.10566000000E+00 0.  1.
         23    2    1    0    0    0  0.26900053421E+02 -0.78091541418E+01  0.11474088802E+02  0.94820370397E+02  0.89859068357E+02 0.  0.
         13    1    3    3    0    0 -0.74892793840E+01 -0.25758047421E+02 -0.28485935354E+02  0.39128327202E+02  0.10566000000E+00 0. -1.
         22    1    1    0    0    0 -0.26900053421E+02  0.78091541418E+01 -0.11474088802E+02  0.30269629603E+02  0.00000000000E+00 0.  1.
</event>
<event>
 5    1  0.1259474E-009  0.9118800E+02  0.7815553E-02  0.1125453E+00
         25   -1    0    0    0    0  0.00000000000E+00  0.00000000000E+00  0.99999998245E-14  0.12509000000E+03  0.12509000000E+03 0.  0.
        -13    1    3    3    0    0 -0.14582578457E+02 -0.29576194878E+02  0.91468097295E+01  0.34221019713E+02  0.10566000000E+00 0.  1.
         23    2    1    0    0    0  0.19461541181E+02  0.17807196359E+02 -0.11772397310E+02  0.96203373929E+02  0.91764110575E+02 0.  0.
         13    1    3    3    0    0  0.34044119638E+02  0.47383391237E+02 -0.20919207039E+02  0.61982354217E+02  0.10566000000E+00 0. -1.
         22    1    1    0    0    0 -0.19461541181E+02 -0.17807196359E+02  0.11772397310E+02  0.28886626071E+02  0.00000000000E+00 0. -1.
</event>
<event>
 5    1  0.1259474E-009  0.9118800E+02  0.7815553E-02  0.1125453E+00
         25   -1    0    0    0    0  0.00000000000E+00  0.00000000000E+00  0.99999998245E-14  0.12509000000E+03  0.12509000000E+03 0.  0.
        -13    1    3    3    0    0  0.44668372591E+02 -0.30718029379E+01 -0.26536787209E+02  0.52047206675E+02  0.10566000000E+00 0.  1.
         23    2    1    0    0    0  0.19179239638E+02 -0.26131351757E+02 -0.58869824439E+01  0.92145389818E+02  0.86054782113E+02 0.  0.
         13    1    3    3    0    0 -0.25489132953E+02 -0.23059548819E+02  0.20649804765E+02  0.40098183143E+02  0.10566000000E+00 0. -1.
         22    1    1    0    0    0 -0.19179239638E+02  0.26131351757E+02  0.58869824439E+01  0.32944610182E+02  0.00000000000E+00 0.  1.
</event>
<event>
 5    1  0.1259474E-009  0.9118800E+02  0.7815553E-02  0.1125453E+00
         25   -1    0    0    0    0  0.00000000000E+00  0.00000000000E+00  0.99999998245E-14  0.12509000000E+03  0.12509000000E+03 0.  0.
        -13    1    3    3    0    0  0.28570901781E+02  0.33162516105E+02 -0.16977476417E+02  0.46949917705E+02  0.10566000000E+00 0.  1.
         23    2    1    0    0    0  0.12475075997E+02  0.73674435139E+01  0.23444141580E+02  0.97530346165E+02  0.93555512417E+02 0.  0.
         13    1    3    3    0    0 -0.16095825783E+02 -0.25795072591E+02  0.40421617997E+02  0.50580428460E+02  0.10566000000E+00 0. -1.
         22    1    1    0    0    0 -0.12475075997E+02 -0.73674435139E+01 -0.23444141580E+02  0.27559653835E+02  0.00000000000E+00 0. -1.
</event>
<event>
 5    1  0.1259474E-009  0.9118800E+02  0.7815553E-02  0.1125453E+00
         25   -1    0    0    0    0  0.00000000000E+00  0.00000000000E+00  0.99999998245E-14  0.12509000000E+03  0.12509000000E+03 0.  0.
        -13    1    3    3    0    0 -0.11042011075E+02 -0.13939251648E+02 -0.53626960262E+02  0.56498590921E+02  0.10566000000E+00 0.  1.
         23    2    1    0    0    0 -0.22811218062E+02 -0.75820756811E+01 -0.16575324121E+02  0.95891011819E+02  0.91337315686E+02 0.  0.
         13    1    3    3    0    0 -0.11769206987E+02  0.63571759671E+01  0.37051636141E+02  0.39392420897E+02  0.10566000000E+00 0. -1.
         22    1    1    0    0    0  0.22811218062E+02  0.75820756811E+01  0.16575324121E+02  0.29198988181E+02  0.00000000000E+00 0.  1.
</event>
<event>
 5    1  0.1259474E-009  0.9118800E+02  0.7815553E-02  0.1125453E+00
         25   -1    0    0    0    0  0.00000000000E+00  0.00000000000E+00  0.99999998245E-14  0.12509000000E+03  0.12509000000E+03 0.  0.
        -13    1    3    3    0    0  0.38564948017E+02  0.34763194028E+02 -0.34578442527E+02  0.62381204912E+02  0.10566000000E+00 0.  1.
         23    2    1    0    0    0  0.13847733811E+02  0.16048402478E+02 -0.16084019925E+02  0.98481605634E+02  0.94818879964E+02 0.  0.
         13    1    3    3    0    0 -0.24717214206E+02 -0.18714791551E+02  0.18494422603E+02  0.36100400722E+02  0.10566000000E+00 0. -1.
         22    1    1    0    0    0 -0.13847733811E+02 -0.16048402478E+02  0.16084019925E+02  0.26608394366E+02  0.00000000000E+00 0.  1.
</event>
<event>
 5    1  0.1259474E-009  0.9118800E+02  0.7815553E-02  0.1125453E+00
         25   -1    0    0    0    0  0.00000000000E+00  0.00000000000E+00  0.99999998245E-14  0.12509000000E+03  0.12509000000E+03 0.  0.
        -13    1    3    3    0    0  0.28265679800E+02  0.52155153330E+02 -0.17528076239E+02  0.61857524151E+02  0.10566000000E+00 0.  1.
         23    2    1    0    0    0  0.13524336906E+02  0.29259926320E+02 -0.30131054536E+01  0.92715167468E+02  0.86879068234E+02 0.  0.
         13    1    3    3    0    0 -0.14741342894E+02 -0.22895227010E+02  0.14514970785E+02  0.30857643317E+02  0.10566000000E+00 0. -1.
         22    1    1    0    0    0 -0.13524336906E+02 -0.29259926320E+02  0.30131054536E+01  0.32374832532E+02  0.00000000000E+00 0.  1.
</event>
<event>
 5    1  0.1259474E-009  0.9118800E+02  0.7815553E-02  0.1125453E+00
         25   -1    0    0    0    0  0.00000000000E+00  0.00000000000E+00  0.99999998245E-14  0.12509000000E+03  0.12509000000E+03 0.  0.
        -13    1    3    3    0    0 -0.15495785067E+02 -0.44347521767E+02  0.13882677094E+02  0.48985323609E+02  0.10566000000E+00 0. -1.
         23    2    1    0    0    0  0.89790628612E+01 -0.61040748194E+01  0.26785371346E+02  0.96187761031E+02  0.91742825086E+02 0.  0.
         13    1    3    3    0    0  0.24474847928E+02  0.38243446948E+02  0.12902694252E+02  0.47202437422E+02  0.10566000000E+00 0.  1.
         22    1    1    0    0    0 -0.89790628612E+01  0.61040748194E+01 -0.26785371346E+02  0.28902238969E+02  0.00000000000E+00 0. -1.
</event>
<event>
 5    1  0.1259474E-009  0.9118800E+02  0.7815553E-02  0.1125453E+00
         25   -1    0    0    0    0  0.00000000000E+00  0.00000000000E+00  0.99999998245E-14  0.12509000000E+03  0.12509000000E+03 0.  0.
        -13    1    3    3    0    0 -0.44396064042E+02  0.15223483457E+02  0.79792948697E+01  0.47607197583E+02  0.10566000000E+00 0.  1.
         23    2    1    0    0    0 -0.65894449106E+01  0.25443258479E+02 -0.16748774411E+02  0.93924287582E+02  0.88602879002E+02 0.  0.
         13    1    3    3    0    0  0.37806619132E+02  0.10219775022E+02 -0.24728069280E+02  0.46317090000E+02  0.10566000000E+00 0. -1.
         22    1    1    0    0    0  0.65894449106E+01 -0.25443258479E+02  0.16748774411E+02  0.31165712418E+02  0.00000000000E+00 0.  1.
</event>
<event>
 5    1  0.1259474E-009  0.9118800E+02  0.7815553E-02  0.1125453E+00
         25   -1    0    0    0    0  0.00000000000E+00  0.00000000000E+00  0.99999998245E-14  0.12509000000E+03  0.12509000000E+03 0.  0.
        -13    1    3    3    0    0  0.31125850215E+02  0.21920916649E+02  0.46691988504E+02  0.60245315941E+02  0.10566000000E+00 0.  1.
         23    2    1    0    0    0  0.12780927004E+02  0.20866084826E+02  0.16541436785E+02  0.95554179003E+02  0.90874839218E+02 0.  0.
         13    1    3    3    0    0 -0.18344923211E+02 -0.10548318229E+01 -0.30150551719E+02  0.35308863062E+02  0.10566000000E+00 0. -1.
         22    1    1    0    0    0 -0.12780927004E+02 -0.20866084826E+02 -0.16541436785E+02  0.29535820997E+02  0.00000000000E+00 0.  1.
</event>
<event>
 5    1  0.1259474E-009  0.9118800E+02  0.7815553E-02  0.1125453E+00
         25   -1    0    0    0    0  0.00000000000E+00  0.00000000000E+00  0.99999998245E-14  0.12509000000E+03  0.12509000000E+03 0.  0.
        -13    1    3    3    0    0  0.35018241209E+02 -0.23530381279E+02 -0.61316608246E+00  0.42194113300E+02  0.10566000000E+00 0. -1.
         23    2    1    0    0    0 -0.16575859087E+02 -0.17948327758E+02  0.15041807248E+02  0.96399277823E+02  0.92030773254E+02 0.  0.
         13    1    3    3    0    0 -0.51594100296E+02  0.55820535212E+01  0.15654973331E+02  0.54205164522E+02  0.10566000000E+00 0.  1.
         22    1    1    0    0    0  0.16575859087E+02  0.17948327758E+02 -0.15041807248E+02  0.28690722177E+02  0.00000000000E+00 0.  1.
</event>
<event>
 5    1  0.1259474E-009  0.9118800E+02  0.7815553E-02  0.1125453E+00
         25   -1    0    0    0    0  0.00000000000E+00  0.00000000000E+00  0.99999998245E-14  0.12509000000E+03  0.12509000000E+03 0.  0.
        -13    1    3    3    0    0 -0.38957712428E+02  0.32978858634E+02 -0.28927204056E+01  0.51124235640E+02  0.10566000000E+00 0.  1.
         23    2    1    0    0    0 -0.12833569045E+02  0.70322348523E+01  0.24180421637E+02  0.96826143010E+02  0.92609159148E+02 0.  0.
         13    1    3    3    0    0  0.26124143383E+02 -0.25946623781E+02  0.27073142042E+02  0.45701907370E+02  0.10566000000E+00 0. -1.
         22    1    1    0    0    0  0.12833569045E+02 -0.70322348523E+01 -0.24180421637E+02  0.28263856990E+02  0.00000000000E+00 0. -1.
</event>
<event>
 5    1  0.1259474E-009  0.9118800E+02  0.7815553E-02  0.1125453E+00
         25   -1    0    0    0    0  0.00000000000E+00  0.00000000000E+00  0.99999998245E-14  0.12509000000E+03  0.12509000000E+03 0.  0.
        -13    1    3    3    0    0 -0.31825700500E+02  0.51133375429E+01  0.12823958411E+02  0.34691303038E+02  0.10566000000E+00 0.  1.
         23    2    1    0    0    0  0.22851097237E+02 -0.17356735713E+02 -0.39129043773E+01  0.96128996215E+02  0.91662665100E+02 0.  0.
         13    1    3    3    0    0  0.54676797737E+02 -0.22470073256E+02 -0.16736862788E+02  0.61437693177E+02  0.10566000000E+00 0. -1.
         22    1    1    0    0    0 -0.22851097237E+02  0.17356735713E+02  0.39129043773E+01  0.28961003785E+02  0.00000000000E+00 0. -1.
</event>
<event>
 5    1  0.1259474E-009  0.9118800E+02  0.7815553E-02  0.1125453E+00
         25   -1    0    0    0    0  0.00000000000E+00  0.00000000000E+00  0.99999998245E-14  0.12509000000E+03  0.12509000000E+03 0.  0.
        -13    1    3    3    0    0 -0.48220924044E+00 -0.10288111330E+02  0.37621284107E+02  0.39005768065E+02  0.10566000000E+00 0.  1.
         23    2    1    0    0    0  0.41861696784E+01 -0.19946445519E+02 -0.19354895433E+02  0.96983120368E+02  0.92820951049E+02 0.  0.
         13    1    3    3    0    0  0.46683789188E+01 -0.96583341888E+01 -0.56976179540E+02  0.57977352303E+02  0.10566000000E+00 0. -1.
         22    1    1    0    0    0 -0.41861696784E+01  0.19946445519E+02  0.19354895433E+02  0.28106879632E+02  0.00000000000E+00 0. -1.
</event>
<event>
 5    1  0.1259474E-009  0.9118800E+02  0.7815553E-02  0.1125453E+00
         25   -1    0    0    0    0  0.00000000000E+00  0.00000000000E+00  0.99999998245E-14  0.12509000000E+03  0.12509000000E+03 0.  0.
        -13    1    3    3    0    0  0.30392117871E+02 -0.45568695041E+02 -0.25688928207E+02  0.60498917287E+02  0.10566000000E+00 0. -1.
         23    2    1    0    0    0  0.21365741874E+02 -0.12135575628E+02 -0.12108582823E+02  0.97696845753E+02  0.93777869300E+02 0.  0.
         13    1    3    3    0    0 -0.90263759973E+01  0.33433119413E+02  0.13580345384E+02  0.37197928465E+02  0.10566000000E+00 0.  1.
         22    1    1    0    0    0 -0.21365741874E+02  0.12135575628E+02  0.12108582823E+02  0.27393154247E+02  0.00000000000E+00 0. -1.
</event>
<event>
 5    1  0.1259474E-009  0.9118800E+02  0.7815553E-02  0.1125453E+00
         25   -1    0    0    0    0  0.00000000000E+00  0.00000000000E+00  0.99999998245E-14  0.12509000000E+03  0.12509000000E+03 0.  0.
        -13    1    3    3    0    0  0.13855495176E+02 -0.58252945713E+02  0.14145546685E+02  0.61526320269E+02  0.10566000000E+00 0.  1.
         23    2    1    0    0    0  0.14741918128E+01 -0.27986343735E+02  0.12865995082E+02  0.94252644300E+02  0.89065248279E+02 0.  0.
         13    1    3    3    0    0 -0.12381303363E+02  0.30266601978E+02 -0.12795516030E+01  0.32726324031E+02  0.10566000000E+00 0. -1.
         22    1    1    0    0    0 -0.14741918128E+01  0.27986343735E+02 -0.12865995082E+02  0.30837355700E+02  0.00000000000E+00 0. -1.
</event>
<event>
 5    1  0.1259474E-009  0.9118800E+02  0.7815553E-02  0.1125453E+00
         25   -1    0    0    0    0  0.00000000000E+00  0.00000000000E+00  0.99999998245E-14  0.12509000000E+03  0.12509000000E+03 0.  0.
        -13    1    3    3    0    0  0.13872138874E+02  0.26768386951E+02 -0.50045216795E+02  0.58425316987E+02  0.10566000000E+00 0. -1.
         23    2    1    0    0    0  0.33731182950E+01  0.26709305547E+02 -0.16641646411E+02  0.93440208135E+02  0.87916796867E+02 0.  0.
         13    1    3    3    0    0 -0.10499020579E+02 -0.59081404495E-01  0.33403570384E+02  0.35014891149E+02  0.10566000000E+00 0.  1.
         22    1    1    0    0    0 -0.33731182950E+01 -0.26709305547E+02  0.16641646411E+02  0.31649791865E+02  0.00000000000E+00 0. -1.
</event>
<event>
 5    1  0.1259474E-009  0.9118800E+02  0.7815553E-02  0.1125453E+00
         25   -1    0    0    0    0  0.00000000000E+00  0.00000000000E+00  0.99999998245E-14  0.12509000000E+03  0.12509000000E+03 0.  0.
        -13    1    3    3    0    0  0.15818099478E+02  0.34469552548E+02 -0.59559090148E+01  0.38390706430E+02  0.10566000000E+00 0.  1.
         23    2    1    0    0    0  0.12757083495E+02 -0.18234312918E+02  0.18098883310E+02  0.96405458449E+02  0.92039173697E+02 0.  0.
         13    1    3    3    0    0 -0.30610159833E+01 -0.52703865467E+02  0.24054792325E+02  0.58014752019E+02  0.10566000000E+00 0. -1.
         22    1    1    0    0    0 -0.12757083495E+02  0.18234312918E+02 -0.18098883310E+02  0.28684541551E+02  0.00000000000E+00 0. -1.
</event>
<event>
 5    1  0.1259474E-009  0.9118800E+02  0.7815553E-02  0.1125453E+00
         25   -1    0    0    0    0  0.00000000000E+00  0.00000000000E+00  0.99999998245E-14  0.12509000000E+03  0.12509000000E+03 0.  0.
        -13    1    3    3    0    0  0.39813016856E+02 -0.17589215147E+02 -0.16736038856E+02  0.46632209483E+02  0.10566000000E+00 0. -1.
         23    2    1    0    0    0  0.21172893025E+02  0.22767061342E+02 -0.38606906852E+00  0.93996921502E+02  0.88705364670E+02 0.  0.
         13    1    3    3    0    0 -0.18640123831E+02  0.40356276489E+02  0.16349969787E+02  0.47364712018E+02  0.10566000000E+00 0.  1.
         22    1    1    0    0    0 -0.21172893025E+02 -0.22767061342E+02  0.38606906852E+00  0.31093078498E+02  0.00000000000E+00 0.  1.
</event>
<event>
 5    1  0.1259474E-009  0.9118800E+02  0.7815553E-02  0.1125453E+00
         25   -1    0    0    0    0  0.00000000000E+00  0.00000000000E+00  0.99999998245E-14  0.12509000000E+03  0.12509000000E+03 0.  0.
        -13    1    3    3    0    0 -0.39565511333E+01  0.26319217197E+02 -0.21573994058E+02  0.34260821275E+02  0.10566000000E+00 0. -1.
         23    2    1    0    0    0 -0.10688763062E+01 -0.11744361350E+02  0.26757423976E+02  0.95849065372E+02  0.91279850322E+02 0.  0.
         13    1    3    3    0    0  0.28876748271E+01 -0.38063578547E+02  0.48331418035E+02  0.61588244097E+02  0.10566000000E+00 0.  1.
         22    1    1    0    0    0  0.10688763062E+01  0.11744361350E+02 -0.26757423976E+02  0.29240934628E+02  0.00000000000E+00 0.  1.
</event>
<event>
 5    1  0.1259474E-009  0.9118800E+02  0.7815553E-02  0.1125453E+00
         25   -1    0    0    0    0  0.00000000000E+00  0.00000000000E+00  0.99999998245E-14  0.12509000000E+03  0.12509000000E+03 0.  0.
        -13    1    3    3    0    0 -0.43764536785E+02 -0.55496275947E+01  0.24777967904E+02  0.50597350760E+02  0.10566000000E+00 0.  1.
         23    2    1    0    0    0  0.16262970506E+00 -0.13979018273E+02  0.26249016073E+02  0.95350291779E+02  0.90593751976E+02 0.  0.
         13    1    3    3    0    0  0.43927166490E+02 -0.84293906786E+01  0.14710481684E+01  0.44752941018E+02  0.10566000000E+00 0. -1.
         22    1    1    0    0    0 -0.16262970506E+00  0.13979018273E+02 -0.26249016073E+02  0.29739708221E+02  0.00000000000E+00 0.  1.
</event>
<event>
 5    1  0.1259474E-009  0.9118800E+02  0.7815553E-02  0.1125453E+00
         25   -1    0    0    0    0  0.00000000000E+00  0.00000000000E+00  0.99999998245E-14  0.12509000000E+03  0.12509000000E+03 0.  0.
        -13    1    3    3    0    0 -0.40340206666E+02  0.70541030966E+00  0.42128041269E+02  0.58331920102E+02  0.10566000000E+00 0.  1.
         23    2    1    0    0    0 -0.99197785197E+01  0.13041886431E+02  0.24564228002E+02  0.95562146964E+02  0.90885806524E+02 0.  0.
         13    1    3    3    0    0  0.30420428147E+02  0.12336476122E+02 -0.17563813266E+02  0.37230226862E+02  0.10566000000E+00 0. -1.
         22    1    1    0    0    0  0.99197785197E+01 -0.13041886431E+02 -0.24564228002E+02  0.29527853036E+02  0.00000000000E+00 0.  1.
</event>
<event>
 5    1  0.1259474E-009  0.9118800E+02  0.7815553E-02  0.1125453E+00
         25   -1    0    0    0    0  0.00000000000E+00  0.00000000000E+00  0.99999998245E-14  0.12509000000E+03  0.12509000000E+03 0.  0.
        -13    1    3    3    0    0 -0.14896010101E+02  0.29134454572E+02  0.24979356250E+02  0.41166575797E+02  0.10566000000E+00 0.  1.
         23    2    1    0    0    0  0.25132877127E+02  0.12849510020E+02 -0.82521901379E+01  0.95681326747E+02  0.91049690969E+02 0.  0.
         13    1    3    3    0    0  0.40028887228E+02 -0.16284944552E+02 -0.33231546388E+02  0.54514750950E+02  0.10566000000E+00 0. -1.
         22    1    1    0    0    0 -0.25132877127E+02 -0.12849510020E+02  0.82521901379E+01  0.29408673253E+02  0.00000000000E+00 0. -1.
</event>
<event>
 5    1  0.1259474E-009  0.9118800E+02  0.7815553E-02  0.1125453E+00
         25   -1    0    0    0    0  0.00000000000E+00  0.00000000000E+00  0.99999998245E-14  0.12509000000E+03  0.12509000000E+03 0.  0.
        -13    1    3    3    0    0  0.70596861895E+01 -0.54956111093E+01  0.52162282566E+02  0.52924056885E+02  0.10566000000E+00 0.  1.
         23    2    1    0    0    0  0.81230605928E+00  0.21598716980E+02  0.27674432332E+02  0.89975350333E+02  0.82840358802E+02 0.  0.
         13    1    3    3    0    0 -0.62473801302E+01  0.27094328089E+02 -0.24487850234E+02  0.37051293449E+02  0.10566000000E+00 0. -1.
         22    1    1    0    0    0 -0.81230605928E+00 -0.21598716980E+02 -0.27674432332E+02  0.35114649667E+02  0.00000000000E+00 0.  1.
</event>
<event>
 5    1  0.1259474E-009  0.9118800E+02  0.7815553E-02  0.1125453E+00
         25   -1    0    0    0    0  0.00000000000E+00  0.00000000000E+00  0.99999998245E-14  0.12509000000E+03  0.12509000000E+03 0.  0.
        -13    1    3    3    0    0 -0.30884048124E+02 -0.27186300957E+01  0.74906765370E+01  0.31895717223E+02  0.10566000000E+00 0.  1.
         23    2    1    0    0    0  0.30908351337E+02 -0.28943737580E+01  0.40388609510E+01  0.93784793091E+02  0.88405720604E+02 0.  0.
         13    1    3    3    0    0  0.61792399461E+02 -0.17574366229E+00 -0.34518155860E+01  0.61889075869E+02  0.10566000000E+00 0. -1.
         22    1    1    0    0    0 -0.30908351337E+02  0.28943737580E+01 -0.40388609510E+01  0.31305206909E+02  0.00000000000E+00 0. -1.
</event>
<event>
 5    1  0.1259474E-009  0.9118800E+02  0.7815553E-02  0.1125453E+00
         25   -1    0    0    0    0  0.00000000000E+00  0.00000000000E+00  0.99999998245E-14  0.12509000000E+03  0.12509000000E+03 0.  0.
        -13    1    3    3    0    0 -0.12922624388E+02  0.29295733133E+01  0.60068031012E+02  0.61512243778E+02  0.10566000000E+00 0.  1.
         23    2    1    0    0    0 -0.18510825079E+01  0.82271508591E+01  0.27943962753E+02  0.95901345148E+02  0.91351466486E+02 0.  0.
         13    1    3    3    0    0  0.11071541881E+02  0.52975775458E+01 -0.32124068259E+02  0.34389101370E+02  0.10566000000E+00 0. -1.
         22    1    1    0    0    0  0.18510825079E+01 -0.82271508591E+01 -0.27943962753E+02  0.29188654852E+02  0.00000000000E+00 0.  1.
</event>
<event>
 5    1  0.1259474E-009  0.9118800E+02  0.7815553E-02  0.1125453E+00
         25   -1    0    0    0    0  0.00000000000E+00  0.00000000000E+00  0.99999998245E-14  0.12509000000E+03  0.12509000000E+03 0.  0.
        -13    1    3    3    0    0 -0.18971910078E+02  0.34115539142E+02 -0.17408503541E+02  0.42741906164E+02  0.10566000000E+00 0.  1.
         23    2    1    0    0    0  0.92835859610E+01  0.17094578191E+02  0.23040413133E+02  0.94935892334E+02  0.90019739191E+02 0.  0.
         13    1    3    3    0    0  0.28255496039E+02 -0.17020960952E+02  0.40448916674E+02  0.52193986169E+02  0.10566000000E+00 0. -1.
         22    1    1    0    0    0 -0.92835859610E+01 -0.17094578191E+02 -0.23040413133E+02  0.30154107666E+02  0.00000000000E+00 0.  1.
</event>
<event>
 5    1  0.1259474E-009  0.9118800E+02  0.7815553E-02  0.1125453E+00
         25   -1    0    0    0    0  0.00000000000E+00  0.00000000000E+00  0.99999998245E-14  0.12509000000E+03  0.12509000000E+03 0.  0.
        -13    1    3    3    0    0  0.12032726634E+02 -0.17361606637E+02 -0.34730302066E+02  0.40649931622E+02  0.10566000000E+00 0. -1.
         23    2    1    0    0    0 -0.26048559140E+02 -0.11646637175E+02  0.51589585818E+01  0.96093682227E+02  0.91614460210E+02 0.  0.
         13    1    3    3    0    0 -0.38081285773E+02  0.57149694623E+01  0.39889260648E+02  0.55443750605E+02  0.10566000000E+00 0.  1.
         22    1    1    0    0    0  0.26048559140E+02  0.11646637175E+02 -0.51589585818E+01  0.28996317773E+02  0.00000000000E+00 0.  1.
</event>
<event>
 5    1  0.1259474E-009  0.9118800E+02  0.7815553E-02  0.1125453E+00
         25   -1    0    0    0    0  0.00000000000E+00  0.00000000000E+00  0.99999998245E-14  0.12509000000E+03  0.12509000000E+03 0.  0.
        -13    1    3    3    0    0 -0.85727978835E+01  0.51511118614E+02  0.10786870853E+02  0.53322190046E+02  0.10566000000E+00 0.  1.
         23    2    1    0    0    0 -0.23896087550E+02  0.14523128440E+02 -0.55808573979E+01  0.96575262948E+02  0.92269665569E+02 0.  0.
         13    1    3    3    0    0 -0.15323289666E+02 -0.36987990174E+02 -0.16367728251E+02  0.43253072902E+02  0.10566000000E+00 0. -1.
         22    1    1    0    0    0  0.23896087550E+02 -0.14523128440E+02  0.55808573979E+01  0.28514737052E+02  0.00000000000E+00 0.  1.
</event>
<event>
 5    1  0.1259474E-009  0.9118800E+02  0.7815553E-02  0.1125453E+00
         25   -1    0    0    0    0  0.00000000000E+00  0.00000000000E+00  0.99999998245E-14  0.12509000000E+03  0.12509000000E+03 0.  0.
        -13    1    3    3    0    0  0.32504330551E+02  0.32781779514E+02  0.17002248939E+02  0.49196180804E+02  0.10566000000E+00 0.  1.
         23    2    1    0    0    0 -0.48739634336E+01  0.33051429930E+02 -0.29210238392E+01  0.91553677599E+02  0.85190321995E+02 0.  0.
         13    1    3    3    0    0 -0.37378293984E+02  0.26965041536E+00 -0.19923272778E+02  0.42357496795E+02  0.10566000000E+00 0. -1.
         22    1    1    0    0    0  0.48739634336E+01 -0.33051429930E+02  0.29210238392E+01  0.33536322401E+02  0.00000000000E+00 0.  1.
</event>
<event>
 5    1  0.1259474E-009  0.9118800E+02  0.7815553E-02  0.1125453E+00
         25   -1    0    0    0    0  0.00000000000E+00  0.00000000000E+00  0.99999998245E-14  0.12509000000E+03  0.12509000000E+03 0.  0.
        -13    1    3    3    0    0 -0.18059831610E+02  0.26688145956E+02  0.18520242386E+02  0.37167528764E+02  0.10566000000E+00 0. -1.
         23    2    1    0    0    0 -0.23397046121E+01 -0.64317342021E+01 -0.27924936422E+02  0.96338591396E+02  0.91948250095E+02 0.  0.
         13    1    3    3    0    0  0.15720126998E+02 -0.33119880158E+02 -0.46445178808E+02  0.59171062632E+02  0.10566000000E+00 0.  1.
         22    1    1    0    0    0  0.23397046121E+01  0.64317342021E+01  0.27924936422E+02  0.28751408604E+02  0.00000000000E+00 0.  1.
</event>
<event>
 5    1  0.1259474E-009  0.9118800E+02  0.7815553E-02  0.1125453E+00
         25   -1    0    0    0    0  0.00000000000E+00  0.00000000000E+00  0.99999998245E-14  0.12509000000E+03  0.12509000000E+03 0.  0.
        -13    1    3    3    0    0 -0.52811132641E+02 -0.49533192806E+01 -0.29454974889E+02  0.60672545789E+02  0.10566000000E+00 0.  1.
         23    2    1    0    0    0 -0.30130252889E+02 -0.79694505842E+01 -0.27305524154E+02  0.83654074390E+02  0.72670958649E+02 0.  0.
         13    1    3    3    0    0  0.22680879752E+02 -0.30161313035E+01  0.21494507352E+01  0.22981528601E+02  0.10566000000E+00 0. -1.
         22    1    1    0    0    0  0.30130252889E+02  0.79694505842E+01  0.27305524154E+02  0.41435925610E+02  0.00000000000E+00 0.  1.
</event>
<event>
 5    1  0.1259474E-009  0.9118800E+02  0.7815553E-02  0.1125453E+00
         25   -1    0    0    0    0  0.00000000000E+00  0.00000000000E+00  0.99999998245E-14  0.12509000000E+03  0.12509000000E+03 0.  0.
        -13    1    3    3    0    0  0.14982807331E+01  0.22020251951E+01  0.36617931702E+02  0.36714817802E+02  0.10566000000E+00 0. -1.
         23    2    1    0    0    0  0.21145889921E+02 -0.15252364311E+02 -0.15267137925E+02  0.94876281625E+02  0.89936866951E+02 0.  0.
         13    1    3    3    0    0  0.19647609188E+02 -0.17454389506E+02 -0.51885069627E+02  0.58161463823E+02  0.10566000000E+00 0.  1.
         22    1    1    0    0    0 -0.21145889921E+02  0.15252364311E+02  0.15267137925E+02  0.30213718375E+02  0.00000000000E+00 0.  1.
</event>
<event>
 5    1  0.1259474E-009  0.9118800E+02  0.7815553E-02  0.1125453E+00
         25   -1    0    0    0    0  0.00000000000E+00  0.00000000000E+00  0.99999998245E-14  0.12509000000E+03  0.12509000000E+03 0.  0.
        -13    1    3    3    0    0 -0.55990519933E+02  0.11947088051E+01  0.21292579969E+01  0.56043827092E+02  0.10566000000E+00 0. -1.
         23    2    1    0    0    0 -0.20532292243E+02 -0.14321843123E+02 -0.12105104084E+02  0.97283098697E+02  0.93224339805E+02 0.  0.
         13    1    3    3    0    0  0.35458227690E+02 -0.15516551928E+02 -0.14234362080E+02  0.41239271605E+02  0.10566000000E+00 0.  1.
         22    1    1    0    0    0  0.20532292243E+02  0.14321843123E+02  0.12105104084E+02  0.27806901303E+02  0.00000000000E+00 0. -1.
</event>
<event>
 5    1  0.1259474E-009  0.9118800E+02  0.7815553E-02  0.1125453E+00
         25   -1    0    0    0    0  0.00000000000E+00  0.00000000000E+00  0.99999998245E-14  0.12509000000E+03  0.12509000000E+03 0.  0.
        -13    1    3    3    0    0  0.22350006378E+02  0.39785972441E+02 -0.16262479231E+01  0.45662919689E+02  0.10566000000E+00 0. -1.
         23    2    1    0    0    0 -0.21864376126E+02  0.20952193622E+02 -0.69631915474E+01  0.94016998898E+02  0.88733672776E+02 0.  0.
         13    1    3    3    0    0 -0.44214382504E+02 -0.18833778819E+02 -0.53369436243E+01  0.48354079209E+02  0.10566000000E+00 0.  1.
         22    1    1    0    0    0  0.21864376126E+02 -0.20952193622E+02  0.69631915474E+01  0.31073001102E+02  0.00000000000E+00 0. -1.
</event>
<event>
 5    1  0.1259474E-009  0.9118800E+02  0.7815553E-02  0.1125453E+00
         25   -1    0    0    0    0  0.00000000000E+00  0.00000000000E+00  0.99999998245E-14  0.12509000000E+03  0.12509000000E+03 0.  0.
        -13    1    3    3    0    0  0.34935801569E+02  0.52569728960E+01  0.36332715259E+02  0.50677641593E+02  0.10566000000E+00 0. -1.
         23    2    1    0    0    0 -0.76319658383E+01  0.15770129517E+02  0.22332450685E+02  0.96705457708E+02  0.92446002128E+02 0.  0.
         13    1    3    3    0    0 -0.42567767408E+02  0.10513156621E+02 -0.14000264574E+02  0.46027816116E+02  0.10566000000E+00 0.  1.
         22    1    1    0    0    0  0.76319658383E+01 -0.15770129517E+02 -0.22332450685E+02  0.28384542292E+02  0.00000000000E+00 0. -1.
</event>
<event>
 5    1  0.1259474E-009  0.9118800E+02  0.7815553E-02  0.1125453E+00
         25   -1    0    0    0    0  0.00000000000E+00  0.00000000000E+00  0.99999998245E-14  0.12509000000E+03  0.12509000000E+03 0.  0.
        -13    1    3    3    0    0 -0.27890035596E+02 -0.45672563114E+02 -0.14280831847E+02  0.55387637874E+02  0.10566000000E+00 0.  1.
         23    2    1    0    0    0 -0.26099927456E+02 -0.10967985376E+02  0.67216618339E+01  0.95992170971E+02  0.91475752161E+02 0.  0.
         13    1    3    3    0    0  0.17901081403E+01  0.34704577738E+02  0.21002493681E+02  0.40604533097E+02  0.10566000000E+00 0. -1.
         22    1    1    0    0    0  0.26099927456E+02  0.10967985376E+02 -0.67216618339E+01  0.29097829029E+02  0.00000000000E+00 0.  1.
</event>
<event>
 5    1  0.1259474E-009  0.9118800E+02  0.7815553E-02  0.1125453E+00
         25   -1    0    0    0    0  0.00000000000E+00  0.00000000000E+00  0.99999998245E-14  0.12509000000E+03  0.12509000000E+03 0.  0.
        -13    1    3    3    0    0 -0.22863885637E+02  0.13030588286E+02 -0.19883325887E+02  0.32983500570E+02  0.10566000000E+00 0.  1.
         23    2    1    0    0    0  0.12487548465E+02 -0.10606023487E+02  0.25246950257E+02  0.94992905486E+02  0.90098928931E+02 0.  0.
         13    1    3    3    0    0  0.35351434102E+02 -0.23636611773E+02  0.45130276144E+02  0.62009404916E+02  0.10566000000E+00 0. -1.
         22    1    1    0    0    0 -0.12487548465E+02  0.10606023487E+02 -0.25246950257E+02  0.30097094514E+02  0.00000000000E+00 0. -1.
</event>
<event>
 5    1  0.1259474E-009  0.9118800E+02  0.7815553E-02  0.1125453E+00
         25   -1    0    0    0    0  0.00000000000E+00  0.00000000000E+00  0.99999998245E-14  0.12509000000E+03  0.12509000000E+03 0.  0.
        -13    1    3    3    0    0  0.30775536756E+02  0.45477340846E-01 -0.16070817261E+02  0.34719131070E+02  0.10566000000E+00 0. -1.
         23    2    1    0    0    0 -0.16354650617E+02 -0.12159032786E+02  0.20936470341E+02  0.95872668407E+02  0.91312190216E+02 0.  0.
         13    1    3    3    0    0 -0.47130187372E+02 -0.12204510126E+02  0.37007287602E+02  0.61153537337E+02  0.10566000000E+00 0.  1.
         22    1    1    0    0    0  0.16354650617E+02  0.12159032786E+02 -0.20936470341E+02  0.29217331593E+02  0.00000000000E+00 0.  1.
</event>
<event>
 5    1  0.1259474E-009  0.9118800E+02  0.7815553E-02  0.1125453E+00
         25   -1    0    0    0    0  0.00000000000E+00  0.00000000000E+00  0.99999998245E-14  0.12509000000E+03  0.12509000000E+03 0.  0.
        -13    1    3    3    0    0 -0.26913769628E+02 -0.12755398012E+02  0.13154808180E+02  0.32559350674E+02  0.10566000000E+00 0. -1.
         23    2    1    0    0    0  0.24977319206E+02  0.11453351759E+02 -0.12005455807E+02  0.95103724633E+02  0.90252654967E+02 0.  0.
         13    1    3    3    0    0  0.51891088835E+02  0.24208749771E+02 -0.25160263987E+02  0.62544373959E+02  0.10566000000E+00 0.  1.
         22    1    1    0    0    0 -0.24977319206E+02 -0.11453351759E+02  0.12005455807E+02  0.29986275367E+02  0.00000000000E+00 0.  1.
</event>
<event>
 5    1  0.1259474E-009  0.9118800E+02  0.7815553E-02  0.1125453E+00
         25   -1    0    0    0    0  0.00000000000E+00  0.00000000000E+00  0.99999998245E-14  0.12509000000E+03  0.12509000000E+03 0.  0.
        -13    1    3    3    0    0  0.36295357825E+02  0.33665485846E+02 -0.12473374438E+02  0.51052073130E+02  0.10566000000E+00 0.  1.
         23    2    1    0    0    0  0.13629645112E+02  0.18037674023E+02  0.20890053030E+02  0.94308199766E+02  0.89143240448E+02 0.  0.
         13    1    3    3    0    0 -0.22665712714E+02 -0.15627811823E+02  0.33363427468E+02  0.43256126637E+02  0.10566000000E+00 0. -1.
         22    1    1    0    0    0 -0.13629645112E+02 -0.18037674023E+02 -0.20890053030E+02  0.30781800234E+02  0.00000000000E+00 0.  1.
</event>
<event>
 5    1  0.1259474E-009  0.9118800E+02  0.7815553E-02  0.1125453E+00
         25   -1    0    0    0    0  0.00000000000E+00  0.00000000000E+00  0.99999998245E-14  0.12509000000E+03  0.12509000000E+03 0.  0.
        -13    1    3    3    0    0 -0.30069722392E+02 -0.21483355482E+02 -0.32481824997E+01  0.37098310219E+02  0.10566000000E+00 0. -1.
         23    2    1    0    0    0  0.25377504994E+02 -0.47166889004E+01 -0.13555274185E+02  0.95935062645E+02  0.91397625093E+02 0.  0.
         13    1    3    3    0    0  0.55447227386E+02  0.16766666582E+02 -0.10307091685E+02  0.58836752427E+02  0.10566000000E+00 0.  1.
         22    1    1    0    0    0 -0.25377504994E+02  0.47166889004E+01  0.13555274185E+02  0.29154937355E+02  0.00000000000E+00 0.  1.
</event>
<event>
 5    1  0.1259474E-009  0.9118800E+02  0.7815553E-02  0.1125453E+00
         25   -1    0    0    0    0  0.00000000000E+00  0.00000000000E+00  0.99999998245E-14  0.12509000000E+03  0.12509000000E+03 0.  0.
        -13    1    3    3    0    0  0.15474533921E+01 -0.27254231808E+02 -0.54781293213E+02  0.61206119086E+02  0.10566000000E+00 0.  1.
         23    2    1    0    0    0  0.21426811386E+01 -0.21424791188E+02 -0.22761179576E+02  0.93758162269E+02  0.88368031190E+02 0.  0.
         13    1    3    3    0    0  0.59522774654E+00  0.58294406196E+01  0.32020113637E+02  0.32552043183E+02  0.10566000000E+00 0. -1.
         22    1    1    0    0    0 -0.21426811386E+01  0.21424791188E+02  0.22761179576E+02  0.31331837731E+02  0.00000000000E+00 0.  1.
</event>
<event>
 5    1  0.1259474E-009  0.9118800E+02  0.7815553E-02  0.1125453E+00
         25   -1    0    0    0    0  0.00000000000E+00  0.00000000000E+00  0.99999998245E-14  0.12509000000E+03  0.12509000000E+03 0.  0.
        -13    1    3    3    0    0 -0.24329951516E+02 -0.40234233291E+02  0.39575584725E+02  0.61457124401E+02  0.10566000000E+00 0.  1.
         23    2    1    0    0    0 -0.75885589217E+01 -0.14586932092E+02  0.24473153773E+02  0.95606104905E+02  0.90946287583E+02 0.  0.
         13    1    3    3    0    0  0.16741392594E+02  0.25647301199E+02 -0.15102430952E+02  0.34148980504E+02  0.10566000000E+00 0. -1.
         22    1    1    0    0    0  0.75885589217E+01  0.14586932092E+02 -0.24473153773E+02  0.29483895095E+02  0.00000000000E+00 0.  1.
</event>
<event>
 5    1  0.1259474E-009  0.9118800E+02  0.7815553E-02  0.1125453E+00
         25   -1    0    0    0    0  0.00000000000E+00  0.00000000000E+00  0.99999998245E-14  0.12509000000E+03  0.12509000000E+03 0.  0.
        -13    1    3    3    0    0 -0.52759738913E+02  0.92927667208E+00  0.25523872105E+02  0.58616830489E+02  0.10566000000E+00 0.  1.
         23    2    1    0    0    0 -0.21724427514E+02 -0.14865302858E+02  0.81500259084E+01  0.97533677637E+02  0.93559966713E+02 0.  0.
         13    1    3    3    0    0  0.31035311400E+02 -0.15794579530E+02 -0.17373846197E+02  0.38916847148E+02  0.10566000000E+00 0. -1.
         22    1    1    0    0    0  0.21724427514E+02  0.14865302858E+02 -0.81500259084E+01  0.27556322363E+02  0.00000000000E+00 0.  1.
</event>
<event>
 5    1  0.1259474E-009  0.9118800E+02  0.7815553E-02  0.1125453E+00
         25   -1    0    0    0    0  0.00000000000E+00  0.00000000000E+00  0.99999998245E-14  0.12509000000E+03  0.12509000000E+03 0.  0.
        -13    1    3    3    0    0 -0.33426412760E+02 -0.48341979592E+01 -0.49356634757E+01  0.34133070151E+02  0.10566000000E+00 0. -1.
         23    2    1    0    0    0  0.22585039452E+02  0.10892888876E+02  0.15284185007E+02  0.95724282803E+02  0.91108687686E+02 0.  0.
         13    1    3    3    0    0  0.56011452213E+02  0.15727086835E+02  0.20219848483E+02  0.61591212653E+02  0.10566000000E+00 0.  1.
         22    1    1    0    0    0 -0.22585039452E+02 -0.10892888876E+02 -0.15284185007E+02  0.29365717197E+02  0.00000000000E+00 0.  1.
</event>
<event>
 5    1  0.1259474E-009  0.9118800E+02  0.7815553E-02  0.1125453E+00
         25   -1    0    0    0    0  0.00000000000E+00  0.00000000000E+00  0.99999998245E-14  0.12509000000E+03  0.12509000000E+03 0.  0.
        -13    1    3    3    0    0 -0.20386727466E+02 -0.18670206167E+02  0.17917719486E+02  0.32943149374E+02  0.10566000000E+00 0.  1.
         23    2    1    0    0    0  0.21311047472E+02  0.23050057494E+02  0.55603228414E+01  0.93209236444E+02  0.87587548621E+02 0.  0.
         13    1    3    3    0    0  0.41697774938E+02  0.41720263661E+02 -0.12357396644E+02  0.60266087069E+02  0.10566000000E+00 0. -1.
         22    1    1    0    0    0 -0.21311047472E+02 -0.23050057494E+02 -0.55603228414E+01  0.31880763556E+02  0.00000000000E+00 0. -1.
</event>
<event>
 5    1  0.1259474E-009  0.9118800E+02  0.7815553E-02  0.1125453E+00
         25   -1    0    0    0    0  0.00000000000E+00  0.00000000000E+00  0.99999998245E-14  0.12509000000E+03  0.12509000000E+03 0.  0.
        -13    1    3    3    0    0 -0.16333839370E+01  0.33013792729E+02 -0.39033161546E+02  0.51148580799E+02  0.10566000000E+00 0.  1.
         23    2    1    0    0    0 -0.25134304657E+02  0.12283729840E+02 -0.64001983837E+01  0.96391814888E+02  0.92020628930E+02 0.  0.
         13    1    3    3    0    0 -0.23500920720E+02 -0.20730062889E+02  0.32632963162E+02  0.45243234089E+02  0.10566000000E+00 0. -1.
         22    1    1    0    0    0  0.25134304657E+02 -0.12283729840E+02  0.64001983837E+01  0.28698185112E+02  0.00000000000E+00 0. -1.
</event>
<event>
 5    1  0.1259474E-009  0.9118800E+02  0.7815553E-02  0.1125453E+00
         25   -1    0    0    0    0  0.00000000000E+00  0.00000000000E+00  0.99999998245E-14  0.12509000000E+03  0.12509000000E+03 0.  0.
        -13    1    3    3    0    0 -0.28489056319E+02 -0.24519261141E+00 -0.14641142643E+02  0.32032181807E+02  0.10566000000E+00 0.  1.
         23    2    1    0    0    0  0.30634353210E+02  0.29997791028E+00  0.43803855007E+01  0.94142603333E+02  0.88910564062E+02 0.  0.
         13    1    3    3    0    0  0.59123409529E+02  0.54517052169E+00  0.19021528144E+02  0.62110421526E+02  0.10566000000E+00 0. -1.
         22    1    1    0    0    0 -0.30634353210E+02 -0.29997791028E+00 -0.43803855007E+01  0.30947396667E+02  0.00000000000E+00 0. -1.
</event>
<event>
 5    1  0.1259474E-009  0.9118800E+02  0.7815553E-02  0.1125453E+00
         25   -1    0    0    0    0  0.00000000000E+00  0.00000000000E+00  0.99999998245E-14  0.12509000000E+03  0.12509000000E+03 0.  0.
        -13    1    3    3    0    0 -0.29802420571E+01 -0.41930503912E+02  0.13258962675E+02  0.44077888519E+02  0.10566000000E+00 0. -1.
         23    2    1    0    0    0  0.25767005583E+02  0.34095941733E+00  0.15083644542E+02  0.95230811084E+02  0.90428624987E+02 0.  0.
         13    1    3    3    0    0  0.28747247640E+02  0.42271463330E+02  0.18246818674E+01  0.51152922565E+02  0.10566000000E+00 0.  1.
         22    1    1    0    0    0 -0.25767005583E+02 -0.34095941733E+00 -0.15083644542E+02  0.29859188916E+02  0.00000000000E+00 0.  1.
</event>
<event>
 5    1  0.1259474E-009  0.9118800E+02  0.7815553E-02  0.1125453E+00
         25   -1    0    0    0    0  0.00000000000E+00  0.00000000000E+00  0.99999998245E-14  0.12509000000E+03  0.12509000000E+03 0.  0.
        -13    1    3    3    0    0  0.17954768589E+02 -0.44638378165E+02 -0.86219343844E+00  0.48121856384E+02  0.10566000000E+00 0.  1.
         23    2    1    0    0    0 -0.14454994404E+02 -0.14431830555E+02 -0.20109557059E+02  0.96426104914E+02  0.92067229932E+02 0.  0.
         13    1    3    3    0    0 -0.32409762993E+02  0.30206547609E+02 -0.19247363621E+02  0.48304248530E+02  0.10566000000E+00 0. -1.
         22    1    1    0    0    0  0.14454994404E+02  0.14431830555E+02  0.20109557059E+02  0.28663895086E+02  0.00000000000E+00 0. -1.
</event>
<event>
 5    1  0.1259474E-009  0.9118800E+02  0.7815553E-02  0.1125453E+00
         25   -1    0    0    0    0  0.00000000000E+00  0.00000000000E+00  0.99999998245E-14  0.12509000000E+03  0.12509000000E+03 0.  0.
        -13    1    3    3    0    0  0.30709767254E+01 -0.13582541591E+02 -0.30341174068E+02  0.33384342766E+02  0.10566000000E+00 0.  1.
         23    2    1    0    0    0 -0.19490621712E+02  0.96589386165E+00  0.24097113702E+02  0.94082127219E+02  0.88825438291E+02 0.  0.
         13    1    3    3    0    0 -0.22561598437E+02  0.14548435452E+02  0.54438287769E+02  0.60697784452E+02  0.10566000000E+00 0. -1.
         22    1    1    0    0    0  0.19490621712E+02 -0.96589386165E+00 -0.24097113702E+02  0.31007872781E+02  0.00000000000E+00 0. -1.
</event>
<event>
 5    1  0.1259474E-009  0.9118800E+02  0.7815553E-02  0.1125453E+00
         25   -1    0    0    0    0  0.00000000000E+00  0.00000000000E+00  0.99999998245E-14  0.12509000000E+03  0.12509000000E+03 0.  0.
        -13    1    3    3    0    0  0.18190064131E+02 -0.28240108240E+02 -0.27172636329E+01  0.33701288287E+02  0.10566000000E+00 0.  1.
         23    2    1    0    0    0 -0.98603992577E+01  0.26242130475E+02 -0.98097907828E+01  0.95389682147E+02  0.90648125074E+02 0.  0.
         13    1    3    3    0    0 -0.28050463389E+02  0.54482238714E+02 -0.70925271498E+01  0.61688393860E+02  0.10566000000E+00 0. -1.
         22    1    1    0    0    0  0.98603992577E+01 -0.26242130475E+02  0.98097907828E+01  0.29700317853E+02  0.00000000000E+00 0. -1.
</event>
<event>
 5    1  0.1259474E-009  0.9118800E+02  0.7815553E-02  0.1125453E+00
         25   -1    0    0    0    0  0.00000000000E+00  0.00000000000E+00  0.99999998245E-14  0.12509000000E+03  0.12509000000E+03 0.  0.
        -13    1    3    3    0    0 -0.39918473227E+02  0.10744725201E+02  0.31836960461E+02  0.52177934416E+02  0.10566000000E+00 0. -1.
         23    2    1    0    0    0 -0.11816021312E+02 -0.19772404800E+02  0.17819944020E+02  0.95967555802E+02  0.91442085554E+02 0.  0.
         13    1    3    3    0    0  0.28102451916E+02 -0.30517130001E+02 -0.14017016441E+02  0.43789621386E+02  0.10566000000E+00 0.  1.
         22    1    1    0    0    0  0.11816021312E+02  0.19772404800E+02 -0.17819944020E+02  0.29122444198E+02  0.00000000000E+00 0. -1.
</event>
<event>
 5    1  0.1259474E-009  0.9118800E+02  0.7815553E-02  0.1125453E+00
         25   -1    0    0    0    0  0.00000000000E+00  0.00000000000E+00  0.99999998245E-14  0.12509000000E+03  0.12509000000E+03 0.  0.
        -13    1    3    3    0    0  0.28302322946E+02 -0.49997989893E+02 -0.52390846766E+01  0.57691244135E+02  0.10566000000E+00 0.  1.
         23    2    1    0    0    0  0.25913792799E+02 -0.12517220027E+02  0.30444641403E+01  0.96150853221E+02  0.91692488017E+02 0.  0.
         13    1    3    3    0    0 -0.23885301474E+01  0.37480769866E+02  0.82835488169E+01  0.38459609086E+02  0.10566000000E+00 0. -1.
         22    1    1    0    0    0 -0.25913792799E+02  0.12517220027E+02 -0.30444641403E+01  0.28939146779E+02  0.00000000000E+00 0. -1.
</event>
<event>
 5    1  0.1259474E-009  0.9118800E+02  0.7815553E-02  0.1125453E+00
         25   -1    0    0    0    0  0.00000000000E+00  0.00000000000E+00  0.99999998245E-14  0.12509000000E+03  0.12509000000E+03 0.  0.
        -13    1    3    3    0    0 -0.23639603891E+02  0.17681841972E+01  0.57616820963E+02  0.62303022153E+02  0.10566000000E+00 0. -1.
         23    2    1    0    0    0 -0.72685144754E+01 -0.11551308575E+00  0.27630025359E+02  0.96519684158E+02  0.92194286605E+02 0.  0.
         13    1    3    3    0    0  0.16371089416E+02 -0.18836972830E+01 -0.29986795604E+02  0.34216662005E+02  0.10566000000E+00 0.  1.
         22    1    1    0    0    0  0.72685144754E+01  0.11551308575E+00 -0.27630025359E+02  0.28570315842E+02  0.00000000000E+00 0. -1.
</event>
<event>
 5    1  0.1259474E-009  0.9118800E+02  0.7815553E-02  0.1125453E+00
         25   -1    0    0    0    0  0.00000000000E+00  0.00000000000E+00  0.99999998245E-14  0.12509000000E+03  0.12509000000E+03 0.  0.
        -13    1    3    3    0    0 -0.17500613376E+02 -0.32225778358E+02  0.38260443349E+02  0.52996650353E+02  0.10566000000E+00 0. -1.
         23    2    1    0    0    0 -0.26624954372E+02  0.83289187541E-01  0.10845938320E+02  0.96340573738E+02  0.91950946910E+02 0.  0.
         13    1    3    3    0    0 -0.91243409960E+01  0.32309067546E+02 -0.27414505030E+02  0.43343923384E+02  0.10566000000E+00 0.  1.
         22    1    1    0    0    0  0.26624954372E+02 -0.83289187541E-01 -0.10845938320E+02  0.28749426262E+02  0.00000000000E+00 0. -1.
</event>
<event>
 5    1  0.1259474E-009  0.9118800E+02  0.7815553E-02  0.1125453E+00
         25   -1    0    0    0    0  0.00000000000E+00  0.00000000000E+00  0.99999998245E-14  0.12509000000E+03  0.12509000000E+03 0.  0.
        -13    1    3    3    0    0 -0.26268827866E+02 -0.44170342943E+02 -0.11587382552E+02  0.52681582281E+02  0.10566000000E+00 0. -1.
         23    2    1    0    0    0 -0.16258842267E+02 -0.17670960399E+02 -0.30147823033E+02  0.86547763078E+02  0.77492007762E+02 0.  0.
         13    1    3    3    0    0  0.10009985600E+02  0.26499382544E+02 -0.18560440481E+02  0.33866180797E+02  0.10566000000E+00 0.  1.
         22    1    1    0    0    0  0.16258842267E+02  0.17670960399E+02  0.30147823033E+02  0.38542236922E+02  0.00000000000E+00 0. -1.
</event>
<event>
 5    1  0.1259474E-009  0.9118800E+02  0.7815553E-02  0.1125453E+00
         25   -1    0    0    0    0  0.00000000000E+00  0.00000000000E+00  0.99999998245E-14  0.12509000000E+03  0.12509000000E+03 0.  0.
        -13    1    3    3    0    0  0.26609080345E+02  0.38796712976E+02  0.16440607089E+02  0.49835056135E+02  0.10566000000E+00 0.  1.
         23    2    1    0    0    0  0.28439020316E+02 -0.37497705994E+01 -0.21970708395E+01  0.96320818983E+02  0.91924068628E+02 0.  0.
         13    1    3    3    0    0  0.18299399717E+01 -0.42546483576E+02 -0.18637677928E+02  0.46485762848E+02  0.10566000000E+00 0. -1.
         22    1    1    0    0    0 -0.28439020316E+02  0.37497705994E+01  0.21970708395E+01  0.28769181017E+02  0.00000000000E+00 0.  1.
</event>
<event>
 5    1  0.1259474E-009  0.9118800E+02  0.7815553E-02  0.1125453E+00
         25   -1    0    0    0    0  0.00000000000E+00  0.00000000000E+00  0.99999998245E-14  0.12509000000E+03  0.12509000000E+03 0.  0.
        -13    1    3    3    0    0  0.20212771475E+02 -0.54282959723E+02  0.22249458139E+02  0.62050345676E+02  0.10566000000E+00 0. -1.
         23    2    1    0    0    0  0.14161269796E+02 -0.22594996033E+02  0.11436435583E+02  0.96075047530E+02  0.91589012939E+02 0.  0.
         13    1    3    3    0    0 -0.60515016792E+01  0.31687963690E+02 -0.10813022556E+02  0.34024701854E+02  0.10566000000E+00 0.  1.
         22    1    1    0    0    0 -0.14161269796E+02  0.22594996033E+02 -0.11436435583E+02  0.29014952470E+02  0.00000000000E+00 0. -1.
</event>
<event>
 5    1  0.1259474E-009  0.9118800E+02  0.7815553E-02  0.1125453E+00
         25   -1    0    0    0    0  0.00000000000E+00  0.00000000000E+00  0.99999998245E-14  0.12509000000E+03  0.12509000000E+03 0.  0.
        -13    1    3    3    0    0  0.25824935222E+02  0.10431091763E+02 -0.17972108338E+02  0.33147289432E+02  0.10566000000E+00 0.  1.
         23    2    1    0    0    0 -0.13563494176E+02  0.20614118385E+01  0.27786572972E+02  0.94101107949E+02  0.88852164220E+02 0.  0.
         13    1    3    3    0    0 -0.39388429398E+02 -0.83696799249E+01  0.45758681310E+02  0.60953818516E+02  0.10566000000E+00 0. -1.
         22    1    1    0    0    0  0.13563494176E+02 -0.20614118385E+01 -0.27786572972E+02  0.30988892051E+02  0.00000000000E+00 0. -1.
</event>
<event>
 5    1  0.1259474E-009  0.9118800E+02  0.7815553E-02  0.1125453E+00
         25   -1    0    0    0    0  0.00000000000E+00  0.00000000000E+00  0.99999998245E-14  0.12509000000E+03  0.12509000000E+03 0.  0.
        -13    1    3    3    0    0 -0.13444614274E+02  0.28988485642E+02 -0.17757333664E+02  0.36557133582E+02  0.10566000000E+00 0. -1.
         23    2    1    0    0    0  0.24458406871E+02 -0.14159695625E+02  0.50936645529E+00  0.96823940829E+02  0.92606184549E+02 0.  0.
         13    1    3    3    0    0  0.37903021145E+02 -0.43148181267E+02  0.18266700119E+02  0.60266807248E+02  0.10566000000E+00 0.  1.
         22    1    1    0    0    0 -0.24458406871E+02  0.14159695625E+02 -0.50936645529E+00  0.28266059171E+02  0.00000000000E+00 0.  1.
</event>
<event>
 5    1  0.1259474E-009  0.9118800E+02  0.7815553E-02  0.1125453E+00
         25   -1    0    0    0    0  0.00000000000E+00  0.00000000000E+00  0.99999998245E-14  0.12509000000E+03  0.12509000000E+03 0.  0.
        -13    1    3    3    0    0  0.46288040260E+02 -0.27084095252E+02 -0.25312758757E+02  0.59303269781E+02  0.10566000000E+00 0. -1.
         23    2    1    0    0    0  0.20020556194E+02 -0.20831018853E+02 -0.17150586360E+00  0.96197381028E+02  0.91755940874E+02 0.  0.
         13    1    3    3    0    0 -0.26267484066E+02  0.62530763987E+01  0.25141252894E+02  0.36894111247E+02  0.10566000000E+00 0.  1.
         22    1    1    0    0    0 -0.20020556194E+02  0.20831018853E+02  0.17150586360E+00  0.28892618972E+02  0.00000000000E+00 0. -1.
</event>
<event>
 5    1  0.1259474E-009  0.9118800E+02  0.7815553E-02  0.1125453E+00
         25   -1    0    0    0    0  0.00000000000E+00  0.00000000000E+00  0.99999998245E-14  0.12509000000E+03  0.12509000000E+03 0.  0.
        -13    1    3    3    0    0  0.47195213265E+01 -0.10882434663E+02  0.32859976888E+02  0.34935519330E+02  0.10566000000E+00 0.  1.
         23    2    1    0    0    0 -0.51136259954E+01 -0.86619485110E+01 -0.27331971666E+02  0.95965865713E+02  0.91439773535E+02 0.  0.
         13    1    3    3    0    0 -0.98331473219E+01  0.22204861522E+01 -0.60191948553E+02  0.61030346383E+02  0.10566000000E+00 0. -1.
         22    1    1    0    0    0  0.51136259954E+01  0.86619485110E+01  0.27331971666E+02  0.29124134287E+02  0.00000000000E+00 0. -1.
</event>
<event>
 5    1  0.1259474E-009  0.9118800E+02  0.7815553E-02  0.1125453E+00
         25   -1    0    0    0    0  0.00000000000E+00  0.00000000000E+00  0.99999998245E-14  0.12509000000E+03  0.12509000000E+03 0.  0.
        -13    1    3    3    0    0  0.49551908570E+02  0.25757761042E+01  0.12797537144E+02  0.51242700812E+02  0.10566000000E+00 0.  1.
         23    2    1    0    0    0  0.16910287439E+02  0.86118745705E+01 -0.19727767608E+02  0.97716527080E+02  0.93804118486E+02 0.  0.
         13    1    3    3    0    0 -0.32641621131E+02  0.60360984662E+01 -0.32525304753E+02  0.46473826269E+02  0.10566000000E+00 0. -1.
         22    1    1    0    0    0 -0.16910287439E+02 -0.86118745705E+01  0.19727767608E+02  0.27373472920E+02  0.00000000000E+00 0.  1.
</event>
<event>
 5    1  0.1259474E-009  0.9118800E+02  0.7815553E-02  0.1125453E+00
         25   -1    0    0    0    0  0.00000000000E+00  0.00000000000E+00  0.99999998245E-14  0.12509000000E+03  0.12509000000E+03 0.  0.
        -13    1    3    3    0    0 -0.59418668504E+02 -0.32461900481E+01 -0.16291088600E+02  0.61697055428E+02  0.10566000000E+00 0.  1.
         23    2    1    0    0    0 -0.20457670348E+02  0.57746188435E+01 -0.63235860373E+01  0.10291230311E+03  0.10049423811E+03 0.  0.
         13    1    3    3    0    0  0.38960998156E+02  0.90208088917E+01  0.99675025627E+01  0.41215247685E+02  0.10566000000E+00 0. -1.
         22    1    1    0    0    0  0.20457670348E+02 -0.57746188435E+01  0.63235860373E+01  0.22177696888E+02  0.00000000000E+00 0.  1.
</event>
<event>
 5    1  0.1259474E-009  0.9118800E+02  0.7815553E-02  0.1125453E+00
         25   -1    0    0    0    0  0.00000000000E+00  0.00000000000E+00  0.99999998245E-14  0.12509000000E+03  0.12509000000E+03 0.  0.
        -13    1    3    3    0    0  0.26530245436E+02  0.33843917857E+02 -0.74739226579E+01  0.43647856565E+02  0.10566000000E+00 0. -1.
         23    2    1    0    0    0  0.20297781718E+02 -0.11712257556E+02  0.17378287041E+02  0.95914980202E+02  0.91370135422E+02 0.  0.
         13    1    3    3    0    0 -0.62324637180E+01 -0.45556175414E+02  0.24852209699E+02  0.52267123637E+02  0.10566000000E+00 0.  1.
         22    1    1    0    0    0 -0.20297781718E+02  0.11712257556E+02 -0.17378287041E+02  0.29175019798E+02  0.00000000000E+00 0. -1.
</event>
<event>
 5    1  0.1259474E-009  0.9118800E+02  0.7815553E-02  0.1125453E+00
         25   -1    0    0    0    0  0.00000000000E+00  0.00000000000E+00  0.99999998245E-14  0.12509000000E+03  0.12509000000E+03 0.  0.
        -13    1    3    3    0    0  0.28427752534E+02 -0.21237744084E+02 -0.22779453919E+02  0.42167446838E+02  0.10566000000E+00 0. -1.
         23    2    1    0    0    0  0.11896744064E+02  0.22332178166E+02  0.86190530866E+01  0.98358992217E+02  0.94656983751E+02 0.  0.
         13    1    3    3    0    0 -0.16531008470E+02  0.43569922250E+02  0.31398507006E+02  0.56191545380E+02  0.10566000000E+00 0.  1.
         22    1    1    0    0    0 -0.11896744064E+02 -0.22332178166E+02 -0.86190530866E+01  0.26731007783E+02  0.00000000000E+00 0.  1.
</event>
<event>
 5    1  0.1259474E-009  0.9118800E+02  0.7815553E-02  0.1125453E+00
         25   -1    0    0    0    0  0.00000000000E+00  0.00000000000E+00  0.99999998245E-14  0.12509000000E+03  0.12509000000E+03 0.  0.
        -13    1    3    3    0    0 -0.36023930903E+02  0.49654587926E+02 -0.71132762791E+01  0.61756874623E+02  0.10566000000E+00 0.  1.
         23    2    1    0    0    0 -0.10933345244E+02  0.26987341503E+02 -0.34648078349E+01  0.95766638444E+02  0.91166822396E+02 0.  0.
         13    1    3    3    0    0  0.25090585659E+02 -0.22667246423E+02  0.36484684441E+01  0.34009763820E+02  0.10566000000E+00 0. -1.
         22    1    1    0    0    0  0.10933345244E+02 -0.26987341503E+02  0.34648078349E+01  0.29323361556E+02  0.00000000000E+00 0.  1.
</event>
<event>
 5    1  0.1259474E-009  0.9118800E+02  0.7815553E-02  0.1125453E+00
         25   -1    0    0    0    0  0.00000000000E+00  0.00000000000E+00  0.99999998245E-14  0.12509000000E+03  0.12509000000E+03 0.  0.
        -13    1    3    3    0    0  0.51138981024E+02 -0.10298185871E+02 -0.20400137027E+02  0.56012719691E+02  0.10566000000E+00 0.  1.
         23    2    1    0    0    0  0.13842670489E+02 -0.62187659802E+01 -0.27009447425E+02  0.94109315263E+02  0.88863718088E+02 0.  0.
         13    1    3    3    0    0 -0.37296310535E+02  0.40794198909E+01 -0.66093103978E+01  0.38096595571E+02  0.10566000000E+00 0. -1.
         22    1    1    0    0    0 -0.13842670489E+02  0.62187659802E+01  0.27009447425E+02  0.30980684737E+02  0.00000000000E+00 0. -1.
</event>
<event>
 5    1  0.1259474E-009  0.9118800E+02  0.7815553E-02  0.1125453E+00
         25   -1    0    0    0    0  0.00000000000E+00  0.00000000000E+00  0.99999998245E-14  0.12509000000E+03  0.12509000000E+03 0.  0.
        -13    1    3    3    0    0 -0.14980036788E+02 -0.27783266411E+02 -0.16602531065E+02  0.35664640703E+02  0.10566000000E+00 0.  1.
         23    2    1    0    0    0  0.24719727918E+02  0.14813635095E+02  0.20574088481E+00  0.96270717178E+02  0.91855864938E+02 0.  0.
         13    1    3    3    0    0  0.39699764706E+02  0.42596901506E+02  0.16808271950E+02  0.60606076475E+02  0.10566000000E+00 0. -1.
         22    1    1    0    0    0 -0.24719727918E+02 -0.14813635095E+02 -0.20574088481E+00  0.28819282822E+02  0.00000000000E+00 0. -1.
</event>
<event>
 5    1  0.1259474E-009  0.9118800E+02  0.7815553E-02  0.1125453E+00
         25   -1    0    0    0    0  0.00000000000E+00  0.00000000000E+00  0.99999998245E-14  0.12509000000E+03  0.12509000000E+03 0.  0.
        -13    1    3    3    0    0 -0.27038009294E+02 -0.42362728752E+02 -0.23016388596E+02  0.55275854059E+02  0.10566000000E+00 0. -1.
         23    2    1    0    0    0 -0.27198403325E+02 -0.99098622128E+01  0.17346659736E+01  0.96090558996E+02  0.91610195665E+02 0.  0.
         13    1    3    3    0    0 -0.16039403052E+00  0.32452866539E+02  0.24751054569E+02  0.40814704938E+02  0.10566000000E+00 0.  1.
         22    1    1    0    0    0  0.27198403325E+02  0.99098622128E+01 -0.17346659736E+01  0.28999441004E+02  0.00000000000E+00 0. -1.
</event>
<event>
 5    1  0.1259474E-009  0.9118800E+02  0.7815553E-02  0.1125453E+00
         25   -1    0    0    0    0  0.00000000000E+00  0.00000000000E+00  0.99999998245E-14  0.12509000000E+03  0.12509000000E+03 0.  0.
        -13    1    3    3    0    0 -0.47695503173E+01 -0.14919765683E+02 -0.10165820054E+02  0.18673593111E+02  0.10566000000E+00 0.  1.
         23    2    1    0    0    0 -0.66540307746E+01  0.25495319516E+02  0.36267716826E+02  0.80261050352E+02  0.66574781089E+02 0.  0.
         13    1    3    3    0    0 -0.18844804573E+01  0.40415085199E+02  0.46433536880E+02  0.61587457241E+02  0.10566000000E+00 0. -1.
         22    1    1    0    0    0  0.66540307746E+01 -0.25495319516E+02 -0.36267716826E+02  0.44828949648E+02  0.00000000000E+00 0. -1.
</event>
<event>
 5    1  0.1259474E-009  0.9118800E+02  0.7815553E-02  0.1125453E+00
         25   -1    0    0    0    0  0.00000000000E+00  0.00000000000E+00  0.99999998245E-14  0.12509000000E+03  0.12509000000E+03 0.  0.
        -13    1    3    3    0    0 -0.19072282174E+02 -0.40370028960E+02  0.40707452522E+02  0.60420187358E+02  0.10566000000E+00 0. -1.
         23    2    1    0    0    0 -0.18486112349E+02 -0.16159815515E+02  0.12698301604E+02  0.97447227873E+02  0.93444311593E+02 0.  0.
         13    1    3    3    0    0  0.58616982549E+00  0.24210213445E+02 -0.28009150918E+02  0.37027040514E+02  0.10566000000E+00 0.  1.
         22    1    1    0    0    0  0.18486112349E+02  0.16159815515E+02 -0.12698301604E+02  0.27642772127E+02  0.00000000000E+00 0. -1.
</event>
<event>
 5    1  0.1259474E-009  0.9118800E+02  0.7815553E-02  0.1125453E+00
         25   -1    0    0    0    0  0.00000000000E+00  0.00000000000E+00  0.99999998245E-14  0.12509000000E+03  0.12509000000E+03 0.  0.
        -13    1    3    3    0    0 -0.12913128978E+02  0.10093413654E+02 -0.28378531903E+02  0.32771605640E+02  0.10566000000E+00 0. -1.
         23    2    1    0    0    0 -0.38284795697E+01 -0.12651543728E+02  0.27937626980E+02  0.94183207611E+02  0.88967672668E+02 0.  0.
         13    1    3    3    0    0  0.90846494088E+01 -0.22744957382E+02  0.56316158884E+02  0.61411601971E+02  0.10566000000E+00 0.  1.
         22    1    1    0    0    0  0.38284795697E+01  0.12651543728E+02 -0.27937626980E+02  0.30906792389E+02  0.00000000000E+00 0.  1.
</event>
<event>
 5    1  0.1259474E-009  0.9118800E+02  0.7815553E-02  0.1125453E+00
         25   -1    0    0    0    0  0.00000000000E+00  0.00000000000E+00  0.99999998245E-14  0.12509000000E+03  0.12509000000E+03 0.  0.
        -13    1    3    3    0    0 -0.11819636813E+02  0.20996324314E+02 -0.28461419584E+02  0.37290924069E+02  0.10566000000E+00 0. -1.
         23    2    1    0    0    0 -0.11469813573E+02 -0.27535772439E+02  0.29700959673E+01  0.95113394835E+02  0.90266056853E+02 0.  0.
         13    1    3    3    0    0  0.34982323979E+00 -0.48532096753E+02  0.31431515552E+02  0.57822470766E+02  0.10566000000E+00 0.  1.
         22    1    1    0    0    0  0.11469813573E+02  0.27535772439E+02 -0.29700959673E+01  0.29976605165E+02  0.00000000000E+00 0.  1.
</event>
<event>
 5    1  0.1259474E-009  0.9118800E+02  0.7815553E-02  0.1125453E+00
         25   -1    0    0    0    0  0.00000000000E+00  0.00000000000E+00  0.99999998245E-14  0.12509000000E+03  0.12509000000E+03 0.  0.
        -13    1    3    3    0    0 -0.18300894566E+02 -0.56408902887E+02 -0.77502838166E+01  0.59807734702E+02  0.10566000000E+00 0. -1.
         23    2    1    0    0    0 -0.12062454066E+02 -0.21736021202E+02 -0.15385279912E+02  0.95855358668E+02  0.91288474254E+02 0.  0.
         13    1    3    3    0    0  0.62384404993E+01  0.34672881685E+02 -0.76349960958E+01  0.36047623966E+02  0.10566000000E+00 0.  1.
         22    1    1    0    0    0  0.12062454066E+02  0.21736021202E+02  0.15385279912E+02  0.29234641332E+02  0.00000000000E+00 0. -1.
</event>
<event>
 5    1  0.1259474E-009  0.9118800E+02  0.7815553E-02  0.1125453E+00
         25   -1    0    0    0    0  0.00000000000E+00  0.00000000000E+00  0.99999998245E-14  0.12509000000E+03  0.12509000000E+03 0.  0.
        -13    1    3    3    0    0 -0.36874832067E+02  0.40424430776E+00 -0.98347470320E+01  0.38166085294E+02  0.10566000000E+00 0. -1.
         23    2    1    0    0    0  0.59503239845E+01  0.13141672904E+02  0.25943556202E+02  0.95405356990E+02  0.90669753015E+02 0.  0.
         13    1    3    3    0    0  0.42825156051E+02  0.12737428596E+02  0.35778303234E+02  0.57239271697E+02  0.10566000000E+00 0.  1.
         22    1    1    0    0    0 -0.59503239845E+01 -0.13141672904E+02 -0.25943556202E+02  0.29684643010E+02  0.00000000000E+00 0.  1.
</event>
<event>
 5    1  0.1259474E-009  0.9118800E+02  0.7815553E-02  0.1125453E+00
         25   -1    0    0    0    0  0.00000000000E+00  0.00000000000E+00  0.99999998245E-14  0.12509000000E+03  0.12509000000E+03 0.  0.
        -13    1    3    3    0    0 -0.32144376226E+02  0.14624981997E+02 -0.26345849680E+02  0.44059800054E+02  0.10566000000E+00 0. -1.
         23    2    1    0    0    0 -0.12058383804E+02 -0.26175046134E+02 -0.71423611465E+00  0.96262100435E+02  0.91844129844E+02 0.  0.
         13    1    3    3    0    0  0.20085992422E+02 -0.40800028132E+02  0.25631613565E+02  0.52202300381E+02  0.10566000000E+00 0.  1.
         22    1    1    0    0    0  0.12058383804E+02  0.26175046134E+02  0.71423611465E+00  0.28827899565E+02  0.00000000000E+00 0.  1.
</event>
<event>
 5    1  0.1259474E-009  0.9118800E+02  0.7815553E-02  0.1125453E+00
         25   -1    0    0    0    0  0.00000000000E+00  0.00000000000E+00  0.99999998245E-14  0.12509000000E+03  0.12509000000E+03 0.  0.
        -13    1    3    3    0    0  0.28758957169E+02  0.25956135719E+02  0.43439140625E+02  0.58204541929E+02  0.10566000000E+00 0.  1.
         23    2    1    0    0    0  0.21800094187E+02 -0.18567342645E+01  0.22492121329E+02  0.93711869231E+02  0.88302476433E+02 0.  0.
         13    1    3    3    0    0 -0.69588629819E+01 -0.27812869983E+02 -0.20947019296E+02  0.35507327302E+02  0.10566000000E+00 0. -1.
         22    1    1    0    0    0 -0.21800094187E+02  0.18567342645E+01 -0.22492121329E+02  0.31378130769E+02  0.00000000000E+00 0.  1.
</event>
<event>
 5    1  0.1259474E-009  0.9118800E+02  0.7815553E-02  0.1125453E+00
         25   -1    0    0    0    0  0.00000000000E+00  0.00000000000E+00  0.99999998245E-14  0.12509000000E+03  0.12509000000E+03 0.  0.
        -13    1    3    3    0    0  0.90347072946E+01 -0.50285696717E+02  0.17368925175E+02  0.53962653345E+02  0.10566000000E+00 0.  1.
         23    2    1    0    0    0 -0.21220511387E+01 -0.27348329600E+02 -0.13918873758E+02  0.94330135247E+02  0.89174016036E+02 0.  0.
         13    1    3    3    0    0 -0.11156758433E+02  0.22937367117E+02 -0.31287798933E+02  0.40367481902E+02  0.10566000000E+00 0. -1.
         22    1    1    0    0    0  0.21220511387E+01  0.27348329600E+02  0.13918873758E+02  0.30759864753E+02  0.00000000000E+00 0.  1.
</event>
<event>
 5    1  0.1259474E-009  0.9118800E+02  0.7815553E-02  0.1125453E+00
         25   -1    0    0    0    0  0.00000000000E+00  0.00000000000E+00  0.99999998245E-14  0.12509000000E+03  0.12509000000E+03 0.  0.
        -13    1    3    3    0    0 -0.24817113967E+02 -0.22328922768E+02  0.73173914051E+01  0.34176385394E+02  0.10566000000E+00 0.  1.
         23    2    1    0    0    0  0.19054536514E+02  0.19171760012E+02 -0.87691784458E+01  0.96672923544E+02  0.92401969201E+02 0.  0.
         13    1    3    3    0    0  0.43871650480E+02  0.41500682780E+02 -0.16086569851E+02  0.62496538149E+02  0.10566000000E+00 0. -1.
         22    1    1    0    0    0 -0.19054536514E+02 -0.19171760012E+02  0.87691784458E+01  0.28417076456E+02  0.00000000000E+00 0. -1.
</event>
<event>
 5    1  0.1259474E-009  0.9118800E+02  0.7815553E-02  0.1125453E+00
         25   -1    0    0    0    0  0.00000000000E+00  0.00000000000E+00  0.99999998245E-14  0.12509000000E+03  0.12509000000E+03 0.  0.
        -13    1    3    3    0    0  0.44461536466E+02 -0.21325650954E+00  0.10439718910E+02  0.45671354241E+02  0.10566000000E+00 0. -1.
         23    2    1    0    0    0  0.80120966369E+01  0.81685359350E+00 -0.26389923679E+02  0.97498533673E+02  0.93512967306E+02 0.  0.
         13    1    3    3    0    0 -0.36449439829E+02  0.10301101030E+01 -0.36829642588E+02  0.51827179432E+02  0.10566000000E+00 0.  1.
         22    1    1    0    0    0 -0.80120966369E+01 -0.81685359350E+00  0.26389923679E+02  0.27591466327E+02  0.00000000000E+00 0.  1.
</event>
<event>
 5    1  0.1259474E-009  0.9118800E+02  0.7815553E-02  0.1125453E+00
         25   -1    0    0    0    0  0.00000000000E+00  0.00000000000E+00  0.99999998245E-14  0.12509000000E+03  0.12509000000E+03 0.  0.
        -13    1    3    3    0    0  0.34683060632E+02  0.40495216221E+02 -0.17404935721E+02  0.56086720203E+02  0.10566000000E+00 0.  1.
         23    2    1    0    0    0  0.20968553145E+02  0.16807056582E+02  0.11468228494E+02  0.95872237650E+02  0.91311600114E+02 0.  0.
         13    1    3    3    0    0 -0.13714507487E+02 -0.23688159640E+02  0.28873164216E+02  0.39785517448E+02  0.10566000000E+00 0. -1.
         22    1    1    0    0    0 -0.20968553145E+02 -0.16807056582E+02 -0.11468228494E+02  0.29217762350E+02  0.00000000000E+00 0.  1.
</event>
<event>
 5    1  0.1259474E-009  0.9118800E+02  0.7815553E-02  0.1125453E+00
         25   -1    0    0    0    0  0.00000000000E+00  0.00000000000E+00  0.99999998245E-14  0.12509000000E+03  0.12509000000E+03 0.  0.
        -13    1    3    3    0    0 -0.30671170338E+02  0.10489048692E+02  0.13567958390E+02  0.35140311485E+02  0.10566000000E+00 0.  1.
         23    2    1    0    0    0  0.22519324786E+02 -0.15083673777E+02  0.14872741315E+02  0.94173408376E+02  0.88953893718E+02 0.  0.
         13    1    3    3    0    0  0.53190495124E+02 -0.25572722469E+02  0.13047829251E+01  0.59033096891E+02  0.10566000000E+00 0. -1.
         22    1    1    0    0    0 -0.22519324786E+02  0.15083673777E+02 -0.14872741315E+02  0.30916591624E+02  0.00000000000E+00 0. -1.
</event>
<event>
 5    1  0.1259474E-009  0.9118800E+02  0.7815553E-02  0.1125453E+00
         25   -1    0    0    0    0  0.00000000000E+00  0.00000000000E+00  0.99999998245E-14  0.12509000000E+03  0.12509000000E+03 0.  0.
        -13    1    3    3    0    0  0.71645610374E+00  0.23743054314E+02  0.22382785864E+02  0.32638109697E+02  0.10566000000E+00 0. -1.
         23    2    1    0    0    0  0.91107288194E+01 -0.24945607884E+02 -0.14995759133E+02  0.94591450456E+02  0.89539828987E+02 0.  0.
         13    1    3    3    0    0  0.83942727156E+01 -0.48688662198E+02 -0.37378544998E+02  0.61953340759E+02  0.10566000000E+00 0.  1.
         22    1    1    0    0    0 -0.91107288194E+01  0.24945607884E+02  0.14995759133E+02  0.30498549544E+02  0.00000000000E+00 0.  1.
</event>
<event>
 5    1  0.1259474E-009  0.9118800E+02  0.7815553E-02  0.1125453E+00
         25   -1    0    0    0    0  0.00000000000E+00  0.00000000000E+00  0.99999998245E-14  0.12509000000E+03  0.12509000000E+03 0.  0.
        -13    1    3    3    0    0 -0.26866348567E+02 -0.25474436771E+02  0.60969998021E+01  0.37522422427E+02  0.10566000000E+00 0.  1.
         23    2    1    0    0    0  0.20410376508E+02 -0.52318251601E+01  0.25072459920E+02  0.92339676183E+02  0.86336736604E+02 0.  0.
         13    1    3    3    0    0  0.47276725075E+02  0.20242611611E+02  0.18975460118E+02  0.54817253756E+02  0.10566000000E+00 0. -1.
         22    1    1    0    0    0 -0.20410376508E+02  0.52318251601E+01 -0.25072459920E+02  0.32750323817E+02  0.00000000000E+00 0. -1.
</event>
<event>
 5    1  0.1259474E-009  0.9118800E+02  0.7815553E-02  0.1125453E+00
         25   -1    0    0    0    0  0.00000000000E+00  0.00000000000E+00  0.99999998245E-14  0.12509000000E+03  0.12509000000E+03 0.  0.
        -13    1    3    3    0    0  0.48151322054E+02  0.15647589257E+02 -0.81209322208E+00  0.50636622365E+02  0.10566000000E+00 0.  1.
         23    2    1    0    0    0  0.44664383417E+02  0.10160110263E+02  0.21941119679E+02  0.74300751931E+02  0.54231485487E+02 0.  0.
         13    1    3    3    0    0 -0.34869386367E+01 -0.54874789932E+01  0.22753212902E+02  0.23664129566E+02  0.10566000000E+00 0. -1.
         22    1    1    0    0    0 -0.44664383417E+02 -0.10160110263E+02 -0.21941119679E+02  0.50789248069E+02  0.00000000000E+00 0.  1.
</event>
<event>
 5    1  0.1259474E-009  0.9118800E+02  0.7815553E-02  0.1125453E+00
         25   -1    0    0    0    0  0.00000000000E+00  0.00000000000E+00  0.99999998245E-14  0.12509000000E+03  0.12509000000E+03 0.  0.
        -13    1    3    3    0    0 -0.14486786555E+02 -0.22031051121E+02 -0.56135045839E+02  0.62019260989E+02  0.10566000000E+00 0.  1.
         23    2    1    0    0    0 -0.36610978399E+01 -0.53702388673E+01 -0.27232059144E+02  0.97093068952E+02  0.92969004998E+02 0.  0.
         13    1    3    3    0    0  0.10825688715E+02  0.16660812254E+02  0.28902986695E+02  0.35073807963E+02  0.10566000000E+00 0. -1.
         22    1    1    0    0    0  0.36610978399E+01  0.53702388673E+01  0.27232059144E+02  0.27996931048E+02  0.00000000000E+00 0.  1.
</event>
<event>
 5    1  0.1259474E-009  0.9118800E+02  0.7815553E-02  0.1125453E+00
         25   -1    0    0    0    0  0.00000000000E+00  0.00000000000E+00  0.99999998245E-14  0.12509000000E+03  0.12509000000E+03 0.  0.
        -13    1    3    3    0    0  0.31824801214E+02  0.28828715786E+02  0.39768351667E+02  0.58527308024E+02  0.10566000000E+00 0. -1.
         23    2    1    0    0    0  0.24571899529E+02  0.12985429607E+02  0.58073364315E+01  0.96697663270E+02  0.92435454761E+02 0.  0.
         13    1    3    3    0    0 -0.72529016846E+01 -0.15843286179E+02 -0.33961015236E+02  0.38170355247E+02  0.10566000000E+00 0.  1.
         22    1    1    0    0    0 -0.24571899529E+02 -0.12985429607E+02 -0.58073364315E+01  0.28392336730E+02  0.00000000000E+00 0. -1.
</event>
<event>
 5    1  0.1259474E-009  0.9118800E+02  0.7815553E-02  0.1125453E+00
         25   -1    0    0    0    0  0.00000000000E+00  0.00000000000E+00  0.99999998245E-14  0.12509000000E+03  0.12509000000E+03 0.  0.
        -13    1    3    3    0    0 -0.45500763788E+02  0.34563350232E+02 -0.22881817259E+02  0.61551063433E+02  0.10566000000E+00 0.  1.
         23    2    1    0    0    0 -0.25237360193E+02  0.94379150841E+01 -0.11748528879E+02  0.95695671951E+02  0.91069397213E+02 0.  0.
         13    1    3    3    0    0  0.20263403596E+02 -0.25125435148E+02  0.11133288380E+02  0.34144608518E+02  0.10566000000E+00 0. -1.
         22    1    1    0    0    0  0.25237360193E+02 -0.94379150841E+01  0.11748528879E+02  0.29394328049E+02  0.00000000000E+00 0.  1.
</event>
<event>
 5    1  0.1259474E-009  0.9118800E+02  0.7815553E-02  0.1125453E+00
         25   -1    0    0    0    0  0.00000000000E+00  0.00000000000E+00  0.99999998245E-14  0.12509000000E+03  0.12509000000E+03 0.  0.
        -13    1    3    3    0    0 -0.43654658134E+02 -0.28262475319E+02  0.22169280993E+02  0.56533042301E+02  0.10566000000E+00 0.  1.
         23    2    1    0    0    0 -0.24660184997E+02 -0.11508159739E+02 -0.87524955584E+01  0.96503838257E+02  0.92172784243E+02 0.  0.
         13    1    3    3    0    0  0.18994473137E+02  0.16754315580E+02 -0.30921776551E+02  0.39970795957E+02  0.10566000000E+00 0. -1.
         22    1    1    0    0    0  0.24660184997E+02  0.11508159739E+02  0.87524955584E+01  0.28586161743E+02  0.00000000000E+00 0.  1.
</event>
<event>
 5    1  0.1259474E-009  0.9118800E+02  0.7815553E-02  0.1125453E+00
         25   -1    0    0    0    0  0.00000000000E+00  0.00000000000E+00  0.99999998245E-14  0.12509000000E+03  0.12509000000E+03 0.  0.
        -13    1    3    3    0    0  0.21005364882E+02  0.16889618657E+01  0.31911029275E+02  0.38241376799E+02  0.10566000000E+00 0.  1.
         23    2    1    0    0    0 -0.12852573549E+02 -0.25267064047E+02 -0.63864105947E+01  0.96031448545E+02  0.91529447158E+02 0.  0.
         13    1    3    3    0    0 -0.33857938431E+02 -0.26956025912E+02 -0.38297439870E+02  0.57790071746E+02  0.10566000000E+00 0. -1.
         22    1    1    0    0    0  0.12852573549E+02  0.25267064047E+02  0.63864105947E+01  0.29058551455E+02  0.00000000000E+00 0. -1.
</event>
<event>
 5    1  0.1259474E-009  0.9118800E+02  0.7815553E-02  0.1125453E+00
         25   -1    0    0    0    0  0.00000000000E+00  0.00000000000E+00  0.99999998245E-14  0.12509000000E+03  0.12509000000E+03 0.  0.
        -13    1    3    3    0    0  0.69123164017E+01  0.34570753214E+02 -0.17693741650E+02  0.39446124695E+02  0.10566000000E+00 0. -1.
         23    2    1    0    0    0  0.12180112354E+01  0.18342085797E+01  0.28586068412E+02  0.96419262658E+02  0.92057933020E+02 0.  0.
         13    1    3    3    0    0 -0.56943051663E+01 -0.32736544635E+02  0.46279810062E+02  0.56973137963E+02  0.10566000000E+00 0.  1.
         22    1    1    0    0    0 -0.12180112354E+01 -0.18342085797E+01 -0.28586068412E+02  0.28670737342E+02  0.00000000000E+00 0.  1.
</event>
<event>
 5    1  0.1259474E-009  0.9118800E+02  0.7815553E-02  0.1125453E+00
         25   -1    0    0    0    0  0.00000000000E+00  0.00000000000E+00  0.99999998245E-14  0.12509000000E+03  0.12509000000E+03 0.  0.
        -13    1    3    3    0    0  0.48632944235E+02  0.96054704393E+01 -0.29706095272E+02  0.57791795159E+02  0.10566000000E+00 0.  1.
         23    2    1    0    0    0  0.12853393250E+02 -0.39960168481E+01 -0.25442576839E+02  0.96306279169E+02  0.91904280763E+02 0.  0.
         13    1    3    3    0    0 -0.35779550985E+02 -0.13601487287E+02  0.42635184336E+01  0.38514484010E+02  0.10566000000E+00 0. -1.
         22    1    1    0    0    0 -0.12853393250E+02  0.39960168481E+01  0.25442576839E+02  0.28783720831E+02  0.00000000000E+00 0.  1.
</event>
<event>
 5    1  0.1259474E-009  0.9118800E+02  0.7815553E-02  0.1125453E+00
         25   -1    0    0    0    0  0.00000000000E+00  0.00000000000E+00  0.99999998245E-14  0.12509000000E+03  0.12509000000E+03 0.  0.
        -13    1    3    3    0    0 -0.46099168588E+01  0.20220846739E+01  0.42484688081E+02  0.42782006092E+02  0.10566000000E+00 0. -1.
         23    2    1    0    0    0  0.41123142604E+01  0.30062898004E+02 -0.38426233761E+00  0.94744710044E+02  0.89753682146E+02 0.  0.
         13    1    3    3    0    0  0.87222311192E+01  0.28040813330E+02 -0.42868950419E+02  0.51962703952E+02  0.10566000000E+00 0.  1.
         22    1    1    0    0    0 -0.41123142604E+01 -0.30062898004E+02  0.38426233761E+00  0.30345289956E+02  0.00000000000E+00 0.  1.
</event>
<event>
 5    1  0.1259474E-009  0.9118800E+02  0.7815553E-02  0.1125453E+00
         25   -1    0    0    0    0  0.00000000000E+00  0.00000000000E+00  0.99999998245E-14  0.12509000000E+03  0.12509000000E+03 0.  0.
        -13    1    3    3    0    0 -0.46609631796E+02  0.36678510596E+02 -0.18625443296E+02  0.62166624628E+02  0.10566000000E+00 0.  1.
         23    2    1    0    0    0 -0.28500942065E+02  0.16359255822E+02 -0.93101827135E+01  0.90934349635E+02  0.84276019672E+02 0.  0.
         13    1    3    3    0    0  0.18108689730E+02 -0.20319254774E+02  0.93152605828E+01  0.28767725007E+02  0.10566000000E+00 0. -1.
         22    1    1    0    0    0  0.28500942065E+02 -0.16359255822E+02  0.93101827135E+01  0.34155650365E+02  0.00000000000E+00 0.  1.
</event>
<event>
 5    1  0.1259474E-009  0.9118800E+02  0.7815553E-02  0.1125453E+00
         25   -1    0    0    0    0  0.00000000000E+00  0.00000000000E+00  0.99999998245E-14  0.12509000000E+03  0.12509000000E+03 0.  0.
        -13    1    3    3    0    0 -0.31040672042E+02 -0.29839737645E+02  0.87235005327E+01  0.43932264785E+02  0.10566000000E+00 0.  1.
         23    2    1    0    0    0  0.17124151770E+02 -0.13674394253E+02  0.19371484533E+02  0.95841409520E+02  0.91269358132E+02 0.  0.
         13    1    3    3    0    0  0.48164823812E+02  0.16165343393E+02  0.10647984000E+02  0.51909144735E+02  0.10566000000E+00 0. -1.
         22    1    1    0    0    0 -0.17124151770E+02  0.13674394253E+02 -0.19371484533E+02  0.29248590480E+02  0.00000000000E+00 0. -1.
</event>
<event>
 5    1  0.1259474E-009  0.9118800E+02  0.7815553E-02  0.1125453E+00
         25   -1    0    0    0    0  0.00000000000E+00  0.00000000000E+00  0.99999998245E-14  0.12509000000E+03  0.12509000000E+03 0.  0.
        -13    1    3    3    0    0 -0.20706626924E-01  0.57695887134E+02  0.23989861066E+01  0.57745840710E+02  0.10566000000E+00 0.  1.
         23    2    1    0    0    0  0.16496663176E+02  0.19872453122E+02  0.34572498265E+01  0.99032239824E+02  0.95542543713E+02 0.  0.
         13    1    3    3    0    0  0.16517369803E+02 -0.37823434012E+02  0.10582637200E+01  0.41286399114E+02  0.10566000000E+00 0. -1.
         22    1    1    0    0    0 -0.16496663176E+02 -0.19872453122E+02 -0.34572498265E+01  0.26057760176E+02  0.00000000000E+00 0. -1.
</event>
<event>
 5    1  0.1259474E-009  0.9118800E+02  0.7815553E-02  0.1125453E+00
         25   -1    0    0    0    0  0.00000000000E+00  0.00000000000E+00  0.99999998245E-14  0.12509000000E+03  0.12509000000E+03 0.  0.
        -13    1    3    3    0    0  0.21588499242E+02  0.25663680080E+02  0.87288979703E+01  0.34653897308E+02  0.10566000000E+00 0.  1.
         23    2    1    0    0    0 -0.13733647370E+02  0.39960241346E+02 -0.15807043548E+02  0.79975738572E+02  0.66036521530E+02 0.  0.
         13    1    3    3    0    0 -0.35322146612E+02  0.14296561265E+02 -0.24535941519E+02  0.45321841264E+02  0.10566000000E+00 0. -1.
         22    1    1    0    0    0  0.13733647370E+02 -0.39960241346E+02  0.15807043548E+02  0.45114261428E+02  0.00000000000E+00 0. -1.
</event>
<event>
 5    1  0.1259474E-009  0.9118800E+02  0.7815553E-02  0.1125453E+00
         25   -1    0    0    0    0  0.00000000000E+00  0.00000000000E+00  0.99999998245E-14  0.12509000000E+03  0.12509000000E+03 0.  0.
        -13    1    3    3    0    0  0.92648272316E+01 -0.73408622967E+01 -0.28453040090E+02  0.30810906142E+02  0.10566000000E+00 0.  1.
         23    2    1    0    0    0 -0.21828304628E+02  0.11131463807E+02  0.21506736881E+02  0.92487483216E+02  0.86550623631E+02 0.  0.
         13    1    3    3    0    0 -0.31093131860E+02  0.18472326103E+02  0.49959776971E+02  0.61676577074E+02  0.10566000000E+00 0. -1.
         22    1    1    0    0    0  0.21828304628E+02 -0.11131463807E+02 -0.21506736881E+02  0.32602516784E+02  0.00000000000E+00 0. -1.
</event>
<event>
 5    1  0.1259474E-009  0.9118800E+02  0.7815553E-02  0.1125453E+00
         25   -1    0    0    0    0  0.00000000000E+00  0.00000000000E+00  0.99999998245E-14  0.12509000000E+03  0.12509000000E+03 0.  0.
        -13    1    3    3    0    0 -0.17113097439E+02 -0.17631605921E+02 -0.55519935417E+02  0.60714133644E+02  0.10566000000E+00 0. -1.
         23    2    1    0    0    0 -0.15984809341E+02 -0.18368194169E+02 -0.29195962578E+02  0.87072781302E+02  0.78334924051E+02 0.  0.
         13    1    3    3    0    0  0.11282880981E+01 -0.73658824804E+00  0.26323972839E+02  0.26358647658E+02  0.10566000000E+00 0.  1.
         22    1    1    0    0    0  0.15984809341E+02  0.18368194169E+02  0.29195962578E+02  0.38017218698E+02  0.00000000000E+00 0. -1.
</event>
<event>
 5    1  0.1259474E-009  0.9118800E+02  0.7815553E-02  0.1125453E+00
         25   -1    0    0    0    0  0.00000000000E+00  0.00000000000E+00  0.99999998245E-14  0.12509000000E+03  0.12509000000E+03 0.  0.
        -13    1    3    3    0    0 -0.49619362736E+02  0.16658162371E+02  0.31962480989E+02  0.61328516099E+02  0.10566000000E+00 0. -1.
         23    2    1    0    0    0 -0.18116189107E+02  0.73416131521E+01  0.22005563431E+02  0.95656338770E+02  0.91015354384E+02 0.  0.
         13    1    3    3    0    0  0.31503173629E+02 -0.93165492189E+01 -0.99569175581E+01  0.34327822671E+02  0.10566000000E+00 0.  1.
         22    1    1    0    0    0  0.18116189107E+02 -0.73416131521E+01 -0.22005563431E+02  0.29433661230E+02  0.00000000000E+00 0. -1.
</event>
<event>
 5    1  0.1259474E-009  0.9118800E+02  0.7815553E-02  0.1125453E+00
         25   -1    0    0    0    0  0.00000000000E+00  0.00000000000E+00  0.99999998245E-14  0.12509000000E+03  0.12509000000E+03 0.  0.
        -13    1    3    3    0    0  0.31272608887E+02  0.20829133791E+01 -0.14220729204E+02  0.34417363319E+02  0.10566000000E+00 0. -1.
         23    2    1    0    0    0 -0.14944415066E+02 -0.23310801889E+02  0.13819954573E+02  0.94142945685E+02  0.88911045723E+02 0.  0.
         13    1    3    3    0    0 -0.46217023953E+02 -0.25393715268E+02  0.28040683778E+02  0.59725582366E+02  0.10566000000E+00 0.  1.
         22    1    1    0    0    0  0.14944415066E+02  0.23310801889E+02 -0.13819954573E+02  0.30947054315E+02  0.00000000000E+00 0.  1.
</event>
<event>
 5    1  0.1259474E-009  0.9118800E+02  0.7815553E-02  0.1125453E+00
         25   -1    0    0    0    0  0.00000000000E+00  0.00000000000E+00  0.99999998245E-14  0.12509000000E+03  0.12509000000E+03 0.  0.
        -13    1    3    3    0    0 -0.14440099219E+02  0.41331042323E+02 -0.17888209466E+02  0.47294510537E+02  0.10566000000E+00 0.  1.
         23    2    1    0    0    0 -0.27224904275E+02 -0.49438831431E+01 -0.76343018464E+01  0.96385994043E+02  0.92012715913E+02 0.  0.
         13    1    3    3    0    0 -0.12784805056E+02 -0.46274925467E+02  0.10253907620E+02  0.49091483506E+02  0.10566000000E+00 0. -1.
         22    1    1    0    0    0  0.27224904275E+02  0.49438831431E+01  0.76343018464E+01  0.28704005957E+02  0.00000000000E+00 0. -1.
</event>
<event>
 5    1  0.1259474E-009  0.9118800E+02  0.7815553E-02  0.1125453E+00
         25   -1    0    0    0    0  0.00000000000E+00  0.00000000000E+00  0.99999998245E-14  0.12509000000E+03  0.12509000000E+03 0.  0.
        -13    1    3    3    0    0  0.26074310774E+02 -0.43686679595E+02  0.26168577237E+02  0.57211897845E+02  0.10566000000E+00 0.  1.
         23    2    1    0    0    0  0.26119809859E+02 -0.13213630047E+02  0.26633204184E+01  0.95697181800E+02  0.91071471069E+02 0.  0.
         13    1    3    3    0    0  0.45499084673E-01  0.30473049548E+02 -0.23505256818E+02  0.38485283955E+02  0.10566000000E+00 0. -1.
         22    1    1    0    0    0 -0.26119809859E+02  0.13213630047E+02 -0.26633204184E+01  0.29392818200E+02  0.00000000000E+00 0.  1.
</event>
<event>
 5    1  0.1259474E-009  0.9118800E+02  0.7815553E-02  0.1125453E+00
         25   -1    0    0    0    0  0.00000000000E+00  0.00000000000E+00  0.99999998245E-14  0.12509000000E+03  0.12509000000E+03 0.  0.
        -13    1    3    3    0    0 -0.30276677635E+02  0.48038988818E+02 -0.56834313268E+01  0.57067803628E+02  0.10566000000E+00 0.  1.
         23    2    1    0    0    0  0.20310580659E+01  0.27237865529E+02 -0.10570496200E+02  0.95802427459E+02  0.91215915287E+02 0.  0.
         13    1    3    3    0    0  0.32307735701E+02 -0.20801123290E+02 -0.48870648731E+01  0.38734623831E+02  0.10566000000E+00 0. -1.
         22    1    1    0    0    0 -0.20310580659E+01 -0.27237865529E+02  0.10570496200E+02  0.29287572541E+02  0.00000000000E+00 0.  1.
</event>
<event>
 5    1  0.1259474E-009  0.9118800E+02  0.7815553E-02  0.1125453E+00
         25   -1    0    0    0    0  0.00000000000E+00  0.00000000000E+00  0.99999998245E-14  0.12509000000E+03  0.12509000000E+03 0.  0.
        -13    1    3    3    0    0 -0.36227133922E+02 -0.46155122591E+02 -0.93809561620E+01  0.59419812152E+02  0.10566000000E+00 0. -1.
         23    2    1    0    0    0 -0.43986998615E+01 -0.28022023397E+02 -0.41010449371E+01  0.96429907095E+02  0.92072395738E+02 0.  0.
         13    1    3    3    0    0  0.31828434061E+02  0.18133099193E+02  0.52799112249E+01  0.37010094943E+02  0.10566000000E+00 0.  1.
         22    1    1    0    0    0  0.43986998615E+01  0.28022023397E+02  0.41010449371E+01  0.28660092905E+02  0.00000000000E+00 0. -1.
</event>
<event>
 5    1  0.1259474E-009  0.9118800E+02  0.7815553E-02  0.1125453E+00
         25   -1    0    0    0    0  0.00000000000E+00  0.00000000000E+00  0.99999998245E-14  0.12509000000E+03  0.12509000000E+03 0.  0.
        -13    1    3    3    0    0 -0.43951189131E+02  0.30028486236E+02  0.65509286212E+00  0.53233986535E+02  0.10566000000E+00 0.  1.
         23    2    1    0    0    0 -0.25093906305E+02 -0.57387434355E+01  0.13967466232E+02  0.95803016154E+02  0.91216722597E+02 0.  0.
         13    1    3    3    0    0  0.18857282826E+02 -0.35767229671E+02  0.13312373370E+02  0.42569029619E+02  0.10566000000E+00 0. -1.
         22    1    1    0    0    0  0.25093906305E+02  0.57387434355E+01 -0.13967466232E+02  0.29286983846E+02  0.00000000000E+00 0.  1.
</event>
<event>
 5    1  0.1259474E-009  0.9118800E+02  0.7815553E-02  0.1125453E+00
         25   -1    0    0    0    0  0.00000000000E+00  0.00000000000E+00  0.99999998245E-14  0.12509000000E+03  0.12509000000E+03 0.  0.
        -13    1    3    3    0    0 -0.48342642221E+02 -0.18133296369E+02 -0.28147477552E+02  0.58805774808E+02  0.10566000000E+00 0. -1.
         23    2    1    0    0    0 -0.12906034015E+02 -0.12047367034E+02 -0.24423166513E+02  0.94953712423E+02  0.90044498299E+02 0.  0.
         13    1    3    3    0    0  0.35436608207E+02  0.60859293351E+01  0.37243110395E+01  0.36147937615E+02  0.10566000000E+00 0.  1.
         22    1    1    0    0    0  0.12906034015E+02  0.12047367034E+02  0.24423166513E+02  0.30136287577E+02  0.00000000000E+00 0. -1.
</event>
<event>
 5    1  0.1259474E-009  0.9118800E+02  0.7815553E-02  0.1125453E+00
         25   -1    0    0    0    0  0.00000000000E+00  0.00000000000E+00  0.99999998245E-14  0.12509000000E+03  0.12509000000E+03 0.  0.
        -13    1    3    3    0    0 -0.33345016765E+02 -0.33906233894E+02 -0.27380661388E+02  0.54874717512E+02  0.10566000000E+00 0.  1.
         23    2    1    0    0    0  0.52402367314E+01 -0.20252366159E+02 -0.19367683263E+02  0.96581657870E+02  0.92278334759E+02 0.  0.
         13    1    3    3    0    0  0.38585253497E+02  0.13653867735E+02  0.80129781255E+01  0.41706940358E+02  0.10566000000E+00 0. -1.
         22    1    1    0    0    0 -0.52402367314E+01  0.20252366159E+02  0.19367683263E+02  0.28508342130E+02  0.00000000000E+00 0.  1.
</event>
<event>
 5    1  0.1259474E-009  0.9118800E+02  0.7815553E-02  0.1125453E+00
         25   -1    0    0    0    0  0.00000000000E+00  0.00000000000E+00  0.99999998245E-14  0.12509000000E+03  0.12509000000E+03 0.  0.
        -13    1    3    3    0    0  0.45501043255E+01  0.47159936956E+02 -0.33579341569E+01  0.47497894573E+02  0.10566000000E+00 0. -1.
         23    2    1    0    0    0 -0.24190124860E+01  0.83020480177E+01 -0.29169878710E+02  0.94665380912E+02  0.89643052695E+02 0.  0.
         13    1    3    3    0    0 -0.69691168116E+01 -0.38857888938E+02 -0.25811944553E+02  0.47167486339E+02  0.10566000000E+00 0.  1.
         22    1    1    0    0    0  0.24190124860E+01 -0.83020480177E+01  0.29169878710E+02  0.30424619088E+02  0.00000000000E+00 0. -1.
</event>
<event>
 5    1  0.1259474E-009  0.9118800E+02  0.7815553E-02  0.1125453E+00
         25   -1    0    0    0    0  0.00000000000E+00  0.00000000000E+00  0.99999998245E-14  0.12509000000E+03  0.12509000000E+03 0.  0.
        -13    1    3    3    0    0 -0.16577791425E+01 -0.84440264284E+01 -0.32408614312E+02  0.33531764935E+02  0.10566000000E+00 0. -1.
         23    2    1    0    0    0  0.22141842207E+01 -0.11088479186E+02  0.28400409269E+02  0.94521384901E+02  0.89441891608E+02 0.  0.
         13    1    3    3    0    0  0.38719633631E+01 -0.26444527575E+01  0.60809023581E+02  0.60989619966E+02  0.10566000000E+00 0.  1.
         22    1    1    0    0    0 -0.22141842207E+01  0.11088479186E+02 -0.28400409269E+02  0.30568615099E+02  0.00000000000E+00 0.  1.
</event>
<event>
 5    1  0.1259474E-009  0.9118800E+02  0.7815553E-02  0.1125453E+00
         25   -1    0    0    0    0  0.00000000000E+00  0.00000000000E+00  0.99999998245E-14  0.12509000000E+03  0.12509000000E+03 0.  0.
        -13    1    3    3    0    0 -0.27217202091E+02 -0.36070300378E+02  0.29377143436E+00  0.45187831600E+02  0.10566000000E+00 0.  1.
         23    2    1    0    0    0 -0.15068453811E+02  0.18128073103E+02  0.52092826114E+01  0.10094829418E+03  0.98019060072E+02 0.  0.
         13    1    3    3    0    0  0.12148748280E+02  0.54198373481E+02  0.49155111771E+01  0.55760462578E+02  0.10566000000E+00 0. -1.
         22    1    1    0    0    0  0.15068453811E+02 -0.18128073103E+02 -0.52092826114E+01  0.24141705822E+02  0.00000000000E+00 0. -1.
</event>
<event>
 5    1  0.1259474E-009  0.9118800E+02  0.7815553E-02  0.1125453E+00
         25   -1    0    0    0    0  0.00000000000E+00  0.00000000000E+00  0.99999998245E-14  0.12509000000E+03  0.12509000000E+03 0.  0.
        -13    1    3    3    0    0  0.43559331629E+02  0.89580899880E+00 -0.14476408110E+02  0.45910732966E+02  0.10566000000E+00 0. -1.
         23    2    1    0    0    0  0.23730284996E+02  0.24162627585E+02  0.14700853960E+02  0.88170166510E+02  0.80068121980E+02 0.  0.
         13    1    3    3    0    0 -0.19829046633E+02  0.23266818586E+02  0.29177262070E+02  0.42259433543E+02  0.10566000000E+00 0.  1.
         22    1    1    0    0    0 -0.23730284996E+02 -0.24162627585E+02 -0.14700853960E+02  0.36919833490E+02  0.00000000000E+00 0. -1.
</event>
<event>
 5    1  0.1259474E-009  0.9118800E+02  0.7815553E-02  0.1125453E+00
         25   -1    0    0    0    0  0.00000000000E+00  0.00000000000E+00  0.99999998245E-14  0.12509000000E+03  0.12509000000E+03 0.  0.
        -13    1    3    3    0    0  0.63509662760E+01 -0.35779835258E+02 -0.84153932010E+01  0.37300956964E+02  0.10566000000E+00 0. -1.
         23    2    1    0    0    0 -0.31429937764E+02 -0.44630145228E+01 -0.19798622646E+02  0.87676834601E+02  0.79293646533E+02 0.  0.
         13    1    3    3    0    0 -0.37780904040E+02  0.31316820735E+02 -0.11383229445E+02  0.50375877637E+02  0.10566000000E+00 0.  1.
         22    1    1    0    0    0  0.31429937764E+02  0.44630145228E+01  0.19798622646E+02  0.37413165399E+02  0.00000000000E+00 0.  1.
</event>
<event>
 5    1  0.1259474E-009  0.9118800E+02  0.7815553E-02  0.1125453E+00
         25   -1    0    0    0    0  0.00000000000E+00  0.00000000000E+00  0.99999998245E-14  0.12509000000E+03  0.12509000000E+03 0.  0.
        -13    1    3    3    0    0  0.55207103579E+02  0.16711008215E+02 -0.13258646060E+02  0.59185175006E+02  0.10566000000E+00 0.  1.
         23    2    1    0    0    0  0.18844789831E+02  0.15649718588E+02 -0.16263343446E+02  0.95687004648E+02  0.91057491305E+02 0.  0.
         13    1    3    3    0    0 -0.36362313748E+02 -0.10612896266E+01 -0.30046973862E+01  0.36501829642E+02  0.10566000000E+00 0. -1.
         22    1    1    0    0    0 -0.18844789831E+02 -0.15649718588E+02  0.16263343446E+02  0.29402995352E+02  0.00000000000E+00 0.  1.
</event>
<event>
 5    1  0.1259474E-009  0.9118800E+02  0.7815553E-02  0.1125453E+00
         25   -1    0    0    0    0  0.00000000000E+00  0.00000000000E+00  0.99999998245E-14  0.12509000000E+03  0.12509000000E+03 0.  0.
        -13    1    3    3    0    0 -0.52082598204E+01  0.19098517093E+02  0.29430029427E+02  0.35468537066E+02  0.10566000000E+00 0.  1.
         23    2    1    0    0    0 -0.18143377473E+02 -0.60452197851E+01 -0.23085258521E+02  0.95112408546E+02  0.90264690052E+02 0.  0.
         13    1    3    3    0    0 -0.12935117653E+02 -0.25143736878E+02 -0.52515287948E+02  0.59643871480E+02  0.10566000000E+00 0. -1.
         22    1    1    0    0    0  0.18143377473E+02  0.60452197851E+01  0.23085258521E+02  0.29977591454E+02  0.00000000000E+00 0. -1.
</event>
<event>
 5    1  0.1259474E-009  0.9118800E+02  0.7815553E-02  0.1125453E+00
         25   -1    0    0    0    0  0.00000000000E+00  0.00000000000E+00  0.99999998245E-14  0.12509000000E+03  0.12509000000E+03 0.  0.
        -13    1    3    3    0    0  0.37654284792E+02  0.21966192982E+02 -0.16307714870E+02  0.46543651829E+02  0.10566000000E+00 0.  1.
         23    2    1    0    0    0 -0.63840455841E+01  0.27183651146E+02  0.65127665233E+01  0.96417311681E+02  0.92055281959E+02 0.  0.
         13    1    3    3    0    0 -0.44038330376E+02  0.52174581638E+01  0.22820481393E+02  0.49873659852E+02  0.10566000000E+00 0. -1.
         22    1    1    0    0    0  0.63840455841E+01 -0.27183651146E+02 -0.65127665233E+01  0.28672688319E+02  0.00000000000E+00 0.  1.
</event>
<event>
 5    1  0.1259474E-009  0.9118800E+02  0.7815553E-02  0.1125453E+00
         25   -1    0    0    0    0  0.00000000000E+00  0.00000000000E+00  0.99999998245E-14  0.12509000000E+03  0.12509000000E+03 0.  0.
        -13    1    3    3    0    0 -0.45100705968E+02 -0.14628186922E+02  0.28500917438E+02  0.55320619937E+02  0.10566000000E+00 0.  1.
         23    2    1    0    0    0 -0.55607270391E+01 -0.19233225938E+02  0.21451030858E+02  0.95747447452E+02  0.91140486632E+02 0.  0.
         13    1    3    3    0    0  0.39539978929E+02 -0.46050390165E+01 -0.70498865802E+01  0.40426827514E+02  0.10566000000E+00 0. -1.
         22    1    1    0    0    0  0.55607270391E+01  0.19233225938E+02 -0.21451030858E+02  0.29342552548E+02  0.00000000000E+00 0.  1.
</event>
<event>
 5    1  0.1259474E-009  0.9118800E+02  0.7815553E-02  0.1125453E+00
         25   -1    0    0    0    0  0.00000000000E+00  0.00000000000E+00  0.99999998245E-14  0.12509000000E+03  0.12509000000E+03 0.  0.
        -13    1    3    3    0    0  0.20669070950E+02 -0.37863805616E+02 -0.20039153966E+01  0.43184547127E+02  0.10566000000E+00 0.  1.
         23    2    1    0    0    0  0.67401505168E+01  0.17067147687E+02  0.13930189162E+02  0.10205161183E+03  0.99417122011E+02 0.  0.
         13    1    3    3    0    0 -0.13928920433E+02  0.54930953303E+02  0.15934104559E+02  0.58867064708E+02  0.10566000000E+00 0. -1.
         22    1    1    0    0    0 -0.67401505168E+01 -0.17067147687E+02 -0.13930189162E+02  0.23038388165E+02  0.00000000000E+00 0. -1.
</event>
<event>
 5    1  0.1259474E-009  0.9118800E+02  0.7815553E-02  0.1125453E+00
         25   -1    0    0    0    0  0.00000000000E+00  0.00000000000E+00  0.99999998245E-14  0.12509000000E+03  0.12509000000E+03 0.  0.
        -13    1    3    3    0    0  0.16905013008E+02  0.27642137799E+02  0.22240198153E+02  0.39300188610E+02  0.10566000000E+00 0. -1.
         23    2    1    0    0    0 -0.27782104002E+02 -0.18184559647E+00 -0.19608087307E+01  0.97238193209E+02  0.93164065375E+02 0.  0.
         13    1    3    3    0    0 -0.44687117011E+02 -0.27823983395E+02 -0.24201006884E+02  0.57938004599E+02  0.10566000000E+00 0.  1.
         22    1    1    0    0    0  0.27782104002E+02  0.18184559647E+00  0.19608087307E+01  0.27851806791E+02  0.00000000000E+00 0. -1.
</event>
<event>
 5    1  0.1259474E-009  0.9118800E+02  0.7815553E-02  0.1125453E+00
         25   -1    0    0    0    0  0.00000000000E+00  0.00000000000E+00  0.99999998245E-14  0.12509000000E+03  0.12509000000E+03 0.  0.
        -13    1    3    3    0    0 -0.39869688269E+02 -0.19185189197E+02  0.24736817417E+02  0.50691072459E+02  0.10566000000E+00 0.  1.
         23    2    1    0    0    0 -0.25812504372E+02  0.58642068034E+00 -0.13484699194E+02  0.95961553706E+02  0.91433874501E+02 0.  0.
         13    1    3    3    0    0  0.14057183897E+02  0.19771609877E+02 -0.38221516611E+02  0.45270481247E+02  0.10566000000E+00 0. -1.
         22    1    1    0    0    0  0.25812504372E+02 -0.58642068034E+00  0.13484699194E+02  0.29128446294E+02  0.00000000000E+00 0.  1.
</event>
<event>
 5    1  0.1259474E-009  0.9118800E+02  0.7815553E-02  0.1125453E+00
         25   -1    0    0    0    0  0.00000000000E+00  0.00000000000E+00  0.99999998245E-14  0.12509000000E+03  0.12509000000E+03 0.  0.
        -13    1    3    3    0    0  0.32429103907E+02  0.14209862536E+02  0.29458672534E+01  0.35528246107E+02  0.10566000000E+00 0.  1.
         23    2    1    0    0    0 -0.12202991579E+02 -0.13628713294E+02  0.26276649738E+02  0.93072549274E+02  0.87392117937E+02 0.  0.
         13    1    3    3    0    0 -0.44632095486E+02 -0.27838575830E+02  0.23330782484E+02  0.57544303168E+02  0.10566000000E+00 0. -1.
         22    1    1    0    0    0  0.12202991579E+02  0.13628713294E+02 -0.26276649738E+02  0.32017450726E+02  0.00000000000E+00 0. -1.
</event>
<event>
 5    1  0.1259474E-009  0.9118800E+02  0.7815553E-02  0.1125453E+00
         25   -1    0    0    0    0  0.00000000000E+00  0.00000000000E+00  0.99999998245E-14  0.12509000000E+03  0.12509000000E+03 0.  0.
        -13    1    3    3    0    0 -0.13908444560E+02 -0.32925288091E+02 -0.17183753808E+02  0.39658693687E+02  0.10566000000E+00 0. -1.
         23    2    1    0    0    0  0.11660059440E+02 -0.13108261352E+02  0.26067135342E+02  0.93669003091E+02  0.88241731019E+02 0.  0.
         13    1    3    3    0    0  0.25568504000E+02  0.19817026739E+02  0.43250889150E+02  0.54010309404E+02  0.10566000000E+00 0.  1.
         22    1    1    0    0    0 -0.11660059440E+02  0.13108261352E+02 -0.26067135342E+02  0.31420996909E+02  0.00000000000E+00 0.  1.
</event>
<event>
 5    1  0.1259474E-009  0.9118800E+02  0.7815553E-02  0.1125453E+00
         25   -1    0    0    0    0  0.00000000000E+00  0.00000000000E+00  0.99999998245E-14  0.12509000000E+03  0.12509000000E+03 0.  0.
        -13    1    3    3    0    0 -0.98959192537E-03  0.20280992554E+02 -0.57699519487E+01  0.21086065765E+02  0.10566000000E+00 0.  1.
         23    2    1    0    0    0 -0.99299267991E+00 -0.40911670404E+02 -0.11572984874E+02  0.82561365075E+02  0.70765063516E+02 0.  0.
         13    1    3    3    0    0 -0.99200308798E+00 -0.61192662958E+02 -0.58030329253E+01  0.61475299309E+02  0.10566000000E+00 0. -1.
         22    1    1    0    0    0  0.99299267991E+00  0.40911670404E+02  0.11572984874E+02  0.42528634925E+02  0.00000000000E+00 0. -1.
</event>
<event>
 5    1  0.1259474E-009  0.9118800E+02  0.7815553E-02  0.1125453E+00
         25   -1    0    0    0    0  0.00000000000E+00  0.00000000000E+00  0.99999998245E-14  0.12509000000E+03  0.12509000000E+03 0.  0.
        -13    1    3    3    0    0  0.43973325011E+02  0.34798466409E+02 -0.38580716563E+01  0.56209273772E+02  0.10566000000E+00 0. -1.
         23    2    1    0    0    0  0.25388472164E+02  0.57256856137E+01  0.14502896021E+02  0.95295839707E+02  0.90518534444E+02 0.  0.
         13    1    3    3    0    0 -0.18584852847E+02 -0.29072780796E+02  0.18360967677E+02  0.39086565935E+02  0.10566000000E+00 0.  1.
         22    1    1    0    0    0 -0.25388472164E+02 -0.57256856137E+01 -0.14502896021E+02  0.29794160293E+02  0.00000000000E+00 0. -1.
</event>
<event>
 5    1  0.1259474E-009  0.9118800E+02  0.7815553E-02  0.1125453E+00
         25   -1    0    0    0    0  0.00000000000E+00  0.00000000000E+00  0.99999998245E-14  0.12509000000E+03  0.12509000000E+03 0.  0.
        -13    1    3    3    0    0  0.33497536977E+02  0.19536687423E+01 -0.29145509059E+02  0.44445175975E+02  0.10566000000E+00 0. -1.
         23    2    1    0    0    0 -0.48973873759E+00  0.28258838936E+02  0.78120271595E+00  0.96816123370E+02  0.92595624328E+02 0.  0.
         13    1    3    3    0    0 -0.33987275714E+02  0.26305170193E+02  0.29926711775E+02  0.52370947395E+02  0.10566000000E+00 0.  1.
         22    1    1    0    0    0  0.48973873759E+00 -0.28258838936E+02 -0.78120271595E+00  0.28273876630E+02  0.00000000000E+00 0.  1.
</event>
<event>
 5    1  0.1259474E-009  0.9118800E+02  0.7815553E-02  0.1125453E+00
         25   -1    0    0    0    0  0.00000000000E+00  0.00000000000E+00  0.99999998245E-14  0.12509000000E+03  0.12509000000E+03 0.  0.
        -13    1    3    3    0    0 -0.39179176390E+02 -0.24203727222E+02 -0.84486925061E+01  0.46821147393E+02  0.10566000000E+00 0.  1.
         23    2    1    0    0    0  0.46458469140E+01 -0.84417053700E+01 -0.26593747254E+02  0.96804426360E+02  0.92579821164E+02 0.  0.
         13    1    3    3    0    0  0.43825023304E+02  0.15762021852E+02 -0.18145054748E+02  0.49983278967E+02  0.10566000000E+00 0. -1.
         22    1    1    0    0    0 -0.46458469140E+01  0.84417053700E+01  0.26593747254E+02  0.28285573640E+02  0.00000000000E+00 0. -1.
</event>
<event>
 5    1  0.1259474E-009  0.9118800E+02  0.7815553E-02  0.1125453E+00
         25   -1    0    0    0    0  0.00000000000E+00  0.00000000000E+00  0.99999998245E-14  0.12509000000E+03  0.12509000000E+03 0.  0.
        -13    1    3    3    0    0  0.49195539776E+02  0.40837245962E+01 -0.22017223216E+02  0.54052263806E+02  0.10566000000E+00 0.  1.
         23    2    1    0    0    0  0.28927397313E+02 -0.45848333133E+01  0.11043681398E+02  0.93788595708E+02  0.88411100967E+02 0.  0.
         13    1    3    3    0    0 -0.20268142463E+02 -0.86685579095E+01  0.33060904614E+02  0.39736331902E+02  0.10566000000E+00 0. -1.
         22    1    1    0    0    0 -0.28927397313E+02  0.45848333133E+01 -0.11043681398E+02  0.31301404292E+02  0.00000000000E+00 0.  1.
</event>
<event>
 5    1  0.1259474E-009  0.9118800E+02  0.7815553E-02  0.1125453E+00
         25   -1    0    0    0    0  0.00000000000E+00  0.00000000000E+00  0.99999998245E-14  0.12509000000E+03  0.12509000000E+03 0.  0.
        -13    1    3    3    0    0  0.36523179575E+02 -0.95601779623E+01  0.31973260564E+02  0.49473631402E+02  0.10566000000E+00 0.  1.
         23    2    1    0    0    0  0.15122298580E+02 -0.24072927994E+02 -0.65935775982E+01  0.95906699260E+02  0.91358797720E+02 0.  0.
         13    1    3    3    0    0 -0.21400880995E+02 -0.14512750031E+02 -0.38566838162E+02  0.46433067858E+02  0.10566000000E+00 0. -1.
         22    1    1    0    0    0 -0.15122298580E+02  0.24072927994E+02  0.65935775982E+01  0.29183300740E+02  0.00000000000E+00 0.  1.
</event>
<event>
 5    1  0.1259474E-009  0.9118800E+02  0.7815553E-02  0.1125453E+00
         25   -1    0    0    0    0  0.00000000000E+00  0.00000000000E+00  0.99999998245E-14  0.12509000000E+03  0.12509000000E+03 0.  0.
        -13    1    3    3    0    0 -0.14667264977E+02 -0.32841717552E+02  0.25020688911E+02  0.43814987291E+02  0.10566000000E+00 0.  1.
         23    2    1    0    0    0  0.21745011633E+02 -0.16902675227E+02 -0.89798403882E+01  0.96121335996E+02  0.91652210772E+02 0.  0.
         13    1    3    3    0    0  0.36412276611E+02  0.15939042325E+02 -0.34000529299E+02  0.52306348705E+02  0.10566000000E+00 0. -1.
         22    1    1    0    0    0 -0.21745011633E+02  0.16902675227E+02  0.89798403882E+01  0.28968664004E+02  0.00000000000E+00 0. -1.
</event>
<event>
 5    1  0.1259474E-009  0.9118800E+02  0.7815553E-02  0.1125453E+00
         25   -1    0    0    0    0  0.00000000000E+00  0.00000000000E+00  0.99999998245E-14  0.12509000000E+03  0.12509000000E+03 0.  0.
        -13    1    3    3    0    0 -0.15784865392E+02 -0.47598620285E+02 -0.33219950546E+02  0.60152862831E+02  0.10566000000E+00 0.  1.
         23    2    1    0    0    0  0.25727372477E+01 -0.27405726552E+02 -0.10620289129E+02  0.95586044910E+02  0.90918692333E+02 0.  0.
         13    1    3    3    0    0  0.18357602640E+02  0.20192893733E+02  0.22599661417E+02  0.35433182078E+02  0.10566000000E+00 0. -1.
         22    1    1    0    0    0 -0.25727372477E+01  0.27405726552E+02  0.10620289129E+02  0.29503955090E+02  0.00000000000E+00 0.  1.
</event>
<event>
 5    1  0.1259474E-009  0.9118800E+02  0.7815553E-02  0.1125453E+00
         25   -1    0    0    0    0  0.00000000000E+00  0.00000000000E+00  0.99999998245E-14  0.12509000000E+03  0.12509000000E+03 0.  0.
        -13    1    3    3    0    0  0.90072200092E+01 -0.31306081790E+02 -0.32875873131E+02  0.46282123628E+02  0.10566000000E+00 0. -1.
         23    2    1    0    0    0  0.10506941719E+02 -0.23131778637E+02  0.15474818741E+02  0.95341974481E+02  0.90582266894E+02 0.  0.
         13    1    3    3    0    0  0.14997217096E+01  0.81743031532E+01  0.48350691872E+02  0.49059850853E+02  0.10566000000E+00 0.  1.
         22    1    1    0    0    0 -0.10506941719E+02  0.23131778637E+02 -0.15474818741E+02  0.29748025519E+02  0.00000000000E+00 0. -1.
</event>
<event>
 5    1  0.1259474E-009  0.9118800E+02  0.7815553E-02  0.1125453E+00
         25   -1    0    0    0    0  0.00000000000E+00  0.00000000000E+00  0.99999998245E-14  0.12509000000E+03  0.12509000000E+03 0.  0.
        -13    1    3    3    0    0 -0.49286788396E+02 -0.28434362632E+02  0.25708423255E+02  0.62439047710E+02  0.10566000000E+00 0. -1.
         23    2    1    0    0    0 -0.21353939212E+02 -0.14956207240E+02  0.13020730571E+02  0.95948650006E+02  0.91416219340E+02 0.  0.
         13    1    3    3    0    0  0.27932849184E+02  0.13478155392E+02 -0.12687692683E+02  0.33509602295E+02  0.10566000000E+00 0.  1.
         22    1    1    0    0    0  0.21353939212E+02  0.14956207240E+02 -0.13020730571E+02  0.29141349994E+02  0.00000000000E+00 0. -1.
</event>
<event>
 5    1  0.1259474E-009  0.9118800E+02  0.7815553E-02  0.1125453E+00
         25   -1    0    0    0    0  0.00000000000E+00  0.00000000000E+00  0.99999998245E-14  0.12509000000E+03  0.12509000000E+03 0.  0.
        -13    1    3    3    0    0  0.18389396300E+02 -0.31866620746E+02  0.14886489787E+02  0.39689673169E+02  0.10566000000E+00 0.  1.
         23    2    1    0    0    0  0.13512869452E+02  0.17391881695E+02 -0.15849593851E+02  0.97955431366E+02  0.94122163804E+02 0.  0.
         13    1    3    3    0    0 -0.48765268482E+01  0.49258502441E+02 -0.30736083638E+02  0.58265758197E+02  0.10566000000E+00 0. -1.
         22    1    1    0    0    0 -0.13512869452E+02 -0.17391881695E+02  0.15849593851E+02  0.27134568634E+02  0.00000000000E+00 0. -1.
</event>
<event>
 5    1  0.1259474E-009  0.9118800E+02  0.7815553E-02  0.1125453E+00
         25   -1    0    0    0    0  0.00000000000E+00  0.00000000000E+00  0.99999998245E-14  0.12509000000E+03  0.12509000000E+03 0.  0.
        -13    1    3    3    0    0 -0.28832850653E+02 -0.37287035523E+02  0.22030225466E+02  0.52028821752E+02  0.10566000000E+00 0.  1.
         23    2    1    0    0    0 -0.81719026599E+01  0.75041775118E+00  0.28170277837E+02  0.95748771783E+02  0.91142304254E+02 0.  0.
         13    1    3    3    0    0  0.20660947993E+02  0.38037453274E+02  0.61400523707E+01  0.43719950031E+02  0.10566000000E+00 0. -1.
         22    1    1    0    0    0  0.81719026599E+01 -0.75041775118E+00 -0.28170277837E+02  0.29341228217E+02  0.00000000000E+00 0.  1.
</event>
<event>
 5    1  0.1259474E-009  0.9118800E+02  0.7815553E-02  0.1125453E+00
         25   -1    0    0    0    0  0.00000000000E+00  0.00000000000E+00  0.99999998245E-14  0.12509000000E+03  0.12509000000E+03 0.  0.
        -13    1    3    3    0    0  0.46373348243E+02  0.22058646758E+02 -0.19779650888E+02  0.55030146986E+02  0.10566000000E+00 0. -1.
         23    2    1    0    0    0  0.24387614264E+02  0.11041568851E+02  0.12446294302E+02  0.95567428736E+02  0.90893075761E+02 0.  0.
         13    1    3    3    0    0 -0.21985733979E+02 -0.11017077907E+02  0.32225945190E+02  0.40537281750E+02  0.10566000000E+00 0.  1.
         22    1    1    0    0    0 -0.24387614264E+02 -0.11041568851E+02 -0.12446294302E+02  0.29522571264E+02  0.00000000000E+00 0. -1.
</event>
<event>
 5    1  0.1259474E-009  0.9118800E+02  0.7815553E-02  0.1125453E+00
         25   -1    0    0    0    0  0.00000000000E+00  0.00000000000E+00  0.99999998245E-14  0.12509000000E+03  0.12509000000E+03 0.  0.
        -13    1    3    3    0    0  0.10409901284E+02  0.53668924135E+02 -0.24667269339E+02  0.59976702171E+02  0.10566000000E+00 0. -1.
         23    2    1    0    0    0 -0.27105620022E+01  0.29113024035E+02 -0.21717709302E+01  0.95770520063E+02  0.91172148210E+02 0.  0.
         13    1    3    3    0    0 -0.13120463287E+02 -0.24555900100E+02  0.22495498409E+02  0.35793817892E+02  0.10566000000E+00 0.  1.
         22    1    1    0    0    0  0.27105620022E+01 -0.29113024035E+02  0.21717709302E+01  0.29319479937E+02  0.00000000000E+00 0. -1.
</event>
<event>
 5    1  0.1259474E-009  0.9118800E+02  0.7815553E-02  0.1125453E+00
         25   -1    0    0    0    0  0.00000000000E+00  0.00000000000E+00  0.99999998245E-14  0.12509000000E+03  0.12509000000E+03 0.  0.
        -13    1    3    3    0    0 -0.28474124732E+02  0.77436640884E+01  0.23439128901E+02  0.37684798533E+02  0.10566000000E+00 0. -1.
         23    2    1    0    0    0  0.22870344245E+02 -0.13007798381E+02  0.17741191221E+02  0.93356652705E+02  0.87797831829E+02 0.  0.
         13    1    3    3    0    0  0.51344468977E+02 -0.20751462469E+02 -0.56979376808E+01  0.55671854172E+02  0.10566000000E+00 0.  1.
         22    1    1    0    0    0 -0.22870344245E+02  0.13007798381E+02 -0.17741191221E+02  0.31733347295E+02  0.00000000000E+00 0.  1.
</event>
<event>
 5    1  0.1259474E-009  0.9118800E+02  0.7815553E-02  0.1125453E+00
         25   -1    0    0    0    0  0.00000000000E+00  0.00000000000E+00  0.99999998245E-14  0.12509000000E+03  0.12509000000E+03 0.  0.
        -13    1    3    3    0    0  0.20066750798E+02  0.11947954183E+02 -0.29005822898E+02  0.37239455189E+02  0.10566000000E+00 0.  1.
         23    2    1    0    0    0 -0.18850791212E+02 -0.22417253471E+02 -0.20758969437E+01  0.95726843994E+02  0.91112204069E+02 0.  0.
         13    1    3    3    0    0 -0.38917542010E+02 -0.34365207654E+02  0.26929925954E+02  0.58487388805E+02  0.10566000000E+00 0. -1.
         22    1    1    0    0    0  0.18850791212E+02  0.22417253471E+02  0.20758969437E+01  0.29363156006E+02  0.00000000000E+00 0. -1.
</event>
<event>
 5    1  0.1259474E-009  0.9118800E+02  0.7815553E-02  0.1125453E+00
         25   -1    0    0    0    0  0.00000000000E+00  0.00000000000E+00  0.99999998245E-14  0.12509000000E+03  0.12509000000E+03 0.  0.
        -13    1    3    3    0    0  0.22302288000E+02  0.15301707268E+02 -0.28680001801E+02  0.39421922362E+02  0.10566000000E+00 0.  1.
         23    2    1    0    0    0  0.48257950626E+01 -0.28361117130E+02  0.30571240114E+01  0.96159267723E+02  0.91703966648E+02 0.  0.
         13    1    3    3    0    0 -0.17476492937E+02 -0.43662824398E+02  0.31737125813E+02  0.56737345362E+02  0.10566000000E+00 0. -1.
         22    1    1    0    0    0 -0.48257950626E+01  0.28361117130E+02 -0.30571240114E+01  0.28930732277E+02  0.00000000000E+00 0. -1.
</event>
<event>
 5    1  0.1259474E-009  0.9118800E+02  0.7815553E-02  0.1125453E+00
         25   -1    0    0    0    0  0.00000000000E+00  0.00000000000E+00  0.99999998245E-14  0.12509000000E+03  0.12509000000E+03 0.  0.
        -13    1    3    3    0    0 -0.18868085715E+02  0.27193298885E+02  0.26334496935E+02  0.42296537159E+02  0.10566000000E+00 0. -1.
         23    2    1    0    0    0  0.14712049622E+02  0.20955712943E+02 -0.14605451554E+02  0.95612796535E+02  0.90955490968E+02 0.  0.
         13    1    3    3    0    0  0.33580135337E+02 -0.62375859419E+01 -0.40939948489E+02  0.53316259377E+02  0.10566000000E+00 0.  1.
         22    1    1    0    0    0 -0.14712049622E+02 -0.20955712943E+02  0.14605451554E+02  0.29477203465E+02  0.00000000000E+00 0.  1.
</event>
<event>
 5    1  0.1259474E-009  0.9118800E+02  0.7815553E-02  0.1125453E+00
         25   -1    0    0    0    0  0.00000000000E+00  0.00000000000E+00  0.99999998245E-14  0.12509000000E+03  0.12509000000E+03 0.  0.
        -13    1    3    3    0    0 -0.11441373332E+02 -0.41285953368E+02  0.32222730980E+02  0.53607373794E+02  0.10566000000E+00 0.  1.
         23    2    1    0    0    0 -0.24805660103E+02 -0.74492191877E+01  0.21196439293E+02  0.91622094802E+02  0.85290723865E+02 0.  0.
         13    1    3    3    0    0 -0.13364286771E+02  0.33836734180E+02 -0.11026291687E+02  0.38014721008E+02  0.10566000000E+00 0. -1.
         22    1    1    0    0    0  0.24805660103E+02  0.74492191877E+01 -0.21196439293E+02  0.33467905198E+02  0.00000000000E+00 0.  1.
</event>
<event>
 5    1  0.1259474E-009  0.9118800E+02  0.7815553E-02  0.1125453E+00
         25   -1    0    0    0    0  0.00000000000E+00  0.00000000000E+00  0.99999998245E-14  0.12509000000E+03  0.12509000000E+03 0.  0.
        -13    1    3    3    0    0 -0.42815280535E+01  0.35513976887E+02  0.69294918429E+01  0.36436287654E+02  0.10566000000E+00 0.  1.
         23    2    1    0    0    0 -0.11385412736E+02 -0.23702692299E+02  0.11784125487E+02  0.96274884888E+02  0.91861540382E+02 0.  0.
         13    1    3    3    0    0 -0.71038846824E+01 -0.59216669186E+02  0.48546336438E+01  0.59838597234E+02  0.10566000000E+00 0. -1.
         22    1    1    0    0    0  0.11385412736E+02  0.23702692299E+02 -0.11784125487E+02  0.28815115112E+02  0.00000000000E+00 0. -1.
</event>
<event>
 5    1  0.1259474E-009  0.9118800E+02  0.7815553E-02  0.1125453E+00
         25   -1    0    0    0    0  0.00000000000E+00  0.00000000000E+00  0.99999998245E-14  0.12509000000E+03  0.12509000000E+03 0.  0.
        -13    1    3    3    0    0  0.14110880927E+02  0.17508203144E+02  0.22421393775E+02  0.31755065749E+02  0.10566000000E+00 0.  1.
         23    2    1    0    0    0 -0.16937324478E+02 -0.17226611285E+02 -0.19202547770E+02  0.94229557072E+02  0.89032816918E+02 0.  0.
         13    1    3    3    0    0 -0.31048205405E+02 -0.34734814428E+02 -0.41623941546E+02  0.62474491323E+02  0.10566000000E+00 0. -1.
         22    1    1    0    0    0  0.16937324478E+02  0.17226611285E+02  0.19202547770E+02  0.30860442928E+02  0.00000000000E+00 0. -1.
</event>
<event>
 5    1  0.1259474E-009  0.9118800E+02  0.7815553E-02  0.1125453E+00
         25   -1    0    0    0    0  0.00000000000E+00  0.00000000000E+00  0.99999998245E-14  0.12509000000E+03  0.12509000000E+03 0.  0.
        -13    1    3    3    0    0 -0.16603394371E+02 -0.14843356178E+02  0.52030121156E+02  0.56596312590E+02  0.10566000000E+00 0.  1.
         23    2    1    0    0    0 -0.16632080379E+02  0.10184922456E+02  0.21948204779E+02  0.95728759628E+02  0.91114834049E+02 0.  0.
         13    1    3    3    0    0 -0.28686007822E-01  0.25028278633E+02 -0.30081916377E+02  0.39132447038E+02  0.10566000000E+00 0. -1.
         22    1    1    0    0    0  0.16632080379E+02 -0.10184922456E+02 -0.21948204779E+02  0.29361240372E+02  0.00000000000E+00 0.  1.
</event>
<event>
 5    1  0.1259474E-009  0.9118800E+02  0.7815553E-02  0.1125453E+00
         25   -1    0    0    0    0  0.00000000000E+00  0.00000000000E+00  0.99999998245E-14  0.12509000000E+03  0.12509000000E+03 0.  0.
        -13    1    3    3    0    0  0.25496285886E+02 -0.26241473133E+02 -0.10717196588E+01  0.36603760096E+02  0.10566000000E+00 0. -1.
         23    2    1    0    0    0 -0.96046747099E+01  0.17740982125E+02  0.19991158846E+02  0.96688615261E+02  0.92423209564E+02 0.  0.
         13    1    3    3    0    0 -0.35100960595E+02  0.43982455258E+02  0.21062878505E+02  0.60084855165E+02  0.10566000000E+00 0.  1.
         22    1    1    0    0    0  0.96046747099E+01 -0.17740982125E+02 -0.19991158846E+02  0.28401384739E+02  0.00000000000E+00 0.  1.
</event>
<event>
 5    1  0.1259474E-009  0.9118800E+02  0.7815553E-02  0.1125453E+00
         25   -1    0    0    0    0  0.00000000000E+00  0.00000000000E+00  0.99999998245E-14  0.12509000000E+03  0.12509000000E+03 0.  0.
        -13    1    3    3    0    0  0.42593720383E+02  0.18159117472E+02  0.32770352087E+02  0.56726410987E+02  0.10566000000E+00 0.  1.
         23    2    1    0    0    0  0.17834259806E+02  0.22417086703E+02  0.21080513631E+01  0.96366656190E+02  0.91986422615E+02 0.  0.
         13    1    3    3    0    0 -0.24759460577E+02  0.42579692307E+01 -0.30662300724E+02  0.39640245203E+02  0.10566000000E+00 0. -1.
         22    1    1    0    0    0 -0.17834259806E+02 -0.22417086703E+02 -0.21080513631E+01  0.28723343810E+02  0.00000000000E+00 0.  1.
</event>
<event>
 5    1  0.1259474E-009  0.9118800E+02  0.7815553E-02  0.1125453E+00
         25   -1    0    0    0    0  0.00000000000E+00  0.00000000000E+00  0.99999998245E-14  0.12509000000E+03  0.12509000000E+03 0.  0.
        -13    1    3    3    0    0 -0.46722522032E+02 -0.51257441963E+01  0.22503926358E+01  0.47056803436E+02  0.10566000000E+00 0. -1.
         23    2    1    0    0    0  0.12858746085E+01 -0.25672050463E+02  0.23637957288E+01  0.99277305861E+02  0.95862861840E+02 0.  0.
         13    1    3    3    0    0  0.48008396640E+02 -0.20546306267E+02  0.11340309293E+00  0.52220502425E+02  0.10566000000E+00 0.  1.
         22    1    1    0    0    0 -0.12858746085E+01  0.25672050463E+02 -0.23637957288E+01  0.25812694139E+02  0.00000000000E+00 0. -1.
</event>
<event>
 5    1  0.1259474E-009  0.9118800E+02  0.7815553E-02  0.1125453E+00
         25   -1    0    0    0    0  0.00000000000E+00  0.00000000000E+00  0.99999998245E-14  0.12509000000E+03  0.12509000000E+03 0.  0.
        -13    1    3    3    0    0  0.80226596501E+01 -0.26233770890E+01 -0.37204649114E+02  0.38150258911E+02  0.10566000000E+00 0. -1.
         23    2    1    0    0    0  0.16125944007E+02 -0.77396716768E+01  0.21209210299E+02  0.97345105167E+02  0.93307504042E+02 0.  0.
         13    1    3    3    0    0  0.81032843571E+01 -0.51162945878E+01  0.58413859413E+02  0.59194846256E+02  0.10566000000E+00 0.  1.
         22    1    1    0    0    0 -0.16125944007E+02  0.77396716768E+01 -0.21209210299E+02  0.27744894833E+02  0.00000000000E+00 0.  1.
</event>
<event>
 5    1  0.1259474E-009  0.9118800E+02  0.7815553E-02  0.1125453E+00
         25   -1    0    0    0    0  0.00000000000E+00  0.00000000000E+00  0.99999998245E-14  0.12509000000E+03  0.12509000000E+03 0.  0.
        -13    1    3    3    0    0 -0.21895897753E+01  0.58099746099E+02 -0.44801883045E+01  0.58313446575E+02  0.10566000000E+00 0.  1.
         23    2    1    0    0    0  0.66021059166E+01  0.20425424804E+02  0.12151091337E+02  0.10042352880E+03  0.97347061252E+02 0.  0.
         13    1    3    3    0    0  0.87916956919E+01 -0.37674321295E+02  0.16631279641E+02  0.42110082222E+02  0.10566000000E+00 0. -1.
         22    1    1    0    0    0 -0.66021059166E+01 -0.20425424804E+02 -0.12151091337E+02  0.24666471203E+02  0.00000000000E+00 0.  1.
</event>
<event>
 5    1  0.1259474E-009  0.9118800E+02  0.7815553E-02  0.1125453E+00
         25   -1    0    0    0    0  0.00000000000E+00  0.00000000000E+00  0.99999998245E-14  0.12509000000E+03  0.12509000000E+03 0.  0.
        -13    1    3    3    0    0  0.46295079562E+02  0.82222828512E+01 -0.35407378729E+02  0.58860291873E+02  0.10566000000E+00 0.  1.
         23    2    1    0    0    0  0.10495634787E+02  0.82974549746E+01 -0.25959242610E+02  0.95885747133E+02  0.91330105210E+02 0.  0.
         13    1    3    3    0    0 -0.35799444775E+02  0.75172123403E-01  0.94481361186E+01  0.37025455259E+02  0.10566000000E+00 0. -1.
         22    1    1    0    0    0 -0.10495634787E+02 -0.82974549746E+01  0.25959242610E+02  0.29204252867E+02  0.00000000000E+00 0.  1.
</event>
<event>
 5    1  0.1259474E-009  0.9118800E+02  0.7815553E-02  0.1125453E+00
         25   -1    0    0    0    0  0.00000000000E+00  0.00000000000E+00  0.99999998245E-14  0.12509000000E+03  0.12509000000E+03 0.  0.
        -13    1    3    3    0    0 -0.21453560479E+02  0.17397151974E+01 -0.30409766885E+02  0.37256502147E+02  0.10566000000E+00 0.  1.
         23    2    1    0    0    0 -0.12300210447E+02 -0.11074434530E+02  0.25137507659E+02  0.94992947511E+02  0.90098987277E+02 0.  0.
         13    1    3    3    0    0  0.91533500320E+01 -0.12814149727E+02  0.55547274544E+02  0.57736445365E+02  0.10566000000E+00 0. -1.
         22    1    1    0    0    0  0.12300210447E+02  0.11074434530E+02 -0.25137507659E+02  0.30097052489E+02  0.00000000000E+00 0. -1.
</event>
<event>
 5    1  0.1259474E-009  0.9118800E+02  0.7815553E-02  0.1125453E+00
         25   -1    0    0    0    0  0.00000000000E+00  0.00000000000E+00  0.99999998245E-14  0.12509000000E+03  0.12509000000E+03 0.  0.
        -13    1    3    3    0    0 -0.15349676983E+02  0.74381268966E+01  0.49301317309E+02  0.52168662697E+02  0.10566000000E+00 0. -1.
         23    2    1    0    0    0 -0.21465737455E+02  0.18690092282E+02  0.78330508691E+01  0.95569598243E+02  0.90896061457E+02 0.  0.
         13    1    3    3    0    0 -0.61160604724E+01  0.11251965385E+02 -0.41468266440E+02  0.43400935546E+02  0.10566000000E+00 0.  1.
         22    1    1    0    0    0  0.21465737455E+02 -0.18690092282E+02 -0.78330508691E+01  0.29520401757E+02  0.00000000000E+00 0.  1.
</event>
<event>
 5    1  0.1259474E-009  0.9118800E+02  0.7815553E-02  0.1125453E+00
         25   -1    0    0    0    0  0.00000000000E+00  0.00000000000E+00  0.99999998245E-14  0.12509000000E+03  0.12509000000E+03 0.  0.
        -13    1    3    3    0    0 -0.15646431160E+02  0.26510145351E+02 -0.23406502125E+02  0.38671360467E+02  0.10566000000E+00 0. -1.
         23    2    1    0    0    0 -0.97532127177E+01 -0.12622697403E+02  0.21365629208E+02  0.98426396352E+02  0.94746017011E+02 0.  0.
         13    1    3    3    0    0  0.58932184422E+01 -0.39132842754E+02  0.44772131333E+02  0.59755035886E+02  0.10566000000E+00 0.  1.
         22    1    1    0    0    0  0.97532127177E+01  0.12622697403E+02 -0.21365629208E+02  0.26663603648E+02  0.00000000000E+00 0.  1.
</event>
<event>
 5    1  0.1259474E-009  0.9118800E+02  0.7815553E-02  0.1125453E+00
         25   -1    0    0    0    0  0.00000000000E+00  0.00000000000E+00  0.99999998245E-14  0.12509000000E+03  0.12509000000E+03 0.  0.
        -13    1    3    3    0    0  0.10001276685E+02  0.36731758019E+02 -0.40676388447E+02  0.55712003407E+02  0.10566000000E+00 0.  1.
         23    2    1    0    0    0  0.17181945571E+02  0.21571084968E+02 -0.25150358543E+01  0.97397828441E+02  0.93378159221E+02 0.  0.
         13    1    3    3    0    0  0.71806688860E+01 -0.15160673051E+02  0.38161352593E+02  0.41685825034E+02  0.10566000000E+00 0. -1.
         22    1    1    0    0    0 -0.17181945571E+02 -0.21571084968E+02  0.25150358543E+01  0.27692171559E+02  0.00000000000E+00 0.  1.
</event>
<event>
 5    1  0.1259474E-009  0.9118800E+02  0.7815553E-02  0.1125453E+00
         25   -1    0    0    0    0  0.00000000000E+00  0.00000000000E+00  0.99999998245E-14  0.12509000000E+03  0.12509000000E+03 0.  0.
        -13    1    3    3    0    0  0.21262235852E+01 -0.34285924592E+02 -0.48381904641E+02  0.59336879869E+02  0.10566000000E+00 0.  1.
         23    2    1    0    0    0  0.26989922247E+01 -0.32574077201E+01 -0.28686947460E+02  0.96092823954E+02  0.91613288320E+02 0.  0.
         13    1    3    3    0    0  0.57276863951E+00  0.31028516872E+02  0.19694957181E+02  0.36755944085E+02  0.10566000000E+00 0. -1.
         22    1    1    0    0    0 -0.26989922247E+01  0.32574077201E+01  0.28686947460E+02  0.28997176046E+02  0.00000000000E+00 0.  1.
</event>
<event>
 5    1  0.1259474E-009  0.9118800E+02  0.7815553E-02  0.1125453E+00
         25   -1    0    0    0    0  0.00000000000E+00  0.00000000000E+00  0.99999998245E-14  0.12509000000E+03  0.12509000000E+03 0.  0.
        -13    1    3    3    0    0  0.26072147916E+02 -0.24347173680E+02 -0.27021081983E+02  0.44751444655E+02  0.10566000000E+00 0.  1.
         23    2    1    0    0    0 -0.36184877580E+00 -0.29680594586E+02  0.12735044435E+02  0.92790619414E+02  0.86987637426E+02 0.  0.
         13    1    3    3    0    0 -0.26433996692E+02 -0.53334209063E+01  0.39756126418E+02  0.48039174759E+02  0.10566000000E+00 0. -1.
         22    1    1    0    0    0  0.36184877580E+00  0.29680594586E+02 -0.12735044435E+02  0.32299380586E+02  0.00000000000E+00 0. -1.
</event>
<event>
 5    1  0.1259474E-009  0.9118800E+02  0.7815553E-02  0.1125453E+00
         25   -1    0    0    0    0  0.00000000000E+00  0.00000000000E+00  0.99999998245E-14  0.12509000000E+03  0.12509000000E+03 0.  0.
        -13    1    3    3    0    0 -0.40187289013E+02  0.93466470750E+01  0.25211686140E+02  0.48353058764E+02  0.10566000000E+00 0.  1.
         23    2    1    0    0    0 -0.24411056319E+02  0.34436897114E+02  0.19735515423E+02  0.78492895772E+02  0.63165216410E+02 0.  0.
         13    1    3    3    0    0  0.15776232695E+02  0.25090250039E+02 -0.54761707169E+01  0.30139837007E+02  0.10566000000E+00 0. -1.
         22    1    1    0    0    0  0.24411056319E+02 -0.34436897114E+02 -0.19735515423E+02  0.46597104228E+02  0.00000000000E+00 0.  1.
</event>
<event>
 5    1  0.1259474E-009  0.9118800E+02  0.7815553E-02  0.1125453E+00
         25   -1    0    0    0    0  0.00000000000E+00  0.00000000000E+00  0.99999998245E-14  0.12509000000E+03  0.12509000000E+03 0.  0.
        -13    1    3    3    0    0  0.31644062745E+02 -0.51902513232E+01 -0.11222840755E+02  0.33974236334E+02  0.10566000000E+00 0.  1.
         23    2    1    0    0    0  0.78268182827E+01  0.21822816331E+02  0.28998876345E+02  0.87962796681E+02  0.79743491105E+02 0.  0.
         13    1    3    3    0    0 -0.23817244463E+02  0.27013067655E+02  0.40221717099E+02  0.53988560347E+02  0.10566000000E+00 0. -1.
         22    1    1    0    0    0 -0.78268182827E+01 -0.21822816331E+02 -0.28998876345E+02  0.37127203319E+02  0.00000000000E+00 0. -1.
</event>
<event>
 5    1  0.1259474E-009  0.9118800E+02  0.7815553E-02  0.1125453E+00
         25   -1    0    0    0    0  0.00000000000E+00  0.00000000000E+00  0.99999998245E-14  0.12509000000E+03  0.12509000000E+03 0.  0.
        -13    1    3    3    0    0  0.32901395795E+02 -0.14753793450E+02 -0.14871326356E+02  0.39004407162E+02  0.10566000000E+00 0. -1.
         23    2    1    0    0    0 -0.20205286307E+02 -0.21163073652E+02  0.36306214543E+01  0.95605924751E+02  0.90946039794E+02 0.  0.
         13    1    3    3    0    0 -0.53106682102E+02 -0.64092802026E+01  0.18501947810E+02  0.56601517589E+02  0.10566000000E+00 0.  1.
         22    1    1    0    0    0  0.20205286307E+02  0.21163073652E+02 -0.36306214543E+01  0.29484075249E+02  0.00000000000E+00 0. -1.
</event>
<event>
 5    1  0.1259474E-009  0.9118800E+02  0.7815553E-02  0.1125453E+00
         25   -1    0    0    0    0  0.00000000000E+00  0.00000000000E+00  0.99999998245E-14  0.12509000000E+03  0.12509000000E+03 0.  0.
        -13    1    3    3    0    0  0.10415223894E+02 -0.21761517977E+02 -0.30195972654E+02  0.38650336118E+02  0.10566000000E+00 0.  1.
         23    2    1    0    0    0  0.20636039545E+02 -0.63745275896E+01  0.22145654357E+02  0.94156026169E+02  0.88929446905E+02 0.  0.
         13    1    3    3    0    0  0.10220815651E+02  0.15386990388E+02  0.52341627011E+02  0.55505690051E+02  0.10566000000E+00 0. -1.
         22    1    1    0    0    0 -0.20636039545E+02  0.63745275896E+01 -0.22145654357E+02  0.30933973831E+02  0.00000000000E+00 0. -1.
</event>
<event>
 5    1  0.1259474E-009  0.9118800E+02  0.7815553E-02  0.1125453E+00
         25   -1    0    0    0    0  0.00000000000E+00  0.00000000000E+00  0.99999998245E-14  0.12509000000E+03  0.12509000000E+03 0.  0.
        -13    1    3    3    0    0  0.51091187280E+02  0.14098906943E+02  0.62672175569E+01  0.53370195565E+02  0.10566000000E+00 0.  1.
         23    2    1    0    0    0  0.14418799959E+02 -0.44257920357E+01 -0.18404721711E+02  0.10129455488E+03  0.98459959572E+02 0.  0.
         13    1    3    3    0    0 -0.36672387322E+02 -0.18524698979E+02 -0.24671939268E+02  0.47924359311E+02  0.10566000000E+00 0. -1.
         22    1    1    0    0    0 -0.14418799959E+02  0.44257920357E+01  0.18404721711E+02  0.23795445124E+02  0.00000000000E+00 0.  1.
</event>
<event>
 5    1  0.1259474E-009  0.9118800E+02  0.7815553E-02  0.1125453E+00
         25   -1    0    0    0    0  0.00000000000E+00  0.00000000000E+00  0.99999998245E-14  0.12509000000E+03  0.12509000000E+03 0.  0.
        -13    1    3    3    0    0 -0.21648397499E+02  0.22771128544E+01 -0.43641492597E+02  0.48769143906E+02  0.10566000000E+00 0.  1.
         23    2    1    0    0    0 -0.16959995581E+02  0.29526955952E+02 -0.17568317407E+02  0.86773836904E+02  0.77856087859E+02 0.  0.
         13    1    3    3    0    0  0.46884019175E+01  0.27249843097E+02  0.26073175190E+02  0.38004692998E+02  0.10566000000E+00 0. -1.
         22    1    1    0    0    0  0.16959995581E+02 -0.29526955952E+02  0.17568317407E+02  0.38316163096E+02  0.00000000000E+00 0.  1.
</event>
<event>
 5    1  0.1259474E-009  0.9118800E+02  0.7815553E-02  0.1125453E+00
         25   -1    0    0    0    0  0.00000000000E+00  0.00000000000E+00  0.99999998245E-14  0.12509000000E+03  0.12509000000E+03 0.  0.
        -13    1    3    3    0    0  0.17516634459E+02  0.53461255616E+02 -0.26299725200E+02  0.62101731412E+02  0.10566000000E+00 0.  1.
         23    2    1    0    0    0  0.47252028990E+01  0.22338457029E+02 -0.15698237655E+02  0.97381357479E+02  0.93356092003E+02 0.  0.
         13    1    3    3    0    0 -0.12791431560E+02 -0.31122798586E+02  0.10601487544E+02  0.35279626066E+02  0.10566000000E+00 0. -1.
         22    1    1    0    0    0 -0.47252028990E+01 -0.22338457029E+02  0.15698237655E+02  0.27708642521E+02  0.00000000000E+00 0.  1.
</event>
<event>
 5    1  0.1259474E-009  0.9118800E+02  0.7815553E-02  0.1125453E+00
         25   -1    0    0    0    0  0.00000000000E+00  0.00000000000E+00  0.99999998245E-14  0.12509000000E+03  0.12509000000E+03 0.  0.
        -13    1    3    3    0    0 -0.59480730840E+01  0.23569711708E+02  0.29691504399E+02  0.38373265184E+02  0.10566000000E+00 0.  1.
         23    2    1    0    0    0 -0.20332676200E+02 -0.20942804651E+02 -0.34426259014E+01  0.95698326669E+02  0.91073043575E+02 0.  0.
         13    1    3    3    0    0 -0.14384603116E+02 -0.44512516359E+02 -0.33134130300E+02  0.57325061484E+02  0.10566000000E+00 0. -1.
         22    1    1    0    0    0  0.20332676200E+02  0.20942804651E+02  0.34426259014E+01  0.29391673331E+02  0.00000000000E+00 0. -1.
</event>
<event>
 5    1  0.1259474E-009  0.9118800E+02  0.7815553E-02  0.1125453E+00
         25   -1    0    0    0    0  0.00000000000E+00  0.00000000000E+00  0.99999998245E-14  0.12509000000E+03  0.12509000000E+03 0.  0.
        -13    1    3    3    0    0  0.46973678713E+01 -0.27024536229E+02 -0.41698680848E+02  0.49911741823E+02  0.10566000000E+00 0. -1.
         23    2    1    0    0    0 -0.17228827835E+02  0.77500667957E+01 -0.23680348907E+02  0.94797179592E+02  0.89826779361E+02 0.  0.
         13    1    3    3    0    0 -0.21926195706E+02  0.34774603025E+02  0.18018331941E+02  0.44885437769E+02  0.10566000000E+00 0.  1.
         22    1    1    0    0    0  0.17228827835E+02 -0.77500667957E+01  0.23680348907E+02  0.30292820408E+02  0.00000000000E+00 0.  1.
</event>
<event>
 5    1  0.1259474E-009  0.9118800E+02  0.7815553E-02  0.1125453E+00
         25   -1    0    0    0    0  0.00000000000E+00  0.00000000000E+00  0.99999998245E-14  0.12509000000E+03  0.12509000000E+03 0.  0.
        -13    1    3    3    0    0 -0.26403862757E+02 -0.17797698767E+02  0.24535000963E+02  0.40198252277E+02  0.10566000000E+00 0.  1.
         23    2    1    0    0    0  0.90221275035E+01 -0.21512413045E+02 -0.17961325554E+02  0.95648669945E+02  0.91004813867E+02 0.  0.
         13    1    3    3    0    0  0.35425990260E+02 -0.37147142784E+01 -0.42496326517E+02  0.55450417668E+02  0.10566000000E+00 0. -1.
         22    1    1    0    0    0 -0.90221275035E+01  0.21512413045E+02  0.17961325554E+02  0.29441330055E+02  0.00000000000E+00 0. -1.
</event>
<event>
 5    1  0.1259474E-009  0.9118800E+02  0.7815553E-02  0.1125453E+00
         25   -1    0    0    0    0  0.00000000000E+00  0.00000000000E+00  0.99999998245E-14  0.12509000000E+03  0.12509000000E+03 0.  0.
        -13    1    3    3    0    0  0.14188122571E+02 -0.27955377457E+02  0.25190546634E+02  0.40216672595E+02  0.10566000000E+00 0.  1.
         23    2    1    0    0    0 -0.28352496674E+02  0.16629849356E+01  0.32548785785E+01  0.96502873157E+02  0.92171474473E+02 0.  0.
         13    1    3    3    0    0 -0.42540619245E+02  0.29618362393E+02 -0.21935668056E+02  0.56286200562E+02  0.10566000000E+00 0. -1.
         22    1    1    0    0    0  0.28352496674E+02 -0.16629849356E+01 -0.32548785785E+01  0.28587126843E+02  0.00000000000E+00 0. -1.
</event>
<event>
 5    1  0.1259474E-009  0.9118800E+02  0.7815553E-02  0.1125453E+00
         25   -1    0    0    0    0  0.00000000000E+00  0.00000000000E+00  0.99999998245E-14  0.12509000000E+03  0.12509000000E+03 0.  0.
        -13    1    3    3    0    0  0.35460914067E+02 -0.37964322013E+02  0.34204994359E+02  0.62199348674E+02  0.10566000000E+00 0.  1.
         23    2    1    0    0    0  0.13224747267E+02 -0.18213233229E+02  0.19167469832E+02  0.95526378694E+02  0.90836563793E+02 0.  0.
         13    1    3    3    0    0 -0.22236166800E+02  0.19751088783E+02 -0.15037524527E+02  0.33327030021E+02  0.10566000000E+00 0. -1.
         22    1    1    0    0    0 -0.13224747267E+02  0.18213233229E+02 -0.19167469832E+02  0.29563621306E+02  0.00000000000E+00 0.  1.
</event>
<event>
 5    1  0.1259474E-009  0.9118800E+02  0.7815553E-02  0.1125453E+00
         25   -1    0    0    0    0  0.00000000000E+00  0.00000000000E+00  0.99999998245E-14  0.12509000000E+03  0.12509000000E+03 0.  0.
        -13    1    3    3    0    0  0.42274424290E+02 -0.70865514597E+01 -0.23300814985E+02  0.48788167660E+02  0.10566000000E+00 0. -1.
         23    2    1    0    0    0  0.62328428434E+01  0.22480129224E+02 -0.17835304893E+02  0.95725009953E+02  0.91109686038E+02 0.  0.
         13    1    3    3    0    0 -0.36041581447E+02  0.29566680683E+02  0.54655100916E+01  0.46936842293E+02  0.10566000000E+00 0.  1.
         22    1    1    0    0    0 -0.62328428434E+01 -0.22480129224E+02  0.17835304893E+02  0.29364990047E+02  0.00000000000E+00 0.  1.
</event>
<event>
 5    1  0.1259474E-009  0.9118800E+02  0.7815553E-02  0.1125453E+00
         25   -1    0    0    0    0  0.00000000000E+00  0.00000000000E+00  0.99999998245E-14  0.12509000000E+03  0.12509000000E+03 0.  0.
        -13    1    3    3    0    0  0.50000821999E+02 -0.40577095616E+01 -0.16930175866E+01  0.50193870941E+02  0.10566000000E+00 0.  1.
         23    2    1    0    0    0  0.22548223143E+02  0.18588461620E+02  0.17902121126E+02  0.90819907892E+02  0.84105983476E+02 0.  0.
         13    1    3    3    0    0 -0.27452598857E+02  0.22646171181E+02  0.19595138712E+02  0.40626036951E+02  0.10566000000E+00 0. -1.
         22    1    1    0    0    0 -0.22548223143E+02 -0.18588461620E+02 -0.17902121126E+02  0.34270092108E+02  0.00000000000E+00 0.  1.
</event>
<event>
 5    1  0.1259474E-009  0.9118800E+02  0.7815553E-02  0.1125453E+00
         25   -1    0    0    0    0  0.00000000000E+00  0.00000000000E+00  0.99999998245E-14  0.12509000000E+03  0.12509000000E+03 0.  0.
        -13    1    3    3    0    0  0.48756168330E+01  0.29242618866E+02 -0.72870422046E+01  0.30528913276E+02  0.10566000000E+00 0. -1.
         23    2    1    0    0    0  0.45778337478E+02  0.35558825212E+01 -0.18095144329E+01  0.79138124900E+02  0.64430334373E+02 0.  0.
         13    1    3    3    0    0  0.40902720645E+02 -0.25686736345E+02  0.54775277717E+01  0.48609211624E+02  0.10566000000E+00 0.  1.
         22    1    1    0    0    0 -0.45778337478E+02 -0.35558825212E+01  0.18095144329E+01  0.45951875100E+02  0.00000000000E+00 0.  1.
</event>
<event>
 5    1  0.1259474E-009  0.9118800E+02  0.7815553E-02  0.1125453E+00
         25   -1    0    0    0    0  0.00000000000E+00  0.00000000000E+00  0.99999998245E-14  0.12509000000E+03  0.12509000000E+03 0.  0.
        -13    1    3    3    0    0  0.62144320700E+01 -0.28416216984E+02  0.45504429875E+02  0.54007081535E+02  0.10566000000E+00 0. -1.
         23    2    1    0    0    0  0.24387945009E+02 -0.61068882759E+01  0.15625435645E+02  0.95488983374E+02  0.90785052517E+02 0.  0.
         13    1    3    3    0    0  0.18173512939E+02  0.22309328708E+02 -0.29878994230E+02  0.41481901839E+02  0.10566000000E+00 0.  1.
         22    1    1    0    0    0 -0.24387945009E+02  0.61068882759E+01 -0.15625435645E+02  0.29601016626E+02  0.00000000000E+00 0. -1.
</event>
<event>
 5    1  0.1259474E-009  0.9118800E+02  0.7815553E-02  0.1125453E+00
         25   -1    0    0    0    0  0.00000000000E+00  0.00000000000E+00  0.99999998245E-14  0.12509000000E+03  0.12509000000E+03 0.  0.
        -13    1    3    3    0    0 -0.56310912248E+02  0.13172716983E+02  0.14172381579E+02  0.59542479581E+02  0.10566000000E+00 0. -1.
         23    2    1    0    0    0 -0.22668688328E+02  0.18240847048E+02  0.11520291649E+01  0.95970846463E+02  0.91446586968E+02 0.  0.
         13    1    3    3    0    0  0.33642223920E+02  0.50681300647E+01 -0.13020352415E+02  0.36428366882E+02  0.10566000000E+00 0.  1.
         22    1    1    0    0    0  0.22668688328E+02 -0.18240847048E+02 -0.11520291649E+01  0.29119153537E+02  0.00000000000E+00 0. -1.
</event>
<event>
 5    1  0.1259474E-009  0.9118800E+02  0.7815553E-02  0.1125453E+00
         25   -1    0    0    0    0  0.00000000000E+00  0.00000000000E+00  0.99999998245E-14  0.12509000000E+03  0.12509000000E+03 0.  0.
        -13    1    3    3    0    0  0.26789915065E+02  0.23008716031E+02  0.38880412779E+02  0.52524263198E+02  0.10566000000E+00 0.  1.
         23    2    1    0    0    0  0.29387985037E+02  0.78238003031E+01 -0.35545333926E+00  0.94676321124E+02  0.89658317622E+02 0.  0.
         13    1    3    3    0    0  0.25980699720E+01 -0.15184915728E+02 -0.39235866119E+02  0.42152057926E+02  0.10566000000E+00 0. -1.
         22    1    1    0    0    0 -0.29387985037E+02 -0.78238003031E+01  0.35545333926E+00  0.30413678876E+02  0.00000000000E+00 0. -1.
</event>
<event>
 5    1  0.1259474E-009  0.9118800E+02  0.7815553E-02  0.1125453E+00
         25   -1    0    0    0    0  0.00000000000E+00  0.00000000000E+00  0.99999998245E-14  0.12509000000E+03  0.12509000000E+03 0.  0.
        -13    1    3    3    0    0  0.44161286488E+02  0.27215047925E+02 -0.21405806214E+02  0.56116822447E+02  0.10566000000E+00 0.  1.
         23    2    1    0    0    0  0.16119120046E+02  0.22890023403E+02  0.69640965783E+01  0.96240773952E+02  0.91815078975E+02 0.  0.
         13    1    3    3    0    0 -0.28042166442E+02 -0.43250245219E+01  0.28369902792E+02  0.40123951505E+02  0.10566000000E+00 0. -1.
         22    1    1    0    0    0 -0.16119120046E+02 -0.22890023403E+02 -0.69640965783E+01  0.28849226048E+02  0.00000000000E+00 0.  1.
</event>
<event>
 5    1  0.1259474E-009  0.9118800E+02  0.7815553E-02  0.1125453E+00
         25   -1    0    0    0    0  0.00000000000E+00  0.00000000000E+00  0.99999998245E-14  0.12509000000E+03  0.12509000000E+03 0.  0.
        -13    1    3    3    0    0  0.28214794412E+02  0.13136612964E+02  0.27165811528E+02  0.41311471820E+02  0.10566000000E+00 0. -1.
         23    2    1    0    0    0  0.19400406429E+02 -0.93742189430E+01 -0.20873462562E+02  0.95090780181E+02  0.90234712200E+02 0.  0.
         13    1    3    3    0    0 -0.88143879835E+01 -0.22510831907E+02 -0.48039274091E+02  0.53779308362E+02  0.10566000000E+00 0.  1.
         22    1    1    0    0    0 -0.19400406429E+02  0.93742189430E+01  0.20873462562E+02  0.29999219819E+02  0.00000000000E+00 0.  1.
</event>
<event>
 5    1  0.1259474E-009  0.9118800E+02  0.7815553E-02  0.1125453E+00
         25   -1    0    0    0    0  0.00000000000E+00  0.00000000000E+00  0.99999998245E-14  0.12509000000E+03  0.12509000000E+03 0.  0.
        -13    1    3    3    0    0 -0.29206019614E+01 -0.21590043568E+02  0.33159945344E+02  0.39676857692E+02  0.10566000000E+00 0.  1.
         23    2    1    0    0    0  0.24373216566E+02  0.41354373411E+01 -0.11354180443E+02  0.97885718328E+02  0.94029468313E+02 0.  0.
         13    1    3    3    0    0  0.27293818527E+02  0.25725480909E+02 -0.44514125787E+02  0.58208860635E+02  0.10566000000E+00 0. -1.
         22    1    1    0    0    0 -0.24373216566E+02 -0.41354373411E+01  0.11354180443E+02  0.27204281672E+02  0.00000000000E+00 0. -1.
</event>
<event>
 5    1  0.1259474E-009  0.9118800E+02  0.7815553E-02  0.1125453E+00
         25   -1    0    0    0    0  0.00000000000E+00  0.00000000000E+00  0.99999998245E-14  0.12509000000E+03  0.12509000000E+03 0.  0.
        -13    1    3    3    0    0 -0.34811224331E+02  0.38085422364E+02  0.21707257781E+01  0.51643430855E+02  0.10566000000E+00 0.  1.
         23    2    1    0    0    0 -0.11248436788E+02  0.97289420820E+01  0.25711797155E+02  0.95386866207E+02  0.90644239131E+02 0.  0.
         13    1    3    3    0    0  0.23562787543E+02 -0.28356480282E+02  0.23541071377E+02  0.43743435352E+02  0.10566000000E+00 0. -1.
         22    1    1    0    0    0  0.11248436788E+02 -0.97289420820E+01 -0.25711797155E+02  0.29703133793E+02  0.00000000000E+00 0.  1.
</event>
<event>
 5    1  0.1259474E-009  0.9118800E+02  0.7815553E-02  0.1125453E+00
         25   -1    0    0    0    0  0.00000000000E+00  0.00000000000E+00  0.99999998245E-14  0.12509000000E+03  0.12509000000E+03 0.  0.
        -13    1    3    3    0    0  0.21526088752E+02 -0.32833668531E+02  0.42227296793E+02  0.57659154040E+02  0.10566000000E+00 0.  1.
         23    2    1    0    0    0 -0.14328281009E+01 -0.26180465843E+02  0.11841300308E+02  0.96320464357E+02  0.91923586054E+02 0.  0.
         13    1    3    3    0    0 -0.22958916853E+02  0.66532026883E+01 -0.30385996485E+02  0.38661310318E+02  0.10566000000E+00 0. -1.
         22    1    1    0    0    0  0.14328281009E+01  0.26180465843E+02 -0.11841300308E+02  0.28769535643E+02  0.00000000000E+00 0.  1.
</event>
<event>
 5    1  0.1259474E-009  0.9118800E+02  0.7815553E-02  0.1125453E+00
         25   -1    0    0    0    0  0.00000000000E+00  0.00000000000E+00  0.99999998245E-14  0.12509000000E+03  0.12509000000E+03 0.  0.
        -13    1    3    3    0    0 -0.38031955483E+02 -0.16905213944E+02 -0.28286924643E+02  0.50322730114E+02  0.10566000000E+00 0. -1.
         23    2    1    0    0    0  0.13151774161E+02 -0.11933114646E+02 -0.63641061698E+01  0.10622547679E+03  0.10453698715E+03 0.  0.
         13    1    3    3    0    0  0.51183729644E+02  0.49720992986E+01  0.21922818473E+02  0.55902746673E+02  0.10566000000E+00 0.  1.
         22    1    1    0    0    0 -0.13151774161E+02  0.11933114646E+02  0.63641061698E+01  0.18864523213E+02  0.00000000000E+00 0.  1.
</event>
<event>
 5    1  0.1259474E-009  0.9118800E+02  0.7815553E-02  0.1125453E+00
         25   -1    0    0    0    0  0.00000000000E+00  0.00000000000E+00  0.99999998245E-14  0.12509000000E+03  0.12509000000E+03 0.  0.
        -13    1    3    3    0    0  0.59760014927E+02  0.72847454000E+00 -0.13256193845E+02  0.61217055618E+02  0.10566000000E+00 0.  1.
         23    2    1    0    0    0  0.27735979921E+02 -0.83681065948E+01 -0.34986237375E+01  0.95908667641E+02  0.91361492821E+02 0.  0.
         13    1    3    3    0    0 -0.32024035005E+02 -0.90965811348E+01  0.97575701074E+01  0.34691612024E+02  0.10566000000E+00 0. -1.
         22    1    1    0    0    0 -0.27735979921E+02  0.83681065948E+01  0.34986237375E+01  0.29181332359E+02  0.00000000000E+00 0.  1.
</event>
<event>
 5    1  0.1259474E-009  0.9118800E+02  0.7815553E-02  0.1125453E+00
         25   -1    0    0    0    0  0.00000000000E+00  0.00000000000E+00  0.99999998245E-14  0.12509000000E+03  0.12509000000E+03 0.  0.
        -13    1    3    3    0    0  0.40309345350E+02  0.38570204137E+02 -0.43050326841E+01  0.55955772180E+02  0.10566000000E+00 0.  1.
         23    2    1    0    0    0  0.41341896369E+01  0.26439631038E+02  0.97371047839E+01  0.96612696354E+02  0.92320400095E+02 0.  0.
         13    1    3    3    0    0 -0.36175155713E+02 -0.12130573099E+02  0.14042137468E+02  0.40656924174E+02  0.10566000000E+00 0. -1.
         22    1    1    0    0    0 -0.41341896369E+01 -0.26439631038E+02 -0.97371047839E+01  0.28477303646E+02  0.00000000000E+00 0.  1.
</event>
<event>
 5    1  0.1259474E-009  0.9118800E+02  0.7815553E-02  0.1125453E+00
         25   -1    0    0    0    0  0.00000000000E+00  0.00000000000E+00  0.99999998245E-14  0.12509000000E+03  0.12509000000E+03 0.  0.
        -13    1    3    3    0    0  0.31952974971E+02 -0.22076624571E+02  0.18699652423E+00  0.38838332787E+02  0.10566000000E+00 0. -1.
         23    2    1    0    0    0 -0.21430095826E+02 -0.23553885180E+02  0.64229264979E+01  0.92604795691E+02  0.86720007415E+02 0.  0.
         13    1    3    3    0    0 -0.53383070797E+02 -0.14772606088E+01  0.62359299737E+01  0.53766462905E+02  0.10566000000E+00 0.  1.
         22    1    1    0    0    0  0.21430095826E+02  0.23553885180E+02 -0.64229264979E+01  0.32485204309E+02  0.00000000000E+00 0.  1.
</event>
<event>
 5    1  0.1259474E-009  0.9118800E+02  0.7815553E-02  0.1125453E+00
         25   -1    0    0    0    0  0.00000000000E+00  0.00000000000E+00  0.99999998245E-14  0.12509000000E+03  0.12509000000E+03 0.  0.
        -13    1    3    3    0    0 -0.37006848309E+02 -0.54540986010E+01  0.47371698531E+02  0.60360110993E+02  0.10566000000E+00 0. -1.
         23    2    1    0    0    0 -0.23679899934E+02  0.63940885131E+01  0.18212997064E+02  0.94539463329E+02  0.89467171832E+02 0.  0.
         13    1    3    3    0    0  0.13326948375E+02  0.11848187114E+02 -0.29158701467E+02  0.34179352336E+02  0.10566000000E+00 0.  1.
         22    1    1    0    0    0  0.23679899934E+02 -0.63940885131E+01 -0.18212997064E+02  0.30550536671E+02  0.00000000000E+00 0. -1.
</event>
<event>
 5    1  0.1259474E-009  0.9118800E+02  0.7815553E-02  0.1125453E+00
         25   -1    0    0    0    0  0.00000000000E+00  0.00000000000E+00  0.99999998245E-14  0.12509000000E+03  0.12509000000E+03 0.  0.
        -13    1    3    3    0    0 -0.17187976997E+02  0.66578070542E+01 -0.80995679622E+01  0.20133730733E+02  0.10566000000E+00 0.  1.
         23    2    1    0    0    0  0.25867912043E+02  0.16370843340E+02  0.32740177359E+02  0.80267320488E+02  0.66586561254E+02 0.  0.
         13    1    3    3    0    0  0.43055889040E+02  0.97130362858E+01  0.40839745321E+02  0.60133589755E+02  0.10566000000E+00 0. -1.
         22    1    1    0    0    0 -0.25867912043E+02 -0.16370843340E+02 -0.32740177359E+02  0.44822679512E+02  0.00000000000E+00 0. -1.
</event>
<event>
 5    1  0.1259474E-009  0.9118800E+02  0.7815553E-02  0.1125453E+00
         25   -1    0    0    0    0  0.00000000000E+00  0.00000000000E+00  0.99999998245E-14  0.12509000000E+03  0.12509000000E+03 0.  0.
        -13    1    3    3    0    0  0.51278121410E+01  0.38376584437E+02  0.62764231227E+01  0.39223224519E+02  0.10566000000E+00 0.  1.
         23    2    1    0    0    0  0.18736926531E+02 -0.14929784989E+02  0.17561752907E+02  0.95385016230E+02  0.90641686107E+02 0.  0.
         13    1    3    3    0    0  0.13609114390E+02 -0.53306369426E+02  0.11285329784E+02  0.56161791711E+02  0.10566000000E+00 0. -1.
         22    1    1    0    0    0 -0.18736926531E+02  0.14929784989E+02 -0.17561752907E+02  0.29704983770E+02  0.00000000000E+00 0.  1.
</event>
<event>
 5    1  0.1259474E-009  0.9118800E+02  0.7815553E-02  0.1125453E+00
         25   -1    0    0    0    0  0.00000000000E+00  0.00000000000E+00  0.99999998245E-14  0.12509000000E+03  0.12509000000E+03 0.  0.
        -13    1    3    3    0    0  0.16182953461E+02 -0.29218820863E+02  0.24072326949E+02  0.41171781163E+02  0.10566000000E+00 0.  1.
         23    2    1    0    0    0  0.84147143231E+01 -0.96211818492E+01 -0.26338919054E+02  0.95813504065E+02  0.91231104055E+02 0.  0.
         13    1    3    3    0    0 -0.77682391381E+01  0.19597639013E+02 -0.50411246002E+02  0.54641722903E+02  0.10566000000E+00 0. -1.
         22    1    1    0    0    0 -0.84147143231E+01  0.96211818492E+01  0.26338919054E+02  0.29276495935E+02  0.00000000000E+00 0. -1.
</event>
<event>
 5    1  0.1259474E-009  0.9118800E+02  0.7815553E-02  0.1125453E+00
         25   -1    0    0    0    0  0.00000000000E+00  0.00000000000E+00  0.99999998245E-14  0.12509000000E+03  0.12509000000E+03 0.  0.
        -13    1    3    3    0    0  0.75288254224E+01  0.23096513037E+02 -0.32432743025E+02  0.40521921362E+02  0.10566000000E+00 0. -1.
         23    2    1    0    0    0  0.19764296328E+02 -0.14874338623E+02  0.96771549460E+01  0.98528360618E+02  0.94880541521E+02 0.  0.
         13    1    3    3    0    0  0.12235470906E+02 -0.37970851659E+02  0.42109897971E+02  0.58006439256E+02  0.10566000000E+00 0.  1.
         22    1    1    0    0    0 -0.19764296328E+02  0.14874338623E+02 -0.96771549460E+01  0.26561639382E+02  0.00000000000E+00 0.  1.
</event>
<event>
 5    1  0.1259474E-009  0.9118800E+02  0.7815553E-02  0.1125453E+00
         25   -1    0    0    0    0  0.00000000000E+00  0.00000000000E+00  0.99999998245E-14  0.12509000000E+03  0.12509000000E+03 0.  0.
        -13    1    3    3    0    0 -0.42549265445E+02 -0.36896294320E+02 -0.31323351101E+01  0.56405666486E+02  0.10566000000E+00 0.  1.
         23    2    1    0    0    0 -0.10387822995E+02 -0.23974494100E+02  0.14409021756E+02  0.95252051983E+02  0.90458002769E+02 0.  0.
         13    1    3    3    0    0  0.32161442450E+02  0.12921800220E+02  0.17541356866E+02  0.38846385497E+02  0.10566000000E+00 0. -1.
         22    1    1    0    0    0  0.10387822995E+02  0.23974494100E+02 -0.14409021756E+02  0.29837948017E+02  0.00000000000E+00 0.  1.
</event>
<event>
 5    1  0.1259474E-009  0.9118800E+02  0.7815553E-02  0.1125453E+00
         25   -1    0    0    0    0  0.00000000000E+00  0.00000000000E+00  0.99999998245E-14  0.12509000000E+03  0.12509000000E+03 0.  0.
        -13    1    3    3    0    0  0.24678591935E+02  0.24570039077E+02 -0.21161573019E+02  0.40749761432E+02  0.10566000000E+00 0.  1.
         23    2    1    0    0    0  0.45968964001E+01 -0.26258063128E+02 -0.10544102808E+02  0.96423025277E+02  0.92063045592E+02 0.  0.
         13    1    3    3    0    0 -0.20081695535E+02 -0.50828102206E+02  0.10617470211E+02  0.55673263844E+02  0.10566000000E+00 0. -1.
         22    1    1    0    0    0 -0.45968964001E+01  0.26258063128E+02  0.10544102808E+02  0.28666974723E+02  0.00000000000E+00 0. -1.
</event>
<event>
 5    1  0.1259474E-009  0.9118800E+02  0.7815553E-02  0.1125453E+00
         25   -1    0    0    0    0  0.00000000000E+00  0.00000000000E+00  0.99999998245E-14  0.12509000000E+03  0.12509000000E+03 0.  0.
        -13    1    3    3    0    0  0.21723042102E+02 -0.17700075610E+02  0.53393963390E+02  0.60300163560E+02  0.10566000000E+00 0.  1.
         23    2    1    0    0    0  0.64021267433E+01 -0.17811352046E+02  0.17562519151E+02  0.99269977392E+02  0.95853298555E+02 0.  0.
         13    1    3    3    0    0 -0.15320915359E+02 -0.11127643566E+00 -0.35831444239E+02  0.38969813832E+02  0.10566000000E+00 0. -1.
         22    1    1    0    0    0 -0.64021267433E+01  0.17811352046E+02 -0.17562519151E+02  0.25820022608E+02  0.00000000000E+00 0.  1.
</event>
<event>
 5    1  0.1259474E-009  0.9118800E+02  0.7815553E-02  0.1125453E+00
         25   -1    0    0    0    0  0.00000000000E+00  0.00000000000E+00  0.99999998245E-14  0.12509000000E+03  0.12509000000E+03 0.  0.
        -13    1    3    3    0    0  0.41437680331E+02 -0.35006004677E+02 -0.17448590908E+02  0.56982156886E+02  0.10566000000E+00 0. -1.
         23    2    1    0    0    0  0.15932041375E+02 -0.23664252111E+02  0.87356184591E+01  0.95254822772E+02  0.90461834279E+02 0.  0.
         13    1    3    3    0    0 -0.25505638956E+02  0.11341752566E+02  0.26184209367E+02  0.38272665886E+02  0.10566000000E+00 0.  1.
         22    1    1    0    0    0 -0.15932041375E+02  0.23664252111E+02 -0.87356184591E+01  0.29835177228E+02  0.00000000000E+00 0. -1.
</event>
<event>
 5    1  0.1259474E-009  0.9118800E+02  0.7815553E-02  0.1125453E+00
         25   -1    0    0    0    0  0.00000000000E+00  0.00000000000E+00  0.99999998245E-14  0.12509000000E+03  0.12509000000E+03 0.  0.
        -13    1    3    3    0    0 -0.31715891070E+01  0.61029975364E+02 -0.65983553781E+01  0.61467603891E+02  0.10566000000E+00 0.  1.
         23    2    1    0    0    0  0.39999373976E+01  0.28785653616E+02  0.30185479762E+01  0.95871427393E+02  0.91310490116E+02 0.  0.
         13    1    3    3    0    0  0.71715265046E+01 -0.32244321748E+02  0.96169033544E+01  0.34403823502E+02  0.10566000000E+00 0. -1.
         22    1    1    0    0    0 -0.39999373976E+01 -0.28785653616E+02 -0.30185479762E+01  0.29218572607E+02  0.00000000000E+00 0.  1.
</event>
<event>
 5    1  0.1259474E-009  0.9118800E+02  0.7815553E-02  0.1125453E+00
         25   -1    0    0    0    0  0.00000000000E+00  0.00000000000E+00  0.99999998245E-14  0.12509000000E+03  0.12509000000E+03 0.  0.
        -13    1    3    3    0    0 -0.14123145170E+02  0.21795886597E+02  0.44153270400E+02  0.51225446344E+02  0.10566000000E+00 0. -1.
         23    2    1    0    0    0  0.30255849424E+01  0.35992172564E+02  0.21166038978E+02  0.83226031529E+02  0.71930386264E+02 0.  0.
         13    1    3    3    0    0  0.17148730112E+02  0.14196285966E+02 -0.22987231422E+02  0.32000585185E+02  0.10566000000E+00 0.  1.
         22    1    1    0    0    0 -0.30255849424E+01 -0.35992172564E+02 -0.21166038978E+02  0.41863968471E+02  0.00000000000E+00 0. -1.
</event>
<event>
 5    1  0.1259474E-009  0.9118800E+02  0.7815553E-02  0.1125453E+00
         25   -1    0    0    0    0  0.00000000000E+00  0.00000000000E+00  0.99999998245E-14  0.12509000000E+03  0.12509000000E+03 0.  0.
        -13    1    3    3    0    0 -0.46738850680E+01  0.61107898438E+02  0.11958986938E+02  0.62442365312E+02  0.10566000000E+00 0. -1.
         23    2    1    0    0    0  0.15244368288E+00  0.28613364413E+02  0.65543228472E+01  0.95735153551E+02  0.91123611733E+02 0.  0.
         13    1    3    3    0    0  0.48263287509E+01 -0.32494534025E+02 -0.54046640911E+01  0.33292788239E+02  0.10566000000E+00 0.  1.
         22    1    1    0    0    0 -0.15244368288E+00 -0.28613364413E+02 -0.65543228472E+01  0.29354846449E+02  0.00000000000E+00 0. -1.
</event>
<event>
 5    1  0.1259474E-009  0.9118800E+02  0.7815553E-02  0.1125453E+00
         25   -1    0    0    0    0  0.00000000000E+00  0.00000000000E+00  0.99999998245E-14  0.12509000000E+03  0.12509000000E+03 0.  0.
        -13    1    3    3    0    0  0.27771941159E+02  0.60318765360E+01 -0.23800605852E+02  0.37069451753E+02  0.10566000000E+00 0.  1.
         23    2    1    0    0    0 -0.15487086578E+02 -0.25107720386E+02  0.35273005390E+00  0.95587934103E+02  0.90921291533E+02 0.  0.
         13    1    3    3    0    0 -0.43259027737E+02 -0.31139596922E+02  0.24153335906E+02  0.58518482351E+02  0.10566000000E+00 0. -1.
         22    1    1    0    0    0  0.15487086578E+02  0.25107720386E+02 -0.35273005390E+00  0.29502065897E+02  0.00000000000E+00 0. -1.
</event>
<event>
 5    1  0.1259474E-009  0.9118800E+02  0.7815553E-02  0.1125453E+00
         25   -1    0    0    0    0  0.00000000000E+00  0.00000000000E+00  0.99999998245E-14  0.12509000000E+03  0.12509000000E+03 0.  0.
        -13    1    3    3    0    0  0.21536935916E+02  0.11539710220E+02 -0.29219100398E+02  0.38088994640E+02  0.10566000000E+00 0. -1.
         23    2    1    0    0    0 -0.18242190958E+01  0.43262842049E+01  0.26100384702E+02  0.98570675124E+02  0.94936312349E+02 0.  0.
         13    1    3    3    0    0 -0.23361155012E+02 -0.72134260148E+01  0.55319485100E+02  0.60481680483E+02  0.10566000000E+00 0.  1.
         22    1    1    0    0    0  0.18242190958E+01 -0.43262842049E+01 -0.26100384702E+02  0.26519324876E+02  0.00000000000E+00 0.  1.
</event>
<event>
 5    1  0.1259474E-009  0.9118800E+02  0.7815553E-02  0.1125453E+00
         25   -1    0    0    0    0  0.00000000000E+00  0.00000000000E+00  0.99999998245E-14  0.12509000000E+03  0.12509000000E+03 0.  0.
        -13    1    3    3    0    0 -0.59973795749E+01  0.14741778451E+02  0.29218124312E+02  0.33271587669E+02  0.10566000000E+00 0.  1.
         23    2    1    0    0    0 -0.85629501681E+01 -0.13394397221E+02 -0.25607594016E+02  0.94948950519E+02  0.90037882810E+02 0.  0.
         13    1    3    3    0    0 -0.25655705932E+01 -0.28136175672E+02 -0.54825718328E+02  0.61677362850E+02  0.10566000000E+00 0. -1.
         22    1    1    0    0    0  0.85629501681E+01  0.13394397221E+02  0.25607594016E+02  0.30141049481E+02  0.00000000000E+00 0. -1.
</event>
<event>
 5    1  0.1259474E-009  0.9118800E+02  0.7815553E-02  0.1125453E+00
         25   -1    0    0    0    0  0.00000000000E+00  0.00000000000E+00  0.99999998245E-14  0.12509000000E+03  0.12509000000E+03 0.  0.
        -13    1    3    3    0    0  0.10265054511E+02 -0.59716452251E+02  0.10120207763E+02  0.61431716424E+02  0.10566000000E+00 0. -1.
         23    2    1    0    0    0  0.66113880537E+01 -0.25762490843E+02  0.12574700686E+02  0.95669947591E+02  0.91034056200E+02 0.  0.
         13    1    3    3    0    0 -0.36536664577E+01  0.33953961408E+02  0.24544929227E+01  0.34238231167E+02  0.10566000000E+00 0.  1.
         22    1    1    0    0    0 -0.66113880537E+01  0.25762490843E+02 -0.12574700686E+02  0.29420052409E+02  0.00000000000E+00 0. -1.
</event>
<event>
 5    1  0.1259474E-009  0.9118800E+02  0.7815553E-02  0.1125453E+00
         25   -1    0    0    0    0  0.00000000000E+00  0.00000000000E+00  0.99999998245E-14  0.12509000000E+03  0.12509000000E+03 0.  0.
        -13    1    3    3    0    0 -0.58114073204E+01 -0.27487414328E+02 -0.20961531699E+02  0.35053207795E+02  0.10566000000E+00 0. -1.
         23    2    1    0    0    0  0.24985451089E+02  0.15970049507E+02  0.61285604835E+01  0.94810064383E+02  0.89844720531E+02 0.  0.
         13    1    3    3    0    0  0.30796858409E+02  0.43457463835E+02  0.27090092182E+02  0.59756856589E+02  0.10566000000E+00 0.  1.
         22    1    1    0    0    0 -0.24985451089E+02 -0.15970049507E+02 -0.61285604835E+01  0.30279935617E+02  0.00000000000E+00 0.  1.
</event>
<event>
 5    1  0.1259474E-009  0.9118800E+02  0.7815553E-02  0.1125453E+00
         25   -1    0    0    0    0  0.00000000000E+00  0.00000000000E+00  0.99999998245E-14  0.12509000000E+03  0.12509000000E+03 0.  0.
        -13    1    3    3    0    0 -0.36307568395E+02  0.17780882059E+02  0.41087901024E+02  0.57642224663E+02  0.10566000000E+00 0.  1.
         23    2    1    0    0    0 -0.46347708265E+01  0.17207425224E+00  0.28817000036E+02  0.95902156619E+02  0.91352577648E+02 0.  0.
         13    1    3    3    0    0  0.31672797568E+02 -0.17608807806E+02 -0.12270900988E+02  0.38259931956E+02  0.10566000000E+00 0. -1.
         22    1    1    0    0    0  0.46347708265E+01 -0.17207425224E+00 -0.28817000036E+02  0.29187843381E+02  0.00000000000E+00 0.  1.
</event>
<event>
 5    1  0.1259474E-009  0.9118800E+02  0.7815553E-02  0.1125453E+00
         25   -1    0    0    0    0  0.00000000000E+00  0.00000000000E+00  0.99999998245E-14  0.12509000000E+03  0.12509000000E+03 0.  0.
        -13    1    3    3    0    0  0.95255332508E+01 -0.17781973642E+02  0.51500840623E+02  0.55310777605E+02  0.10566000000E+00 0. -1.
         23    2    1    0    0    0  0.24604300849E+01  0.12495985334E+02  0.28145122877E+02  0.94197423101E+02  0.88987657636E+02 0.  0.
         13    1    3    3    0    0 -0.70651031659E+01  0.30277958976E+02 -0.23355717746E+02  0.38886645497E+02  0.10566000000E+00 0.  1.
         22    1    1    0    0    0 -0.24604300849E+01 -0.12495985334E+02 -0.28145122877E+02  0.30892576899E+02  0.00000000000E+00 0. -1.
</event>
<event>
 5    1  0.1259474E-009  0.9118800E+02  0.7815553E-02  0.1125453E+00
         25   -1    0    0    0    0  0.00000000000E+00  0.00000000000E+00  0.99999998245E-14  0.12509000000E+03  0.12509000000E+03 0.  0.
        -13    1    3    3    0    0  0.62745919138E+01 -0.62553929250E+01  0.57175048315E+02  0.57857564399E+02  0.10566000000E+00 0.  1.
         23    2    1    0    0    0 -0.61564517247E+00  0.13970028157E+02  0.21470132057E+02  0.99467602059E+02  0.96110855699E+02 0.  0.
         13    1    3    3    0    0 -0.68902370863E+01  0.20225421082E+02 -0.35704916258E+02  0.41610037660E+02  0.10566000000E+00 0. -1.
         22    1    1    0    0    0  0.61564517247E+00 -0.13970028157E+02 -0.21470132057E+02  0.25622397941E+02  0.00000000000E+00 0.  1.
</event>
<event>
 5    1  0.1259474E-009  0.9118800E+02  0.7815553E-02  0.1125453E+00
         25   -1    0    0    0    0  0.00000000000E+00  0.00000000000E+00  0.99999998245E-14  0.12509000000E+03  0.12509000000E+03 0.  0.
        -13    1    3    3    0    0 -0.40109921071E+02 -0.52567773268E+01 -0.23593935951E+02  0.46830806675E+02  0.10566000000E+00 0.  1.
         23    2    1    0    0    0 -0.40884696471E+01 -0.30382584383E+02 -0.11002792248E+02  0.92518870835E+02  0.86595975689E+02 0.  0.
         13    1    3    3    0    0  0.36021451424E+02 -0.25125807056E+02  0.12591143703E+02  0.45688064160E+02  0.10566000000E+00 0. -1.
         22    1    1    0    0    0  0.40884696471E+01  0.30382584383E+02  0.11002792248E+02  0.32571129165E+02  0.00000000000E+00 0.  1.
</event>
<event>
 5    1  0.1259474E-009  0.9118800E+02  0.7815553E-02  0.1125453E+00
         25   -1    0    0    0    0  0.00000000000E+00  0.00000000000E+00  0.99999998245E-14  0.12509000000E+03  0.12509000000E+03 0.  0.
        -13    1    3    3    0    0  0.27254711726E+02  0.24379922432E+02 -0.31694118341E+02  0.48391406578E+02  0.10566000000E+00 0.  1.
         23    2    1    0    0    0  0.11759666817E+02 -0.16673750920E+02  0.31770839005E+01  0.10444060302E+03  0.10237891367E+03 0.  0.
         13    1    3    3    0    0 -0.15495044909E+02 -0.41053673352E+02  0.34871202242E+02  0.56049196446E+02  0.10566000000E+00 0. -1.
         22    1    1    0    0    0 -0.11759666817E+02  0.16673750920E+02 -0.31770839005E+01  0.20649396977E+02  0.00000000000E+00 0. -1.
</event>
<event>
 5    1  0.1259474E-009  0.9118800E+02  0.7815553E-02  0.1125453E+00
         25   -1    0    0    0    0  0.00000000000E+00  0.00000000000E+00  0.99999998245E-14  0.12509000000E+03  0.12509000000E+03 0.  0.
        -13    1    3    3    0    0 -0.31433687497E+01 -0.99529919007E+01  0.53018706630E+02  0.54036443551E+02  0.10566000000E+00 0. -1.
         23    2    1    0    0    0 -0.73277954026E+01  0.17656406415E+02  0.25269309280E+02  0.93404305050E+02  0.87865698299E+02 0.  0.
         13    1    3    3    0    0 -0.41844266529E+01  0.27609398316E+02 -0.27749397350E+02  0.39367861500E+02  0.10566000000E+00 0.  1.
         22    1    1    0    0    0  0.73277954026E+01 -0.17656406415E+02 -0.25269309280E+02  0.31685694950E+02  0.00000000000E+00 0.  1.
</event>
<event>
 5    1  0.1259474E-009  0.9118800E+02  0.7815553E-02  0.1125453E+00
         25   -1    0    0    0    0  0.00000000000E+00  0.00000000000E+00  0.99999998245E-14  0.12509000000E+03  0.12509000000E+03 0.  0.
        -13    1    3    3    0    0  0.46718829964E+02 -0.35362576343E+01  0.16339812960E+02  0.49620105228E+02  0.10566000000E+00 0. -1.
         23    2    1    0    0    0  0.15455029853E+02  0.26123554954E+02  0.97109406911E+01  0.93221513367E+02  0.87605080412E+02 0.  0.
         13    1    3    3    0    0 -0.31263800110E+02  0.29659812588E+02 -0.66288722688E+01  0.43601408139E+02  0.10566000000E+00 0.  1.
         22    1    1    0    0    0 -0.15455029853E+02 -0.26123554954E+02 -0.97109406911E+01  0.31868486633E+02  0.00000000000E+00 0. -1.
</event>
<event>
 5    1  0.1259474E-009  0.9118800E+02  0.7815553E-02  0.1125453E+00
         25   -1    0    0    0    0  0.00000000000E+00  0.00000000000E+00  0.99999998245E-14  0.12509000000E+03  0.12509000000E+03 0.  0.
        -13    1    3    3    0    0 -0.34266003755E+02  0.43461537461E+02  0.11529458599E+02  0.56533209987E+02  0.10566000000E+00 0.  1.
         23    2    1    0    0    0 -0.19146743966E+02  0.17319537643E+02 -0.13679953917E+02  0.95871763780E+02  0.91310950944E+02 0.  0.
         13    1    3    3    0    0  0.15119259788E+02 -0.26141999819E+02 -0.25209412516E+02  0.39338553793E+02  0.10566000000E+00 0. -1.
         22    1    1    0    0    0  0.19146743966E+02 -0.17319537643E+02  0.13679953917E+02  0.29218236220E+02  0.00000000000E+00 0. -1.
</event>
<event>
 5    1  0.1259474E-009  0.9118800E+02  0.7815553E-02  0.1125453E+00
         25   -1    0    0    0    0  0.00000000000E+00  0.00000000000E+00  0.99999998245E-14  0.12509000000E+03  0.12509000000E+03 0.  0.
        -13    1    3    3    0    0  0.32919463047E+02  0.12727268156E+02  0.31588768770E+01  0.35435350558E+02  0.10566000000E+00 0. -1.
         23    2    1    0    0    0 -0.69902794827E+01 -0.21965227756E+02 -0.21305736575E+02  0.93700994781E+02  0.88287070256E+02 0.  0.
         13    1    3    3    0    0 -0.39909742529E+02 -0.34692495912E+02 -0.24464613452E+02  0.58265644223E+02  0.10566000000E+00 0.  1.
         22    1    1    0    0    0  0.69902794827E+01  0.21965227756E+02  0.21305736575E+02  0.31389005219E+02  0.00000000000E+00 0.  1.
</event>
<event>
 5    1  0.1259474E-009  0.9118800E+02  0.7815553E-02  0.1125453E+00
         25   -1    0    0    0    0  0.00000000000E+00  0.00000000000E+00  0.99999998245E-14  0.12509000000E+03  0.12509000000E+03 0.  0.
        -13    1    3    3    0    0  0.35756492651E+02  0.15884086143E+02  0.43105613573E+02  0.58214569008E+02  0.10566000000E+00 0.  1.
         23    2    1    0    0    0  0.10110121118E+02  0.22228253127E+02  0.17158041654E+02  0.95245265465E+02  0.90448617535E+02 0.  0.
         13    1    3    3    0    0 -0.25646371533E+02  0.63441669843E+01 -0.25947571918E+02  0.37030696457E+02  0.10566000000E+00 0. -1.
         22    1    1    0    0    0 -0.10110121118E+02 -0.22228253127E+02 -0.17158041654E+02  0.29844734535E+02  0.00000000000E+00 0.  1.
</event>
<event>
 5    1  0.1259474E-009  0.9118800E+02  0.7815553E-02  0.1125453E+00
         25   -1    0    0    0    0  0.00000000000E+00  0.00000000000E+00  0.99999998245E-14  0.12509000000E+03  0.12509000000E+03 0.  0.
        -13    1    3    3    0    0 -0.25847570462E+02 -0.11483094644E+02 -0.28181894721E+01  0.28423787878E+02  0.10566000000E+00 0. -1.
         23    2    1    0    0    0  0.15132853071E+02  0.11030521836E+02  0.32880240953E+02  0.87251053144E+02  0.78619084042E+02 0.  0.
         13    1    3    3    0    0  0.40980423533E+02  0.22513616479E+02  0.35698430425E+02  0.58827265267E+02  0.10566000000E+00 0.  1.
         22    1    1    0    0    0 -0.15132853071E+02 -0.11030521836E+02 -0.32880240953E+02  0.37838946856E+02  0.00000000000E+00 0.  1.
</event>
<event>
 5    1  0.1259474E-009  0.9118800E+02  0.7815553E-02  0.1125453E+00
         25   -1    0    0    0    0  0.00000000000E+00  0.00000000000E+00  0.99999998245E-14  0.12509000000E+03  0.12509000000E+03 0.  0.
        -13    1    3    3    0    0  0.35082727574E+01  0.33513840494E+02  0.40162640927E+02  0.52426466337E+02  0.10566000000E+00 0. -1.
         23    2    1    0    0    0 -0.19900355482E+02  0.18804766705E+02  0.48337088727E+01  0.97286976052E+02  0.93229542361E+02 0.  0.
         13    1    3    3    0    0 -0.23408628240E+02 -0.14709073788E+02 -0.35328932054E+02  0.44860509715E+02  0.10566000000E+00 0.  1.
         22    1    1    0    0    0  0.19900355482E+02 -0.18804766705E+02 -0.48337088727E+01  0.27803023948E+02  0.00000000000E+00 0. -1.
</event>
<event>
 5    1  0.1259474E-009  0.9118800E+02  0.7815553E-02  0.1125453E+00
         25   -1    0    0    0    0  0.00000000000E+00  0.00000000000E+00  0.99999998245E-14  0.12509000000E+03  0.12509000000E+03 0.  0.
        -13    1    3    3    0    0 -0.13974925431E+02 -0.30804007731E+02  0.27264733843E+02  0.43446085079E+02  0.10566000000E+00 0. -1.
         23    2    1    0    0    0 -0.27014882141E+02  0.13397707056E+02  0.53973770800E+01  0.94456128374E+02  0.89350579722E+02 0.  0.
         13    1    3    3    0    0 -0.13039956709E+02  0.44201714787E+02 -0.21867356763E+02  0.51010043295E+02  0.10566000000E+00 0.  1.
         22    1    1    0    0    0  0.27014882141E+02 -0.13397707056E+02 -0.53973770800E+01  0.30633871626E+02  0.00000000000E+00 0.  1.
</event>
<event>
 5    1  0.1259474E-009  0.9118800E+02  0.7815553E-02  0.1125453E+00
         25   -1    0    0    0    0  0.00000000000E+00  0.00000000000E+00  0.99999998245E-14  0.12509000000E+03  0.12509000000E+03 0.  0.
        -13    1    3    3    0    0 -0.53237219542E+02  0.11606605965E+02  0.11732421320E+02  0.55736664061E+02  0.10566000000E+00 0.  1.
         23    2    1    0    0    0 -0.26116068406E+02 -0.91773714227E+01 -0.93327366320E+01  0.95877448789E+02  0.91318738701E+02 0.  0.
         13    1    3    3    0    0  0.27121151136E+02 -0.20783977388E+02 -0.21065157952E+02  0.40140784728E+02  0.10566000000E+00 0. -1.
         22    1    1    0    0    0  0.26116068406E+02  0.91773714227E+01  0.93327366320E+01  0.29212551211E+02  0.00000000000E+00 0.  1.
</event>
<event>
 5    1  0.1259474E-009  0.9118800E+02  0.7815553E-02  0.1125453E+00
         25   -1    0    0    0    0  0.00000000000E+00  0.00000000000E+00  0.99999998245E-14  0.12509000000E+03  0.12509000000E+03 0.  0.
        -13    1    3    3    0    0  0.14884419153E+02 -0.39344603071E+02 -0.72574161368E+01  0.42687527188E+02  0.10566000000E+00 0.  1.
         23    2    1    0    0    0  0.25707493767E+02  0.10757650949E+02  0.78722935825E+01  0.96131835418E+02  0.91666539614E+02 0.  0.
         13    1    3    3    0    0  0.10823074614E+02  0.50102254020E+02  0.15129709719E+02  0.53444308230E+02  0.10566000000E+00 0. -1.
         22    1    1    0    0    0 -0.25707493767E+02 -0.10757650949E+02 -0.78722935825E+01  0.28958164582E+02  0.00000000000E+00 0. -1.
</event>
<event>
 5    1  0.1259474E-009  0.9118800E+02  0.7815553E-02  0.1125453E+00
         25   -1    0    0    0    0  0.00000000000E+00  0.00000000000E+00  0.99999998245E-14  0.12509000000E+03  0.12509000000E+03 0.  0.
        -13    1    3    3    0    0 -0.88461019805E+01  0.42524334051E+02  0.43412912271E+02  0.61410623044E+02  0.10566000000E+00 0. -1.
         23    2    1    0    0    0 -0.13018431045E+02  0.21353409419E+02  0.23318126663E+02  0.90896686739E+02  0.84220098483E+02 0.  0.
         13    1    3    3    0    0 -0.41723290644E+01 -0.21170924632E+02 -0.20094785608E+02  0.29486063696E+02  0.10566000000E+00 0.  1.
         22    1    1    0    0    0  0.13018431045E+02 -0.21353409419E+02 -0.23318126663E+02  0.34193313261E+02  0.00000000000E+00 0. -1.
</event>
<event>
 5    1  0.1259474E-009  0.9118800E+02  0.7815553E-02  0.1125453E+00
         25   -1    0    0    0    0  0.00000000000E+00  0.00000000000E+00  0.99999998245E-14  0.12509000000E+03  0.12509000000E+03 0.  0.
        -13    1    3    3    0    0  0.23552443221E+02 -0.36621313757E+02  0.14031026683E+02  0.45746246587E+02  0.10566000000E+00 0. -1.
         23    2    1    0    0    0 -0.18930050707E+02 -0.21750720743E+02 -0.69854739343E+01  0.95421202945E+02  0.90691611811E+02 0.  0.
         13    1    3    3    0    0 -0.42482493928E+02  0.14870593014E+02 -0.21016500617E+02  0.49674956358E+02  0.10566000000E+00 0.  1.
         22    1    1    0    0    0  0.18930050707E+02  0.21750720743E+02  0.69854739343E+01  0.29668797055E+02  0.00000000000E+00 0. -1.
</event>
<event>
 5    1  0.1259474E-009  0.9118800E+02  0.7815553E-02  0.1125453E+00
         25   -1    0    0    0    0  0.00000000000E+00  0.00000000000E+00  0.99999998245E-14  0.12509000000E+03  0.12509000000E+03 0.  0.
        -13    1    3    3    0    0  0.62132674401E+01  0.46304340746E+02  0.28328448261E+02  0.54637064426E+02  0.10566000000E+00 0. -1.
         23    2    1    0    0    0  0.23268332096E+02  0.12043824018E+02  0.12657540733E+02  0.95992194019E+02  0.91475783679E+02 0.  0.
         13    1    3    3    0    0  0.17055064656E+02 -0.34260516728E+02 -0.15670907528E+02  0.41355129593E+02  0.10566000000E+00 0.  1.
         22    1    1    0    0    0 -0.23268332096E+02 -0.12043824018E+02 -0.12657540733E+02  0.29097805981E+02  0.00000000000E+00 0. -1.
</event>
<event>
 5    1  0.1259474E-009  0.9118800E+02  0.7815553E-02  0.1125453E+00
         25   -1    0    0    0    0  0.00000000000E+00  0.00000000000E+00  0.99999998245E-14  0.12509000000E+03  0.12509000000E+03 0.  0.
        -13    1    3    3    0    0  0.15239201883E+02 -0.28452929429E+02 -0.80788076870E+01  0.33272823217E+02  0.10566000000E+00 0.  1.
         23    2    1    0    0    0  0.20784315186E+01  0.30246817128E+02  0.36186935264E+01  0.94556661389E+02  0.89491214352E+02 0.  0.
         13    1    3    3    0    0 -0.13160770364E+02  0.58699746557E+02  0.11697501213E+02  0.61283838172E+02  0.10566000000E+00 0. -1.
         22    1    1    0    0    0 -0.20784315186E+01 -0.30246817128E+02 -0.36186935264E+01  0.30533338611E+02  0.00000000000E+00 0. -1.
</event>
<event>
 5    1  0.1259474E-009  0.9118800E+02  0.7815553E-02  0.1125453E+00
         25   -1    0    0    0    0  0.00000000000E+00  0.00000000000E+00  0.99999998245E-14  0.12509000000E+03  0.12509000000E+03 0.  0.
        -13    1    3    3    0    0 -0.46579932168E+02 -0.19590058927E+02 -0.21826679724E+02  0.55044305803E+02  0.10566000000E+00 0. -1.
         23    2    1    0    0    0 -0.71592880050E+01 -0.14162448423E+02 -0.25552214880E+02  0.95011003419E+02  0.90124051924E+02 0.  0.
         13    1    3    3    0    0  0.39420644163E+02  0.54276105042E+01 -0.37255351558E+01  0.39966697615E+02  0.10566000000E+00 0.  1.
         22    1    1    0    0    0  0.71592880050E+01  0.14162448423E+02  0.25552214880E+02  0.30078996581E+02  0.00000000000E+00 0. -1.
</event>
<event>
 5    1  0.1259474E-009  0.9118800E+02  0.7815553E-02  0.1125453E+00
         25   -1    0    0    0    0  0.00000000000E+00  0.00000000000E+00  0.99999998245E-14  0.12509000000E+03  0.12509000000E+03 0.  0.
        -13    1    3    3    0    0  0.23583077847E+02  0.45517904851E+02  0.20916258680E+02  0.55367339326E+02  0.10566000000E+00 0.  1.
         23    2    1    0    0    0  0.18112783036E+02  0.72680047249E+01  0.24031334006E+02  0.94131934555E+02  0.88895552684E+02 0.  0.
         13    1    3    3    0    0 -0.54702948111E+01 -0.38249900126E+02  0.31150753259E+01  0.38764595230E+02  0.10566000000E+00 0. -1.
         22    1    1    0    0    0 -0.18112783036E+02 -0.72680047249E+01 -0.24031334006E+02  0.30958065445E+02  0.00000000000E+00 0.  1.
</event>
<event>
 5    1  0.1259474E-009  0.9118800E+02  0.7815553E-02  0.1125453E+00
         25   -1    0    0    0    0  0.00000000000E+00  0.00000000000E+00  0.99999998245E-14  0.12509000000E+03  0.12509000000E+03 0.  0.
        -13    1    3    3    0    0  0.87191787634E+01  0.43722140893E+02  0.31726076211E+02  0.54719327101E+02  0.10566000000E+00 0. -1.
         23    2    1    0    0    0  0.11660180308E+02  0.29598462642E+01  0.26585015199E+02  0.95909809325E+02  0.91363055973E+02 0.  0.
         13    1    3    3    0    0  0.29410015442E+01 -0.40762294629E+02 -0.51410610114E+01  0.41190482224E+02  0.10566000000E+00 0.  1.
         22    1    1    0    0    0 -0.11660180308E+02 -0.29598462642E+01 -0.26585015199E+02  0.29180190675E+02  0.00000000000E+00 0. -1.
</event>
<event>
 5    1  0.1259474E-009  0.9118800E+02  0.7815553E-02  0.1125453E+00
         25   -1    0    0    0    0  0.00000000000E+00  0.00000000000E+00  0.99999998245E-14  0.12509000000E+03  0.12509000000E+03 0.  0.
        -13    1    3    3    0    0 -0.26174389077E+02  0.94609963164E+01 -0.18836869481E+02  0.33607259792E+02  0.10566000000E+00 0.  1.
         23    2    1    0    0    0  0.21127816431E+02 -0.89077874509E+01  0.17689900639E+02  0.96130271254E+02  0.91664405101E+02 0.  0.
         13    1    3    3    0    0  0.47302205507E+02 -0.18368783767E+02  0.36526770120E+02  0.62523011463E+02  0.10566000000E+00 0. -1.
         22    1    1    0    0    0 -0.21127816431E+02  0.89077874509E+01 -0.17689900639E+02  0.28959728746E+02  0.00000000000E+00 0. -1.
</event>
<event>
 5    1  0.1259474E-009  0.9118800E+02  0.7815553E-02  0.1125453E+00
         25   -1    0    0    0    0  0.00000000000E+00  0.00000000000E+00  0.99999998245E-14  0.12509000000E+03  0.12509000000E+03 0.  0.
        -13    1    3    3    0    0  0.41574596805E+01 -0.19334403987E+02 -0.31193403066E+02  0.36934309353E+02  0.10566000000E+00 0. -1.
         23    2    1    0    0    0 -0.23321035809E+02 -0.10452122363E+02  0.17897889137E+02  0.93889807554E+02  0.88554186541E+02 0.  0.
         13    1    3    3    0    0 -0.27478495490E+02  0.88822816243E+01  0.49091292202E+02  0.56955498201E+02  0.10566000000E+00 0.  1.
         22    1    1    0    0    0  0.23321035809E+02  0.10452122363E+02 -0.17897889137E+02  0.31200192446E+02  0.00000000000E+00 0.  1.
</event>
<event>
 5    1  0.1259474E-009  0.9118800E+02  0.7815553E-02  0.1125453E+00
         25   -1    0    0    0    0  0.00000000000E+00  0.00000000000E+00  0.99999998245E-14  0.12509000000E+03  0.12509000000E+03 0.  0.
        -13    1    3    3    0    0 -0.34734191552E+02  0.27891743588E+02  0.39310430078E+02  0.59411568740E+02  0.10566000000E+00 0. -1.
         23    2    1    0    0    0 -0.98278013777E+01  0.75175947571E+01  0.29575965194E+02  0.93030093137E+02  0.87331326574E+02 0.  0.
         13    1    3    3    0    0  0.24906390174E+02 -0.20374148831E+02 -0.97344648838E+01  0.33618524398E+02  0.10566000000E+00 0.  1.
         22    1    1    0    0    0  0.98278013777E+01 -0.75175947571E+01 -0.29575965194E+02  0.32059906863E+02  0.00000000000E+00 0. -1.
</event>
<event>
 5    1  0.1259474E-009  0.9118800E+02  0.7815553E-02  0.1125453E+00
         25   -1    0    0    0    0  0.00000000000E+00  0.00000000000E+00  0.99999998245E-14  0.12509000000E+03  0.12509000000E+03 0.  0.
        -13    1    3    3    0    0 -0.14316207937E+01 -0.15755410359E+02 -0.36346618032E+02  0.39640513368E+02  0.10566000000E+00 0.  1.
         23    2    1    0    0    0 -0.90944623393E+00  0.29194459296E+02 -0.27673972040E+01  0.95750572035E+02  0.91144775011E+02 0.  0.
         13    1    3    3    0    0  0.52217455973E+00  0.44949869654E+02  0.33579220828E+02  0.56110058667E+02  0.10566000000E+00 0. -1.
         22    1    1    0    0    0  0.90944623393E+00 -0.29194459296E+02  0.27673972040E+01  0.29339427965E+02  0.00000000000E+00 0. -1.
</event>
<event>
 5    1  0.1259474E-009  0.9118800E+02  0.7815553E-02  0.1125453E+00
         25   -1    0    0    0    0  0.00000000000E+00  0.00000000000E+00  0.99999998245E-14  0.12509000000E+03  0.12509000000E+03 0.  0.
        -13    1    3    3    0    0 -0.40731722511E+02 -0.21125743297E+02  0.36992360411E+01  0.46033311416E+02  0.10566000000E+00 0. -1.
         23    2    1    0    0    0 -0.18975514488E+02  0.15662690894E+02  0.21579415078E+02  0.92362928771E+02  0.86370419820E+02 0.  0.
         13    1    3    3    0    0  0.21756208023E+02  0.36788434191E+02  0.17880179037E+02  0.46329617355E+02  0.10566000000E+00 0.  1.
         22    1    1    0    0    0  0.18975514488E+02 -0.15662690894E+02 -0.21579415078E+02  0.32727071229E+02  0.00000000000E+00 0.  1.
</event>
<event>
 5    1  0.1259474E-009  0.9118800E+02  0.7815553E-02  0.1125453E+00
         25   -1    0    0    0    0  0.00000000000E+00  0.00000000000E+00  0.99999998245E-14  0.12509000000E+03  0.12509000000E+03 0.  0.
        -13    1    3    3    0    0  0.35046569361E+01  0.91088878092E+01 -0.41189936450E+02  0.42330562082E+02  0.10566000000E+00 0.  1.
         23    2    1    0    0    0 -0.23260726288E+02 -0.84711075234E+01  0.62416804655E+01  0.99560024968E+02  0.96231070588E+02 0.  0.
         13    1    3    3    0    0 -0.26765383224E+02 -0.17579995333E+02  0.47431616915E+02  0.57229462886E+02  0.10566000000E+00 0. -1.
         22    1    1    0    0    0  0.23260726288E+02  0.84711075234E+01 -0.62416804655E+01  0.25529975032E+02  0.00000000000E+00 0. -1.
</event>
<event>
 5    1  0.1259474E-009  0.9118800E+02  0.7815553E-02  0.1125453E+00
         25   -1    0    0    0    0  0.00000000000E+00  0.00000000000E+00  0.99999998245E-14  0.12509000000E+03  0.12509000000E+03 0.  0.
        -13    1    3    3    0    0  0.38681130741E+02 -0.26072199192E+02  0.38391907975E+02  0.60414726749E+02  0.10566000000E+00 0. -1.
         23    2    1    0    0    0  0.14403874061E+02 -0.22763985354E+02  0.15163216752E+02  0.94177320410E+02  0.88959394783E+02 0.  0.
         13    1    3    3    0    0 -0.24277256681E+02  0.33082138377E+01 -0.23228691224E+02  0.33762593661E+02  0.10566000000E+00 0.  1.
         22    1    1    0    0    0 -0.14403874061E+02  0.22763985354E+02 -0.15163216752E+02  0.30912679590E+02  0.00000000000E+00 0. -1.
</event>
<event>
 5    1  0.1259474E-009  0.9118800E+02  0.7815553E-02  0.1125453E+00
         25   -1    0    0    0    0  0.00000000000E+00  0.00000000000E+00  0.99999998245E-14  0.12509000000E+03  0.12509000000E+03 0.  0.
        -13    1    3    3    0    0  0.89563428975E+01 -0.26897978420E+02  0.28313794886E+02  0.40067436480E+02  0.10566000000E+00 0.  1.
         23    2    1    0    0    0 -0.26157634954E+02  0.97980076318E+01  0.24857218717E+01  0.97047146487E+02  0.92907195675E+02 0.  0.
         13    1    3    3    0    0 -0.35113977851E+02  0.36695986052E+02 -0.25828073014E+02  0.56979710007E+02  0.10566000000E+00 0. -1.
         22    1    1    0    0    0  0.26157634954E+02 -0.97980076318E+01 -0.24857218717E+01  0.28042853513E+02  0.00000000000E+00 0. -1.
</event>
<event>
 5    1  0.1259474E-009  0.9118800E+02  0.7815553E-02  0.1125453E+00
         25   -1    0    0    0    0  0.00000000000E+00  0.00000000000E+00  0.99999998245E-14  0.12509000000E+03  0.12509000000E+03 0.  0.
        -13    1    3    3    0    0  0.12372645044E+02 -0.57113929340E+02 -0.12772992347E+02  0.59818423312E+02  0.10566000000E+00 0.  1.
         23    2    1    0    0    0  0.15001163123E+02 -0.21877313036E+02 -0.13841917101E+02  0.95169264886E+02  0.90343447959E+02 0.  0.
         13    1    3    3    0    0  0.26285180797E+01  0.35236616304E+02 -0.10689247540E+01  0.35350841574E+02  0.10566000000E+00 0. -1.
         22    1    1    0    0    0 -0.15001163123E+02  0.21877313036E+02  0.13841917101E+02  0.29920735114E+02  0.00000000000E+00 0.  1.
</event>
<event>
 5    1  0.1259474E-009  0.9118800E+02  0.7815553E-02  0.1125453E+00
         25   -1    0    0    0    0  0.00000000000E+00  0.00000000000E+00  0.99999998245E-14  0.12509000000E+03  0.12509000000E+03 0.  0.
        -13    1    3    3    0    0 -0.58772416584E+02  0.12235309241E+02 -0.96778367185E+01  0.60807659311E+02  0.10566000000E+00 0.  1.
         23    2    1    0    0    0 -0.24218632406E+02  0.15611037129E+02 -0.36447998464E+01  0.96046391378E+02  0.91549866712E+02 0.  0.
         13    1    3    3    0    0  0.34553784177E+02  0.33757278881E+01  0.60330368721E+01  0.35238732067E+02  0.10566000000E+00 0. -1.
         22    1    1    0    0    0  0.24218632406E+02 -0.15611037129E+02  0.36447998464E+01  0.29043608622E+02  0.00000000000E+00 0.  1.
</event>
<event>
 5    1  0.1259474E-009  0.9118800E+02  0.7815553E-02  0.1125453E+00
         25   -1    0    0    0    0  0.00000000000E+00  0.00000000000E+00  0.99999998245E-14  0.12509000000E+03  0.12509000000E+03 0.  0.
        -13    1    3    3    0    0 -0.21874512504E+02  0.20869181472E+02  0.37302858317E+02  0.48015949800E+02  0.10566000000E+00 0. -1.
         23    2    1    0    0    0 -0.17914274069E+02 -0.19732357412E+02  0.14722553111E+02  0.94642656691E+02  0.89611337179E+02 0.  0.
         13    1    3    3    0    0  0.39602384344E+01 -0.40601538885E+02 -0.22580305206E+02  0.46626706891E+02  0.10566000000E+00 0.  1.
         22    1    1    0    0    0  0.17914274069E+02  0.19732357412E+02 -0.14722553111E+02  0.30447343309E+02  0.00000000000E+00 0. -1.
</event>
<event>
 5    1  0.1259474E-009  0.9118800E+02  0.7815553E-02  0.1125453E+00
         25   -1    0    0    0    0  0.00000000000E+00  0.00000000000E+00  0.99999998245E-14  0.12509000000E+03  0.12509000000E+03 0.  0.
        -13    1    3    3    0    0  0.11170579436E+02  0.29390730540E+02  0.47328106888E+02  0.56820399085E+02  0.10566000000E+00 0. -1.
         23    2    1    0    0    0  0.23455909669E+02  0.13230507253E+02  0.17246573684E+02  0.93110782930E+02  0.87446827120E+02 0.  0.
         13    1    3    3    0    0  0.12285330233E+02 -0.16160223286E+02 -0.30081533205E+02  0.36290383845E+02  0.10566000000E+00 0.  1.
         22    1    1    0    0    0 -0.23455909669E+02 -0.13230507253E+02 -0.17246573684E+02  0.31979217070E+02  0.00000000000E+00 0. -1.
</event>
<event>
 5    1  0.1259474E-009  0.9118800E+02  0.7815553E-02  0.1125453E+00
         25   -1    0    0    0    0  0.00000000000E+00  0.00000000000E+00  0.99999998245E-14  0.12509000000E+03  0.12509000000E+03 0.  0.
        -13    1    3    3    0    0 -0.32155326056E+02 -0.71957909284E+01 -0.45173032583E+02  0.55913848353E+02  0.10566000000E+00 0.  1.
         23    2    1    0    0    0 -0.81888150750E+01 -0.22243293642E+02 -0.16431480215E+02  0.96248808165E+02  0.91826024235E+02 0.  0.
         13    1    3    3    0    0  0.23966510981E+02 -0.15047502714E+02  0.28741552368E+02  0.40334959812E+02  0.10566000000E+00 0. -1.
         22    1    1    0    0    0  0.81888150750E+01  0.22243293642E+02  0.16431480215E+02  0.28841191835E+02  0.00000000000E+00 0.  1.
</event>
<event>
 5    1  0.1259474E-009  0.9118800E+02  0.7815553E-02  0.1125453E+00
         25   -1    0    0    0    0  0.00000000000E+00  0.00000000000E+00  0.99999998245E-14  0.12509000000E+03  0.12509000000E+03 0.  0.
        -13    1    3    3    0    0  0.34250569324E+02 -0.34908942879E+02  0.17909976300E+02  0.52081803032E+02  0.10566000000E+00 0.  1.
         23    2    1    0    0    0 -0.78442720742E+01 -0.25718556655E+02  0.15925879579E+01  0.98154649674E+02  0.94386557069E+02 0.  0.
         13    1    3    3    0    0 -0.42094841399E+02  0.91903862242E+01 -0.16317388342E+02  0.46072846642E+02  0.10566000000E+00 0. -1.
         22    1    1    0    0    0  0.78442720742E+01  0.25718556655E+02 -0.15925879579E+01  0.26935350326E+02  0.00000000000E+00 0.  1.
</event>
<event>
 5    1  0.1259474E-009  0.9118800E+02  0.7815553E-02  0.1125453E+00
         25   -1    0    0    0    0  0.00000000000E+00  0.00000000000E+00  0.99999998245E-14  0.12509000000E+03  0.12509000000E+03 0.  0.
        -13    1    3    3    0    0  0.41174842403E+02  0.22900157127E+01  0.10722888216E+02  0.42609896909E+02  0.10566000000E+00 0. -1.
         23    2    1    0    0    0  0.11295105756E+02  0.24280483689E+02 -0.20711458614E+02  0.91236110709E+02  0.84722736483E+02 0.  0.
         13    1    3    3    0    0 -0.29879736647E+02  0.21990467976E+02 -0.31434346830E+02  0.48626213800E+02  0.10566000000E+00 0.  1.
         22    1    1    0    0    0 -0.11295105756E+02 -0.24280483689E+02  0.20711458614E+02  0.33853889291E+02  0.00000000000E+00 0. -1.
</event>
<event>
 5    1  0.1259474E-009  0.9118800E+02  0.7815553E-02  0.1125453E+00
         25   -1    0    0    0    0  0.00000000000E+00  0.00000000000E+00  0.99999998245E-14  0.12509000000E+03  0.12509000000E+03 0.  0.
        -13    1    3    3    0    0  0.46142998231E+02  0.75885724360E+01  0.34908501982E+02  0.58355611487E+02  0.10566000000E+00 0.  1.
         23    2    1    0    0    0  0.27809263028E+02  0.70794056426E+01  0.16375466051E+01  0.96347093861E+02  0.91959816453E+02 0.  0.
         13    1    3    3    0    0 -0.18333735202E+02 -0.50916679339E+00 -0.33270955377E+02  0.37991482374E+02  0.10566000000E+00 0. -1.
         22    1    1    0    0    0 -0.27809263028E+02 -0.70794056426E+01 -0.16375466051E+01  0.28742906139E+02  0.00000000000E+00 0.  1.
</event>
<event>
 5    1  0.1259474E-009  0.9118800E+02  0.7815553E-02  0.1125453E+00
         25   -1    0    0    0    0  0.00000000000E+00  0.00000000000E+00  0.99999998245E-14  0.12509000000E+03  0.12509000000E+03 0.  0.
        -13    1    3    3    0    0  0.30606736328E+02  0.21617754172E+02  0.48376430832E+01  0.37782450407E+02  0.10566000000E+00 0.  1.
         23    2    1    0    0    0  0.18124392482E+01 -0.24971630057E+02 -0.14846584816E+02  0.95981782527E+02  0.91461545212E+02 0.  0.
         13    1    3    3    0    0 -0.28794297080E+02 -0.46589384230E+02 -0.19684227899E+02  0.58199332120E+02  0.10566000000E+00 0. -1.
         22    1    1    0    0    0 -0.18124392482E+01  0.24971630057E+02  0.14846584816E+02  0.29108217473E+02  0.00000000000E+00 0. -1.
</event>
<event>
 5    1  0.1259474E-009  0.9118800E+02  0.7815553E-02  0.1125453E+00
         25   -1    0    0    0    0  0.00000000000E+00  0.00000000000E+00  0.99999998245E-14  0.12509000000E+03  0.12509000000E+03 0.  0.
        -13    1    3    3    0    0  0.18967903924E+01  0.43107199249E+02 -0.47679781494E+01  0.43411671478E+02  0.10566000000E+00 0. -1.
         23    2    1    0    0    0 -0.84343094927E+01  0.83671444992E+01  0.29498096384E+02  0.93289302304E+02  0.87701821819E+02 0.  0.
         13    1    3    3    0    0 -0.10331099885E+02 -0.34740054750E+02  0.34266074533E+02  0.49877630826E+02  0.10566000000E+00 0.  1.
         22    1    1    0    0    0  0.84343094927E+01 -0.83671444992E+01 -0.29498096384E+02  0.31800697696E+02  0.00000000000E+00 0.  1.
</event>
<event>
 5    1  0.1259474E-009  0.9118800E+02  0.7815553E-02  0.1125453E+00
         25   -1    0    0    0    0  0.00000000000E+00  0.00000000000E+00  0.99999998245E-14  0.12509000000E+03  0.12509000000E+03 0.  0.
        -13    1    3    3    0    0 -0.44766565739E+02  0.39756375633E+02  0.11361545064E+02  0.60940222200E+02  0.10566000000E+00 0.  1.
         23    2    1    0    0    0 -0.24084771886E+02  0.17421870663E+02 -0.41026316662E+01  0.95082844174E+02  0.90223710051E+02 0.  0.
         13    1    3    3    0    0  0.20681793854E+02 -0.22334504970E+02 -0.15464176730E+02  0.34142621973E+02  0.10566000000E+00 0. -1.
         22    1    1    0    0    0  0.24084771886E+02 -0.17421870663E+02  0.41026316662E+01  0.30007155826E+02  0.00000000000E+00 0.  1.
</event>
<event>
 5    1  0.1259474E-009  0.9118800E+02  0.7815553E-02  0.1125453E+00
         25   -1    0    0    0    0  0.00000000000E+00  0.00000000000E+00  0.99999998245E-14  0.12509000000E+03  0.12509000000E+03 0.  0.
        -13    1    3    3    0    0  0.16222242128E+01  0.45856339220E+02  0.38240960244E+02  0.59731211795E+02  0.10566000000E+00 0. -1.
         23    2    1    0    0    0  0.11328883270E+02  0.24462204255E+02  0.10313117898E+02  0.96226468789E+02  0.91795587376E+02 0.  0.
         13    1    3    3    0    0  0.97066590576E+01 -0.21394134965E+02 -0.27927842346E+02  0.36495256995E+02  0.10566000000E+00 0.  1.
         22    1    1    0    0    0 -0.11328883270E+02 -0.24462204255E+02 -0.10313117898E+02  0.28863531211E+02  0.00000000000E+00 0. -1.
</event>
<event>
 5    1  0.1259474E-009  0.9118800E+02  0.7815553E-02  0.1125453E+00
         25   -1    0    0    0    0  0.00000000000E+00  0.00000000000E+00  0.99999998245E-14  0.12509000000E+03  0.12509000000E+03 0.  0.
        -13    1    3    3    0    0  0.50407141391E+01 -0.54062565248E+02 -0.99604327069E+01  0.55203180560E+02  0.10566000000E+00 0. -1.
         23    2    1    0    0    0 -0.44848501720E+01 -0.18660059653E+02 -0.23911277315E+02  0.94429587573E+02  0.89313415113E+02 0.  0.
         13    1    3    3    0    0 -0.95255643111E+01  0.35402505595E+02 -0.13950844609E+02  0.39226407013E+02  0.10566000000E+00 0.  1.
         22    1    1    0    0    0  0.44848501720E+01  0.18660059653E+02  0.23911277315E+02  0.30660412427E+02  0.00000000000E+00 0. -1.
</event>
<event>
 5    1  0.1259474E-009  0.9118800E+02  0.7815553E-02  0.1125453E+00
         25   -1    0    0    0    0  0.00000000000E+00  0.00000000000E+00  0.99999998245E-14  0.12509000000E+03  0.12509000000E+03 0.  0.
        -13    1    3    3    0    0  0.41998287044E+02  0.44526821820E+02 -0.99768127114E+01  0.62016465007E+02  0.10566000000E+00 0. -1.
         23    2    1    0    0    0  0.23716819908E+02  0.18226709734E+02 -0.80987520600E+01  0.94101449223E+02  0.88852644680E+02 0.  0.
         13    1    3    3    0    0 -0.18281467135E+02 -0.26300112086E+02  0.18780606514E+01  0.32084984217E+02  0.10566000000E+00 0.  1.
         22    1    1    0    0    0 -0.23716819908E+02 -0.18226709734E+02  0.80987520600E+01  0.30988550777E+02  0.00000000000E+00 0. -1.
</event>
<event>
 5    1  0.1259474E-009  0.9118800E+02  0.7815553E-02  0.1125453E+00
         25   -1    0    0    0    0  0.00000000000E+00  0.00000000000E+00  0.99999998245E-14  0.12509000000E+03  0.12509000000E+03 0.  0.
        -13    1    3    3    0    0 -0.20083885569E+02  0.14944572035E+02 -0.22814430940E+02  0.33870519866E+02  0.10566000000E+00 0.  1.
         23    2    1    0    0    0  0.17375659097E+02 -0.14960263995E+02  0.17294273920E+02  0.96370408459E+02  0.91991525090E+02 0.  0.
         13    1    3    3    0    0  0.37459544666E+02 -0.29904836030E+02  0.40108704860E+02  0.62499888593E+02  0.10566000000E+00 0. -1.
         22    1    1    0    0    0 -0.17375659097E+02  0.14960263995E+02 -0.17294273920E+02  0.28719591541E+02  0.00000000000E+00 0. -1.
</event>
<event>
 5    1  0.1259474E-009  0.9118800E+02  0.7815553E-02  0.1125453E+00
         25   -1    0    0    0    0  0.00000000000E+00  0.00000000000E+00  0.99999998245E-14  0.12509000000E+03  0.12509000000E+03 0.  0.
        -13    1    3    3    0    0 -0.16742965909E+02  0.90244104004E+01  0.35371197886E+01  0.19346557082E+02  0.10566000000E+00 0.  1.
         23    2    1    0    0    0  0.40287126779E+02 -0.15300973660E+02 -0.40257250329E+01  0.81807453390E+02  0.69419598018E+02 0.  0.
         13    1    3    3    0    0  0.57030092688E+02 -0.24325384060E+02 -0.75628448215E+01  0.62460896307E+02  0.10566000000E+00 0. -1.
         22    1    1    0    0    0 -0.40287126779E+02  0.15300973660E+02  0.40257250329E+01  0.43282546610E+02  0.00000000000E+00 0. -1.
</event>
<event>
 5    1  0.1259474E-009  0.9118800E+02  0.7815553E-02  0.1125453E+00
         25   -1    0    0    0    0  0.00000000000E+00  0.00000000000E+00  0.99999998245E-14  0.12509000000E+03  0.12509000000E+03 0.  0.
        -13    1    3    3    0    0 -0.22036272261E+02 -0.50956978768E+02 -0.92246716744E+01  0.56278918893E+02  0.10566000000E+00 0.  1.
         23    2    1    0    0    0 -0.31049069542E+01 -0.20648941193E+02 -0.22494047150E+02  0.94397959064E+02  0.89269106071E+02 0.  0.
         13    1    3    3    0    0  0.18931365306E+02  0.30308037575E+02 -0.13269375476E+02  0.38119040171E+02  0.10566000000E+00 0. -1.
         22    1    1    0    0    0  0.31049069542E+01  0.20648941193E+02  0.22494047150E+02  0.30692040936E+02  0.00000000000E+00 0.  1.
</event>
<event>
 5    1  0.1259474E-009  0.9118800E+02  0.7815553E-02  0.1125453E+00
         25   -1    0    0    0    0  0.00000000000E+00  0.00000000000E+00  0.99999998245E-14  0.12509000000E+03  0.12509000000E+03 0.  0.
        -13    1    3    3    0    0 -0.18386959026E+02 -0.38503580527E+02  0.36900424078E+02  0.56411509790E+02  0.10566000000E+00 0. -1.
         23    2    1    0    0    0  0.46835637491E+01 -0.26225912962E+01  0.23291861562E+02  0.10118760327E+03  0.98323987336E+02 0.  0.
         13    1    3    3    0    0  0.23070522775E+02  0.35880989231E+02 -0.13608562516E+02  0.44776093478E+02  0.10566000000E+00 0.  1.
         22    1    1    0    0    0 -0.46835637491E+01  0.26225912962E+01 -0.23291861562E+02  0.23902396732E+02  0.00000000000E+00 0.  1.
</event>
<event>
 5    1  0.1259474E-009  0.9118800E+02  0.7815553E-02  0.1125453E+00
         25   -1    0    0    0    0  0.00000000000E+00  0.00000000000E+00  0.99999998245E-14  0.12509000000E+03  0.12509000000E+03 0.  0.
        -13    1    3    3    0    0  0.12143302193E+02 -0.13580725325E+02 -0.52038345285E+02  0.55135255804E+02  0.10566000000E+00 0.  1.
         23    2    1    0    0    0 -0.56359856781E+01  0.13267234296E+02 -0.18606616781E+02  0.10155300723E+03  0.98787768726E+02 0.  0.
         13    1    3    3    0    0 -0.17779287871E+02  0.26847959621E+02  0.33431728504E+02  0.46417751430E+02  0.10566000000E+00 0. -1.
         22    1    1    0    0    0  0.56359856781E+01 -0.13267234296E+02  0.18606616781E+02  0.23536992766E+02  0.00000000000E+00 0.  1.
</event>
<event>
 5    1  0.1259474E-009  0.9118800E+02  0.7815553E-02  0.1125453E+00
         25   -1    0    0    0    0  0.00000000000E+00  0.00000000000E+00  0.99999998245E-14  0.12509000000E+03  0.12509000000E+03 0.  0.
        -13    1    3    3    0    0  0.19420786203E+02 -0.82090489561E+01 -0.26944421580E+02  0.34213570989E+02  0.10566000000E+00 0.  1.
         23    2    1    0    0    0 -0.23187285526E+02 -0.15015412004E+02  0.14369611295E+02  0.93951622771E+02  0.88641462561E+02 0.  0.
         13    1    3    3    0    0 -0.42608071728E+02 -0.68063630476E+01  0.41314032875E+02  0.59738051782E+02  0.10566000000E+00 0. -1.
         22    1    1    0    0    0  0.23187285526E+02  0.15015412004E+02 -0.14369611295E+02  0.31138377229E+02  0.00000000000E+00 0. -1.
</event>
<event>
 5    1  0.1259474E-009  0.9118800E+02  0.7815553E-02  0.1125453E+00
         25   -1    0    0    0    0  0.00000000000E+00  0.00000000000E+00  0.99999998245E-14  0.12509000000E+03  0.12509000000E+03 0.  0.
        -13    1    3    3    0    0 -0.44855546551E+01  0.43186409609E+02 -0.41004242421E+02  0.59720559576E+02  0.10566000000E+00 0. -1.
         23    2    1    0    0    0  0.11207803581E+02  0.18829626283E+02 -0.18614985222E+02  0.96337828571E+02  0.91947212312E+02 0.  0.
         13    1    3    3    0    0  0.15693358236E+02 -0.24356783326E+02  0.22389257199E+02  0.36617268996E+02  0.10566000000E+00 0.  1.
         22    1    1    0    0    0 -0.11207803581E+02 -0.18829626283E+02  0.18614985222E+02  0.28752171429E+02  0.00000000000E+00 0. -1.
</event>
<event>
 5    1  0.1259474E-009  0.9118800E+02  0.7815553E-02  0.1125453E+00
         25   -1    0    0    0    0  0.00000000000E+00  0.00000000000E+00  0.99999998245E-14  0.12509000000E+03  0.12509000000E+03 0.  0.
        -13    1    3    3    0    0 -0.96776713747E+01  0.16208445577E+02 -0.56999616333E+02  0.60044470665E+02  0.10566000000E+00 0. -1.
         23    2    1    0    0    0  0.54417733624E+01 -0.15451750857E+00 -0.27741625893E+02  0.96819262829E+02  0.92599865413E+02 0.  0.
         13    1    3    3    0    0  0.15119444737E+02 -0.16362963086E+02  0.29257990440E+02  0.36774792164E+02  0.10566000000E+00 0.  1.
         22    1    1    0    0    0 -0.54417733624E+01  0.15451750857E+00  0.27741625893E+02  0.28270737171E+02  0.00000000000E+00 0. -1.
</event>
<event>
 5    1  0.1259474E-009  0.9118800E+02  0.7815553E-02  0.1125453E+00
         25   -1    0    0    0    0  0.00000000000E+00  0.00000000000E+00  0.99999998245E-14  0.12509000000E+03  0.12509000000E+03 0.  0.
        -13    1    3    3    0    0  0.31345285439E+02 -0.38744530573E+01 -0.14358646556E+02  0.34694671070E+02  0.10566000000E+00 0.  1.
         23    2    1    0    0    0 -0.24238878517E+02  0.16233959933E+02  0.14471251904E+01  0.95881116793E+02  0.91323763059E+02 0.  0.
         13    1    3    3    0    0 -0.55584163956E+02  0.20108412990E+02  0.15805771746E+02  0.61186445723E+02  0.10566000000E+00 0. -1.
         22    1    1    0    0    0  0.24238878517E+02 -0.16233959933E+02 -0.14471251904E+01  0.29208883207E+02  0.00000000000E+00 0. -1.
</event>
<event>
 5    1  0.1259474E-009  0.9118800E+02  0.7815553E-02  0.1125453E+00
         25   -1    0    0    0    0  0.00000000000E+00  0.00000000000E+00  0.99999998245E-14  0.12509000000E+03  0.12509000000E+03 0.  0.
        -13    1    3    3    0    0 -0.39323678024E+02  0.34644507791E+02  0.15725429900E+02  0.54716486391E+02  0.10566000000E+00 0. -1.
         23    2    1    0    0    0 -0.33531342813E+02  0.75061291490E+00  0.12668158820E+02  0.89237571651E+02  0.81718710071E+02 0.  0.
         13    1    3    3    0    0  0.57923352103E+01 -0.33893894876E+02 -0.30572710803E+01  0.34521085260E+02  0.10566000000E+00 0.  1.
         22    1    1    0    0    0  0.33531342813E+02 -0.75061291490E+00 -0.12668158820E+02  0.35852428349E+02  0.00000000000E+00 0. -1.
</event>
<event>
 5    1  0.1259474E-009  0.9118800E+02  0.7815553E-02  0.1125453E+00
         25   -1    0    0    0    0  0.00000000000E+00  0.00000000000E+00  0.99999998245E-14  0.12509000000E+03  0.12509000000E+03 0.  0.
        -13    1    3    3    0    0 -0.30242990550E+02  0.42362679966E+02  0.16674239595E+02  0.54655983766E+02  0.10566000000E+00 0. -1.
         23    2    1    0    0    0 -0.10448392141E+01  0.13707542563E+02  0.25143371524E+02  0.96433804445E+02  0.92077690545E+02 0.  0.
         13    1    3    3    0    0  0.29198151336E+02 -0.28655137404E+02  0.84691319286E+01  0.41777820679E+02  0.10566000000E+00 0.  1.
         22    1    1    0    0    0  0.10448392141E+01 -0.13707542563E+02 -0.25143371524E+02  0.28656195555E+02  0.00000000000E+00 0. -1.
</event>
<event>
 5    1  0.1259474E-009  0.9118800E+02  0.7815553E-02  0.1125453E+00
         25   -1    0    0    0    0  0.00000000000E+00  0.00000000000E+00  0.99999998245E-14  0.12509000000E+03  0.12509000000E+03 0.  0.
        -13    1    3    3    0    0  0.23469724537E+02 -0.34720359245E+02 -0.23580467860E+02  0.48087222258E+02  0.10566000000E+00 0. -1.
         23    2    1    0    0    0  0.29344807176E+02  0.23102396868E+01  0.50008958461E+01  0.95232607702E+02  0.90431110216E+02 0.  0.
         13    1    3    3    0    0  0.58750826387E+01  0.37030598932E+02  0.28581363706E+02  0.47145385444E+02  0.10566000000E+00 0.  1.
         22    1    1    0    0    0 -0.29344807176E+02 -0.23102396868E+01 -0.50008958461E+01  0.29857392298E+02  0.00000000000E+00 0. -1.
</event>
<event>
 5    1  0.1259474E-009  0.9118800E+02  0.7815553E-02  0.1125453E+00
         25   -1    0    0    0    0  0.00000000000E+00  0.00000000000E+00  0.99999998245E-14  0.12509000000E+03  0.12509000000E+03 0.  0.
        -13    1    3    3    0    0 -0.38835631777E+01 -0.33021398839E+02 -0.21344406516E+02  0.39510627656E+02  0.10566000000E+00 0.  1.
         23    2    1    0    0    0  0.50366160147E+01  0.15127312989E+02 -0.31740445649E+02  0.89570160626E+02  0.82226240857E+02 0.  0.
         13    1    3    3    0    0  0.89201791924E+01  0.48148711827E+02 -0.10396039133E+02  0.50059532970E+02  0.10566000000E+00 0. -1.
         22    1    1    0    0    0 -0.50366160147E+01 -0.15127312989E+02  0.31740445649E+02  0.35519839374E+02  0.00000000000E+00 0. -1.
</event>
<event>
 5    1  0.1259474E-009  0.9118800E+02  0.7815553E-02  0.1125453E+00
         25   -1    0    0    0    0  0.00000000000E+00  0.00000000000E+00  0.99999998245E-14  0.12509000000E+03  0.12509000000E+03 0.  0.
        -13    1    3    3    0    0  0.16974053281E+02 -0.45745710267E+02 -0.13575504115E+02  0.50646756744E+02  0.10566000000E+00 0.  1.
         23    2    1    0    0    0  0.27574947163E+02 -0.27713399367E+01  0.13093972213E+01  0.97345224687E+02  0.93307664274E+02 0.  0.
         13    1    3    3    0    0  0.10600893882E+02  0.42974370331E+02  0.14884901337E+02  0.46698467943E+02  0.10566000000E+00 0. -1.
         22    1    1    0    0    0 -0.27574947163E+02  0.27713399367E+01 -0.13093972213E+01  0.27744775313E+02  0.00000000000E+00 0.  1.
</event>
<event>
 5    1  0.1259474E-009  0.9118800E+02  0.7815553E-02  0.1125453E+00
         25   -1    0    0    0    0  0.00000000000E+00  0.00000000000E+00  0.99999998245E-14  0.12509000000E+03  0.12509000000E+03 0.  0.
        -13    1    3    3    0    0  0.51846062848E+02 -0.13233184076E+02 -0.35665252600E+01  0.53627070218E+02  0.10566000000E+00 0.  1.
         23    2    1    0    0    0  0.23443919528E+02  0.10347093260E+02  0.15465073889E+02  0.95159276451E+02  0.90329616863E+02 0.  0.
         13    1    3    3    0    0 -0.28402143320E+02  0.23580277336E+02  0.19031599149E+02  0.41532206234E+02  0.10566000000E+00 0. -1.
         22    1    1    0    0    0 -0.23443919528E+02 -0.10347093260E+02 -0.15465073889E+02  0.29930723549E+02  0.00000000000E+00 0.  1.
</event>
<event>
 5    1  0.1259474E-009  0.9118800E+02  0.7815553E-02  0.1125453E+00
         25   -1    0    0    0    0  0.00000000000E+00  0.00000000000E+00  0.99999998245E-14  0.12509000000E+03  0.12509000000E+03 0.  0.
        -13    1    3    3    0    0  0.98003250803E+01  0.38091802906E+01 -0.37916666805E+02  0.39347693856E+02  0.10566000000E+00 0. -1.
         23    2    1    0    0    0  0.10934337380E+02  0.23484924790E+02  0.14538798435E+02  0.95383467280E+02  0.90639548454E+02 0.  0.
         13    1    3    3    0    0  0.11340122997E+01  0.19675744500E+02  0.52455465240E+02  0.56035773423E+02  0.10566000000E+00 0.  1.
         22    1    1    0    0    0 -0.10934337380E+02 -0.23484924790E+02 -0.14538798435E+02  0.29706532720E+02  0.00000000000E+00 0.  1.
</event>
<event>
 5    1  0.1259474E-009  0.9118800E+02  0.7815553E-02  0.1125453E+00
         25   -1    0    0    0    0  0.00000000000E+00  0.00000000000E+00  0.99999998245E-14  0.12509000000E+03  0.12509000000E+03 0.  0.
        -13    1    3    3    0    0 -0.83857892393E+01  0.12237092859E+02  0.33959063443E+02  0.37058022840E+02  0.10566000000E+00 0.  1.
         23    2    1    0    0    0 -0.18010429926E+02 -0.21305188254E+02 -0.11963857455E+02  0.94735090712E+02  0.89740274651E+02 0.  0.
         13    1    3    3    0    0 -0.96246406866E+01 -0.33542281113E+02 -0.45922920898E+02  0.57677067873E+02  0.10566000000E+00 0. -1.
         22    1    1    0    0    0  0.18010429926E+02  0.21305188254E+02  0.11963857455E+02  0.30354909288E+02  0.00000000000E+00 0. -1.
</event>
<event>
 5    1  0.1259474E-009  0.9118800E+02  0.7815553E-02  0.1125453E+00
         25   -1    0    0    0    0  0.00000000000E+00  0.00000000000E+00  0.99999998245E-14  0.12509000000E+03  0.12509000000E+03 0.  0.
        -13    1    3    3    0    0 -0.33741175921E+02 -0.43196301010E+02  0.29946676710E+01  0.54894139687E+02  0.10566000000E+00 0. -1.
         23    2    1    0    0    0 -0.26680271755E+02 -0.54680083584E+01 -0.10955796504E+02  0.95734157424E+02  0.91122244289E+02 0.  0.
         13    1    3    3    0    0  0.70609041659E+01  0.37728292652E+02 -0.13950464175E+02  0.40840017737E+02  0.10566000000E+00 0.  1.
         22    1    1    0    0    0  0.26680271755E+02  0.54680083584E+01  0.10955796504E+02  0.29355842576E+02  0.00000000000E+00 0. -1.
</event>
<event>
 5    1  0.1259474E-009  0.9118800E+02  0.7815553E-02  0.1125453E+00
         25   -1    0    0    0    0  0.00000000000E+00  0.00000000000E+00  0.99999998245E-14  0.12509000000E+03  0.12509000000E+03 0.  0.
        -13    1    3    3    0    0  0.17133932892E+02  0.17088608347E+02  0.44693938785E+01  0.24608511480E+02  0.10566000000E+00 0. -1.
         23    2    1    0    0    0 -0.12662425464E+02  0.18742178415E+02 -0.40572001964E+02  0.78639019238E+02  0.63453933945E+02 0.  0.
         13    1    3    3    0    0 -0.29796358355E+02  0.16535700684E+01 -0.45041395842E+02  0.54030507759E+02  0.10566000000E+00 0.  1.
         22    1    1    0    0    0  0.12662425464E+02 -0.18742178415E+02  0.40572001964E+02  0.46450980762E+02  0.00000000000E+00 0.  1.
</event>
<event>
 5    1  0.1259474E-009  0.9118800E+02  0.7815553E-02  0.1125453E+00
         25   -1    0    0    0    0  0.00000000000E+00  0.00000000000E+00  0.99999998245E-14  0.12509000000E+03  0.12509000000E+03 0.  0.
        -13    1    3    3    0    0 -0.29105745651E+02  0.94115880544E+01 -0.49573830441E+02  0.58252023555E+02  0.10566000000E+00 0.  1.
         23    2    1    0    0    0 -0.18213405285E+02  0.17835599461E+02 -0.14893299404E+02  0.95566329710E+02  0.90891563233E+02 0.  0.
         13    1    3    3    0    0  0.10892340365E+02  0.84240114069E+01  0.34680531037E+02  0.37314306156E+02  0.10566000000E+00 0. -1.
         22    1    1    0    0    0  0.18213405285E+02 -0.17835599461E+02  0.14893299404E+02  0.29523670290E+02  0.00000000000E+00 0.  1.
</event>
<event>
 5    1  0.1259474E-009  0.9118800E+02  0.7815553E-02  0.1125453E+00
         25   -1    0    0    0    0  0.00000000000E+00  0.00000000000E+00  0.99999998245E-14  0.12509000000E+03  0.12509000000E+03 0.  0.
        -13    1    3    3    0    0 -0.14748491994E+02 -0.51508373858E+02  0.14886203910E+01  0.53599046151E+02  0.10566000000E+00 0. -1.
         23    2    1    0    0    0 -0.26182823158E+02 -0.94350201426E+01  0.18168011073E+01  0.97199847618E+02  0.93112565087E+02 0.  0.
         13    1    3    3    0    0 -0.11434331164E+02  0.42073353715E+02  0.32818071626E+00  0.43600801468E+02  0.10566000000E+00 0.  1.
         22    1    1    0    0    0  0.26182823158E+02  0.94350201426E+01 -0.18168011073E+01  0.27890152382E+02  0.00000000000E+00 0. -1.
</event>
<event>
 5    1  0.1259474E-009  0.9118800E+02  0.7815553E-02  0.1125453E+00
         25   -1    0    0    0    0  0.00000000000E+00  0.00000000000E+00  0.99999998245E-14  0.12509000000E+03  0.12509000000E+03 0.  0.
        -13    1    3    3    0    0 -0.27882292613E+02  0.79127902311E+01 -0.34919306683E+02  0.45380652638E+02  0.10566000000E+00 0.  1.
         23    2    1    0    0    0  0.80378063416E+01 -0.22262508068E+02 -0.18376103759E+02  0.95124907215E+02  0.90282009210E+02 0.  0.
         13    1    3    3    0    0  0.35920098955E+02 -0.30175298299E+02  0.16543202924E+02  0.49744254576E+02  0.10566000000E+00 0. -1.
         22    1    1    0    0    0 -0.80378063416E+01  0.22262508068E+02  0.18376103759E+02  0.29965092785E+02  0.00000000000E+00 0. -1.
</event>
<event>
 5    1  0.1259474E-009  0.9118800E+02  0.7815553E-02  0.1125453E+00
         25   -1    0    0    0    0  0.00000000000E+00  0.00000000000E+00  0.99999998245E-14  0.12509000000E+03  0.12509000000E+03 0.  0.
        -13    1    3    3    0    0 -0.36589795560E+02  0.27499068929E+02  0.31444422354E+02  0.55531745806E+02  0.10566000000E+00 0. -1.
         23    2    1    0    0    0 -0.18995195345E+01  0.26973963283E+02  0.10346892055E+02  0.96137261877E+02  0.91673944370E+02 0.  0.
         13    1    3    3    0    0  0.34690276025E+02 -0.52510564659E+00 -0.21097530299E+02  0.40605516071E+02  0.10566000000E+00 0.  1.
         22    1    1    0    0    0  0.18995195345E+01 -0.26973963283E+02 -0.10346892055E+02  0.28952738123E+02  0.00000000000E+00 0. -1.
</event>
<event>
 5    1  0.1259474E-009  0.9118800E+02  0.7815553E-02  0.1125453E+00
         25   -1    0    0    0    0  0.00000000000E+00  0.00000000000E+00  0.99999998245E-14  0.12509000000E+03  0.12509000000E+03 0.  0.
        -13    1    3    3    0    0  0.87464277155E+01 -0.11979610597E+02  0.52727416266E+02  0.54774105725E+02  0.10566000000E+00 0. -1.
         23    2    1    0    0    0 -0.14796725863E+02 -0.12649404806E+02  0.37551015604E+02  0.82793081541E+02  0.71173485512E+02 0.  0.
         13    1    3    3    0    0 -0.23543153579E+02 -0.66979420992E+00 -0.15176400662E+02  0.28018975816E+02  0.10566000000E+00 0.  1.
         22    1    1    0    0    0  0.14796725863E+02  0.12649404806E+02 -0.37551015604E+02  0.42296918459E+02  0.00000000000E+00 0. -1.
</event>
<event>
 5    1  0.1259474E-009  0.9118800E+02  0.7815553E-02  0.1125453E+00
         25   -1    0    0    0    0  0.00000000000E+00  0.00000000000E+00  0.99999998245E-14  0.12509000000E+03  0.12509000000E+03 0.  0.
        -13    1    3    3    0    0  0.32916425321E+02 -0.54264523510E+00 -0.22418689914E+02  0.39829566170E+02  0.10566000000E+00 0. -1.
         23    2    1    0    0    0 -0.66127243018E+01  0.28780483432E+02  0.33238261753E+01  0.95373133245E+02  0.90625285518E+02 0.  0.
         13    1    3    3    0    0 -0.39529149623E+02  0.29323128667E+02  0.25742516090E+02  0.55543567075E+02  0.10566000000E+00 0.  1.
         22    1    1    0    0    0  0.66127243018E+01 -0.28780483432E+02 -0.33238261753E+01  0.29716866755E+02  0.00000000000E+00 0.  1.
</event>
<event>
 5    1  0.1259474E-009  0.9118800E+02  0.7815553E-02  0.1125453E+00
         25   -1    0    0    0    0  0.00000000000E+00  0.00000000000E+00  0.99999998245E-14  0.12509000000E+03  0.12509000000E+03 0.  0.
        -13    1    3    3    0    0  0.14773275582E+02 -0.76338977303E+01 -0.44841180832E+02  0.47825398361E+02  0.10566000000E+00 0. -1.
         23    2    1    0    0    0  0.11382559505E+02  0.23166197889E+02 -0.41886043737E+01  0.98940816607E+02  0.95422771909E+02 0.  0.
         13    1    3    3    0    0 -0.33907160764E+01  0.30800095619E+02  0.40652576458E+02  0.51115418246E+02  0.10566000000E+00 0.  1.
         22    1    1    0    0    0 -0.11382559505E+02 -0.23166197889E+02  0.41886043737E+01  0.26149183393E+02  0.00000000000E+00 0.  1.
</event>
<event>
 5    1  0.1259474E-009  0.9118800E+02  0.7815553E-02  0.1125453E+00
         25   -1    0    0    0    0  0.00000000000E+00  0.00000000000E+00  0.99999998245E-14  0.12509000000E+03  0.12509000000E+03 0.  0.
        -13    1    3    3    0    0 -0.19409447204E+02 -0.16034515788E+02  0.32761388006E+02  0.41317696517E+02  0.10566000000E+00 0.  1.
         23    2    1    0    0    0 -0.19978833029E+02  0.21259056173E+02 -0.62115231761E+01  0.95262424525E+02  0.90472345319E+02 0.  0.
         13    1    3    3    0    0 -0.56938582540E+00  0.37293571961E+02 -0.38972911182E+02  0.53944728008E+02  0.10566000000E+00 0. -1.
         22    1    1    0    0    0  0.19978833029E+02 -0.21259056173E+02  0.62115231761E+01  0.29827575475E+02  0.00000000000E+00 0. -1.
</event>
<event>
 5    1  0.1259474E-009  0.9118800E+02  0.7815553E-02  0.1125453E+00
         25   -1    0    0    0    0  0.00000000000E+00  0.00000000000E+00  0.99999998245E-14  0.12509000000E+03  0.12509000000E+03 0.  0.
        -13    1    3    3    0    0  0.14075742055E+02  0.17028519814E+01 -0.40675759039E+02  0.43076150672E+02  0.10566000000E+00 0.  1.
         23    2    1    0    0    0 -0.28106255060E+02 -0.10705543614E+01 -0.10276220128E+02  0.95144910916E+02  0.90309721033E+02 0.  0.
         13    1    3    3    0    0 -0.42181997114E+02 -0.27734063427E+01  0.30399538911E+02  0.52068760244E+02  0.10566000000E+00 0. -1.
         22    1    1    0    0    0  0.28106255060E+02  0.10705543614E+01  0.10276220128E+02  0.29945089084E+02  0.00000000000E+00 0. -1.
</event>
<event>
 5    1  0.1259474E-009  0.9118800E+02  0.7815553E-02  0.1125453E+00
         25   -1    0    0    0    0  0.00000000000E+00  0.00000000000E+00  0.99999998245E-14  0.12509000000E+03  0.12509000000E+03 0.  0.
        -13    1    3    3    0    0  0.92777049127E+01  0.19228045307E+02 -0.53848580015E+02  0.57926455687E+02  0.10566000000E+00 0. -1.
         23    2    1    0    0    0 -0.12741982871E+02  0.96111018131E+01 -0.24392844748E+02  0.95939660715E+02  0.91403917956E+02 0.  0.
         13    1    3    3    0    0 -0.22019687784E+02 -0.96169434943E+01  0.29455735268E+02  0.38013205027E+02  0.10566000000E+00 0.  1.
         22    1    1    0    0    0  0.12741982871E+02 -0.96111018131E+01  0.24392844748E+02  0.29150339285E+02  0.00000000000E+00 0. -1.
</event>
<event>
 5    1  0.1259474E-009  0.9118800E+02  0.7815553E-02  0.1125453E+00
         25   -1    0    0    0    0  0.00000000000E+00  0.00000000000E+00  0.99999998245E-14  0.12509000000E+03  0.12509000000E+03 0.  0.
        -13    1    3    3    0    0  0.46780490282E+02 -0.18441717088E+02  0.18725062661E+02  0.53657714598E+02  0.10566000000E+00 0.  1.
         23    2    1    0    0    0  0.17768979593E+02  0.11807673098E+02  0.20355733099E+02  0.95602483153E+02  0.90941305991E+02 0.  0.
         13    1    3    3    0    0 -0.29011510688E+02  0.30249390187E+02  0.16306704382E+01  0.41944768556E+02  0.10566000000E+00 0. -1.
         22    1    1    0    0    0 -0.17768979593E+02 -0.11807673098E+02 -0.20355733099E+02  0.29487516847E+02  0.00000000000E+00 0.  1.
</event>
<event>
 5    1  0.1259474E-009  0.9118800E+02  0.7815553E-02  0.1125453E+00
         25   -1    0    0    0    0  0.00000000000E+00  0.00000000000E+00  0.99999998245E-14  0.12509000000E+03  0.12509000000E+03 0.  0.
        -13    1    3    3    0    0 -0.12338923439E+02 -0.25290575779E+02 -0.94711128173E+01  0.29691335384E+02  0.10566000000E+00 0. -1.
         23    2    1    0    0    0  0.19815483096E+02 -0.27974227801E+02  0.29201827658E+02  0.80057150546E+02  0.66190556906E+02 0.  0.
         13    1    3    3    0    0  0.32154406536E+02 -0.26836520221E+01  0.38672940475E+02  0.50365815161E+02  0.10566000000E+00 0.  1.
         22    1    1    0    0    0 -0.19815483096E+02  0.27974227801E+02 -0.29201827658E+02  0.45032849454E+02  0.00000000000E+00 0.  1.
</event>
<event>
 5    1  0.1259474E-009  0.9118800E+02  0.7815553E-02  0.1125453E+00
         25   -1    0    0    0    0  0.00000000000E+00  0.00000000000E+00  0.99999998245E-14  0.12509000000E+03  0.12509000000E+03 0.  0.
        -13    1    3    3    0    0 -0.95069492571E+01  0.75666664252E+01  0.26586248734E+02  0.29231426766E+02  0.10566000000E+00 0.  1.
         23    2    1    0    0    0 -0.24561931592E+02 -0.27706320984E+02 -0.14399650125E+02  0.85362444957E+02  0.75554406750E+02 0.  0.
         13    1    3    3    0    0 -0.15054982335E+02 -0.35272987409E+02 -0.40985898859E+02  0.56131018191E+02  0.10566000000E+00 0. -1.
         22    1    1    0    0    0  0.24561931592E+02  0.27706320984E+02  0.14399650125E+02  0.39727555043E+02  0.00000000000E+00 0. -1.
</event>
<event>
 5    1  0.1259474E-009  0.9118800E+02  0.7815553E-02  0.1125453E+00
         25   -1    0    0    0    0  0.00000000000E+00  0.00000000000E+00  0.99999998245E-14  0.12509000000E+03  0.12509000000E+03 0.  0.
        -13    1    3    3    0    0 -0.10108068856E+02 -0.13368193527E+02  0.30779448486E+02  0.35046644166E+02  0.10566000000E+00 0.  1.
         23    2    1    0    0    0 -0.93783348399E+01 -0.82681814677E+01 -0.28195772316E+02  0.94246563654E+02  0.89056707748E+02 0.  0.
         13    1    3    3    0    0  0.72973401613E+00  0.51000120596E+01 -0.58975220802E+02  0.59199919488E+02  0.10566000000E+00 0. -1.
         22    1    1    0    0    0  0.93783348399E+01  0.82681814677E+01  0.28195772316E+02  0.30843436346E+02  0.00000000000E+00 0. -1.
</event>
<event>
 5    1  0.1259474E-009  0.9118800E+02  0.7815553E-02  0.1125453E+00
         25   -1    0    0    0    0  0.00000000000E+00  0.00000000000E+00  0.99999998245E-14  0.12509000000E+03  0.12509000000E+03 0.  0.
        -13    1    3    3    0    0  0.32333350869E+02  0.87919926881E+01  0.92576691909E+01  0.34762915826E+02  0.10566000000E+00 0.  1.
         23    2    1    0    0    0 -0.20474752304E+02 -0.41041766493E+01 -0.19723475413E+02  0.96365877207E+02  0.91985363290E+02 0.  0.
         13    1    3    3    0    0 -0.52808103172E+02 -0.12896169337E+02 -0.28981144604E+02  0.61602961381E+02  0.10566000000E+00 0. -1.
         22    1    1    0    0    0  0.20474752304E+02  0.41041766493E+01  0.19723475413E+02  0.28724122793E+02  0.00000000000E+00 0. -1.
</event>
<event>
 5    1  0.1259474E-009  0.9118800E+02  0.7815553E-02  0.1125453E+00
         25   -1    0    0    0    0  0.00000000000E+00  0.00000000000E+00  0.99999998245E-14  0.12509000000E+03  0.12509000000E+03 0.  0.
        -13    1    3    3    0    0  0.19303920357E+02  0.53137633517E+01  0.55284584938E+02  0.58798587720E+02  0.10566000000E+00 0. -1.
         23    2    1    0    0    0  0.13893366870E+01  0.15773793946E+02  0.24183702009E+02  0.96183352412E+02  0.91736813802E+02 0.  0.
         13    1    3    3    0    0 -0.17914583670E+02  0.10460030595E+02 -0.31100882929E+02  0.37384764692E+02  0.10566000000E+00 0.  1.
         22    1    1    0    0    0 -0.13893366870E+01 -0.15773793946E+02 -0.24183702009E+02  0.28906647588E+02  0.00000000000E+00 0. -1.
</event>
<event>
 5    1  0.1259474E-009  0.9118800E+02  0.7815553E-02  0.1125453E+00
         25   -1    0    0    0    0  0.00000000000E+00  0.00000000000E+00  0.99999998245E-14  0.12509000000E+03  0.12509000000E+03 0.  0.
        -13    1    3    3    0    0  0.16941124024E+02  0.47898913240E+02 -0.33508765095E+02  0.60861778441E+02  0.10566000000E+00 0.  1.
         23    2    1    0    0    0  0.14420271667E+02  0.23197981723E+02 -0.76209372816E+01  0.96732121447E+02  0.92482074175E+02 0.  0.
         13    1    3    3    0    0 -0.25208523573E+01 -0.24700931517E+02  0.25887827814E+02  0.35870343006E+02  0.10566000000E+00 0. -1.
         22    1    1    0    0    0 -0.14420271667E+02 -0.23197981723E+02  0.76209372816E+01  0.28357878553E+02  0.00000000000E+00 0.  1.
</event>
<event>
 5    1  0.1259474E-009  0.9118800E+02  0.7815553E-02  0.1125453E+00
         25   -1    0    0    0    0  0.00000000000E+00  0.00000000000E+00  0.99999998245E-14  0.12509000000E+03  0.12509000000E+03 0.  0.
        -13    1    3    3    0    0 -0.41718068500E+02 -0.42846309122E+02  0.80213649170E+01  0.60337027636E+02  0.10566000000E+00 0. -1.
         23    2    1    0    0    0 -0.29064941634E+02 -0.13424279244E+02  0.66331903294E+01  0.92394720228E+02  0.86416451019E+02 0.  0.
         13    1    3    3    0    0  0.12653126866E+02  0.29422029878E+02 -0.13881745876E+01  0.32057692592E+02  0.10566000000E+00 0.  1.
         22    1    1    0    0    0  0.29064941634E+02  0.13424279244E+02 -0.66331903294E+01  0.32695279772E+02  0.00000000000E+00 0. -1.
</event>
<event>
 5    1  0.1259474E-009  0.9118800E+02  0.7815553E-02  0.1125453E+00
         25   -1    0    0    0    0  0.00000000000E+00  0.00000000000E+00  0.99999998245E-14  0.12509000000E+03  0.12509000000E+03 0.  0.
        -13    1    3    3    0    0 -0.15917070716E+02  0.12806777712E+02  0.36051566871E+02  0.41437824912E+02  0.10566000000E+00 0.  1.
         23    2    1    0    0    0  0.28262219941E+02 -0.16350780561E+01  0.82286913230E+01  0.95608854888E+02  0.90950069906E+02 0.  0.
         13    1    3    3    0    0  0.44179290657E+02 -0.14441855768E+02 -0.27822875548E+02  0.54171029977E+02  0.10566000000E+00 0. -1.
         22    1    1    0    0    0 -0.28262219941E+02  0.16350780561E+01 -0.82286913230E+01  0.29481145112E+02  0.00000000000E+00 0. -1.
</event>
<event>
 5    1  0.1259474E-009  0.9118800E+02  0.7815553E-02  0.1125453E+00
         25   -1    0    0    0    0  0.00000000000E+00  0.00000000000E+00  0.99999998245E-14  0.12509000000E+03  0.12509000000E+03 0.  0.
        -13    1    3    3    0    0 -0.15789215513E+02  0.10246015794E+02 -0.33444000801E+02  0.38376979034E+02  0.10566000000E+00 0. -1.
         23    2    1    0    0    0 -0.82084455250E+01 -0.30896616800E+02  0.17881928605E+01  0.93071612450E+02  0.87390776989E+02 0.  0.
         13    1    3    3    0    0  0.75807699879E+01 -0.41142632593E+02  0.35232193661E+02  0.54694633416E+02  0.10566000000E+00 0.  1.
         22    1    1    0    0    0  0.82084455250E+01  0.30896616800E+02 -0.17881928605E+01  0.32018387550E+02  0.00000000000E+00 0.  1.
</event>
<event>
 5    1  0.1259474E-009  0.9118800E+02  0.7815553E-02  0.1125453E+00
         25   -1    0    0    0    0  0.00000000000E+00  0.00000000000E+00  0.99999998245E-14  0.12509000000E+03  0.12509000000E+03 0.  0.
        -13    1    3    3    0    0 -0.42533730879E+02 -0.96941083287E+01 -0.26725306605E+02  0.51160015402E+02  0.10566000000E+00 0.  1.
         23    2    1    0    0    0 -0.16928889541E+02  0.21592578349E+02 -0.45291186323E+01  0.97281014825E+02  0.93221543589E+02 0.  0.
         13    1    3    3    0    0  0.25604841338E+02  0.31286686678E+02  0.22196187973E+02  0.46120999423E+02  0.10566000000E+00 0. -1.
         22    1    1    0    0    0  0.16928889541E+02 -0.21592578349E+02  0.45291186323E+01  0.27808985175E+02  0.00000000000E+00 0. -1.
</event>
<event>
 5    1  0.1259474E-009  0.9118800E+02  0.7815553E-02  0.1125453E+00
         25   -1    0    0    0    0  0.00000000000E+00  0.00000000000E+00  0.99999998245E-14  0.12509000000E+03  0.12509000000E+03 0.  0.
        -13    1    3    3    0    0 -0.28816277341E+02 -0.20391763722E+02  0.19065633997E+02  0.40121209244E+02  0.10566000000E+00 0. -1.
         23    2    1    0    0    0  0.44995818524E+01 -0.17081649075E+02 -0.24388030711E+02  0.94976796684E+02  0.90076561294E+02 0.  0.
         13    1    3    3    0    0  0.33315859193E+02  0.33101146466E+01 -0.43453664708E+02  0.54855587440E+02  0.10566000000E+00 0.  1.
         22    1    1    0    0    0 -0.44995818524E+01  0.17081649075E+02  0.24388030711E+02  0.30113203316E+02  0.00000000000E+00 0.  1.
</event>
<event>
 5    1  0.1259474E-009  0.9118800E+02  0.7815553E-02  0.1125453E+00
         25   -1    0    0    0    0  0.00000000000E+00  0.00000000000E+00  0.99999998245E-14  0.12509000000E+03  0.12509000000E+03 0.  0.
        -13    1    3    3    0    0  0.18828612536E+02 -0.14254452551E+02 -0.20289158285E+02  0.31134661962E+02  0.10566000000E+00 0. -1.
         23    2    1    0    0    0  0.11348481902E+02  0.28728512772E+02  0.18134487711E+02  0.89271357757E+02  0.81770411419E+02 0.  0.
         13    1    3    3    0    0 -0.74801306335E+01  0.42982965323E+02  0.38423645996E+02  0.58136695795E+02  0.10566000000E+00 0.  1.
         22    1    1    0    0    0 -0.11348481902E+02 -0.28728512772E+02 -0.18134487711E+02  0.35818642243E+02  0.00000000000E+00 0.  1.
</event>
<event>
 5    1  0.1259474E-009  0.9118800E+02  0.7815553E-02  0.1125453E+00
         25   -1    0    0    0    0  0.00000000000E+00  0.00000000000E+00  0.99999998245E-14  0.12509000000E+03  0.12509000000E+03 0.  0.
        -13    1    3    3    0    0 -0.43410280622E+02 -0.17920994103E+02 -0.17803267609E+02  0.50225312293E+02  0.10566000000E+00 0.  1.
         23    2    1    0    0    0 -0.28424452431E+02  0.13596744212E+02  0.67113494074E+01  0.92874116339E+02  0.87107624958E+02 0.  0.
         13    1    3    3    0    0  0.14985828191E+02  0.31517738315E+02  0.24514617017E+02  0.42648804046E+02  0.10566000000E+00 0. -1.
         22    1    1    0    0    0  0.28424452431E+02 -0.13596744212E+02 -0.67113494074E+01  0.32215883661E+02  0.00000000000E+00 0. -1.
</event>
<event>
 5    1  0.1259474E-009  0.9118800E+02  0.7815553E-02  0.1125453E+00
         25   -1    0    0    0    0  0.00000000000E+00  0.00000000000E+00  0.99999998245E-14  0.12509000000E+03  0.12509000000E+03 0.  0.
        -13    1    3    3    0    0  0.96242279747E+00  0.13075752897E+02 -0.56051424706E+02  0.57564528549E+02  0.10566000000E+00 0.  1.
         23    2    1    0    0    0 -0.16515270589E+02  0.95004463533E+01 -0.22153505322E+02  0.95870307298E+02  0.91308955639E+02 0.  0.
         13    1    3    3    0    0 -0.17477693386E+02 -0.35753065441E+01  0.33897919384E+02  0.38305778749E+02  0.10566000000E+00 0. -1.
         22    1    1    0    0    0  0.16515270589E+02 -0.95004463533E+01  0.22153505322E+02  0.29219692702E+02  0.00000000000E+00 0.  1.
</event>
<event>
 5    1  0.1259474E-009  0.9118800E+02  0.7815553E-02  0.1125453E+00
         25   -1    0    0    0    0  0.00000000000E+00  0.00000000000E+00  0.99999998245E-14  0.12509000000E+03  0.12509000000E+03 0.  0.
        -13    1    3    3    0    0 -0.30006828259E+02 -0.21264461387E+02  0.26834744167E+01  0.36875456054E+02  0.10566000000E+00 0. -1.
         23    2    1    0    0    0  0.26695908784E+02 -0.65832717677E+01 -0.80862850587E+01  0.96429940352E+02  0.92072440922E+02 0.  0.
         13    1    3    3    0    0  0.56702737043E+02  0.14681189619E+02 -0.10769759475E+02  0.59554484298E+02  0.10566000000E+00 0.  1.
         22    1    1    0    0    0 -0.26695908784E+02  0.65832717677E+01  0.80862850587E+01  0.28660059648E+02  0.00000000000E+00 0.  1.
</event>
<event>
 5    1  0.1259474E-009  0.9118800E+02  0.7815553E-02  0.1125453E+00
         25   -1    0    0    0    0  0.00000000000E+00  0.00000000000E+00  0.99999998245E-14  0.12509000000E+03  0.12509000000E+03 0.  0.
        -13    1    3    3    0    0  0.28917082370E+02 -0.33763822054E+02  0.41632175321E+02  0.60905192870E+02  0.10566000000E+00 0.  1.
         23    2    1    0    0    0  0.89663444918E+01 -0.24234621708E+02  0.16258044377E+02  0.94560731587E+02  0.89496903457E+02 0.  0.
         13    1    3    3    0    0 -0.19950737878E+02  0.95292003465E+01 -0.25374130944E+02  0.33655538717E+02  0.10566000000E+00 0. -1.
         22    1    1    0    0    0 -0.89663444918E+01  0.24234621708E+02 -0.16258044377E+02  0.30529268413E+02  0.00000000000E+00 0.  1.
</event>
<event>
 5    1  0.1259474E-009  0.9118800E+02  0.7815553E-02  0.1125453E+00
         25   -1    0    0    0    0  0.00000000000E+00  0.00000000000E+00  0.99999998245E-14  0.12509000000E+03  0.12509000000E+03 0.  0.
        -13    1    3    3    0    0  0.24582666465E+02 -0.37129599490E+02 -0.38949659929E+02  0.59160813225E+02  0.10566000000E+00 0.  1.
         23    2    1    0    0    0 -0.17286548158E+01 -0.21937021135E+02 -0.22099668627E+02  0.93903199952E+02  0.88573102374E+02 0.  0.
         13    1    3    3    0    0 -0.26311321281E+02  0.15192578355E+02  0.16849991302E+02  0.34742386727E+02  0.10566000000E+00 0. -1.
         22    1    1    0    0    0  0.17286548158E+01  0.21937021135E+02  0.22099668627E+02  0.31186800048E+02  0.00000000000E+00 0.  1.
</event>
<event>
 5    1  0.1259474E-009  0.9118800E+02  0.7815553E-02  0.1125453E+00
         25   -1    0    0    0    0  0.00000000000E+00  0.00000000000E+00  0.99999998245E-14  0.12509000000E+03  0.12509000000E+03 0.  0.
        -13    1    3    3    0    0  0.22555944301E+02 -0.16632490881E+02 -0.30886917163E+02  0.41706392701E+02  0.10566000000E+00 0. -1.
         23    2    1    0    0    0 -0.52581751790E+01 -0.25777650406E+02  0.13992328886E+02  0.95291997813E+02  0.90513225071E+02 0.  0.
         13    1    3    3    0    0 -0.27814119480E+02 -0.91451595254E+01  0.44879246050E+02  0.53585605112E+02  0.10566000000E+00 0.  1.
         22    1    1    0    0    0  0.52581751790E+01  0.25777650406E+02 -0.13992328886E+02  0.29798002187E+02  0.00000000000E+00 0.  1.
</event>
<event>
 5    1  0.1259474E-009  0.9118800E+02  0.7815553E-02  0.1125453E+00
         25   -1    0    0    0    0  0.00000000000E+00  0.00000000000E+00  0.99999998245E-14  0.12509000000E+03  0.12509000000E+03 0.  0.
        -13    1    3    3    0    0 -0.23720457872E+02 -0.48097503542E+02 -0.22387165217E+02  0.58113907966E+02  0.10566000000E+00 0. -1.
         23    2    1    0    0    0 -0.29309613996E+01 -0.40259174898E+02 -0.18569498080E+02  0.80657827454E+02  0.67316173187E+02 0.  0.
         13    1    3    3    0    0  0.20789496472E+02  0.78383286438E+01  0.38176671371E+01  0.22543919489E+02  0.10566000000E+00 0.  1.
         22    1    1    0    0    0  0.29309613996E+01  0.40259174898E+02  0.18569498080E+02  0.44432172546E+02  0.00000000000E+00 0. -1.
</event>
<event>
 5    1  0.1259474E-009  0.9118800E+02  0.7815553E-02  0.1125453E+00
         25   -1    0    0    0    0  0.00000000000E+00  0.00000000000E+00  0.99999998245E-14  0.12509000000E+03  0.12509000000E+03 0.  0.
        -13    1    3    3    0    0  0.43660340765E+02 -0.48595194783E+01 -0.72550989027E+01  0.44525137949E+02  0.10566000000E+00 0. -1.
         23    2    1    0    0    0  0.72643762655E+01  0.29101265914E+02  0.14524442391E+01  0.95060607156E+02  0.90192874431E+02 0.  0.
         13    1    3    3    0    0 -0.36395964499E+02  0.33960785393E+02  0.87075431418E+01  0.50535469206E+02  0.10566000000E+00 0.  1.
         22    1    1    0    0    0 -0.72643762655E+01 -0.29101265914E+02 -0.14524442391E+01  0.30029392844E+02  0.00000000000E+00 0.  1.
</event>
<event>
 5    1  0.1259474E-009  0.9118800E+02  0.7815553E-02  0.1125453E+00
         25   -1    0    0    0    0  0.00000000000E+00  0.00000000000E+00  0.99999998245E-14  0.12509000000E+03  0.12509000000E+03 0.  0.
        -13    1    3    3    0    0  0.23898332241E+02  0.31517170191E+01 -0.50914068610E+02  0.56332203494E+02  0.10566000000E+00 0.  1.
         23    2    1    0    0    0  0.11012117710E+02 -0.18081732300E+02 -0.20251078551E+02  0.95792867684E+02  0.91202804437E+02 0.  0.
         13    1    3    3    0    0 -0.12886214531E+02 -0.21233449319E+02  0.30662990059E+02  0.39460664190E+02  0.10566000000E+00 0. -1.
         22    1    1    0    0    0 -0.11012117710E+02  0.18081732300E+02  0.20251078551E+02  0.29297132316E+02  0.00000000000E+00 0.  1.
</event>
<event>
 5    1  0.1259474E-009  0.9118800E+02  0.7815553E-02  0.1125453E+00
         25   -1    0    0    0    0  0.00000000000E+00  0.00000000000E+00  0.99999998245E-14  0.12509000000E+03  0.12509000000E+03 0.  0.
        -13    1    3    3    0    0  0.38351673430E+02 -0.14378852210E+02 -0.31064932704E+02  0.51406647952E+02  0.10566000000E+00 0. -1.
         23    2    1    0    0    0  0.27307750170E+02  0.99319600058E+01  0.42954873531E+01  0.95716401982E+02  0.91097866868E+02 0.  0.
         13    1    3    3    0    0 -0.11043923260E+02  0.24310812216E+02  0.35360420057E+02  0.44309754030E+02  0.10566000000E+00 0.  1.
         22    1    1    0    0    0 -0.27307750170E+02 -0.99319600058E+01 -0.42954873531E+01  0.29373598018E+02  0.00000000000E+00 0.  1.
</event>
<event>
 5    1  0.1259474E-009  0.9118800E+02  0.7815553E-02  0.1125453E+00
         25   -1    0    0    0    0  0.00000000000E+00  0.00000000000E+00  0.99999998245E-14  0.12509000000E+03  0.12509000000E+03 0.  0.
        -13    1    3    3    0    0  0.15610665544E+02 -0.69336466136E+01 -0.32460016336E+02  0.36680133024E+02  0.10566000000E+00 0.  1.
         23    2    1    0    0    0  0.34022639694E+01 -0.66792315343E+01  0.26839227794E+02  0.97223681933E+02  0.93144579263E+02 0.  0.
         13    1    3    3    0    0 -0.12208401575E+02  0.25441507928E+00  0.59299244130E+02  0.60543548909E+02  0.10566000000E+00 0. -1.
         22    1    1    0    0    0 -0.34022639694E+01  0.66792315343E+01 -0.26839227794E+02  0.27866318067E+02  0.00000000000E+00 0. -1.
</event>
<event>
 5    1  0.1259474E-009  0.9118800E+02  0.7815553E-02  0.1125453E+00
         25   -1    0    0    0    0  0.00000000000E+00  0.00000000000E+00  0.99999998245E-14  0.12509000000E+03  0.12509000000E+03 0.  0.
        -13    1    3    3    0    0 -0.19313252210E+02 -0.26592234391E+02 -0.19759349447E+02  0.38348294557E+02  0.10566000000E+00 0. -1.
         23    2    1    0    0    0  0.75523825935E+01 -0.86145313960E+01  0.27324511549E+02  0.95461001276E+02  0.90746488633E+02 0.  0.
         13    1    3    3    0    0  0.26865634803E+02  0.17977702995E+02  0.47083860996E+02  0.57112706719E+02  0.10566000000E+00 0.  1.
         22    1    1    0    0    0 -0.75523825935E+01  0.86145313960E+01 -0.27324511549E+02  0.29628998724E+02  0.00000000000E+00 0.  1.
</event>
<event>
 5    1  0.1259474E-009  0.9118800E+02  0.7815553E-02  0.1125453E+00
         25   -1    0    0    0    0  0.00000000000E+00  0.00000000000E+00  0.99999998245E-14  0.12509000000E+03  0.12509000000E+03 0.  0.
        -13    1    3    3    0    0  0.19611388422E+02  0.26734818238E+02  0.14437771403E+02  0.36163759057E+02  0.10566000000E+00 0. -1.
         23    2    1    0    0    0 -0.86484372707E+01 -0.25654134779E+02  0.11246341425E+02  0.95774299532E+02  0.91177333570E+02 0.  0.
         13    1    3    3    0    0 -0.28259825692E+02 -0.52388953017E+02 -0.31914299771E+01  0.59610540475E+02  0.10566000000E+00 0.  1.
         22    1    1    0    0    0  0.86484372707E+01  0.25654134779E+02 -0.11246341425E+02  0.29315700468E+02  0.00000000000E+00 0.  1.
</event>
<event>
 5    1  0.1259474E-009  0.9118800E+02  0.7815553E-02  0.1125453E+00
         25   -1    0    0    0    0  0.00000000000E+00  0.00000000000E+00  0.99999998245E-14  0.12509000000E+03  0.12509000000E+03 0.  0.
        -13    1    3    3    0    0  0.47752694957E+02  0.22184635498E+02 -0.11408175031E+02  0.53876112976E+02  0.10566000000E+00 0.  1.
         23    2    1    0    0    0  0.13218604111E+02  0.38005149685E+01 -0.26036179143E+02  0.95644150835E+02  0.90998601945E+02 0.  0.
         13    1    3    3    0    0 -0.34534090846E+02 -0.18384120530E+02 -0.14628004113E+02  0.41768037859E+02  0.10566000000E+00 0. -1.
         22    1    1    0    0    0 -0.13218604111E+02 -0.38005149685E+01  0.26036179143E+02  0.29445849165E+02  0.00000000000E+00 0.  1.
</event>
<event>
 5    1  0.1259474E-009  0.9118800E+02  0.7815553E-02  0.1125453E+00
         25   -1    0    0    0    0  0.00000000000E+00  0.00000000000E+00  0.99999998245E-14  0.12509000000E+03  0.12509000000E+03 0.  0.
        -13    1    3    3    0    0 -0.25981926592E+02  0.85600344337E+01  0.53761990338E+02  0.60321616922E+02  0.10566000000E+00 0. -1.
         23    2    1    0    0    0 -0.12936379804E+02  0.15250200504E+02  0.21678495558E+02  0.95596344623E+02  0.90932862035E+02 0.  0.
         13    1    3    3    0    0  0.13045546789E+02  0.66901660706E+01 -0.32083494780E+02  0.35274727702E+02  0.10566000000E+00 0.  1.
         22    1    1    0    0    0  0.12936379804E+02 -0.15250200504E+02 -0.21678495558E+02  0.29493655377E+02  0.00000000000E+00 0. -1.
</event>
<event>
 5    1  0.1259474E-009  0.9118800E+02  0.7815553E-02  0.1125453E+00
         25   -1    0    0    0    0  0.00000000000E+00  0.00000000000E+00  0.99999998245E-14  0.12509000000E+03  0.12509000000E+03 0.  0.
        -13    1    3    3    0    0  0.43957468355E+01 -0.51830167196E+02 -0.65192198105E+00  0.52020428565E+02  0.10566000000E+00 0.  1.
         23    2    1    0    0    0 -0.21405640897E+02 -0.17168549443E+02  0.88397586240E+01  0.96261162272E+02  0.91842852075E+02 0.  0.
         13    1    3    3    0    0 -0.25801387733E+02  0.34661617753E+02  0.94916806051E+01  0.44240733707E+02  0.10566000000E+00 0. -1.
         22    1    1    0    0    0  0.21405640897E+02  0.17168549443E+02 -0.88397586240E+01  0.28828837728E+02  0.00000000000E+00 0. -1.
</event>
<event>
 5    1  0.1259474E-009  0.9118800E+02  0.7815553E-02  0.1125453E+00
         25   -1    0    0    0    0  0.00000000000E+00  0.00000000000E+00  0.99999998245E-14  0.12509000000E+03  0.12509000000E+03 0.  0.
        -13    1    3    3    0    0  0.35036308554E+02 -0.32232328317E+02  0.29060382018E+02  0.55776185536E+02  0.10566000000E+00 0.  1.
         23    2    1    0    0    0  0.17203144987E+02  0.30901761722E+01  0.23603192088E+02  0.95719809960E+02  0.91102546374E+02 0.  0.
         13    1    3    3    0    0 -0.17833163568E+02  0.35322504489E+02 -0.54571899295E+01  0.39943624425E+02  0.10566000000E+00 0. -1.
         22    1    1    0    0    0 -0.17203144987E+02 -0.30901761722E+01 -0.23603192088E+02  0.29370190040E+02  0.00000000000E+00 0.  1.
</event>
<event>
 5    1  0.1259474E-009  0.9118800E+02  0.7815553E-02  0.1125453E+00
         25   -1    0    0    0    0  0.00000000000E+00  0.00000000000E+00  0.99999998245E-14  0.12509000000E+03  0.12509000000E+03 0.  0.
        -13    1    3    3    0    0  0.30943226021E+02 -0.66872052600E+01 -0.29826025126E+02  0.43494883488E+02  0.10566000000E+00 0.  1.
         23    2    1    0    0    0  0.13692025834E+01 -0.13953787270E+02  0.19263935823E+02  0.10126391937E+03  0.98421030514E+02 0.  0.
         13    1    3    3    0    0 -0.29574023438E+02 -0.72665820102E+01  0.49089960949E+02  0.57769035880E+02  0.10566000000E+00 0. -1.
         22    1    1    0    0    0 -0.13692025834E+01  0.13953787270E+02 -0.19263935823E+02  0.23826080632E+02  0.00000000000E+00 0. -1.
</event>
<event>
 5    1  0.1259474E-009  0.9118800E+02  0.7815553E-02  0.1125453E+00
         25   -1    0    0    0    0  0.00000000000E+00  0.00000000000E+00  0.99999998245E-14  0.12509000000E+03  0.12509000000E+03 0.  0.
        -13    1    3    3    0    0  0.19424740060E+02 -0.53890368964E+02  0.85028646056E+00  0.57290719533E+02  0.10566000000E+00 0.  1.
         23    2    1    0    0    0  0.22231267873E+02 -0.15865420034E+02  0.91008545944E+01  0.96301697195E+02  0.91898044071E+02 0.  0.
         13    1    3    3    0    0  0.28065278131E+01  0.38024948931E+02  0.82505681338E+01  0.39010977662E+02  0.10566000000E+00 0. -1.
         22    1    1    0    0    0 -0.22231267873E+02  0.15865420034E+02 -0.91008545944E+01  0.28788302805E+02  0.00000000000E+00 0.  1.
</event>
<event>
 5    1  0.1259474E-009  0.9118800E+02  0.7815553E-02  0.1125453E+00
         25   -1    0    0    0    0  0.00000000000E+00  0.00000000000E+00  0.99999998245E-14  0.12509000000E+03  0.12509000000E+03 0.  0.
        -13    1    3    3    0    0 -0.24515055626E+02 -0.45837625927E+02 -0.23786156136E+02  0.57165271719E+02  0.10566000000E+00 0.  1.
         23    2    1    0    0    0 -0.25511950116E+02 -0.14374483430E+02 -0.14356919930E+01  0.95771975099E+02  0.91174144528E+02 0.  0.
         13    1    3    3    0    0 -0.99689448949E+00  0.31463142497E+02  0.22350464143E+02  0.38606703380E+02  0.10566000000E+00 0. -1.
         22    1    1    0    0    0  0.25511950116E+02  0.14374483430E+02  0.14356919930E+01  0.29318024901E+02  0.00000000000E+00 0.  1.
</event>
<event>
 5    1  0.1259474E-009  0.9118800E+02  0.7815553E-02  0.1125453E+00
         25   -1    0    0    0    0  0.00000000000E+00  0.00000000000E+00  0.99999998245E-14  0.12509000000E+03  0.12509000000E+03 0.  0.
        -13    1    3    3    0    0  0.27848970383E+02  0.27869324450E+00 -0.21178267733E+02  0.34988183856E+02  0.10566000000E+00 0.  1.
         23    2    1    0    0    0 -0.13381397347E+01 -0.45460630137E+00  0.30614211690E+02  0.94443185447E+02  0.89332457903E+02 0.  0.
         13    1    3    3    0    0 -0.29187110118E+02 -0.73329954587E+00  0.51792479423E+02  0.59455001591E+02  0.10566000000E+00 0. -1.
         22    1    1    0    0    0  0.13381397347E+01  0.45460630137E+00 -0.30614211690E+02  0.30646814553E+02  0.00000000000E+00 0. -1.
</event>
<event>
 5    1  0.1259474E-009  0.9118800E+02  0.7815553E-02  0.1125453E+00
         25   -1    0    0    0    0  0.00000000000E+00  0.00000000000E+00  0.99999998245E-14  0.12509000000E+03  0.12509000000E+03 0.  0.
        -13    1    3    3    0    0  0.19643995340E+02 -0.44592797058E+02  0.11775111053E+02  0.50130514726E+02  0.10566000000E+00 0.  1.
         23    2    1    0    0    0 -0.13210243636E+02 -0.23926073343E+02 -0.11555587358E+02  0.95416794549E+02  0.90685531152E+02 0.  0.
         13    1    3    3    0    0 -0.32854238976E+02  0.20666723715E+02 -0.23330698411E+02  0.45286279823E+02  0.10566000000E+00 0. -1.
         22    1    1    0    0    0  0.13210243636E+02  0.23926073343E+02  0.11555587358E+02  0.29673205451E+02  0.00000000000E+00 0. -1.
</event>
<event>
 5    1  0.1259474E-009  0.9118800E+02  0.7815553E-02  0.1125453E+00
         25   -1    0    0    0    0  0.00000000000E+00  0.00000000000E+00  0.99999998245E-14  0.12509000000E+03  0.12509000000E+03 0.  0.
        -13    1    3    3    0    0  0.35961950277E+02  0.35498704545E+01  0.16143256970E+02  0.39578774079E+02  0.10566000000E+00 0. -1.
         23    2    1    0    0    0 -0.95838723969E+01  0.25531559000E+02 -0.94102511311E+01  0.96241014898E+02  0.91815407242E+02 0.  0.
         13    1    3    3    0    0 -0.45545822674E+02  0.21981688546E+02 -0.25553508101E+02  0.56662240819E+02  0.10566000000E+00 0.  1.
         22    1    1    0    0    0  0.95838723969E+01 -0.25531559000E+02  0.94102511311E+01  0.28848985102E+02  0.00000000000E+00 0.  1.
</event>
<event>
 5    1  0.1259474E-009  0.9118800E+02  0.7815553E-02  0.1125453E+00
         25   -1    0    0    0    0  0.00000000000E+00  0.00000000000E+00  0.99999998245E-14  0.12509000000E+03  0.12509000000E+03 0.  0.
        -13    1    3    3    0    0  0.35440732305E+02 -0.38303624921E+02 -0.41550392554E+01  0.52349677207E+02  0.10566000000E+00 0.  1.
         23    2    1    0    0    0  0.31262575182E+02  0.22116927486E+01 -0.62432425744E+01  0.93133494094E+02  0.87479308711E+02 0.  0.
         13    1    3    3    0    0 -0.41781571222E+01  0.40515317670E+02 -0.20882033190E+01  0.40783816888E+02  0.10566000000E+00 0. -1.
         22    1    1    0    0    0 -0.31262575182E+02 -0.22116927486E+01  0.62432425744E+01  0.31956505906E+02  0.00000000000E+00 0.  1.
</event>
<event>
 5    1  0.1259474E-009  0.9118800E+02  0.7815553E-02  0.1125453E+00
         25   -1    0    0    0    0  0.00000000000E+00  0.00000000000E+00  0.99999998245E-14  0.12509000000E+03  0.12509000000E+03 0.  0.
        -13    1    3    3    0    0 -0.32439189801E+01  0.41925789393E+02  0.11404012496E+01  0.42066691166E+02  0.10566000000E+00 0.  1.
         23    2    1    0    0    0  0.24722816964E+02 -0.30254842495E+01  0.13959315118E+02  0.96537702156E+02  0.92218730340E+02 0.  0.
         13    1    3    3    0    0  0.27966735944E+02 -0.44951273643E+02  0.12818913869E+02  0.54471010990E+02  0.10566000000E+00 0. -1.
         22    1    1    0    0    0 -0.24722816964E+02  0.30254842495E+01 -0.13959315118E+02  0.28552297844E+02  0.00000000000E+00 0. -1.
</event>
<event>
 5    1  0.1259474E-009  0.9118800E+02  0.7815553E-02  0.1125453E+00
         25   -1    0    0    0    0  0.00000000000E+00  0.00000000000E+00  0.99999998245E-14  0.12509000000E+03  0.12509000000E+03 0.  0.
        -13    1    3    3    0    0  0.55715237572E+02  0.70373145026E+01  0.32178229766E+01  0.56250129261E+02  0.10566000000E+00 0.  1.
         23    2    1    0    0    0  0.21942568309E+02  0.10424121100E+02 -0.16705456480E+02  0.95607617449E+02  0.90948367953E+02 0.  0.
         13    1    3    3    0    0 -0.33772669263E+02  0.33868065973E+01 -0.19923279456E+02  0.39357488188E+02  0.10566000000E+00 0. -1.
         22    1    1    0    0    0 -0.21942568309E+02 -0.10424121100E+02  0.16705456480E+02  0.29482382551E+02  0.00000000000E+00 0.  1.
</event>
<event>
 5    1  0.1259474E-009  0.9118800E+02  0.7815553E-02  0.1125453E+00
         25   -1    0    0    0    0  0.00000000000E+00  0.00000000000E+00  0.99999998245E-14  0.12509000000E+03  0.12509000000E+03 0.  0.
        -13    1    3    3    0    0  0.24553383092E+02  0.86534962616E+01 -0.38421031863E+02  0.46410542685E+02  0.10566000000E+00 0. -1.
         23    2    1    0    0    0  0.11650912476E+02 -0.27142654991E+02 -0.99933692268E+01  0.93907714805E+02  0.88579478380E+02 0.  0.
         13    1    3    3    0    0 -0.12902470616E+02 -0.35796151252E+02  0.28427662636E+02  0.47497172121E+02  0.10566000000E+00 0.  1.
         22    1    1    0    0    0 -0.11650912476E+02  0.27142654991E+02  0.99933692268E+01  0.31182285195E+02  0.00000000000E+00 0. -1.
</event>
<event>
 5    1  0.1259474E-009  0.9118800E+02  0.7815553E-02  0.1125453E+00
         25   -1    0    0    0    0  0.00000000000E+00  0.00000000000E+00  0.99999998245E-14  0.12509000000E+03  0.12509000000E+03 0.  0.
        -13    1    3    3    0    0  0.15653408794E+02  0.31192104141E+01  0.29906364847E+02  0.33899269946E+02  0.10566000000E+00 0.  1.
         23    2    1    0    0    0 -0.23865286006E+02 -0.95346450283E+01 -0.15234430297E+02  0.95214438107E+02  0.90405973395E+02 0.  0.
         13    1    3    3    0    0 -0.39518694800E+02 -0.12653855442E+02 -0.45140795144E+02  0.61315168160E+02  0.10566000000E+00 0. -1.
         22    1    1    0    0    0  0.23865286006E+02  0.95346450283E+01  0.15234430297E+02  0.29875561893E+02  0.00000000000E+00 0. -1.
</event>
<event>
 5    1  0.1259474E-009  0.9118800E+02  0.7815553E-02  0.1125453E+00
         25   -1    0    0    0    0  0.00000000000E+00  0.00000000000E+00  0.99999998245E-14  0.12509000000E+03  0.12509000000E+03 0.  0.
        -13    1    3    3    0    0  0.15491268394E+02  0.67021912996E+01  0.36816721102E+02  0.40501615787E+02  0.10566000000E+00 0.  1.
         23    2    1    0    0    0 -0.54420788983E+01 -0.30188002062E+02  0.39475967041E+01  0.94162419898E+02  0.88938440003E+02 0.  0.
         13    1    3    3    0    0 -0.20933347292E+02 -0.36890193362E+02 -0.32869124398E+02  0.53660804111E+02  0.10566000000E+00 0. -1.
         22    1    1    0    0    0  0.54420788983E+01  0.30188002062E+02 -0.39475967041E+01  0.30927580102E+02  0.00000000000E+00 0.  1.
</event>
<event>
 5    1  0.1259474E-009  0.9118800E+02  0.7815553E-02  0.1125453E+00
         25   -1    0    0    0    0  0.00000000000E+00  0.00000000000E+00  0.99999998245E-14  0.12509000000E+03  0.12509000000E+03 0.  0.
        -13    1    3    3    0    0 -0.20080260657E+02  0.12763284868E+02 -0.34535154181E+02  0.41938125221E+02  0.10566000000E+00 0. -1.
         23    2    1    0    0    0  0.22044934412E+02  0.19390055388E+02 -0.18392408178E+01  0.95673402849E+02  0.91038803951E+02 0.  0.
         13    1    3    3    0    0  0.42125195069E+02  0.66267705199E+01  0.32695913363E+02  0.53735277628E+02  0.10566000000E+00 0.  1.
         22    1    1    0    0    0 -0.22044934412E+02 -0.19390055388E+02  0.18392408178E+01  0.29416597151E+02  0.00000000000E+00 0.  1.
</event>
<event>
 5    1  0.1259474E-009  0.9118800E+02  0.7815553E-02  0.1125453E+00
         25   -1    0    0    0    0  0.00000000000E+00  0.00000000000E+00  0.99999998245E-14  0.12509000000E+03  0.12509000000E+03 0.  0.
        -13    1    3    3    0    0 -0.42285051765E+02  0.14299348353E+02  0.37079076005E+02  0.58029010051E+02  0.10566000000E+00 0. -1.
         23    2    1    0    0    0 -0.14580918973E+02 -0.99936772574E+01  0.19224708879E+02  0.98973602571E+02  0.95465741453E+02 0.  0.
         13    1    3    3    0    0  0.27704132793E+02 -0.24293025610E+02 -0.17854367125E+02  0.40944592519E+02  0.10566000000E+00 0.  1.
         22    1    1    0    0    0  0.14580918973E+02  0.99936772574E+01 -0.19224708879E+02  0.26116397429E+02  0.00000000000E+00 0. -1.
</event>
<event>
 5    1  0.1259474E-009  0.9118800E+02  0.7815553E-02  0.1125453E+00
         25   -1    0    0    0    0  0.00000000000E+00  0.00000000000E+00  0.99999998245E-14  0.12509000000E+03  0.12509000000E+03 0.  0.
        -13    1    3    3    0    0 -0.14284683270E+02 -0.32771411775E+02 -0.44315231947E+00  0.35752274807E+02  0.10566000000E+00 0.  1.
         23    2    1    0    0    0 -0.38806895216E+01  0.27549711438E+02 -0.35489108948E+01  0.97042876796E+02  0.92901446796E+02 0.  0.
         13    1    3    3    0    0  0.10403993749E+02  0.60321123214E+02 -0.31057585753E+01  0.61290601988E+02  0.10566000000E+00 0. -1.
         22    1    1    0    0    0  0.38806895216E+01 -0.27549711438E+02  0.35489108948E+01  0.28047123204E+02  0.00000000000E+00 0. -1.
</event>
<event>
 5    1  0.1259474E-009  0.9118800E+02  0.7815553E-02  0.1125453E+00
         25   -1    0    0    0    0  0.00000000000E+00  0.00000000000E+00  0.99999998245E-14  0.12509000000E+03  0.12509000000E+03 0.  0.
        -13    1    3    3    0    0  0.50842724282E+02 -0.20170560044E+02 -0.69877018848E+01  0.55142299975E+02  0.10566000000E+00 0. -1.
         23    2    1    0    0    0  0.22951772419E+02  0.70234176446E+01 -0.17376504850E+02  0.95458004229E+02  0.90742357243E+02 0.  0.
         13    1    3    3    0    0 -0.27890951863E+02  0.27193977689E+02 -0.10388802966E+02  0.40315704253E+02  0.10566000000E+00 0.  1.
         22    1    1    0    0    0 -0.22951772419E+02 -0.70234176446E+01  0.17376504850E+02  0.29631995771E+02  0.00000000000E+00 0. -1.
</event>
<event>
 5    1  0.1259474E-009  0.9118800E+02  0.7815553E-02  0.1125453E+00
         25   -1    0    0    0    0  0.00000000000E+00  0.00000000000E+00  0.99999998245E-14  0.12509000000E+03  0.12509000000E+03 0.  0.
        -13    1    3    3    0    0  0.17476043246E+02  0.99349836907E+01  0.49155365964E+02  0.53107223196E+02  0.10566000000E+00 0. -1.
         23    2    1    0    0    0  0.26986253919E+02  0.15259313715E+01  0.69488084142E+01  0.97181716184E+02  0.93088203630E+02 0.  0.
         13    1    3    3    0    0  0.95102106735E+01 -0.84090523192E+01 -0.42206557550E+02  0.44074492989E+02  0.10566000000E+00 0.  1.
         22    1    1    0    0    0 -0.26986253919E+02 -0.15259313715E+01 -0.69488084142E+01  0.27908283816E+02  0.00000000000E+00 0. -1.
</event>
<event>
 5    1  0.1259474E-009  0.9118800E+02  0.7815553E-02  0.1125453E+00
         25   -1    0    0    0    0  0.00000000000E+00  0.00000000000E+00  0.99999998245E-14  0.12509000000E+03  0.12509000000E+03 0.  0.
        -13    1    3    3    0    0  0.36880304600E+02 -0.39461327393E+02 -0.88822892657E+01  0.54738098740E+02  0.10566000000E+00 0. -1.
         23    2    1    0    0    0  0.29835036060E+02 -0.74705491262E+00 -0.83794994406E+01  0.94091556836E+02  0.88838716724E+02 0.  0.
         13    1    3    3    0    0 -0.70452685401E+01  0.38714272480E+02  0.50278982508E+00  0.39353458096E+02  0.10566000000E+00 0.  1.
         22    1    1    0    0    0 -0.29835036060E+02  0.74705491262E+00  0.83794994406E+01  0.30998443164E+02  0.00000000000E+00 0. -1.
</event>
<event>
 5    1  0.1259474E-009  0.9118800E+02  0.7815553E-02  0.1125453E+00
         25   -1    0    0    0    0  0.00000000000E+00  0.00000000000E+00  0.99999998245E-14  0.12509000000E+03  0.12509000000E+03 0.  0.
        -13    1    3    3    0    0  0.22976380592E+02  0.57257347762E+01 -0.25898159790E+02  0.35091650693E+02  0.10566000000E+00 0. -1.
         23    2    1    0    0    0 -0.23149705004E+02  0.13688685137E+02  0.12308319867E+02  0.95513257778E+02  0.90818493331E+02 0.  0.
         13    1    3    3    0    0 -0.46126085596E+02  0.79629503610E+01  0.38206479657E+02  0.60421607084E+02  0.10566000000E+00 0.  1.
         22    1    1    0    0    0  0.23149705004E+02 -0.13688685137E+02 -0.12308319867E+02  0.29576742222E+02  0.00000000000E+00 0.  1.
</event>
<event>
 5    1  0.1259474E-009  0.9118800E+02  0.7815553E-02  0.1125453E+00
         25   -1    0    0    0    0  0.00000000000E+00  0.00000000000E+00  0.99999998245E-14  0.12509000000E+03  0.12509000000E+03 0.  0.
        -13    1    3    3    0    0 -0.28977917204E+02  0.40985096353E+02 -0.96956365017E+01  0.51122542383E+02  0.10566000000E+00 0. -1.
         23    2    1    0    0    0 -0.25070364376E+02 -0.37214230131E+01 -0.13878062803E+02  0.96194104334E+02  0.91751473679E+02 0.  0.
         13    1    3    3    0    0  0.39075528284E+01 -0.44706519366E+02 -0.41824263013E+01  0.45071561951E+02  0.10566000000E+00 0.  1.
         22    1    1    0    0    0  0.25070364376E+02  0.37214230131E+01  0.13878062803E+02  0.28895895666E+02  0.00000000000E+00 0. -1.
</event>
<event>
 5    1  0.1259474E-009  0.9118800E+02  0.7815553E-02  0.1125453E+00
         25   -1    0    0    0    0  0.00000000000E+00  0.00000000000E+00  0.99999998245E-14  0.12509000000E+03  0.12509000000E+03 0.  0.
        -13    1    3    3    0    0 -0.20006348532E+02 -0.35938422303E+02 -0.24851593955E+02  0.48056602724E+02  0.10566000000E+00 0. -1.
         23    2    1    0    0    0 -0.59334503018E+01 -0.23194583118E+02  0.18139088585E+02  0.95053005257E+02  0.90182330615E+02 0.  0.
         13    1    3    3    0    0  0.14072898230E+02  0.12743839185E+02  0.42990682540E+02  0.46996402533E+02  0.10566000000E+00 0.  1.
         22    1    1    0    0    0  0.59334503018E+01  0.23194583118E+02 -0.18139088585E+02  0.30036994743E+02  0.00000000000E+00 0. -1.
</event>
<event>
 5    1  0.1259474E-009  0.9118800E+02  0.7815553E-02  0.1125453E+00
         25   -1    0    0    0    0  0.00000000000E+00  0.00000000000E+00  0.99999998245E-14  0.12509000000E+03  0.12509000000E+03 0.  0.
        -13    1    3    3    0    0 -0.87066373516E+01 -0.22920567038E+02 -0.36532426982E+02  0.43997583030E+02  0.10566000000E+00 0.  1.
         23    2    1    0    0    0 -0.19436053717E+02  0.19384833639E+02 -0.67932410211E+01  0.96811384707E+02  0.92589222516E+02 0.  0.
         13    1    3    3    0    0 -0.10729416366E+02  0.42305400677E+02  0.29739185960E+02  0.52813801677E+02  0.10566000000E+00 0. -1.
         22    1    1    0    0    0  0.19436053717E+02 -0.19384833639E+02  0.67932410211E+01  0.28278615293E+02  0.00000000000E+00 0. -1.
</event>
<event>
 5    1  0.1259474E-009  0.9118800E+02  0.7815553E-02  0.1125453E+00
         25   -1    0    0    0    0  0.00000000000E+00  0.00000000000E+00  0.99999998245E-14  0.12509000000E+03  0.12509000000E+03 0.  0.
        -13    1    3    3    0    0 -0.55105511334E+02  0.55135844578E+01  0.21282539653E+02  0.59329374269E+02  0.10566000000E+00 0.  1.
         23    2    1    0    0    0 -0.28647282402E+02 -0.25452037880E+01 -0.30511161029E+01  0.96168482736E+02  0.91716535646E+02 0.  0.
         13    1    3    3    0    0  0.26458228932E+02 -0.80587882458E+01 -0.24333655756E+02  0.36839108468E+02  0.10566000000E+00 0. -1.
         22    1    1    0    0    0  0.28647282402E+02  0.25452037880E+01  0.30511161029E+01  0.28921517264E+02  0.00000000000E+00 0.  1.
</event>
<event>
 5    1  0.1259474E-009  0.9118800E+02  0.7815553E-02  0.1125453E+00
         25   -1    0    0    0    0  0.00000000000E+00  0.00000000000E+00  0.99999998245E-14  0.12509000000E+03  0.12509000000E+03 0.  0.
        -13    1    3    3    0    0  0.14367907872E+02  0.38276805554E+02 -0.64730396026E+01  0.41393985382E+02  0.10566000000E+00 0. -1.
         23    2    1    0    0    0  0.23076729481E+02 -0.16230640685E+02 -0.10679367290E+01  0.96856870002E+02  0.92650653733E+02 0.  0.
         13    1    3    3    0    0  0.87088216091E+01 -0.54507446239E+02  0.54051028736E+01  0.55462884621E+02  0.10566000000E+00 0.  1.
         22    1    1    0    0    0 -0.23076729481E+02  0.16230640685E+02  0.10679367290E+01  0.28233129998E+02  0.00000000000E+00 0.  1.
</event>
<event>
 5    1  0.1259474E-009  0.9118800E+02  0.7815553E-02  0.1125453E+00
         25   -1    0    0    0    0  0.00000000000E+00  0.00000000000E+00  0.99999998245E-14  0.12509000000E+03  0.12509000000E+03 0.  0.
        -13    1    3    3    0    0 -0.12850047218E+02  0.62298360644E+01 -0.32313422665E+02  0.35328501515E+02  0.10566000000E+00 0.  1.
         23    2    1    0    0    0  0.40187830425E+01  0.14111625749E+02  0.25281920959E+02  0.95858781658E+02  0.91293164559E+02 0.  0.
         13    1    3    3    0    0  0.16868830261E+02  0.78817896844E+01  0.57595343624E+02  0.60530280143E+02  0.10566000000E+00 0. -1.
         22    1    1    0    0    0 -0.40187830425E+01 -0.14111625749E+02 -0.25281920959E+02  0.29231218342E+02  0.00000000000E+00 0. -1.
</event>
<event>
 5    1  0.1259474E-009  0.9118800E+02  0.7815553E-02  0.1125453E+00
         25   -1    0    0    0    0  0.00000000000E+00  0.00000000000E+00  0.99999998245E-14  0.12509000000E+03  0.12509000000E+03 0.  0.
        -13    1    3    3    0    0 -0.23638777691E+02  0.24221696299E+02  0.95950309593E+01  0.35178944917E+02  0.10566000000E+00 0.  1.
         23    2    1    0    0    0  0.13337292985E+02 -0.77603662139E+01 -0.25447661887E+02  0.95329452904E+02  0.90564973514E+02 0.  0.
         13    1    3    3    0    0  0.36976070676E+02 -0.31982062513E+02 -0.35042692846E+02  0.60150507987E+02  0.10566000000E+00 0. -1.
         22    1    1    0    0    0 -0.13337292985E+02  0.77603662139E+01  0.25447661887E+02  0.29760547096E+02  0.00000000000E+00 0. -1.
</event>
<event>
 5    1  0.1259474E-009  0.9118800E+02  0.7815553E-02  0.1125453E+00
         25   -1    0    0    0    0  0.00000000000E+00  0.00000000000E+00  0.99999998245E-14  0.12509000000E+03  0.12509000000E+03 0.  0.
        -13    1    3    3    0    0 -0.39154022282E+02 -0.18331145494E+02  0.68426831460E+00  0.43238267115E+02  0.10566000000E+00 0.  1.
         23    2    1    0    0    0 -0.11015113502E+01  0.60323850813E+01 -0.27780481303E+02  0.96640779651E+02  0.92358443865E+02 0.  0.
         13    1    3    3    0    0  0.38052510932E+02  0.24363530575E+02 -0.28464749618E+02  0.53402512536E+02  0.10566000000E+00 0. -1.
         22    1    1    0    0    0  0.11015113502E+01 -0.60323850813E+01  0.27780481303E+02  0.28449220349E+02  0.00000000000E+00 0. -1.
</event>
<event>
 5    1  0.1259474E-009  0.9118800E+02  0.7815553E-02  0.1125453E+00
         25   -1    0    0    0    0  0.00000000000E+00  0.00000000000E+00  0.99999998245E-14  0.12509000000E+03  0.12509000000E+03 0.  0.
        -13    1    3    3    0    0 -0.40529697142E+02  0.41552062180E+01  0.38412291435E+02  0.55994976439E+02  0.10566000000E+00 0.  1.
         23    2    1    0    0    0 -0.18257429426E+02 -0.16744191574E+02  0.80994751712E+01  0.99026554741E+02  0.95535100173E+02 0.  0.
         13    1    3    3    0    0  0.22272267716E+02 -0.20899397792E+02 -0.30312816263E+02  0.43031578302E+02  0.10566000000E+00 0. -1.
         22    1    1    0    0    0  0.18257429426E+02  0.16744191574E+02 -0.80994751712E+01  0.26063445259E+02  0.00000000000E+00 0.  1.
</event>
<event>
 5    1  0.1259474E-009  0.9118800E+02  0.7815553E-02  0.1125453E+00
         25   -1    0    0    0    0  0.00000000000E+00  0.00000000000E+00  0.99999998245E-14  0.12509000000E+03  0.12509000000E+03 0.  0.
        -13    1    3    3    0    0 -0.16387221393E+01 -0.57773407295E+02  0.13248964105E+02  0.59295853267E+02  0.10566000000E+00 0.  1.
         23    2    1    0    0    0 -0.98914068919E+01 -0.18846236913E+02  0.14877318793E+02  0.99121650215E+02  0.95659533507E+02 0.  0.
         13    1    3    3    0    0 -0.82526847526E+01  0.38927170382E+02  0.16283546878E+01  0.39825796949E+02  0.10566000000E+00 0. -1.
         22    1    1    0    0    0  0.98914068919E+01  0.18846236913E+02 -0.14877318793E+02  0.25968349785E+02  0.00000000000E+00 0.  1.
</event>
<event>
 5    1  0.1259474E-009  0.9118800E+02  0.7815553E-02  0.1125453E+00
         25   -1    0    0    0    0  0.00000000000E+00  0.00000000000E+00  0.99999998245E-14  0.12509000000E+03  0.12509000000E+03 0.  0.
        -13    1    3    3    0    0 -0.46506990609E+02 -0.99648601995E+01  0.23608410406E+02  0.53099593409E+02  0.10566000000E+00 0.  1.
         23    2    1    0    0    0 -0.13081141007E+02  0.15941994432E+02  0.21285038113E+02  0.95453598667E+02  0.90736283892E+02 0.  0.
         13    1    3    3    0    0  0.33425849602E+02  0.25906854631E+02 -0.23233722934E+01  0.42354005258E+02  0.10566000000E+00 0. -1.
         22    1    1    0    0    0  0.13081141007E+02 -0.15941994432E+02 -0.21285038113E+02  0.29636401333E+02  0.00000000000E+00 0.  1.
</event>
<event>
 5    1  0.1259474E-009  0.9118800E+02  0.7815553E-02  0.1125453E+00
         25   -1    0    0    0    0  0.00000000000E+00  0.00000000000E+00  0.99999998245E-14  0.12509000000E+03  0.12509000000E+03 0.  0.
        -13    1    3    3    0    0  0.30429313512E+02 -0.60889625211E+01  0.25634471716E+02  0.40251160103E+02  0.10566000000E+00 0.  1.
         23    2    1    0    0    0  0.14150105121E+02 -0.21849696850E+01 -0.26479153340E+02  0.94987755415E+02  0.90091778480E+02 0.  0.
         13    1    3    3    0    0 -0.16279208391E+02  0.39039928362E+01 -0.52113625056E+02  0.54736595312E+02  0.10566000000E+00 0. -1.
         22    1    1    0    0    0 -0.14150105121E+02  0.21849696850E+01  0.26479153340E+02  0.30102244585E+02  0.00000000000E+00 0. -1.
</event>
<event>
 5    1  0.1259474E-009  0.9118800E+02  0.7815553E-02  0.1125453E+00
         25   -1    0    0    0    0  0.00000000000E+00  0.00000000000E+00  0.99999998245E-14  0.12509000000E+03  0.12509000000E+03 0.  0.
        -13    1    3    3    0    0 -0.39970366796E+02 -0.34388708611E+02 -0.10091094628E+02  0.53684773042E+02  0.10566000000E+00 0. -1.
         23    2    1    0    0    0 -0.52175705398E+01 -0.18606956030E+02  0.16068648211E+02  0.99957484997E+02  0.96746346166E+02 0.  0.
         13    1    3    3    0    0  0.34752796256E+02  0.15781752581E+02  0.26159742839E+02  0.46272711955E+02  0.10566000000E+00 0.  1.
         22    1    1    0    0    0  0.52175705398E+01  0.18606956030E+02 -0.16068648211E+02  0.25132515003E+02  0.00000000000E+00 0. -1.
</event>
<event>
 5    1  0.1259474E-009  0.9118800E+02  0.7815553E-02  0.1125453E+00
         25   -1    0    0    0    0  0.00000000000E+00  0.00000000000E+00  0.99999998245E-14  0.12509000000E+03  0.12509000000E+03 0.  0.
        -13    1    3    3    0    0  0.45429124316E+02  0.96851612108E+01 -0.26265195042E+02  0.53361777692E+02  0.10566000000E+00 0.  1.
         23    2    1    0    0    0  0.26335503331E+02 -0.51470209302E+01  0.95787280859E+01  0.96597850346E+02  0.92300282229E+02 0.  0.
         13    1    3    3    0    0 -0.19093620985E+02 -0.14832182141E+02  0.35843923128E+02  0.43236072655E+02  0.10566000000E+00 0. -1.
         22    1    1    0    0    0 -0.26335503331E+02  0.51470209302E+01 -0.95787280859E+01  0.28492149654E+02  0.00000000000E+00 0.  1.
</event>
<event>
 5    1  0.1259474E-009  0.9118800E+02  0.7815553E-02  0.1125453E+00
         25   -1    0    0    0    0  0.00000000000E+00  0.00000000000E+00  0.99999998245E-14  0.12509000000E+03  0.12509000000E+03 0.  0.
        -13    1    3    3    0    0  0.24643251545E+02 -0.23006449046E+02  0.39559488015E+01  0.33944767482E+02  0.10566000000E+00 0.  1.
         23    2    1    0    0    0 -0.46958767418E+01  0.28928302132E+02  0.10515903207E+02  0.93953491800E+02  0.88644100078E+02 0.  0.
         13    1    3    3    0    0 -0.29339128287E+02  0.51934751178E+02  0.65599544060E+01  0.60008724319E+02  0.10566000000E+00 0. -1.
         22    1    1    0    0    0  0.46958767418E+01 -0.28928302132E+02 -0.10515903207E+02  0.31136508200E+02  0.00000000000E+00 0. -1.
</event>
<event>
 5    1  0.1259474E-009  0.9118800E+02  0.7815553E-02  0.1125453E+00
         25   -1    0    0    0    0  0.00000000000E+00  0.00000000000E+00  0.99999998245E-14  0.12509000000E+03  0.12509000000E+03 0.  0.
        -13    1    3    3    0    0  0.32710788147E+01  0.38898230098E+02 -0.98158582559E+01  0.40250894384E+02  0.10566000000E+00 0. -1.
         23    2    1    0    0    0  0.24944753177E+02 -0.12638603344E+02 -0.71662660795E+01  0.96222537779E+02  0.91790230426E+02 0.  0.
         13    1    3    3    0    0  0.21673674362E+02 -0.51536833442E+02  0.26495921764E+01  0.55971643395E+02  0.10566000000E+00 0.  1.
         22    1    1    0    0    0 -0.24944753177E+02  0.12638603344E+02  0.71662660795E+01  0.28867462221E+02  0.00000000000E+00 0. -1.
</event>
<event>
 5    1  0.1259474E-009  0.9118800E+02  0.7815553E-02  0.1125453E+00
         25   -1    0    0    0    0  0.00000000000E+00  0.00000000000E+00  0.99999998245E-14  0.12509000000E+03  0.12509000000E+03 0.  0.
        -13    1    3    3    0    0  0.44866220432E+02 -0.17895052159E+02  0.33986284694E+01  0.48422850671E+02  0.10566000000E+00 0.  1.
         23    2    1    0    0    0  0.16761076284E+02  0.72618065494E+01 -0.23917563694E+02  0.94994861429E+02  0.90101644448E+02 0.  0.
         13    1    3    3    0    0 -0.28105144148E+02  0.25156858709E+02 -0.27316192164E+02  0.46572010758E+02  0.10566000000E+00 0. -1.
         22    1    1    0    0    0 -0.16761076284E+02 -0.72618065494E+01  0.23917563694E+02  0.30095138571E+02  0.00000000000E+00 0.  1.
</event>
<event>
 5    1  0.1259474E-009  0.9118800E+02  0.7815553E-02  0.1125453E+00
         25   -1    0    0    0    0  0.00000000000E+00  0.00000000000E+00  0.99999998245E-14  0.12509000000E+03  0.12509000000E+03 0.  0.
        -13    1    3    3    0    0  0.32491653874E+02 -0.33872548843E+02  0.22296403472E+02  0.51963428567E+02  0.10566000000E+00 0. -1.
         23    2    1    0    0    0  0.11020173379E+02  0.32139113490E+01  0.27651470758E+02  0.95150439506E+02  0.90317378481E+02 0.  0.
         13    1    3    3    0    0 -0.21471480495E+02  0.37086460192E+02  0.53550672862E+01  0.43187010940E+02  0.10566000000E+00 0.  1.
         22    1    1    0    0    0 -0.11020173379E+02 -0.32139113490E+01 -0.27651470758E+02  0.29939560494E+02  0.00000000000E+00 0. -1.
</event>
<event>
 5    1  0.1259474E-009  0.9118800E+02  0.7815553E-02  0.1125453E+00
         25   -1    0    0    0    0  0.00000000000E+00  0.00000000000E+00  0.99999998245E-14  0.12509000000E+03  0.12509000000E+03 0.  0.
        -13    1    3    3    0    0  0.63170749161E+01 -0.42052822387E+01  0.61908476386E+02  0.62371952404E+02  0.10566000000E+00 0. -1.
         23    2    1    0    0    0 -0.21513716775E+00 -0.22080702355E+01  0.30231379031E+02  0.94777327134E+02  0.89799129185E+02 0.  0.
         13    1    3    3    0    0 -0.65322120839E+01  0.19972120032E+01 -0.31677097355E+02  0.32405374730E+02  0.10566000000E+00 0.  1.
         22    1    1    0    0    0  0.21513716775E+00  0.22080702355E+01 -0.30231379031E+02  0.30312672866E+02  0.00000000000E+00 0. -1.
</event>
<event>
 5    1  0.1259474E-009  0.9118800E+02  0.7815553E-02  0.1125453E+00
         25   -1    0    0    0    0  0.00000000000E+00  0.00000000000E+00  0.99999998245E-14  0.12509000000E+03  0.12509000000E+03 0.  0.
        -13    1    3    3    0    0 -0.58680606534E+02  0.85055569828E+01 -0.47295331230E+01  0.59482247187E+02  0.10566000000E+00 0. -1.
         23    2    1    0    0    0 -0.25104940149E+02 -0.13969101972E+01 -0.14807877591E+02  0.95909824936E+02  0.91363077348E+02 0.  0.
         13    1    3    3    0    0  0.33575666385E+02 -0.99024671800E+01 -0.10078344468E+02  0.36427577749E+02  0.10566000000E+00 0.  1.
         22    1    1    0    0    0  0.25104940149E+02  0.13969101972E+01  0.14807877591E+02  0.29180175064E+02  0.00000000000E+00 0. -1.
</event>
<event>
 5    1  0.1259474E-009  0.9118800E+02  0.7815553E-02  0.1125453E+00
         25   -1    0    0    0    0  0.00000000000E+00  0.00000000000E+00  0.99999998245E-14  0.12509000000E+03  0.12509000000E+03 0.  0.
        -13    1    3    3    0    0 -0.29502319584E+02 -0.14864310543E+01  0.36487365673E+02  0.46946089889E+02  0.10566000000E+00 0.  1.
         23    2    1    0    0    0 -0.19260812304E+02  0.26318439637E+02  0.19991193218E+01  0.92415305914E+02  0.86446244184E+02 0.  0.
         13    1    3    3    0    0  0.10241507280E+02  0.27804870692E+02 -0.34488246351E+02  0.45469216025E+02  0.10566000000E+00 0. -1.
         22    1    1    0    0    0  0.19260812304E+02 -0.26318439637E+02 -0.19991193218E+01  0.32674694086E+02  0.00000000000E+00 0.  1.
</event>
<event>
 5    1  0.1259474E-009  0.9118800E+02  0.7815553E-02  0.1125453E+00
         25   -1    0    0    0    0  0.00000000000E+00  0.00000000000E+00  0.99999998245E-14  0.12509000000E+03  0.12509000000E+03 0.  0.
        -13    1    3    3    0    0  0.32437275220E+02  0.13689147039E+02  0.28567005277E+02  0.45339326471E+02  0.10566000000E+00 0. -1.
         23    2    1    0    0    0  0.27425674706E+02 -0.85147880543E+01 -0.13643820549E+02  0.93296555898E+02  0.87712167084E+02 0.  0.
         13    1    3    3    0    0 -0.50116005133E+01 -0.22203935094E+02 -0.42210825826E+02  0.47957229427E+02  0.10566000000E+00 0.  1.
         22    1    1    0    0    0 -0.27425674706E+02  0.85147880543E+01  0.13643820549E+02  0.31793444102E+02  0.00000000000E+00 0. -1.
</event>
<event>
 5    1  0.1259474E-009  0.9118800E+02  0.7815553E-02  0.1125453E+00
         25   -1    0    0    0    0  0.00000000000E+00  0.00000000000E+00  0.99999998245E-14  0.12509000000E+03  0.12509000000E+03 0.  0.
        -13    1    3    3    0    0 -0.24680903858E+02 -0.18778998398E+02  0.11506280976E+02  0.33078746379E+02  0.10566000000E+00 0. -1.
         23    2    1    0    0    0  0.26487100815E+02  0.86160732197E+01 -0.10742145124E+02  0.95237078717E+02  0.90437294593E+02 0.  0.
         13    1    3    3    0    0  0.51168004672E+02  0.27395071617E+02 -0.22248426100E+02  0.62158332338E+02  0.10566000000E+00 0.  1.
         22    1    1    0    0    0 -0.26487100815E+02 -0.86160732197E+01  0.10742145124E+02  0.29852921283E+02  0.00000000000E+00 0.  1.
</event>
<event>
 5    1  0.1259474E-009  0.9118800E+02  0.7815553E-02  0.1125453E+00
         25   -1    0    0    0    0  0.00000000000E+00  0.00000000000E+00  0.99999998245E-14  0.12509000000E+03  0.12509000000E+03 0.  0.
        -13    1    3    3    0    0  0.15365399102E+02  0.19806594606E+02  0.32495273890E+02  0.41040841471E+02  0.10566000000E+00 0. -1.
         23    2    1    0    0    0 -0.27822447339E+02  0.48267167675E+00  0.23011447027E+01  0.97168380870E+02  0.93070282185E+02 0.  0.
         13    1    3    3    0    0 -0.43187846441E+02 -0.19323922929E+02 -0.30194129187E+02  0.56127539399E+02  0.10566000000E+00 0.  1.
         22    1    1    0    0    0  0.27822447339E+02 -0.48267167675E+00 -0.23011447027E+01  0.27921619130E+02  0.00000000000E+00 0.  1.
</event>
<event>
 5    1  0.1259474E-009  0.9118800E+02  0.7815553E-02  0.1125453E+00
         25   -1    0    0    0    0  0.00000000000E+00  0.00000000000E+00  0.99999998245E-14  0.12509000000E+03  0.12509000000E+03 0.  0.
        -13    1    3    3    0    0 -0.66000013461E+01 -0.42170590204E+02 -0.17545333805E+01  0.42720115255E+02  0.10566000000E+00 0.  1.
         23    2    1    0    0    0  0.70831917893E+01 -0.89611111569E-01 -0.29368475418E+02  0.94879290235E+02  0.89941051423E+02 0.  0.
         13    1    3    3    0    0  0.13683193135E+02  0.42080979093E+02 -0.27613942038E+02  0.52159174981E+02  0.10566000000E+00 0. -1.
         22    1    1    0    0    0 -0.70831917893E+01  0.89611111569E-01  0.29368475418E+02  0.30210709765E+02  0.00000000000E+00 0. -1.
</event>
<event>
 5    1  0.1259474E-009  0.9118800E+02  0.7815553E-02  0.1125453E+00
         25   -1    0    0    0    0  0.00000000000E+00  0.00000000000E+00  0.99999998245E-14  0.12509000000E+03  0.12509000000E+03 0.  0.
        -13    1    3    3    0    0  0.98234986681E+01 -0.68289097256E+01 -0.49465608904E+02  0.50891971493E+02  0.10566000000E+00 0.  1.
         23    2    1    0    0    0  0.19333770393E+02  0.10463395901E+02 -0.11573140319E+01  0.10307598839E+03  0.10069777890E+03 0.  0.
         13    1    3    3    0    0  0.95102717246E+01  0.17292305626E+02  0.48308294872E+02  0.52184016898E+02  0.10566000000E+00 0. -1.
         22    1    1    0    0    0 -0.19333770393E+02 -0.10463395901E+02  0.11573140319E+01  0.22014011609E+02  0.00000000000E+00 0. -1.
</event>
<event>
 5    1  0.1259474E-009  0.9118800E+02  0.7815553E-02  0.1125453E+00
         25   -1    0    0    0    0  0.00000000000E+00  0.00000000000E+00  0.99999998245E-14  0.12509000000E+03  0.12509000000E+03 0.  0.
        -13    1    3    3    0    0 -0.57816747498E+01  0.32272749120E+02 -0.29989088540E+02  0.44433261125E+02  0.10566000000E+00 0.  1.
         23    2    1    0    0    0 -0.57917769085E+01  0.20797671059E+02  0.19962522627E+02  0.95686086810E+02  0.91056230419E+02 0.  0.
         13    1    3    3    0    0 -0.10102158692E-01 -0.11475078061E+02  0.49951611167E+02  0.51252825685E+02  0.10566000000E+00 0. -1.
         22    1    1    0    0    0  0.57917769085E+01 -0.20797671059E+02 -0.19962522627E+02  0.29403913190E+02  0.00000000000E+00 0.  1.
</event>
<event>
 5    1  0.1259474E-009  0.9118800E+02  0.7815553E-02  0.1125453E+00
         25   -1    0    0    0    0  0.00000000000E+00  0.00000000000E+00  0.99999998245E-14  0.12509000000E+03  0.12509000000E+03 0.  0.
        -13    1    3    3    0    0 -0.26797520908E+02  0.15803296919E+02  0.21735229244E+02  0.37951056305E+02  0.10566000000E+00 0. -1.
         23    2    1    0    0    0  0.16129384229E+01 -0.30085421032E+02  0.11235759857E+02  0.92934496139E+02  0.87194289629E+02 0.  0.
         13    1    3    3    0    0  0.28410459331E+02 -0.45888717950E+02 -0.10499469387E+02  0.54983439834E+02  0.10566000000E+00 0.  1.
         22    1    1    0    0    0 -0.16129384229E+01  0.30085421032E+02 -0.11235759857E+02  0.32155503861E+02  0.00000000000E+00 0.  1.
</event>
<event>
 5    1  0.1259474E-009  0.9118800E+02  0.7815553E-02  0.1125453E+00
         25   -1    0    0    0    0  0.00000000000E+00  0.00000000000E+00  0.99999998245E-14  0.12509000000E+03  0.12509000000E+03 0.  0.
        -13    1    3    3    0    0  0.22819672278E+02 -0.26701239958E+01 -0.93276015907E+01  0.24796820774E+02  0.10566000000E+00 0. -1.
         23    2    1    0    0    0 -0.31846377494E+02  0.20479724753E+02  0.74780279271E+01  0.86495547198E+02  0.77407673379E+02 0.  0.
         13    1    3    3    0    0 -0.54666049772E+02  0.23149848748E+02  0.16805629518E+02  0.61698726424E+02  0.10566000000E+00 0.  1.
         22    1    1    0    0    0  0.31846377494E+02 -0.20479724753E+02 -0.74780279271E+01  0.38594452802E+02  0.00000000000E+00 0.  1.
</event>
<event>
 5    1  0.1259474E-009  0.9118800E+02  0.7815553E-02  0.1125453E+00
         25   -1    0    0    0    0  0.00000000000E+00  0.00000000000E+00  0.99999998245E-14  0.12509000000E+03  0.12509000000E+03 0.  0.
        -13    1    3    3    0    0  0.66939368017E+01  0.27723641710E+02 -0.52654946600E+02  0.59882916304E+02  0.10566000000E+00 0. -1.
         23    2    1    0    0    0  0.14214412926E+02  0.62640936831E+01 -0.24601872162E+02  0.95994630637E+02  0.91479115609E+02 0.  0.
         13    1    3    3    0    0  0.75204761243E+01 -0.21459548027E+02  0.28053074437E+02  0.36111714333E+02  0.10566000000E+00 0.  1.
         22    1    1    0    0    0 -0.14214412926E+02 -0.62640936831E+01  0.24601872162E+02  0.29095369363E+02  0.00000000000E+00 0. -1.
</event>
<event>
 5    1  0.1259474E-009  0.9118800E+02  0.7815553E-02  0.1125453E+00
         25   -1    0    0    0    0  0.00000000000E+00  0.00000000000E+00  0.99999998245E-14  0.12509000000E+03  0.12509000000E+03 0.  0.
        -13    1    3    3    0    0  0.80391156888E+01 -0.26598178117E+02  0.26517542459E+02  0.38409395756E+02  0.10566000000E+00 0.  1.
         23    2    1    0    0    0  0.15369841985E+02  0.61249734572E+01 -0.22107541433E+02  0.97476765298E+02  0.93483843750E+02 0.  0.
         13    1    3    3    0    0  0.73307262958E+01  0.32723151574E+02 -0.48625083893E+02  0.59067369542E+02  0.10566000000E+00 0. -1.
         22    1    1    0    0    0 -0.15369841985E+02 -0.61249734572E+01  0.22107541433E+02  0.27613234702E+02  0.00000000000E+00 0. -1.
</event>
<event>
 5    1  0.1259474E-009  0.9118800E+02  0.7815553E-02  0.1125453E+00
         25   -1    0    0    0    0  0.00000000000E+00  0.00000000000E+00  0.99999998245E-14  0.12509000000E+03  0.12509000000E+03 0.  0.
        -13    1    3    3    0    0 -0.35679421250E+02  0.86032389092E+01 -0.18857946586E+02  0.41263423682E+02  0.10566000000E+00 0. -1.
         23    2    1    0    0    0  0.18934265193E+02  0.23827882013E+01 -0.21560798807E+02  0.96296734759E+02  0.91891289043E+02 0.  0.
         13    1    3    3    0    0  0.54613686443E+02 -0.62204507079E+01 -0.27028522208E+01  0.55033311077E+02  0.10566000000E+00 0.  1.
         22    1    1    0    0    0 -0.18934265193E+02 -0.23827882013E+01  0.21560798807E+02  0.28793265241E+02  0.00000000000E+00 0.  1.
</event>
<event>
 5    1  0.1259474E-009  0.9118800E+02  0.7815553E-02  0.1125453E+00
         25   -1    0    0    0    0  0.00000000000E+00  0.00000000000E+00  0.99999998245E-14  0.12509000000E+03  0.12509000000E+03 0.  0.
        -13    1    3    3    0    0 -0.19644462217E+02 -0.42642124139E+02  0.37407569500E+02  0.60029934756E+02  0.10566000000E+00 0.  1.
         23    2    1    0    0    0  0.16380706739E+01 -0.25755680647E+02  0.15051204987E+02  0.95213970601E+02  0.90405326529E+02 0.  0.
         13    1    3    3    0    0  0.21282532891E+02  0.16886443492E+02 -0.22356364513E+02  0.35184035845E+02  0.10566000000E+00 0. -1.
         22    1    1    0    0    0 -0.16380706739E+01  0.25755680647E+02 -0.15051204987E+02  0.29876029399E+02  0.00000000000E+00 0.  1.
</event>
<event>
 5    1  0.1259474E-009  0.9118800E+02  0.7815553E-02  0.1125453E+00
         25   -1    0    0    0    0  0.00000000000E+00  0.00000000000E+00  0.99999998245E-14  0.12509000000E+03  0.12509000000E+03 0.  0.
        -13    1    3    3    0    0  0.47408739306E+02  0.53717143022E+01 -0.78995522531E+01  0.48361740736E+02  0.10566000000E+00 0.  1.
         23    2    1    0    0    0  0.91734166151E+01  0.24382512501E+02  0.13081784633E+02  0.95938815162E+02  0.91402760775E+02 0.  0.
         13    1    3    3    0    0 -0.38235322691E+02  0.19010798199E+02  0.20981336886E+02  0.47577074427E+02  0.10566000000E+00 0. -1.
         22    1    1    0    0    0 -0.91734166151E+01 -0.24382512501E+02 -0.13081784633E+02  0.29151184838E+02  0.00000000000E+00 0.  1.
</event>
<event>
 5    1  0.1259474E-009  0.9118800E+02  0.7815553E-02  0.1125453E+00
         25   -1    0    0    0    0  0.00000000000E+00  0.00000000000E+00  0.99999998245E-14  0.12509000000E+03  0.12509000000E+03 0.  0.
        -13    1    3    3    0    0  0.13842864964E+02 -0.54077390332E+02 -0.64745728579E+01  0.56195376262E+02  0.10566000000E+00 0. -1.
         23    2    1    0    0    0 -0.88766724307E+01 -0.20837226432E+02 -0.15737538582E+02  0.97510017414E+02  0.93528327563E+02 0.  0.
         13    1    3    3    0    0 -0.22719537395E+02  0.33240163899E+02 -0.92629657236E+01  0.41314641152E+02  0.10566000000E+00 0.  1.
         22    1    1    0    0    0  0.88766724307E+01  0.20837226432E+02  0.15737538582E+02  0.27579982586E+02  0.00000000000E+00 0. -1.
</event>
<event>
 5    1  0.1259474E-009  0.9118800E+02  0.7815553E-02  0.1125453E+00
         25   -1    0    0    0    0  0.00000000000E+00  0.00000000000E+00  0.99999998245E-14  0.12509000000E+03  0.12509000000E+03 0.  0.
        -13    1    3    3    0    0 -0.38831800198E+02  0.83874432281E+01  0.49480796134E+01  0.40034392294E+02  0.10566000000E+00 0. -1.
         23    2    1    0    0    0  0.10872767092E+02  0.17758802621E+02 -0.19810220161E+02  0.96349141322E+02  0.91962601507E+02 0.  0.
         13    1    3    3    0    0  0.49704567289E+02  0.93713593928E+01 -0.24758299774E+02  0.56314749027E+02  0.10566000000E+00 0.  1.
         22    1    1    0    0    0 -0.10872767092E+02 -0.17758802621E+02  0.19810220161E+02  0.28740858678E+02  0.00000000000E+00 0.  1.
</event>
<event>
 5    1  0.1259474E-009  0.9118800E+02  0.7815553E-02  0.1125453E+00
         25   -1    0    0    0    0  0.00000000000E+00  0.00000000000E+00  0.99999998245E-14  0.12509000000E+03  0.12509000000E+03 0.  0.
        -13    1    3    3    0    0  0.36972011013E+02 -0.73118580888E+01  0.10565014467E+01  0.37703053277E+02  0.10566000000E+00 0. -1.
         23    2    1    0    0    0 -0.13533879001E+02  0.75068380599E+01  0.25125738133E+02  0.95580319974E+02  0.90910815370E+02 0.  0.
         13    1    3    3    0    0 -0.50505890014E+02  0.14818696149E+02  0.24069236686E+02  0.57877266698E+02  0.10566000000E+00 0.  1.
         22    1    1    0    0    0  0.13533879001E+02 -0.75068380599E+01 -0.25125738133E+02  0.29509680026E+02  0.00000000000E+00 0. -1.
</event>
<event>
 5    1  0.1259474E-009  0.9118800E+02  0.7815553E-02  0.1125453E+00
         25   -1    0    0    0    0  0.00000000000E+00  0.00000000000E+00  0.99999998245E-14  0.12509000000E+03  0.12509000000E+03 0.  0.
        -13    1    3    3    0    0  0.35374660941E+02 -0.27155589924E+01  0.48403812928E+02  0.60014008093E+02  0.10566000000E+00 0. -1.
         23    2    1    0    0    0  0.15534605121E+02  0.11296029668E+02  0.21422978172E+02  0.96317300504E+02  0.91919280568E+02 0.  0.
         13    1    3    3    0    0 -0.19840055820E+02  0.14011588660E+02 -0.26980834756E+02  0.36303292411E+02  0.10566000000E+00 0.  1.
         22    1    1    0    0    0 -0.15534605121E+02 -0.11296029668E+02 -0.21422978172E+02  0.28772699496E+02  0.00000000000E+00 0. -1.
</event>
<event>
 5    1  0.1259474E-009  0.9118800E+02  0.7815553E-02  0.1125453E+00
         25   -1    0    0    0    0  0.00000000000E+00  0.00000000000E+00  0.99999998245E-14  0.12509000000E+03  0.12509000000E+03 0.  0.
        -13    1    3    3    0    0  0.44474319448E+02 -0.25637647793E+01  0.35568112780E+02  0.57005611926E+02  0.10566000000E+00 0.  1.
         23    2    1    0    0    0  0.28039538371E+02 -0.85499182935E+01  0.98630281340E+00  0.95759306041E+02  0.91156761051E+02 0.  0.
         13    1    3    3    0    0 -0.16434781078E+02 -0.59861535142E+01 -0.34581809967E+02  0.38753694115E+02  0.10566000000E+00 0. -1.
         22    1    1    0    0    0 -0.28039538371E+02  0.85499182935E+01 -0.98630281340E+00  0.29330693959E+02  0.00000000000E+00 0.  1.
</event>
<event>
 5    1  0.1259474E-009  0.9118800E+02  0.7815553E-02  0.1125453E+00
         25   -1    0    0    0    0  0.00000000000E+00  0.00000000000E+00  0.99999998245E-14  0.12509000000E+03  0.12509000000E+03 0.  0.
        -13    1    3    3    0    0  0.43965186211E+01 -0.36414651761E+02  0.31237805888E+02  0.48178500595E+02  0.10566000000E+00 0. -1.
         23    2    1    0    0    0  0.14046450175E+02  0.95730831941E+01  0.23936580008E+02  0.95731755045E+02  0.91118946312E+02 0.  0.
         13    1    3    3    0    0  0.96499315541E+01  0.45987734955E+02 -0.73012258800E+01  0.47553254449E+02  0.10566000000E+00 0.  1.
         22    1    1    0    0    0 -0.14046450175E+02 -0.95730831941E+01 -0.23936580008E+02  0.29358244955E+02  0.00000000000E+00 0.  1.
</event>
<event>
 5    1  0.1259474E-009  0.9118800E+02  0.7815553E-02  0.1125453E+00
         25   -1    0    0    0    0  0.00000000000E+00  0.00000000000E+00  0.99999998245E-14  0.12509000000E+03  0.12509000000E+03 0.  0.
        -13    1    3    3    0    0 -0.12948979749E+01  0.39549651676E+02  0.66020160391E+00  0.39576492248E+02  0.10566000000E+00 0.  1.
         23    2    1    0    0    0 -0.46280199863E+01 -0.83420508806E+01 -0.28014420493E+02  0.95495809059E+02  0.90794456936E+02 0.  0.
         13    1    3    3    0    0 -0.33331220113E+01 -0.47891702557E+02 -0.28674622097E+02  0.55919316811E+02  0.10566000000E+00 0. -1.
         22    1    1    0    0    0  0.46280199863E+01  0.83420508806E+01  0.28014420493E+02  0.29594190941E+02  0.00000000000E+00 0. -1.
</event>
<event>
 5    1  0.1259474E-009  0.9118800E+02  0.7815553E-02  0.1125453E+00
         25   -1    0    0    0    0  0.00000000000E+00  0.00000000000E+00  0.99999998245E-14  0.12509000000E+03  0.12509000000E+03 0.  0.
        -13    1    3    3    0    0 -0.21719693719E+02  0.45860611113E+01  0.27153024750E+02  0.35072424622E+02  0.10566000000E+00 0. -1.
         23    2    1    0    0    0  0.60083035205E+01  0.16676777574E+02 -0.24451384830E+02  0.94889257600E+02  0.89954912964E+02 0.  0.
         13    1    3    3    0    0  0.27727997239E+02  0.12090716462E+02 -0.51604409579E+02  0.59816832978E+02  0.10566000000E+00 0.  1.
         22    1    1    0    0    0 -0.60083035205E+01 -0.16676777574E+02  0.24451384830E+02  0.30200742400E+02  0.00000000000E+00 0. -1.
</event>
<event>
 5    1  0.1259474E-009  0.9118800E+02  0.7815553E-02  0.1125453E+00
         25   -1    0    0    0    0  0.00000000000E+00  0.00000000000E+00  0.99999998245E-14  0.12509000000E+03  0.12509000000E+03 0.  0.
        -13    1    3    3    0    0  0.31440252405E+02 -0.23558502366E+02 -0.17548459050E+02  0.43028503159E+02  0.10566000000E+00 0. -1.
         23    2    1    0    0    0  0.28293240254E+02  0.30648326534E+01  0.20815338384E+02  0.89831257038E+02  0.82622489588E+02 0.  0.
         13    1    3    3    0    0 -0.31470121514E+01  0.26623335020E+02  0.38363797434E+02  0.46802753879E+02  0.10566000000E+00 0.  1.
         22    1    1    0    0    0 -0.28293240254E+02 -0.30648326534E+01 -0.20815338384E+02  0.35258742962E+02  0.00000000000E+00 0.  1.
</event>
<event>
 5    1  0.1259474E-009  0.9118800E+02  0.7815553E-02  0.1125453E+00
         25   -1    0    0    0    0  0.00000000000E+00  0.00000000000E+00  0.99999998245E-14  0.12509000000E+03  0.12509000000E+03 0.  0.
        -13    1    3    3    0    0 -0.36620412283E+02 -0.24588219126E+02 -0.38218276069E+02  0.58363369551E+02  0.10566000000E+00 0.  1.
         23    2    1    0    0    0 -0.21214717064E+02  0.40767262700E+01 -0.19957607942E+02  0.95679287123E+02  0.91046888758E+02 0.  0.
         13    1    3    3    0    0  0.15405695220E+02  0.28664945396E+02  0.18260668128E+02  0.37315917572E+02  0.10566000000E+00 0. -1.
         22    1    1    0    0    0  0.21214717064E+02 -0.40767262700E+01  0.19957607942E+02  0.29410712877E+02  0.00000000000E+00 0.  1.
</event>
