<event>
 5    1  0.1258624E-009  0.9118800E+02  0.7815553E-02  0.1125453E+00
         25   -1    0    0    0    0  0.00000000000E+00  0.00000000000E+00  0.99999998245E-14  0.12509000000E+03  0.12509000000E+03 0.  0.
        -13    1    3    3    0    0 -0.16101607584E+02 -0.25094828264E+02  0.47814957003E+02  0.56349742232E+02  0.10566000000E+00 0. -1.
         23    2    1    0    0    0 -0.21608063719E+02  0.19749748610E+01  0.19315997562E+02  0.96039755505E+02  0.91540799277E+02 0.  0.
         13    1    3    3    0    0 -0.55064561342E+01  0.27069803125E+02 -0.28498959441E+02  0.39690013273E+02  0.10566000000E+00 0.  1.
         22    1    1    0    0    0  0.21608063719E+02 -0.19749748610E+01 -0.19315997562E+02  0.29050244495E+02  0.00000000000E+00 0. -1.
</event>
<event>
 5    1  0.1258624E-009  0.9118800E+02  0.7815553E-02  0.1125453E+00
         25   -1    0    0    0    0  0.00000000000E+00  0.00000000000E+00  0.99999998245E-14  0.12509000000E+03  0.12509000000E+03 0.  0.
        -13    1    3    3    0    0 -0.94704964532E+00  0.26935969460E+02 -0.25992280617E+02  0.37444000447E+02  0.10566000000E+00 0.  1.
         23    2    1    0    0    0  0.18897389784E+02  0.49813618241E+01  0.23140536756E+02  0.94801227366E+02  0.89832415990E+02 0.  0.
         13    1    3    3    0    0  0.19844439430E+02 -0.21954607636E+02  0.49132817374E+02  0.57357226919E+02  0.10566000000E+00 0. -1.
         22    1    1    0    0    0 -0.18897389784E+02 -0.49813618241E+01 -0.23140536756E+02  0.30288772634E+02  0.00000000000E+00 0. -1.
</event>
<event>
 5    1  0.1258624E-009  0.9118800E+02  0.7815553E-02  0.1125453E+00
         25   -1    0    0    0    0  0.00000000000E+00  0.00000000000E+00  0.99999998245E-14  0.12509000000E+03  0.12509000000E+03 0.  0.
        -13    1    3    3    0    0 -0.46364202311E+01 -0.34088199930E+02  0.11622744851E+02  0.36312547817E+02  0.10566000000E+00 0. -1.
         23    2    1    0    0    0 -0.20527856901E+02  0.21305820880E+02 -0.16793891096E+01  0.95456382939E+02  0.90740122237E+02 0.  0.
         13    1    3    3    0    0 -0.15891436670E+02  0.55394020810E+02 -0.13302133961E+02  0.59143835122E+02  0.10566000000E+00 0.  1.
         22    1    1    0    0    0  0.20527856901E+02 -0.21305820880E+02  0.16793891096E+01  0.29633617061E+02  0.00000000000E+00 0.  1.
</event>
<event>
 5    1  0.1258624E-009  0.9118800E+02  0.7815553E-02  0.1125453E+00
         25   -1    0    0    0    0  0.00000000000E+00  0.00000000000E+00  0.99999998245E-14  0.12509000000E+03  0.12509000000E+03 0.  0.
        -13    1    3    3    0    0 -0.41143428323E+02 -0.33578454188E+02 -0.18739098680E+02  0.56315710626E+02  0.10566000000E+00 0. -1.
         23    2    1    0    0    0 -0.10682337900E+02 -0.25472790566E+02  0.65199736257E+01  0.96708924293E+02  0.92450692694E+02 0.  0.
         13    1    3    3    0    0  0.30461090424E+02  0.81056636223E+01  0.25259072306E+02  0.40393213667E+02  0.10566000000E+00 0.  1.
         22    1    1    0    0    0  0.10682337900E+02  0.25472790566E+02 -0.65199736257E+01  0.28381075707E+02  0.00000000000E+00 0. -1.
</event>
<event>
 5    1  0.1258624E-009  0.9118800E+02  0.7815553E-02  0.1125453E+00
         25   -1    0    0    0    0  0.00000000000E+00  0.00000000000E+00  0.99999998245E-14  0.12509000000E+03  0.12509000000E+03 0.  0.
        -13    1    3    3    0    0  0.52628196101E+02  0.95157179658E+01  0.93124743615E+01  0.54286363444E+02  0.10566000000E+00 0.  1.
         23    2    1    0    0    0  0.14147295134E+02  0.17100643270E+02 -0.12958510990E+02  0.99389786637E+02  0.96009524115E+02 0.  0.
         13    1    3    3    0    0 -0.38480900967E+02  0.75849253044E+01 -0.22270985351E+02  0.45103423192E+02  0.10566000000E+00 0. -1.
         22    1    1    0    0    0 -0.14147295134E+02 -0.17100643270E+02  0.12958510990E+02  0.25700213363E+02  0.00000000000E+00 0.  1.
</event>
<event>
 5    1  0.1258624E-009  0.9118800E+02  0.7815553E-02  0.1125453E+00
         25   -1    0    0    0    0  0.00000000000E+00  0.00000000000E+00  0.99999998245E-14  0.12509000000E+03  0.12509000000E+03 0.  0.
        -13    1    3    3    0    0  0.20565121941E+02 -0.22045828722E+01  0.52287161706E+02  0.56229377281E+02  0.10566000000E+00 0.  1.
         23    2    1    0    0    0  0.24690477302E+02 -0.60937592757E+01  0.11900880016E+02  0.97011814220E+02  0.92859612220E+02 0.  0.
         13    1    3    3    0    0  0.41253553617E+01 -0.38891764035E+01 -0.40386281690E+02  0.40782436940E+02  0.10566000000E+00 0. -1.
         22    1    1    0    0    0 -0.24690477302E+02  0.60937592757E+01 -0.11900880016E+02  0.28078185780E+02  0.00000000000E+00 0.  1.
</event>
<event>
 5    1  0.1258624E-009  0.9118800E+02  0.7815553E-02  0.1125453E+00
         25   -1    0    0    0    0  0.00000000000E+00  0.00000000000E+00  0.99999998245E-14  0.12509000000E+03  0.12509000000E+03 0.  0.
        -13    1    3    3    0    0 -0.56784265257E+01 -0.36081177537E+02 -0.16308106639E+02  0.40000767573E+02  0.10566000000E+00 0.  1.
         23    2    1    0    0    0  0.55782778812E+01  0.17211535234E+02 -0.24025848450E+02  0.95013505474E+02  0.90127524649E+02 0.  0.
         13    1    3    3    0    0  0.11256704407E+02  0.53292712771E+02 -0.77177418110E+01  0.55012737901E+02  0.10566000000E+00 0. -1.
         22    1    1    0    0    0 -0.55782778812E+01 -0.17211535234E+02  0.24025848450E+02  0.30076494526E+02  0.00000000000E+00 0. -1.
</event>
<event>
 5    1  0.1258624E-009  0.9118800E+02  0.7815553E-02  0.1125453E+00
         25   -1    0    0    0    0  0.00000000000E+00  0.00000000000E+00  0.99999998245E-14  0.12509000000E+03  0.12509000000E+03 0.  0.
        -13    1    3    3    0    0 -0.55866560995E+02 -0.14232791721E+02 -0.73950853573E+01  0.58123518897E+02  0.10566000000E+00 0. -1.
         23    2    1    0    0    0 -0.32657460186E+02 -0.78049260832E+01  0.12398495924E+02  0.89296854314E+02  0.81809406013E+02 0.  0.
         13    1    3    3    0    0  0.23209100809E+02  0.64278656374E+01  0.19793581281E+02  0.31173335417E+02  0.10566000000E+00 0.  1.
         22    1    1    0    0    0  0.32657460186E+02  0.78049260832E+01 -0.12398495924E+02  0.35793145686E+02  0.00000000000E+00 0. -1.
</event>
<event>
 5    1  0.1258624E-009  0.9118800E+02  0.7815553E-02  0.1125453E+00
         25   -1    0    0    0    0  0.00000000000E+00  0.00000000000E+00  0.99999998245E-14  0.12509000000E+03  0.12509000000E+03 0.  0.
        -13    1    3    3    0    0  0.35272907150E+01  0.15108403306E+02  0.53115471485E+02  0.55335071206E+02  0.10566000000E+00 0.  1.
         23    2    1    0    0    0 -0.17291148873E+02 -0.30440936878E+01  0.19260805012E+02  0.99027978869E+02  0.95536964854E+02 0.  0.
         13    1    3    3    0    0 -0.20818439588E+02 -0.18152496994E+02 -0.33854666473E+02  0.43692907663E+02  0.10566000000E+00 0. -1.
         22    1    1    0    0    0  0.17291148873E+02  0.30440936878E+01 -0.19260805012E+02  0.26062021131E+02  0.00000000000E+00 0.  1.
</event>
<event>
 5    1  0.1258624E-009  0.9118800E+02  0.7815553E-02  0.1125453E+00
         25   -1    0    0    0    0  0.00000000000E+00  0.00000000000E+00  0.99999998245E-14  0.12509000000E+03  0.12509000000E+03 0.  0.
        -13    1    3    3    0    0 -0.46401594660E+02  0.36315654957E+02  0.20830988923E+02  0.62497008292E+02  0.10566000000E+00 0.  1.
         23    2    1    0    0    0 -0.21300636196E+02  0.17429294548E+02  0.80105648588E+01  0.96425273242E+02  0.92066099948E+02 0.  0.
         13    1    3    3    0    0  0.25100958464E+02 -0.18886360409E+02 -0.12820424064E+02  0.33928264950E+02  0.10566000000E+00 0. -1.
         22    1    1    0    0    0  0.21300636196E+02 -0.17429294548E+02 -0.80105648588E+01  0.28664726758E+02  0.00000000000E+00 0.  1.
</event>
<event>
 5    1  0.1258624E-009  0.9118800E+02  0.7815553E-02  0.1125453E+00
         25   -1    0    0    0    0  0.00000000000E+00  0.00000000000E+00  0.99999998245E-14  0.12509000000E+03  0.12509000000E+03 0.  0.
        -13    1    3    3    0    0  0.11364563482E+02  0.31920975025E+02  0.16493740052E+02  0.37684964835E+02  0.10566000000E+00 0.  1.
         23    2    1    0    0    0  0.12416809090E+02 -0.14794078647E+02 -0.20233331461E+02  0.97118056681E+02  0.93002619966E+02 0.  0.
         13    1    3    3    0    0  0.10522456081E+01 -0.46715053672E+02 -0.36727071513E+02  0.59433091846E+02  0.10566000000E+00 0. -1.
         22    1    1    0    0    0 -0.12416809090E+02  0.14794078647E+02  0.20233331461E+02  0.27971943319E+02  0.00000000000E+00 0. -1.
</event>
<event>
 5    1  0.1258624E-009  0.9118800E+02  0.7815553E-02  0.1125453E+00
         25   -1    0    0    0    0  0.00000000000E+00  0.00000000000E+00  0.99999998245E-14  0.12509000000E+03  0.12509000000E+03 0.  0.
        -13    1    3    3    0    0  0.45233175980E+02  0.29385742587E+02 -0.88856488477E+01  0.54667430854E+02  0.10566000000E+00 0.  1.
         23    2    1    0    0    0  0.12151676753E+02  0.22812642824E+02  0.14256511694E+02  0.95571733686E+02  0.90899000179E+02 0.  0.
         13    1    3    3    0    0 -0.33081499227E+02 -0.65730997639E+01  0.23142160542E+02  0.40904302832E+02  0.10566000000E+00 0. -1.
         22    1    1    0    0    0 -0.12151676753E+02 -0.22812642824E+02 -0.14256511694E+02  0.29518266314E+02  0.00000000000E+00 0.  1.
</event>
<event>
 5    1  0.1258624E-009  0.9118800E+02  0.7815553E-02  0.1125453E+00
         25   -1    0    0    0    0  0.00000000000E+00  0.00000000000E+00  0.99999998245E-14  0.12509000000E+03  0.12509000000E+03 0.  0.
        -13    1    3    3    0    0  0.77189396757E+01 -0.14597011257E+01  0.51449170440E+02  0.52045567151E+02  0.10566000000E+00 0. -1.
         23    2    1    0    0    0 -0.10891041439E+02 -0.21231058740E+02  0.17597128361E+02  0.95441533506E+02  0.90719649209E+02 0.  0.
         13    1    3    3    0    0 -0.18609981115E+02 -0.19771357615E+02 -0.33852042078E+02  0.43395966355E+02  0.10566000000E+00 0.  1.
         22    1    1    0    0    0  0.10891041439E+02  0.21231058740E+02 -0.17597128361E+02  0.29648466494E+02  0.00000000000E+00 0. -1.
</event>
<event>
 5    1  0.1258624E-009  0.9118800E+02  0.7815553E-02  0.1125453E+00
         25   -1    0    0    0    0  0.00000000000E+00  0.00000000000E+00  0.99999998245E-14  0.12509000000E+03  0.12509000000E+03 0.  0.
        -13    1    3    3    0    0 -0.98973550366E+01 -0.53266491606E+02 -0.97505343473E+01  0.55048713417E+02  0.10566000000E+00 0.  1.
         23    2    1    0    0    0  0.16029566512E+02 -0.22119898974E+02  0.31822975389E+01  0.97587928245E+02  0.93632471870E+02 0.  0.
         13    1    3    3    0    0  0.25926921549E+02  0.31146592632E+02  0.12932831886E+02  0.42539214829E+02  0.10566000000E+00 0. -1.
         22    1    1    0    0    0 -0.16029566512E+02  0.22119898974E+02 -0.31822975389E+01  0.27502071755E+02  0.00000000000E+00 0.  1.
</event>
<event>
 5    1  0.1258624E-009  0.9118800E+02  0.7815553E-02  0.1125453E+00
         25   -1    0    0    0    0  0.00000000000E+00  0.00000000000E+00  0.99999998245E-14  0.12509000000E+03  0.12509000000E+03 0.  0.
        -13    1    3    3    0    0  0.11000412563E+02 -0.34028169128E+02  0.34312236202E+01  0.35926450288E+02  0.10566000000E+00 0. -1.
         23    2    1    0    0    0 -0.26540715723E+02  0.10786745761E+02 -0.76692150384E+01  0.95432280355E+02  0.90706889481E+02 0.  0.
         13    1    3    3    0    0 -0.37541128286E+02  0.44814914889E+02 -0.11100438659E+02  0.59505830067E+02  0.10566000000E+00 0.  1.
         22    1    1    0    0    0  0.26540715723E+02 -0.10786745761E+02  0.76692150384E+01  0.29657719645E+02  0.00000000000E+00 0.  1.
</event>
<event>
 5    1  0.1258624E-009  0.9118800E+02  0.7815553E-02  0.1125453E+00
         25   -1    0    0    0    0  0.00000000000E+00  0.00000000000E+00  0.99999998245E-14  0.12509000000E+03  0.12509000000E+03 0.  0.
        -13    1    3    3    0    0  0.24041389073E+02  0.17979283519E+02  0.15994126454E+02  0.34015676819E+02  0.10566000000E+00 0.  1.
         23    2    1    0    0    0 -0.22934990109E+02  0.98440293091E+01 -0.19470361123E+02  0.93435400862E+02  0.87909956703E+02 0.  0.
         13    1    3    3    0    0 -0.46976379182E+02 -0.81352542095E+01 -0.35464487578E+02  0.59419724042E+02  0.10566000000E+00 0. -1.
         22    1    1    0    0    0  0.22934990109E+02 -0.98440293091E+01  0.19470361123E+02  0.31654599138E+02  0.00000000000E+00 0. -1.
</event>
<event>
 5    1  0.1258624E-009  0.9118800E+02  0.7815553E-02  0.1125453E+00
         25   -1    0    0    0    0  0.00000000000E+00  0.00000000000E+00  0.99999998245E-14  0.12509000000E+03  0.12509000000E+03 0.  0.
        -13    1    3    3    0    0  0.24442581277E+02  0.57106544240E+02  0.35505795777E+01  0.62219088340E+02  0.10566000000E+00 0.  1.
         23    2    1    0    0    0  0.76840838041E+01  0.29361294438E+02  0.21723068162E+01  0.94662222035E+02  0.89638644617E+02 0.  0.
         13    1    3    3    0    0 -0.16758497473E+02 -0.27745249802E+02 -0.13782727615E+01  0.32443133695E+02  0.10566000000E+00 0. -1.
         22    1    1    0    0    0 -0.76840838041E+01 -0.29361294438E+02 -0.21723068162E+01  0.30427777965E+02  0.00000000000E+00 0.  1.
</event>
<event>
 5    1  0.1258624E-009  0.9118800E+02  0.7815553E-02  0.1125453E+00
         25   -1    0    0    0    0  0.00000000000E+00  0.00000000000E+00  0.99999998245E-14  0.12509000000E+03  0.12509000000E+03 0.  0.
        -13    1    3    3    0    0  0.44226829259E+02  0.32682716768E+02  0.18284596463E+01  0.55022966390E+02  0.10566000000E+00 0.  1.
         23    2    1    0    0    0  0.13937850689E+02  0.13125357322E+02  0.21668103566E+02  0.96175550346E+02  0.91726174484E+02 0.  0.
         13    1    3    3    0    0 -0.30288978570E+02 -0.19557359446E+02  0.19839643920E+02  0.41152583956E+02  0.10566000000E+00 0. -1.
         22    1    1    0    0    0 -0.13937850689E+02 -0.13125357322E+02 -0.21668103566E+02  0.28914449654E+02  0.00000000000E+00 0.  1.
</event>
<event>
 5    1  0.1258624E-009  0.9118800E+02  0.7815553E-02  0.1125453E+00
         25   -1    0    0    0    0  0.00000000000E+00  0.00000000000E+00  0.99999998245E-14  0.12509000000E+03  0.12509000000E+03 0.  0.
        -13    1    3    3    0    0  0.29551241785E+02 -0.34509166432E+02  0.14792706075E+02  0.47780684130E+02  0.10566000000E+00 0.  1.
         23    2    1    0    0    0  0.18347039411E+02  0.13605410814E+02  0.16008210723E+02  0.97197637800E+02  0.93109596308E+02 0.  0.
         13    1    3    3    0    0 -0.11204202374E+02  0.48114577246E+02  0.12155046487E+01  0.49416953670E+02  0.10566000000E+00 0. -1.
         22    1    1    0    0    0 -0.18347039411E+02 -0.13605410814E+02 -0.16008210723E+02  0.27892362200E+02  0.00000000000E+00 0. -1.
</event>
<event>
 5    1  0.1258624E-009  0.9118800E+02  0.7815553E-02  0.1125453E+00
         25   -1    0    0    0    0  0.00000000000E+00  0.00000000000E+00  0.99999998245E-14  0.12509000000E+03  0.12509000000E+03 0.  0.
        -13    1    3    3    0    0 -0.55028764392E+02  0.59848232729E+01  0.13266505247E+02  0.56920948215E+02  0.10566000000E+00 0. -1.
         23    2    1    0    0    0 -0.20613004560E+02  0.19828213329E+02 -0.48692066691E+00  0.96484212254E+02  0.92146145452E+02 0.  0.
         13    1    3    3    0    0  0.34415759832E+02  0.13843390056E+02 -0.13753425914E+02  0.39563264039E+02  0.10566000000E+00 0.  1.
         22    1    1    0    0    0  0.20613004560E+02 -0.19828213329E+02  0.48692066691E+00  0.28605787746E+02  0.00000000000E+00 0. -1.
</event>
<event>
 5    1  0.1258624E-009  0.9118800E+02  0.7815553E-02  0.1125453E+00
         25   -1    0    0    0    0  0.00000000000E+00  0.00000000000E+00  0.99999998245E-14  0.12509000000E+03  0.12509000000E+03 0.  0.
        -13    1    3    3    0    0 -0.14076534318E+02 -0.33353150070E+02 -0.10662671574E+02  0.37739702797E+02  0.10566000000E+00 0.  1.
         23    2    1    0    0    0 -0.17866239166E+02  0.17700567272E+02  0.15820185149E+02  0.95378203658E+02  0.90632283935E+02 0.  0.
         13    1    3    3    0    0 -0.37897048474E+01  0.51053717343E+02  0.26482856724E+02  0.57638500862E+02  0.10566000000E+00 0. -1.
         22    1    1    0    0    0  0.17866239166E+02 -0.17700567272E+02 -0.15820185149E+02  0.29711796342E+02  0.00000000000E+00 0. -1.
</event>
<event>
 5    1  0.1258624E-009  0.9118800E+02  0.7815553E-02  0.1125453E+00
         25   -1    0    0    0    0  0.00000000000E+00  0.00000000000E+00  0.99999998245E-14  0.12509000000E+03  0.12509000000E+03 0.  0.
        -13    1    3    3    0    0  0.48404571362E+02  0.13452851142E+02 -0.57426848681E+00  0.50242638076E+02  0.10566000000E+00 0. -1.
         23    2    1    0    0    0  0.53564808992E+01  0.27412255548E+02 -0.78462109082E+01  0.96078163321E+02  0.91593268310E+02 0.  0.
         13    1    3    3    0    0 -0.43048090462E+02  0.13959404406E+02 -0.72719424214E+01  0.45835525244E+02  0.10566000000E+00 0.  1.
         22    1    1    0    0    0 -0.53564808992E+01 -0.27412255548E+02  0.78462109082E+01  0.29011836679E+02  0.00000000000E+00 0. -1.
</event>
<event>
 5    1  0.1258624E-009  0.9118800E+02  0.7815553E-02  0.1125453E+00
         25   -1    0    0    0    0  0.00000000000E+00  0.00000000000E+00  0.99999998245E-14  0.12509000000E+03  0.12509000000E+03 0.  0.
        -13    1    3    3    0    0  0.19630536011E+02 -0.46179588654E+02 -0.32516140369E+02  0.59793167677E+02  0.10566000000E+00 0.  1.
         23    2    1    0    0    0 -0.23718931335E+01 -0.21016461561E+02 -0.21356996560E+02  0.95032740716E+02  0.90154217718E+02 0.  0.
         13    1    3    3    0    0 -0.22002429145E+02  0.25163127093E+02  0.11159143809E+02  0.35239573039E+02  0.10566000000E+00 0. -1.
         22    1    1    0    0    0  0.23718931335E+01  0.21016461561E+02  0.21356996560E+02  0.30057259284E+02  0.00000000000E+00 0.  1.
</event>
<event>
 5    1  0.1258624E-009  0.9118800E+02  0.7815553E-02  0.1125453E+00
         25   -1    0    0    0    0  0.00000000000E+00  0.00000000000E+00  0.99999998245E-14  0.12509000000E+03  0.12509000000E+03 0.  0.
        -13    1    3    3    0    0 -0.13668175289E+02 -0.31533447859E+02  0.44080878575E+02  0.55895548746E+02  0.10566000000E+00 0.  1.
         23    2    1    0    0    0 -0.22400621565E+02 -0.19452342688E+01  0.18808071682E+02  0.95775919028E+02  0.91179555396E+02 0.  0.
         13    1    3    3    0    0 -0.87324462762E+01  0.29588213591E+02 -0.25272806894E+02  0.39880370281E+02  0.10566000000E+00 0. -1.
         22    1    1    0    0    0  0.22400621565E+02  0.19452342688E+01 -0.18808071682E+02  0.29314080972E+02  0.00000000000E+00 0.  1.
</event>
<event>
 5    1  0.1258624E-009  0.9118800E+02  0.7815553E-02  0.1125453E+00
         25   -1    0    0    0    0  0.00000000000E+00  0.00000000000E+00  0.99999998245E-14  0.12509000000E+03  0.12509000000E+03 0.  0.
        -13    1    3    3    0    0 -0.48555942598E+02  0.16285032194E+02 -0.33120589220E+02  0.60990707730E+02  0.10566000000E+00 0. -1.
         23    2    1    0    0    0 -0.20372148214E+02 -0.15870403261E+01 -0.18860004146E+02  0.97282754969E+02  0.93223878584E+02 0.  0.
         13    1    3    3    0    0  0.28183794384E+02 -0.17872072521E+02  0.14260585074E+02  0.36292047239E+02  0.10566000000E+00 0.  1.
         22    1    1    0    0    0  0.20372148214E+02  0.15870403261E+01  0.18860004146E+02  0.27807245031E+02  0.00000000000E+00 0. -1.
</event>
<event>
 5    1  0.1258624E-009  0.9118800E+02  0.7815553E-02  0.1125453E+00
         25   -1    0    0    0    0  0.00000000000E+00  0.00000000000E+00  0.99999998245E-14  0.12509000000E+03  0.12509000000E+03 0.  0.
        -13    1    3    3    0    0  0.32785822634E+02  0.19928864406E+02  0.19908093786E+02  0.43225145049E+02  0.10566000000E+00 0. -1.
         23    2    1    0    0    0 -0.17940613451E+02  0.16878158635E+02  0.18881563067E+02  0.94053710373E+02  0.88785410745E+02 0.  0.
         13    1    3    3    0    0 -0.50726436085E+02 -0.30507057708E+01 -0.10265307186E+01  0.50828565324E+02  0.10566000000E+00 0.  1.
         22    1    1    0    0    0  0.17940613451E+02 -0.16878158635E+02 -0.18881563067E+02  0.31036289627E+02  0.00000000000E+00 0.  1.
</event>
<event>
 5    1  0.1258624E-009  0.9118800E+02  0.7815553E-02  0.1125453E+00
         25   -1    0    0    0    0  0.00000000000E+00  0.00000000000E+00  0.99999998245E-14  0.12509000000E+03  0.12509000000E+03 0.  0.
        -13    1    3    3    0    0 -0.44772676286E+02 -0.20724974419E+02 -0.19775898398E+02  0.53152746194E+02  0.10566000000E+00 0. -1.
         23    2    1    0    0    0 -0.16554093167E+02 -0.23374461771E+02  0.10461215803E+02  0.94596713858E+02  0.89547181826E+02 0.  0.
         13    1    3    3    0    0  0.28218583119E+02 -0.26494873518E+01  0.30237114200E+02  0.41443967663E+02  0.10566000000E+00 0.  1.
         22    1    1    0    0    0  0.16554093167E+02  0.23374461771E+02 -0.10461215803E+02  0.30493286142E+02  0.00000000000E+00 0.  1.
</event>
<event>
 5    1  0.1258624E-009  0.9118800E+02  0.7815553E-02  0.1125453E+00
         25   -1    0    0    0    0  0.00000000000E+00  0.00000000000E+00  0.99999998245E-14  0.12509000000E+03  0.12509000000E+03 0.  0.
        -13    1    3    3    0    0 -0.38391901152E+02 -0.12596527901E+02 -0.57161596444E+01  0.40808041295E+02  0.10566000000E+00 0.  1.
         23    2    1    0    0    0  0.22058585489E+01 -0.82757066029E+00  0.29298866026E+02  0.95696561352E+02  0.91070618857E+02 0.  0.
         13    1    3    3    0    0  0.40597759701E+02  0.11768957240E+02  0.35015025671E+02  0.54888520057E+02  0.10566000000E+00 0. -1.
         22    1    1    0    0    0 -0.22058585489E+01  0.82757066029E+00 -0.29298866026E+02  0.29393438648E+02  0.00000000000E+00 0. -1.
</event>
<event>
 5    1  0.1258624E-009  0.9118800E+02  0.7815553E-02  0.1125453E+00
         25   -1    0    0    0    0  0.00000000000E+00  0.00000000000E+00  0.99999998245E-14  0.12509000000E+03  0.12509000000E+03 0.  0.
        -13    1    3    3    0    0 -0.82001321016E+01  0.31588690991E+02 -0.50375377185E+02  0.60023140167E+02  0.10566000000E+00 0.  1.
         23    2    1    0    0    0  0.18116176784E+01  0.45099674071E+01 -0.28324787339E+02  0.96351257118E+02  0.91965479425E+02 0.  0.
         13    1    3    3    0    0  0.10011749780E+02 -0.27078723584E+02  0.22050589846E+02  0.36328116951E+02  0.10566000000E+00 0. -1.
         22    1    1    0    0    0 -0.18116176784E+01 -0.45099674071E+01  0.28324787339E+02  0.28738742882E+02  0.00000000000E+00 0.  1.
</event>
<event>
 5    1  0.1258624E-009  0.9118800E+02  0.7815553E-02  0.1125453E+00
         25   -1    0    0    0    0  0.00000000000E+00  0.00000000000E+00  0.99999998245E-14  0.12509000000E+03  0.12509000000E+03 0.  0.
        -13    1    3    3    0    0  0.49174754015E+02 -0.53767618072E+01 -0.22023637898E+02  0.54149033143E+02  0.10566000000E+00 0.  1.
         23    2    1    0    0    0  0.17493565879E+02  0.16883737854E+02 -0.21129111127E+02  0.92879368399E+02  0.87115166797E+02 0.  0.
         13    1    3    3    0    0 -0.31681188136E+02  0.22260499661E+02  0.89452677165E+00  0.38730335256E+02  0.10566000000E+00 0. -1.
         22    1    1    0    0    0 -0.17493565879E+02 -0.16883737854E+02  0.21129111127E+02  0.32210631601E+02  0.00000000000E+00 0.  1.
</event>
<event>
 5    1  0.1258624E-009  0.9118800E+02  0.7815553E-02  0.1125453E+00
         25   -1    0    0    0    0  0.00000000000E+00  0.00000000000E+00  0.99999998245E-14  0.12509000000E+03  0.12509000000E+03 0.  0.
        -13    1    3    3    0    0 -0.21674286372E+02  0.22939092102E+02 -0.35265178942E+02  0.47324630438E+02  0.10566000000E+00 0. -1.
         23    2    1    0    0    0  0.26264041979E+01  0.27255884029E+02  0.74984692401E+01  0.96699715497E+02  0.92438231934E+02 0.  0.
         13    1    3    3    0    0  0.24300690570E+02  0.43167919263E+01  0.42763648183E+02  0.49375085059E+02  0.10566000000E+00 0.  1.
         22    1    1    0    0    0 -0.26264041979E+01 -0.27255884029E+02 -0.74984692401E+01  0.28390284503E+02  0.00000000000E+00 0.  1.
</event>
<event>
 5    1  0.1258624E-009  0.9118800E+02  0.7815553E-02  0.1125453E+00
         25   -1    0    0    0    0  0.00000000000E+00  0.00000000000E+00  0.99999998245E-14  0.12509000000E+03  0.12509000000E+03 0.  0.
        -13    1    3    3    0    0 -0.33233674071E+02 -0.12904899692E+02 -0.38312312016E+00  0.35653491774E+02  0.10566000000E+00 0. -1.
         23    2    1    0    0    0  0.21565082893E+02 -0.21219382202E+01 -0.20737537554E+02  0.95096652641E+02  0.90242852668E+02 0.  0.
         13    1    3    3    0    0  0.54798756964E+02  0.10782961472E+02 -0.20354414434E+02  0.59443160867E+02  0.10566000000E+00 0.  1.
         22    1    1    0    0    0 -0.21565082893E+02  0.21219382202E+01  0.20737537554E+02  0.29993347359E+02  0.00000000000E+00 0.  1.
</event>
<event>
 5    1  0.1258624E-009  0.9118800E+02  0.7815553E-02  0.1125453E+00
         25   -1    0    0    0    0  0.00000000000E+00  0.00000000000E+00  0.99999998245E-14  0.12509000000E+03  0.12509000000E+03 0.  0.
        -13    1    3    3    0    0  0.58306617299E+01 -0.38471204574E+02 -0.40177201856E+02  0.55930751029E+02  0.10566000000E+00 0.  1.
         23    2    1    0    0    0  0.64901210619E+01 -0.27414892228E+02 -0.72535410179E+00  0.96908017709E+02  0.92719683835E+02 0.  0.
         13    1    3    3    0    0  0.65945933208E+00  0.11056312346E+02  0.39451847755E+02  0.40977266680E+02  0.10566000000E+00 0. -1.
         22    1    1    0    0    0 -0.64901210619E+01  0.27414892228E+02  0.72535410179E+00  0.28181982291E+02  0.00000000000E+00 0.  1.
</event>
<event>
 5    1  0.1258624E-009  0.9118800E+02  0.7815553E-02  0.1125453E+00
         25   -1    0    0    0    0  0.00000000000E+00  0.00000000000E+00  0.99999998245E-14  0.12509000000E+03  0.12509000000E+03 0.  0.
        -13    1    3    3    0    0 -0.24680319485E+02  0.24919630475E+02 -0.27089057917E+01  0.35177485520E+02  0.10566000000E+00 0. -1.
         23    2    1    0    0    0  0.21714112393E+02 -0.99301628336E+01 -0.18005050828E+02  0.95185273514E+02  0.90365610869E+02 0.  0.
         13    1    3    3    0    0  0.46394431878E+02 -0.34849793309E+02 -0.15296145036E+02  0.60007787994E+02  0.10566000000E+00 0.  1.
         22    1    1    0    0    0 -0.21714112393E+02  0.99301628336E+01  0.18005050828E+02  0.29904726486E+02  0.00000000000E+00 0.  1.
</event>
<event>
 5    1  0.1258624E-009  0.9118800E+02  0.7815553E-02  0.1125453E+00
         25   -1    0    0    0    0  0.00000000000E+00  0.00000000000E+00  0.99999998245E-14  0.12509000000E+03  0.12509000000E+03 0.  0.
        -13    1    3    3    0    0  0.80140155768E+01 -0.55030202926E+02 -0.21155481487E+01  0.55651005272E+02  0.10566000000E+00 0. -1.
         23    2    1    0    0    0 -0.33610916232E+01 -0.21858520252E+02 -0.20226804478E+02  0.95119757026E+02  0.90274873098E+02 0.  0.
         13    1    3    3    0    0 -0.11375107200E+02  0.33171682674E+02 -0.18111256329E+02  0.39468751755E+02  0.10566000000E+00 0.  1.
         22    1    1    0    0    0  0.33610916232E+01  0.21858520252E+02  0.20226804478E+02  0.29970242974E+02  0.00000000000E+00 0. -1.
</event>
<event>
 5    1  0.1258624E-009  0.9118800E+02  0.7815553E-02  0.1125453E+00
         25   -1    0    0    0    0  0.00000000000E+00  0.00000000000E+00  0.99999998245E-14  0.12509000000E+03  0.12509000000E+03 0.  0.
        -13    1    3    3    0    0 -0.32958382959E+01 -0.40069721201E+02  0.22881863724E+02  0.46260522681E+02  0.10566000000E+00 0. -1.
         23    2    1    0    0    0  0.20036571639E+02 -0.16063190384E+02 -0.13811719338E+02  0.95930886855E+02  0.91391909780E+02 0.  0.
         13    1    3    3    0    0  0.23332409935E+02  0.24006530817E+02 -0.36693583061E+02  0.49670364174E+02  0.10566000000E+00 0.  1.
         22    1    1    0    0    0 -0.20036571639E+02  0.16063190384E+02  0.13811719338E+02  0.29159113145E+02  0.00000000000E+00 0.  1.
</event>
<event>
 5    1  0.1258624E-009  0.9118800E+02  0.7815553E-02  0.1125453E+00
         25   -1    0    0    0    0  0.00000000000E+00  0.00000000000E+00  0.99999998245E-14  0.12509000000E+03  0.12509000000E+03 0.  0.
        -13    1    3    3    0    0 -0.29393911640E+02  0.40297390350E+02 -0.35571970643E+02  0.61263839008E+02  0.10566000000E+00 0.  1.
         23    2    1    0    0    0 -0.18878057218E+02  0.11911963093E+02 -0.19014898481E+02  0.95766932744E+02  0.91167226204E+02 0.  0.
         13    1    3    3    0    0  0.10515854422E+02 -0.28385427256E+02  0.16557072162E+02  0.34503093736E+02  0.10566000000E+00 0. -1.
         22    1    1    0    0    0  0.18878057218E+02 -0.11911963093E+02  0.19014898481E+02  0.29323067256E+02  0.00000000000E+00 0.  1.
</event>
<event>
 5    1  0.1258624E-009  0.9118800E+02  0.7815553E-02  0.1125453E+00
         25   -1    0    0    0    0  0.00000000000E+00  0.00000000000E+00  0.99999998245E-14  0.12509000000E+03  0.12509000000E+03 0.  0.
        -13    1    3    3    0    0 -0.15656679491E+02 -0.23128203679E+02  0.28287138254E+02  0.39751965646E+02  0.10566000000E+00 0.  1.
         23    2    1    0    0    0 -0.19560623680E+02 -0.16108071564E+01 -0.22610722550E+02  0.95149100336E+02  0.90315523705E+02 0.  0.
         13    1    3    3    0    0 -0.39039441895E+01  0.21517396522E+02 -0.50897860804E+02  0.55397134690E+02  0.10566000000E+00 0. -1.
         22    1    1    0    0    0  0.19560623680E+02  0.16108071564E+01  0.22610722550E+02  0.29940899664E+02  0.00000000000E+00 0. -1.
</event>
<event>
 5    1  0.1258624E-009  0.9118800E+02  0.7815553E-02  0.1125453E+00
         25   -1    0    0    0    0  0.00000000000E+00  0.00000000000E+00  0.99999998245E-14  0.12509000000E+03  0.12509000000E+03 0.  0.
        -13    1    3    3    0    0  0.13965721765E+02 -0.50163185689E+02 -0.29341980742E+02  0.59769135688E+02  0.10566000000E+00 0. -1.
         23    2    1    0    0    0  0.10793744178E+02 -0.28497007828E+02 -0.23492808461E+01  0.94526893335E+02  0.89449595161E+02 0.  0.
         13    1    3    3    0    0 -0.31719775874E+01  0.21666177861E+02  0.26992699896E+02  0.34757757647E+02  0.10566000000E+00 0.  1.
         22    1    1    0    0    0 -0.10793744178E+02  0.28497007828E+02  0.23492808461E+01  0.30563106665E+02  0.00000000000E+00 0. -1.
</event>
<event>
 5    1  0.1258624E-009  0.9118800E+02  0.7815553E-02  0.1125453E+00
         25   -1    0    0    0    0  0.00000000000E+00  0.00000000000E+00  0.99999998245E-14  0.12509000000E+03  0.12509000000E+03 0.  0.
        -13    1    3    3    0    0 -0.20688143528E+02  0.42558109021E+02 -0.22964738392E+02  0.52598310805E+02  0.10566000000E+00 0.  1.
         23    2    1    0    0    0  0.10952443744E+01  0.59108387730E+01 -0.28836565865E+02  0.95633504857E+02  0.90983966418E+02 0.  0.
         13    1    3    3    0    0  0.21783387902E+02 -0.36647270248E+02 -0.58718274722E+01  0.43035194052E+02  0.10566000000E+00 0. -1.
         22    1    1    0    0    0 -0.10952443744E+01 -0.59108387730E+01  0.28836565865E+02  0.29456495143E+02  0.00000000000E+00 0.  1.
</event>
<event>
 5    1  0.1258624E-009  0.9118800E+02  0.7815553E-02  0.1125453E+00
         25   -1    0    0    0    0  0.00000000000E+00  0.00000000000E+00  0.99999998245E-14  0.12509000000E+03  0.12509000000E+03 0.  0.
        -13    1    3    3    0    0 -0.29995343818E+02  0.10117835284E+02 -0.33216302775E+01  0.31829791600E+02  0.10566000000E+00 0. -1.
         23    2    1    0    0    0  0.23984532792E+02 -0.49221777349E+01 -0.23270910447E+02  0.91310998832E+02  0.84833233981E+02 0.  0.
         13    1    3    3    0    0  0.53979876609E+02 -0.15040013019E+02 -0.19949280170E+02  0.59481207231E+02  0.10566000000E+00 0.  1.
         22    1    1    0    0    0 -0.23984532792E+02  0.49221777349E+01  0.23270910447E+02  0.33779001168E+02  0.00000000000E+00 0.  1.
</event>
<event>
 5    1  0.1258624E-009  0.9118800E+02  0.7815553E-02  0.1125453E+00
         25   -1    0    0    0    0  0.00000000000E+00  0.00000000000E+00  0.99999998245E-14  0.12509000000E+03  0.12509000000E+03 0.  0.
        -13    1    3    3    0    0  0.45017691724E+02 -0.32310694254E+02  0.21046302926E+02  0.59275050082E+02  0.10566000000E+00 0.  1.
         23    2    1    0    0    0  0.12894850637E+02 -0.18674750609E+02  0.20996917960E+02  0.94172463761E+02  0.88952565358E+02 0.  0.
         13    1    3    3    0    0 -0.32122841087E+02  0.13635943645E+02 -0.49384966767E-01  0.34897413679E+02  0.10566000000E+00 0. -1.
         22    1    1    0    0    0 -0.12894850637E+02  0.18674750609E+02 -0.20996917960E+02  0.30917536239E+02  0.00000000000E+00 0.  1.
</event>
<event>
 5    1  0.1258624E-009  0.9118800E+02  0.7815553E-02  0.1125453E+00
         25   -1    0    0    0    0  0.00000000000E+00  0.00000000000E+00  0.99999998245E-14  0.12509000000E+03  0.12509000000E+03 0.  0.
        -13    1    3    3    0    0 -0.43887543914E+02 -0.27743430343E+02  0.28207437132E+02  0.59088790067E+02  0.10566000000E+00 0.  1.
         23    2    1    0    0    0 -0.27850231853E+02 -0.40315939609E+01  0.38264686846E+01  0.96690510097E+02  0.92425774090E+02 0.  0.
         13    1    3    3    0    0  0.16037312061E+02  0.23711836382E+02 -0.24380968447E+02  0.37601720030E+02  0.10566000000E+00 0. -1.
         22    1    1    0    0    0  0.27850231853E+02  0.40315939609E+01 -0.38264686846E+01  0.28399489903E+02  0.00000000000E+00 0.  1.
</event>
<event>
 5    1  0.1258624E-009  0.9118800E+02  0.7815553E-02  0.1125453E+00
         25   -1    0    0    0    0  0.00000000000E+00  0.00000000000E+00  0.99999998245E-14  0.12509000000E+03  0.12509000000E+03 0.  0.
        -13    1    3    3    0    0  0.40655601694E+02 -0.35180842865E+02 -0.26841126557E+02  0.60091820514E+02  0.10566000000E+00 0. -1.
         23    2    1    0    0    0  0.12359151888E+02 -0.24641781130E+02 -0.57357325356E+01  0.96932147803E+02  0.92752232519E+02 0.  0.
         13    1    3    3    0    0 -0.28296449806E+02  0.10539061736E+02  0.21105394021E+02  0.36840327289E+02  0.10566000000E+00 0.  1.
         22    1    1    0    0    0 -0.12359151888E+02  0.24641781130E+02  0.57357325356E+01  0.28157852197E+02  0.00000000000E+00 0. -1.
</event>
<event>
 5    1  0.1258624E-009  0.9118800E+02  0.7815553E-02  0.1125453E+00
         25   -1    0    0    0    0  0.00000000000E+00  0.00000000000E+00  0.99999998245E-14  0.12509000000E+03  0.12509000000E+03 0.  0.
        -13    1    3    3    0    0 -0.44984204992E+02  0.74898849483E+01  0.36892520418E+02  0.58657875022E+02  0.10566000000E+00 0.  1.
         23    2    1    0    0    0 -0.26343455975E+02  0.90455877556E+01  0.33867175433E+01  0.97031664585E+02  0.92886348544E+02 0.  0.
         13    1    3    3    0    0  0.18640749017E+02  0.15557028073E+01 -0.33505802874E+02  0.38373789563E+02  0.10566000000E+00 0. -1.
         22    1    1    0    0    0  0.26343455975E+02 -0.90455877556E+01 -0.33867175433E+01  0.28058335415E+02  0.00000000000E+00 0.  1.
</event>
<event>
 5    1  0.1258624E-009  0.9118800E+02  0.7815553E-02  0.1125453E+00
         25   -1    0    0    0    0  0.00000000000E+00  0.00000000000E+00  0.99999998245E-14  0.12509000000E+03  0.12509000000E+03 0.  0.
        -13    1    3    3    0    0 -0.14543408509E+01  0.31182044028E+02 -0.41324576575E+02  0.51789639603E+02  0.10566000000E+00 0.  1.
         23    2    1    0    0    0 -0.13479082190E+01  0.27422510643E+02  0.40651687780E+01  0.97335062714E+02  0.93294039948E+02 0.  0.
         13    1    3    3    0    0  0.10643263184E+00 -0.37595333847E+01  0.45389745353E+02  0.45545423111E+02  0.10566000000E+00 0. -1.
         22    1    1    0    0    0  0.13479082190E+01 -0.27422510643E+02 -0.40651687780E+01  0.27754937286E+02  0.00000000000E+00 0. -1.
</event>
<event>
 5    1  0.1258624E-009  0.9118800E+02  0.7815553E-02  0.1125453E+00
         25   -1    0    0    0    0  0.00000000000E+00  0.00000000000E+00  0.99999998245E-14  0.12509000000E+03  0.12509000000E+03 0.  0.
        -13    1    3    3    0    0  0.38244446477E+02  0.28849044973E+02  0.82298813865E+01  0.48607069382E+02  0.10566000000E+00 0. -1.
         23    2    1    0    0    0  0.26796391280E+02 -0.14047644083E+02  0.10503391815E+02  0.93063384045E+02  0.87378998165E+02 0.  0.
         13    1    3    3    0    0 -0.11448055197E+02 -0.42896689056E+02  0.22735104284E+01  0.44456314663E+02  0.10566000000E+00 0.  1.
         22    1    1    0    0    0 -0.26796391280E+02  0.14047644083E+02 -0.10503391815E+02  0.32026615955E+02  0.00000000000E+00 0. -1.
</event>
<event>
 5    1  0.1258624E-009  0.9118800E+02  0.7815553E-02  0.1125453E+00
         25   -1    0    0    0    0  0.00000000000E+00  0.00000000000E+00  0.99999998245E-14  0.12509000000E+03  0.12509000000E+03 0.  0.
        -13    1    3    3    0    0 -0.17597004958E+02 -0.24145342289E+02 -0.62731005556E+01  0.30528922227E+02  0.10566000000E+00 0. -1.
         23    2    1    0    0    0  0.13513824621E+02  0.12431431951E+02  0.29454646959E+02  0.90380632623E+02  0.83450096283E+02 0.  0.
         13    1    3    3    0    0  0.31110829579E+02  0.36576774240E+02  0.35727747514E+02  0.59851710396E+02  0.10566000000E+00 0.  1.
         22    1    1    0    0    0 -0.13513824621E+02 -0.12431431951E+02 -0.29454646959E+02  0.34709367377E+02  0.00000000000E+00 0.  1.
</event>
<event>
 5    1  0.1258624E-009  0.9118800E+02  0.7815553E-02  0.1125453E+00
         25   -1    0    0    0    0  0.00000000000E+00  0.00000000000E+00  0.99999998245E-14  0.12509000000E+03  0.12509000000E+03 0.  0.
        -13    1    3    3    0    0  0.77543314987E+01  0.32195303880E+02  0.31109652240E+02  0.45436646833E+02  0.10566000000E+00 0. -1.
         23    2    1    0    0    0  0.15425621106E+02  0.17240166389E+02 -0.16989344538E+02  0.96387892909E+02  0.92015297358E+02 0.  0.
         13    1    3    3    0    0  0.76712896076E+01 -0.14955137491E+02 -0.48098996778E+02  0.50951246076E+02  0.10566000000E+00 0.  1.
         22    1    1    0    0    0 -0.15425621106E+02 -0.17240166389E+02  0.16989344538E+02  0.28702107091E+02  0.00000000000E+00 0.  1.
</event>
<event>
 5    1  0.1258624E-009  0.9118800E+02  0.7815553E-02  0.1125453E+00
         25   -1    0    0    0    0  0.00000000000E+00  0.00000000000E+00  0.99999998245E-14  0.12509000000E+03  0.12509000000E+03 0.  0.
        -13    1    3    3    0    0  0.52127549229E+02 -0.34960304803E+01  0.91272057433E+01  0.53036031775E+02  0.10566000000E+00 0.  1.
         23    2    1    0    0    0 -0.38886111945E+01 -0.11714030793E+02  0.92730368649E+01  0.10965209123E+03  0.10855990090E+03 0.  0.
         13    1    3    3    0    0 -0.56016160423E+02 -0.82180003125E+01  0.14583112168E+00  0.56616059457E+02  0.10566000000E+00 0. -1.
         22    1    1    0    0    0  0.38886111945E+01  0.11714030793E+02 -0.92730368649E+01  0.15437908768E+02  0.00000000000E+00 0. -1.
</event>
<event>
 5    1  0.1258624E-009  0.9118800E+02  0.7815553E-02  0.1125453E+00
         25   -1    0    0    0    0  0.00000000000E+00  0.00000000000E+00  0.99999998245E-14  0.12509000000E+03  0.12509000000E+03 0.  0.
        -13    1    3    3    0    0 -0.21209629608E+01 -0.70668793922E+01  0.27107889702E+02  0.28094271950E+02  0.10566000000E+00 0.  1.
         23    2    1    0    0    0  0.23519734362E+02 -0.10446653387E-01 -0.27542388144E+02  0.88871756555E+02  0.81156810896E+02 0.  0.
         13    1    3    3    0    0  0.25640697323E+02  0.70564327388E+01 -0.54650277846E+02  0.60777484605E+02  0.10566000000E+00 0. -1.
         22    1    1    0    0    0 -0.23519734362E+02  0.10446653387E-01  0.27542388144E+02  0.36218243445E+02  0.00000000000E+00 0. -1.
</event>
<event>
 5    1  0.1258624E-009  0.9118800E+02  0.7815553E-02  0.1125453E+00
         25   -1    0    0    0    0  0.00000000000E+00  0.00000000000E+00  0.99999998245E-14  0.12509000000E+03  0.12509000000E+03 0.  0.
        -13    1    3    3    0    0  0.40623903572E+02 -0.22043201742E+02  0.22480408519E+02  0.51396344381E+02  0.10566000000E+00 0.  1.
         23    2    1    0    0    0 -0.33839003027E+01 -0.25178983811E+02  0.13116034203E+02  0.96498701320E+02  0.92165812513E+02 0.  0.
         13    1    3    3    0    0 -0.44007803875E+02 -0.31357820694E+01 -0.93643743161E+01  0.45102356939E+02  0.10566000000E+00 0. -1.
         22    1    1    0    0    0  0.33839003027E+01  0.25178983811E+02 -0.13116034203E+02  0.28591298680E+02  0.00000000000E+00 0.  1.
</event>
<event>
 5    1  0.1258624E-009  0.9118800E+02  0.7815553E-02  0.1125453E+00
         25   -1    0    0    0    0  0.00000000000E+00  0.00000000000E+00  0.99999998245E-14  0.12509000000E+03  0.12509000000E+03 0.  0.
        -13    1    3    3    0    0  0.27529453740E+02  0.33444131121E+02  0.19624994379E+02  0.47555570632E+02  0.10566000000E+00 0. -1.
         23    2    1    0    0    0 -0.58058242152E+01  0.26486900111E+02 -0.13268923650E+02  0.94901793576E+02  0.89972343621E+02 0.  0.
         13    1    3    3    0    0 -0.33335277955E+02 -0.69572310102E+01 -0.32893918029E+02  0.47346222944E+02  0.10566000000E+00 0.  1.
         22    1    1    0    0    0  0.58058242152E+01 -0.26486900111E+02  0.13268923650E+02  0.30188206424E+02  0.00000000000E+00 0.  1.
</event>
<event>
 5    1  0.1258624E-009  0.9118800E+02  0.7815553E-02  0.1125453E+00
         25   -1    0    0    0    0  0.00000000000E+00  0.00000000000E+00  0.99999998245E-14  0.12509000000E+03  0.12509000000E+03 0.  0.
        -13    1    3    3    0    0  0.41973060540E+01  0.20055662734E+02 -0.49785513571E+02  0.53837305945E+02  0.10566000000E+00 0. -1.
         23    2    1    0    0    0  0.23487611941E+02  0.35736904659E+01 -0.14643664787E+02  0.97181648264E+02  0.93088112360E+02 0.  0.
         13    1    3    3    0    0  0.19290305887E+02 -0.16481972268E+02  0.35141848785E+02  0.43344342319E+02  0.10566000000E+00 0.  1.
         22    1    1    0    0    0 -0.23487611941E+02 -0.35736904659E+01  0.14643664787E+02  0.27908351736E+02  0.00000000000E+00 0. -1.
</event>
<event>
 5    1  0.1258624E-009  0.9118800E+02  0.7815553E-02  0.1125453E+00
         25   -1    0    0    0    0  0.00000000000E+00  0.00000000000E+00  0.99999998245E-14  0.12509000000E+03  0.12509000000E+03 0.  0.
        -13    1    3    3    0    0 -0.21828400326E+02  0.27288281951E+02 -0.84983640286E+01  0.35963352845E+02  0.10566000000E+00 0.  1.
         23    2    1    0    0    0 -0.33598726243E+01 -0.25406112498E+02  0.13675328108E+02  0.96042213593E+02  0.91544158179E+02 0.  0.
         13    1    3    3    0    0  0.18468527701E+02 -0.52694394449E+02  0.22173692137E+02  0.60078860748E+02  0.10566000000E+00 0. -1.
         22    1    1    0    0    0  0.33598726243E+01  0.25406112498E+02 -0.13675328108E+02  0.29047786407E+02  0.00000000000E+00 0. -1.
</event>
<event>
 5    1  0.1258624E-009  0.9118800E+02  0.7815553E-02  0.1125453E+00
         25   -1    0    0    0    0  0.00000000000E+00  0.00000000000E+00  0.99999998245E-14  0.12509000000E+03  0.12509000000E+03 0.  0.
        -13    1    3    3    0    0 -0.21454822416E+02  0.44977170342E+02  0.30273912098E+02  0.58307599630E+02  0.10566000000E+00 0.  1.
         23    2    1    0    0    0 -0.18024655593E+02  0.78914114347E+01  0.20201092640E+02  0.96889880718E+02  0.92695211624E+02 0.  0.
         13    1    3    3    0    0  0.34301668229E+01 -0.37085758907E+02 -0.10072819458E+02  0.38582281089E+02  0.10566000000E+00 0. -1.
         22    1    1    0    0    0  0.18024655593E+02 -0.78914114347E+01 -0.20201092640E+02  0.28200119282E+02  0.00000000000E+00 0.  1.
</event>
<event>
 5    1  0.1258624E-009  0.9118800E+02  0.7815553E-02  0.1125453E+00
         25   -1    0    0    0    0  0.00000000000E+00  0.00000000000E+00  0.99999998245E-14  0.12509000000E+03  0.12509000000E+03 0.  0.
        -13    1    3    3    0    0 -0.46820337319E+02  0.31606356301E+02 -0.22703462445E+02  0.60881558097E+02  0.10566000000E+00 0. -1.
         23    2    1    0    0    0 -0.24348587296E+02  0.55953966001E+01 -0.14436869192E+02  0.96235444753E+02  0.91807818122E+02 0.  0.
         13    1    3    3    0    0  0.22471750023E+02 -0.26010959701E+02  0.82665932534E+01  0.35353886656E+02  0.10566000000E+00 0.  1.
         22    1    1    0    0    0  0.24348587296E+02 -0.55953966001E+01  0.14436869192E+02  0.28854555247E+02  0.00000000000E+00 0. -1.
</event>
<event>
 5    1  0.1258624E-009  0.9118800E+02  0.7815553E-02  0.1125453E+00
         25   -1    0    0    0    0  0.00000000000E+00  0.00000000000E+00  0.99999998245E-14  0.12509000000E+03  0.12509000000E+03 0.  0.
        -13    1    3    3    0    0  0.17361556683E+02 -0.64188595076E+01 -0.51840426323E+02  0.55046038670E+02  0.10566000000E+00 0.  1.
         23    2    1    0    0    0  0.48632253274E+01  0.18464709052E+02 -0.23978973985E+02  0.94437306247E+02  0.89324225028E+02 0.  0.
         13    1    3    3    0    0 -0.12498331356E+02  0.24883568559E+02  0.27861452338E+02  0.39391267577E+02  0.10566000000E+00 0. -1.
         22    1    1    0    0    0 -0.48632253274E+01 -0.18464709052E+02  0.23978973985E+02  0.30652693753E+02  0.00000000000E+00 0.  1.
</event>
<event>
 5    1  0.1258624E-009  0.9118800E+02  0.7815553E-02  0.1125453E+00
         25   -1    0    0    0    0  0.00000000000E+00  0.00000000000E+00  0.99999998245E-14  0.12509000000E+03  0.12509000000E+03 0.  0.
        -13    1    3    3    0    0 -0.25204863744E+02  0.75718254485E+01 -0.19283306421E+02  0.32626289516E+02  0.10566000000E+00 0.  1.
         23    2    1    0    0    0  0.22139087512E+02  0.14754108388E+02  0.17703618825E+02  0.93133137987E+02  0.87478799498E+02 0.  0.
         13    1    3    3    0    0  0.47343951257E+02  0.71822829399E+01  0.36986925246E+02  0.60506848472E+02  0.10566000000E+00 0. -1.
         22    1    1    0    0    0 -0.22139087512E+02 -0.14754108388E+02 -0.17703618825E+02  0.31956862013E+02  0.00000000000E+00 0. -1.
</event>
<event>
 5    1  0.1258624E-009  0.9118800E+02  0.7815553E-02  0.1125453E+00
         25   -1    0    0    0    0  0.00000000000E+00  0.00000000000E+00  0.99999998245E-14  0.12509000000E+03  0.12509000000E+03 0.  0.
        -13    1    3    3    0    0 -0.20414092638E+02 -0.29285605512E+02 -0.19244294608E+02  0.40555343759E+02  0.10566000000E+00 0. -1.
         23    2    1    0    0    0 -0.56022084144E+01  0.11268287361E+02  0.21666567392E+02  0.10003407891E+03  0.96845329064E+02 0.  0.
         13    1    3    3    0    0  0.14811884224E+02  0.40553892873E+02  0.40910862000E+02  0.59478735150E+02  0.10566000000E+00 0.  1.
         22    1    1    0    0    0  0.56022084144E+01 -0.11268287361E+02 -0.21666567392E+02  0.25055921091E+02  0.00000000000E+00 0.  1.
</event>
<event>
 5    1  0.1258624E-009  0.9118800E+02  0.7815553E-02  0.1125453E+00
         25   -1    0    0    0    0  0.00000000000E+00  0.00000000000E+00  0.99999998245E-14  0.12509000000E+03  0.12509000000E+03 0.  0.
        -13    1    3    3    0    0  0.13690369663E+02 -0.42118293934E+00 -0.30654143666E+02  0.33575159039E+02  0.10566000000E+00 0. -1.
         23    2    1    0    0    0 -0.18801869971E+01 -0.20395943747E+01  0.29360891514E+02  0.95598357135E+02  0.90935630465E+02 0.  0.
         13    1    3    3    0    0 -0.15570556660E+02 -0.16184114354E+01  0.60015035180E+02  0.62023198096E+02  0.10566000000E+00 0.  1.
         22    1    1    0    0    0  0.18801869971E+01  0.20395943747E+01 -0.29360891514E+02  0.29491642865E+02  0.00000000000E+00 0.  1.
</event>
<event>
 5    1  0.1258624E-009  0.9118800E+02  0.7815553E-02  0.1125453E+00
         25   -1    0    0    0    0  0.00000000000E+00  0.00000000000E+00  0.99999998245E-14  0.12509000000E+03  0.12509000000E+03 0.  0.
        -13    1    3    3    0    0  0.23818737565E+02 -0.30486586963E+02  0.20793235649E+02  0.43921908617E+02  0.10566000000E+00 0. -1.
         23    2    1    0    0    0 -0.79122806792E+01  0.10264964003E+02  0.26207098832E+02  0.95853281635E+02  0.91285628110E+02 0.  0.
         13    1    3    3    0    0 -0.31731018244E+02  0.40751550966E+02  0.54138631834E+01  0.51931373018E+02  0.10566000000E+00 0.  1.
         22    1    1    0    0    0  0.79122806792E+01 -0.10264964003E+02 -0.26207098832E+02  0.29236718365E+02  0.00000000000E+00 0.  1.
</event>
<event>
 5    1  0.1258624E-009  0.9118800E+02  0.7815553E-02  0.1125453E+00
         25   -1    0    0    0    0  0.00000000000E+00  0.00000000000E+00  0.99999998245E-14  0.12509000000E+03  0.12509000000E+03 0.  0.
        -13    1    3    3    0    0 -0.38788103024E+02  0.90764459351E+01  0.41733563082E+02  0.57694022729E+02  0.10566000000E+00 0.  1.
         23    2    1    0    0    0 -0.40332846108E+01 -0.14025187939E+01  0.28407811841E+02  0.96363040235E+02  0.91981505239E+02 0.  0.
         13    1    3    3    0    0  0.34754818414E+02 -0.10478964729E+02 -0.13325751241E+02  0.38669017507E+02  0.10566000000E+00 0. -1.
         22    1    1    0    0    0  0.40332846108E+01  0.14025187939E+01 -0.28407811841E+02  0.28726959765E+02  0.00000000000E+00 0.  1.
</event>
<event>
 5    1  0.1258624E-009  0.9118800E+02  0.7815553E-02  0.1125453E+00
         25   -1    0    0    0    0  0.00000000000E+00  0.00000000000E+00  0.99999998245E-14  0.12509000000E+03  0.12509000000E+03 0.  0.
        -13    1    3    3    0    0 -0.31657653470E+02  0.32958467496E+02 -0.14952349982E+02  0.48083797031E+02  0.10566000000E+00 0. -1.
         23    2    1    0    0    0 -0.98216760376E+01  0.16539964202E+02  0.23164120686E+02  0.94979997955E+02  0.90081006812E+02 0.  0.
         13    1    3    3    0    0  0.21835977432E+02 -0.16418503294E+02  0.38116470668E+02  0.46896200924E+02  0.10566000000E+00 0.  1.
         22    1    1    0    0    0  0.98216760376E+01 -0.16539964202E+02 -0.23164120686E+02  0.30110002045E+02  0.00000000000E+00 0.  1.
</event>
<event>
 5    1  0.1258624E-009  0.9118800E+02  0.7815553E-02  0.1125453E+00
         25   -1    0    0    0    0  0.00000000000E+00  0.00000000000E+00  0.99999998245E-14  0.12509000000E+03  0.12509000000E+03 0.  0.
        -13    1    3    3    0    0  0.20619340336E+02 -0.38231102657E+02  0.38200237916E+01  0.43604795059E+02  0.10566000000E+00 0. -1.
         23    2    1    0    0    0  0.79776563361E+01  0.69848828576E+00 -0.28328370483E+02  0.95651463000E+02  0.91008652959E+02 0.  0.
         13    1    3    3    0    0 -0.12641684000E+02  0.38929590943E+02 -0.32148394274E+02  0.52046667941E+02  0.10566000000E+00 0.  1.
         22    1    1    0    0    0 -0.79776563361E+01 -0.69848828576E+00  0.28328370483E+02  0.29438537000E+02  0.00000000000E+00 0.  1.
</event>
<event>
 5    1  0.1258624E-009  0.9118800E+02  0.7815553E-02  0.1125453E+00
         25   -1    0    0    0    0  0.00000000000E+00  0.00000000000E+00  0.99999998245E-14  0.12509000000E+03  0.12509000000E+03 0.  0.
        -13    1    3    3    0    0  0.28502107877E+01 -0.27025468672E+02 -0.32982652304E+02  0.42736005610E+02  0.10566000000E+00 0.  1.
         23    2    1    0    0    0 -0.28282665789E+02 -0.24421567446E+01  0.33200504126E+01  0.96508606605E+02  0.92179255261E+02 0.  0.
         13    1    3    3    0    0 -0.31132876576E+02  0.24583311927E+02  0.36302702716E+02  0.53772600995E+02  0.10566000000E+00 0. -1.
         22    1    1    0    0    0  0.28282665789E+02  0.24421567446E+01 -0.33200504126E+01  0.28581393395E+02  0.00000000000E+00 0.  1.
</event>
<event>
 5    1  0.1258624E-009  0.9118800E+02  0.7815553E-02  0.1125453E+00
         25   -1    0    0    0    0  0.00000000000E+00  0.00000000000E+00  0.99999998245E-14  0.12509000000E+03  0.12509000000E+03 0.  0.
        -13    1    3    3    0    0 -0.22990590023E+02  0.11084542938E+02  0.22358547520E+02  0.33931550701E+02  0.10566000000E+00 0. -1.
         23    2    1    0    0    0  0.20105501827E+02 -0.24890103572E+02  0.49042358477E+01  0.92720261218E+02  0.86886401995E+02 0.  0.
         13    1    3    3    0    0  0.43096091850E+02 -0.35974646510E+02 -0.17454311672E+02  0.58788710517E+02  0.10566000000E+00 0.  1.
         22    1    1    0    0    0 -0.20105501827E+02  0.24890103572E+02 -0.49042358477E+01  0.32369738782E+02  0.00000000000E+00 0.  1.
</event>
<event>
 4    1  0.1258624E-009  0.9118800E+02  0.7815553E-02  0.1125453E+00
         25   -1    0    0    0    0  0.00000000000E+00  0.00000000000E+00  0.99999998245E-14  0.12509000000E+03  0.12509000000E+03 0.  0.
        -13    1    1    0    0    0  0.44727690756E+02  0.25235525590E+02 -0.38676030166E+01  0.51501141631E+02  0.10566000000E+00 0. -1.
         13    1    1    0    0    0  0.98375792361E+01 -0.15045276743E+02  0.11880265407E+01  0.18015573502E+02  0.10566000000E+00 0.  1.
         22    1    1    0    0    0 -0.54565269992E+02 -0.10190248847E+02  0.26795764759E+01  0.55573284867E+02  0.00000000000E+00 0. -1.
</event>
<event>
 5    1  0.1258624E-009  0.9118800E+02  0.7815553E-02  0.1125453E+00
         25   -1    0    0    0    0  0.00000000000E+00  0.00000000000E+00  0.99999998245E-14  0.12509000000E+03  0.12509000000E+03 0.  0.
        -13    1    3    3    0    0  0.10989843288E+02  0.25911601052E+01  0.39648506951E+02  0.41225065599E+02  0.10566000000E+00 0.  1.
         23    2    1    0    0    0  0.11295418718E+02 -0.25576288268E+02 -0.74949918837E+01  0.96143361008E+02  0.91682266317E+02 0.  0.
         13    1    3    3    0    0  0.30557543010E+00 -0.28167448373E+02 -0.47143498835E+02  0.54918295409E+02  0.10566000000E+00 0. -1.
         22    1    1    0    0    0 -0.11295418718E+02  0.25576288268E+02  0.74949918837E+01  0.28946638992E+02  0.00000000000E+00 0. -1.
</event>
<event>
 5    1  0.1258624E-009  0.9118800E+02  0.7815553E-02  0.1125453E+00
         25   -1    0    0    0    0  0.00000000000E+00  0.00000000000E+00  0.99999998245E-14  0.12509000000E+03  0.12509000000E+03 0.  0.
        -13    1    3    3    0    0  0.22858627290E+02 -0.33912261167E+02  0.18598551361E+02  0.44927447911E+02  0.10566000000E+00 0. -1.
         23    2    1    0    0    0  0.11237930934E+02 -0.21917580674E+02 -0.24010508094E+02  0.90692675493E+02  0.83916538626E+02 0.  0.
         13    1    3    3    0    0 -0.11620696356E+02  0.11994680493E+02 -0.42609059455E+02  0.45765227582E+02  0.10566000000E+00 0.  1.
         22    1    1    0    0    0 -0.11237930934E+02  0.21917580674E+02  0.24010508094E+02  0.34397324507E+02  0.00000000000E+00 0.  1.
</event>
<event>
 5    1  0.1258624E-009  0.9118800E+02  0.7815553E-02  0.1125453E+00
         25   -1    0    0    0    0  0.00000000000E+00  0.00000000000E+00  0.99999998245E-14  0.12509000000E+03  0.12509000000E+03 0.  0.
        -13    1    3    3    0    0  0.23456606379E+02 -0.27993306613E+02  0.11088269272E+02  0.38168029520E+02  0.10566000000E+00 0. -1.
         23    2    1    0    0    0  0.10497126687E+02  0.27382874147E+02  0.30473842486E+01  0.95606139738E+02  0.90946335493E+02 0.  0.
         13    1    3    3    0    0 -0.12959479692E+02  0.55376180759E+02 -0.80408850234E+01  0.57438110218E+02  0.10566000000E+00 0.  1.
         22    1    1    0    0    0 -0.10497126687E+02 -0.27382874147E+02 -0.30473842486E+01  0.29483860262E+02  0.00000000000E+00 0.  1.
</event>
<event>
 5    1  0.1258624E-009  0.9118800E+02  0.7815553E-02  0.1125453E+00
         25   -1    0    0    0    0  0.00000000000E+00  0.00000000000E+00  0.99999998245E-14  0.12509000000E+03  0.12509000000E+03 0.  0.
        -13    1    3    3    0    0 -0.39644781466E+02  0.38735248333E+02  0.20269754461E+02  0.59016965958E+02  0.10566000000E+00 0. -1.
         23    2    1    0    0    0 -0.27764374381E+02  0.20601520523E+02  0.26449819391E+02  0.81559825656E+02  0.68971944170E+02 0.  0.
         13    1    3    3    0    0  0.11880407085E+02 -0.18133727810E+02  0.61800649302E+01  0.22542859698E+02  0.10566000000E+00 0.  1.
         22    1    1    0    0    0  0.27764374381E+02 -0.20601520523E+02 -0.26449819391E+02  0.43530174344E+02  0.00000000000E+00 0. -1.
</event>
<event>
 5    1  0.1258624E-009  0.9118800E+02  0.7815553E-02  0.1125453E+00
         25   -1    0    0    0    0  0.00000000000E+00  0.00000000000E+00  0.99999998245E-14  0.12509000000E+03  0.12509000000E+03 0.  0.
        -13    1    3    3    0    0  0.50697886808E+02 -0.11254663766E+02  0.25674153126E+01  0.51995634131E+02  0.10566000000E+00 0.  1.
         23    2    1    0    0    0  0.10364675978E+02 -0.18888356321E+02 -0.17166535291E+02  0.97542106314E+02  0.93571235204E+02 0.  0.
         13    1    3    3    0    0 -0.40333210829E+02 -0.76336925550E+01 -0.19733950604E+02  0.45546472183E+02  0.10566000000E+00 0. -1.
         22    1    1    0    0    0 -0.10364675978E+02  0.18888356321E+02  0.17166535291E+02  0.27547893686E+02  0.00000000000E+00 0. -1.
</event>
<event>
 5    1  0.1258624E-009  0.9118800E+02  0.7815553E-02  0.1125453E+00
         25   -1    0    0    0    0  0.00000000000E+00  0.00000000000E+00  0.99999998245E-14  0.12509000000E+03  0.12509000000E+03 0.  0.
        -13    1    3    3    0    0 -0.46435763915E+02 -0.10715544147E+02  0.81124001780E+01  0.48341754803E+02  0.10566000000E+00 0. -1.
         23    2    1    0    0    0 -0.22265918490E+01 -0.24435692540E+02  0.16684190849E+02  0.95418077153E+02  0.90687300335E+02 0.  0.
         13    1    3    3    0    0  0.44209172066E+02 -0.13720148393E+02  0.85717906711E+01  0.47076322350E+02  0.10566000000E+00 0.  1.
         22    1    1    0    0    0  0.22265918490E+01  0.24435692540E+02 -0.16684190849E+02  0.29671922847E+02  0.00000000000E+00 0.  1.
</event>
<event>
 5    1  0.1258624E-009  0.9118800E+02  0.7815553E-02  0.1125453E+00
         25   -1    0    0    0    0  0.00000000000E+00  0.00000000000E+00  0.99999998245E-14  0.12509000000E+03  0.12509000000E+03 0.  0.
        -13    1    3    3    0    0  0.92108651291E+01 -0.32971028030E+02  0.19593285539E+02  0.39444096238E+02  0.10566000000E+00 0. -1.
         23    2    1    0    0    0 -0.19636532466E+02  0.15539033201E+02  0.14598936565E+02  0.96104073950E+02  0.91628647927E+02 0.  0.
         13    1    3    3    0    0 -0.28847397595E+02  0.48510061231E+02 -0.49943489737E+01  0.56659977712E+02  0.10566000000E+00 0.  1.
         22    1    1    0    0    0  0.19636532466E+02 -0.15539033201E+02 -0.14598936565E+02  0.28985926050E+02  0.00000000000E+00 0.  1.
</event>
<event>
 5    1  0.1258624E-009  0.9118800E+02  0.7815553E-02  0.1125453E+00
         25   -1    0    0    0    0  0.00000000000E+00  0.00000000000E+00  0.99999998245E-14  0.12509000000E+03  0.12509000000E+03 0.  0.
        -13    1    3    3    0    0  0.57136444509E+02 -0.53051247650E+01 -0.13306369118E+02  0.58904908650E+02  0.10566000000E+00 0.  1.
         23    2    1    0    0    0  0.27428258305E+02 -0.94308551119E+01  0.71589867672E+01  0.95215236849E+02  0.90407078566E+02 0.  0.
         13    1    3    3    0    0 -0.29708186203E+02 -0.41257303469E+01  0.20465355885E+02  0.36310328199E+02  0.10566000000E+00 0. -1.
         22    1    1    0    0    0 -0.27428258305E+02  0.94308551119E+01 -0.71589867672E+01  0.29874763151E+02  0.00000000000E+00 0.  1.
</event>
<event>
 5    1  0.1258624E-009  0.9118800E+02  0.7815553E-02  0.1125453E+00
         25   -1    0    0    0    0  0.00000000000E+00  0.00000000000E+00  0.99999998245E-14  0.12509000000E+03  0.12509000000E+03 0.  0.
        -13    1    3    3    0    0  0.29071533624E+02 -0.23645455575E+02 -0.21520251318E+02  0.43213354619E+02  0.10566000000E+00 0.  1.
         23    2    1    0    0    0 -0.21673408280E+02 -0.13805731529E+01 -0.14278649717E+02  0.99099185345E+02  0.95630152617E+02 0.  0.
         13    1    3    3    0    0 -0.50744941904E+02  0.22264882422E+02  0.72416016014E+01  0.55885830726E+02  0.10566000000E+00 0. -1.
         22    1    1    0    0    0  0.21673408280E+02  0.13805731529E+01  0.14278649717E+02  0.25990814655E+02  0.00000000000E+00 0. -1.
</event>
<event>
 5    1  0.1258624E-009  0.9118800E+02  0.7815553E-02  0.1125453E+00
         25   -1    0    0    0    0  0.00000000000E+00  0.00000000000E+00  0.99999998245E-14  0.12509000000E+03  0.12509000000E+03 0.  0.
        -13    1    3    3    0    0  0.20655736001E+02 -0.19884832514E+02  0.33189385691E+02  0.43859006834E+02  0.10566000000E+00 0. -1.
         23    2    1    0    0    0  0.33341000076E+01  0.25418822051E+02  0.11794948307E+02  0.96870263238E+02  0.92668734517E+02 0.  0.
         13    1    3    3    0    0 -0.17321635994E+02  0.45303654566E+02 -0.21394437384E+02  0.53011256404E+02  0.10566000000E+00 0.  1.
         22    1    1    0    0    0 -0.33341000076E+01 -0.25418822051E+02 -0.11794948307E+02  0.28219736762E+02  0.00000000000E+00 0.  1.
</event>
<event>
 5    1  0.1258624E-009  0.9118800E+02  0.7815553E-02  0.1125453E+00
         25   -1    0    0    0    0  0.00000000000E+00  0.00000000000E+00  0.99999998245E-14  0.12509000000E+03  0.12509000000E+03 0.  0.
        -13    1    3    3    0    0  0.32319122839E+02  0.10959196295E+02  0.34764341924E+01  0.34303446521E+02  0.10566000000E+00 0.  1.
         23    2    1    0    0    0 -0.20009825950E+02 -0.21296197382E+02  0.93529763551E-01  0.95867920928E+02  0.91305686338E+02 0.  0.
         13    1    3    3    0    0 -0.52328948788E+02 -0.32255393677E+02 -0.33829044289E+01  0.61564474407E+02  0.10566000000E+00 0. -1.
         22    1    1    0    0    0  0.20009825950E+02  0.21296197382E+02 -0.93529763551E-01  0.29222079072E+02  0.00000000000E+00 0. -1.
</event>
<event>
 5    1  0.1258624E-009  0.9118800E+02  0.7815553E-02  0.1125453E+00
         25   -1    0    0    0    0  0.00000000000E+00  0.00000000000E+00  0.99999998245E-14  0.12509000000E+03  0.12509000000E+03 0.  0.
        -13    1    3    3    0    0 -0.27229266180E+02  0.28837497213E+02 -0.35182100797E+02  0.53017219492E+02  0.10566000000E+00 0.  1.
         23    2    1    0    0    0 -0.77263654939E+01 -0.81581338903E+01 -0.27290464188E+02  0.95576929880E+02  0.90906150602E+02 0.  0.
         13    1    3    3    0    0  0.19502900686E+02 -0.36995631103E+02  0.78916366086E+01  0.42559710387E+02  0.10566000000E+00 0. -1.
         22    1    1    0    0    0  0.77263654939E+01  0.81581338903E+01  0.27290464188E+02  0.29513070120E+02  0.00000000000E+00 0. -1.
</event>
<event>
 5    1  0.1258624E-009  0.9118800E+02  0.7815553E-02  0.1125453E+00
         25   -1    0    0    0    0  0.00000000000E+00  0.00000000000E+00  0.99999998245E-14  0.12509000000E+03  0.12509000000E+03 0.  0.
        -13    1    3    3    0    0  0.39114876150E+02 -0.30871279101E+02  0.19731606909E+02  0.53594373630E+02  0.10566000000E+00 0.  1.
         23    2    1    0    0    0  0.11061581902E+02 -0.23087643318E+02 -0.12136040777E+02  0.96758368316E+02  0.92517568522E+02 0.  0.
         13    1    3    3    0    0 -0.28053294248E+02  0.77836357838E+01 -0.31867647686E+02  0.43163994686E+02  0.10566000000E+00 0. -1.
         22    1    1    0    0    0 -0.11061581902E+02  0.23087643318E+02  0.12136040777E+02  0.28331631684E+02  0.00000000000E+00 0.  1.
</event>
<event>
 5    1  0.1258624E-009  0.9118800E+02  0.7815553E-02  0.1125453E+00
         25   -1    0    0    0    0  0.00000000000E+00  0.00000000000E+00  0.99999998245E-14  0.12509000000E+03  0.12509000000E+03 0.  0.
        -13    1    3    3    0    0 -0.24872160660E+02 -0.14037024169E+02  0.38190933206E+02  0.47688792883E+02  0.10566000000E+00 0.  1.
         23    2    1    0    0    0  0.80119350407E+01 -0.27900706358E+02  0.66655850218E+01  0.95306270515E+02  0.90532947911E+02 0.  0.
         13    1    3    3    0    0  0.32884095701E+02 -0.13863682189E+02 -0.31525348184E+02  0.47617477632E+02  0.10566000000E+00 0. -1.
         22    1    1    0    0    0 -0.80119350407E+01  0.27900706358E+02 -0.66655850218E+01  0.29783729485E+02  0.00000000000E+00 0.  1.
</event>
<event>
 5    1  0.1258624E-009  0.9118800E+02  0.7815553E-02  0.1125453E+00
         25   -1    0    0    0    0  0.00000000000E+00  0.00000000000E+00  0.99999998245E-14  0.12509000000E+03  0.12509000000E+03 0.  0.
        -13    1    3    3    0    0  0.10523117651E+02 -0.17880672532E+02  0.27767583359E+02  0.34662722123E+02  0.10566000000E+00 0.  1.
         23    2    1    0    0    0 -0.21882038225E+02  0.31441309355E+00 -0.20176451823E+02  0.95324051995E+02  0.90557513372E+02 0.  0.
         13    1    3    3    0    0 -0.32405155876E+02  0.18195085625E+02 -0.47944035182E+02  0.60661329872E+02  0.10566000000E+00 0. -1.
         22    1    1    0    0    0  0.21882038225E+02 -0.31441309355E+00  0.20176451823E+02  0.29765948005E+02  0.00000000000E+00 0. -1.
</event>
<event>
 5    1  0.1258624E-009  0.9118800E+02  0.7815553E-02  0.1125453E+00
         25   -1    0    0    0    0  0.00000000000E+00  0.00000000000E+00  0.99999998245E-14  0.12509000000E+03  0.12509000000E+03 0.  0.
        -13    1    3    3    0    0 -0.22406219728E+02  0.49514086163E+02 -0.28940136444E+02  0.61572932953E+02  0.10566000000E+00 0.  1.
         23    2    1    0    0    0 -0.16492548287E+02  0.19849433736E+02 -0.17482889325E+02  0.93918609467E+02  0.88594862246E+02 0.  0.
         13    1    3    3    0    0  0.59136714406E+01 -0.29664652427E+02  0.11457247119E+02  0.32345676513E+02  0.10566000000E+00 0. -1.
         22    1    1    0    0    0  0.16492548287E+02 -0.19849433736E+02  0.17482889325E+02  0.31171390533E+02  0.00000000000E+00 0.  1.
</event>
<event>
 5    1  0.1258624E-009  0.9118800E+02  0.7815553E-02  0.1125453E+00
         25   -1    0    0    0    0  0.00000000000E+00  0.00000000000E+00  0.99999998245E-14  0.12509000000E+03  0.12509000000E+03 0.  0.
        -13    1    3    3    0    0  0.10973777670E+02  0.26521073858E+02 -0.44823067028E+01  0.29049843241E+02  0.10566000000E+00 0. -1.
         23    2    1    0    0    0 -0.12338021536E+02 -0.30061246023E+02  0.82667830633E+01  0.91560237250E+02  0.85199953376E+02 0.  0.
         13    1    3    3    0    0 -0.23311799206E+02 -0.56582319880E+02  0.12749089766E+02  0.62510394009E+02  0.10566000000E+00 0.  1.
         22    1    1    0    0    0  0.12338021536E+02  0.30061246023E+02 -0.82667830633E+01  0.33529762750E+02  0.00000000000E+00 0.  1.
</event>
<event>
 5    1  0.1258624E-009  0.9118800E+02  0.7815553E-02  0.1125453E+00
         25   -1    0    0    0    0  0.00000000000E+00  0.00000000000E+00  0.99999998245E-14  0.12509000000E+03  0.12509000000E+03 0.  0.
        -13    1    3    3    0    0 -0.90454739832E+01  0.48352959817E+02 -0.99532272994E+01  0.50188716066E+02  0.10566000000E+00 0. -1.
         23    2    1    0    0    0  0.22740914310E+02  0.17906510493E+02  0.27882085449E+01  0.96011375401E+02  0.91502009803E+02 0.  0.
         13    1    3    3    0    0  0.31786388293E+02 -0.30446449324E+02  0.12741435844E+02  0.45822659335E+02  0.10566000000E+00 0.  1.
         22    1    1    0    0    0 -0.22740914310E+02 -0.17906510493E+02 -0.27882085449E+01  0.29078624599E+02  0.00000000000E+00 0. -1.
</event>
<event>
 5    1  0.1258624E-009  0.9118800E+02  0.7815553E-02  0.1125453E+00
         25   -1    0    0    0    0  0.00000000000E+00  0.00000000000E+00  0.99999998245E-14  0.12509000000E+03  0.12509000000E+03 0.  0.
        -13    1    3    3    0    0  0.10304052089E+01 -0.21679672494E+02 -0.41461989511E+02  0.46799334104E+02  0.10566000000E+00 0.  1.
         23    2    1    0    0    0 -0.19520103595E+02 -0.31419180371E+02 -0.80200401319E+01  0.87241348991E+02  0.78603642349E+02 0.  0.
         13    1    3    3    0    0 -0.20550508804E+02 -0.97395078764E+01  0.33441949379E+02  0.40442014886E+02  0.10566000000E+00 0. -1.
         22    1    1    0    0    0  0.19520103595E+02  0.31419180371E+02  0.80200401319E+01  0.37848651009E+02  0.00000000000E+00 0.  1.
</event>
<event>
 5    1  0.1258624E-009  0.9118800E+02  0.7815553E-02  0.1125453E+00
         25   -1    0    0    0    0  0.00000000000E+00  0.00000000000E+00  0.99999998245E-14  0.12509000000E+03  0.12509000000E+03 0.  0.
        -13    1    3    3    0    0 -0.14023406368E+02  0.30418813660E+02 -0.16428952212E+02  0.37307931937E+02  0.10566000000E+00 0.  1.
         23    2    1    0    0    0 -0.13136219948E+02 -0.26334704819E+02 -0.43248309489E+01  0.95344729533E+02  0.90586071415E+02 0.  0.
         13    1    3    3    0    0  0.88718642007E+00 -0.56753518479E+02  0.12104121263E+02  0.58036797595E+02  0.10566000000E+00 0. -1.
         22    1    1    0    0    0  0.13136219948E+02  0.26334704819E+02  0.43248309489E+01  0.29745270467E+02  0.00000000000E+00 0. -1.
</event>
<event>
 5    1  0.1258624E-009  0.9118800E+02  0.7815553E-02  0.1125453E+00
         25   -1    0    0    0    0  0.00000000000E+00  0.00000000000E+00  0.99999998245E-14  0.12509000000E+03  0.12509000000E+03 0.  0.
        -13    1    3    3    0    0 -0.12124754850E+02 -0.35640776814E+02 -0.21864534046E+00  0.37647491575E+02  0.10566000000E+00 0. -1.
         23    2    1    0    0    0  0.15975702418E+01  0.14381637100E+02  0.25672135202E+02  0.95620655891E+02  0.90966299204E+02 0.  0.
         13    1    3    3    0    0  0.13722325092E+02  0.50022413914E+02  0.25890780543E+02  0.57973164316E+02  0.10566000000E+00 0.  1.
         22    1    1    0    0    0 -0.15975702418E+01 -0.14381637100E+02 -0.25672135202E+02  0.29469344109E+02  0.00000000000E+00 0.  1.
</event>
<event>
 5    1  0.1258624E-009  0.9118800E+02  0.7815553E-02  0.1125453E+00
         25   -1    0    0    0    0  0.00000000000E+00  0.00000000000E+00  0.99999998245E-14  0.12509000000E+03  0.12509000000E+03 0.  0.
        -13    1    3    3    0    0  0.34557856790E+02  0.50447112863E+02 -0.13133680649E+01  0.61162838078E+02  0.10566000000E+00 0. -1.
         23    2    1    0    0    0  0.95490104436E+01  0.26869501390E+02  0.50853352133E+01  0.96124255756E+02  0.91656195672E+02 0.  0.
         13    1    3    3    0    0 -0.25008846347E+02 -0.23577611473E+02  0.63987032783E+01  0.34961417678E+02  0.10566000000E+00 0.  1.
         22    1    1    0    0    0 -0.95490104436E+01 -0.26869501390E+02 -0.50853352133E+01  0.28965744244E+02  0.00000000000E+00 0. -1.
</event>
<event>
 5    1  0.1258624E-009  0.9118800E+02  0.7815553E-02  0.1125453E+00
         25   -1    0    0    0    0  0.00000000000E+00  0.00000000000E+00  0.99999998245E-14  0.12509000000E+03  0.12509000000E+03 0.  0.
        -13    1    3    3    0    0 -0.39600578972E+02 -0.54250962215E+01  0.18045879672E+02  0.43855472420E+02  0.10566000000E+00 0. -1.
         23    2    1    0    0    0  0.95258066675E+01 -0.10243894713E+02  0.27612615285E+02  0.94136245875E+02  0.88901619181E+02 0.  0.
         13    1    3    3    0    0  0.49126385640E+02 -0.48187984911E+01  0.95667356127E+01  0.50280773455E+02  0.10566000000E+00 0.  1.
         22    1    1    0    0    0 -0.95258066675E+01  0.10243894713E+02 -0.27612615285E+02  0.30953754125E+02  0.00000000000E+00 0. -1.
</event>
<event>
 5    1  0.1258624E-009  0.9118800E+02  0.7815553E-02  0.1125453E+00
         25   -1    0    0    0    0  0.00000000000E+00  0.00000000000E+00  0.99999998245E-14  0.12509000000E+03  0.12509000000E+03 0.  0.
        -13    1    3    3    0    0 -0.48734925539E+02  0.42159041537E+01 -0.47950771291E+01  0.49151508053E+02  0.10566000000E+00 0. -1.
         23    2    1    0    0    0 -0.12246629671E+02 -0.20444667883E+02 -0.18106855114E+02  0.95159704558E+02  0.90330209710E+02 0.  0.
         13    1    3    3    0    0  0.36488295868E+02 -0.24660572036E+02 -0.13311777985E+02  0.46008196505E+02  0.10566000000E+00 0.  1.
         22    1    1    0    0    0  0.12246629671E+02  0.20444667883E+02  0.18106855114E+02  0.29930295442E+02  0.00000000000E+00 0. -1.
</event>
<event>
 5    1  0.1258624E-009  0.9118800E+02  0.7815553E-02  0.1125453E+00
         25   -1    0    0    0    0  0.00000000000E+00  0.00000000000E+00  0.99999998245E-14  0.12509000000E+03  0.12509000000E+03 0.  0.
        -13    1    3    3    0    0  0.19588800907E+02  0.10097546753E+02 -0.25994604550E+02  0.34079498253E+02  0.10566000000E+00 0.  1.
         23    2    1    0    0    0 -0.20264792613E+02  0.60280059915E+00  0.20642965033E+02  0.96156331143E+02  0.91699960879E+02 0.  0.
         13    1    3    3    0    0 -0.39853593520E+02 -0.94947461536E+01  0.46637569583E+02  0.62076832890E+02  0.10566000000E+00 0. -1.
         22    1    1    0    0    0  0.20264792613E+02 -0.60280059915E+00 -0.20642965033E+02  0.28933668857E+02  0.00000000000E+00 0. -1.
</event>
<event>
 5    1  0.1258624E-009  0.9118800E+02  0.7815553E-02  0.1125453E+00
         25   -1    0    0    0    0  0.00000000000E+00  0.00000000000E+00  0.99999998245E-14  0.12509000000E+03  0.12509000000E+03 0.  0.
        -13    1    3    3    0    0 -0.33582722663E+02 -0.83154429332E+01 -0.50749263337E+01  0.34967297493E+02  0.10566000000E+00 0. -1.
         23    2    1    0    0    0  0.27698200444E+02 -0.42728414514E+00 -0.59348084306E+01  0.96759895329E+02  0.92519633124E+02 0.  0.
         13    1    3    3    0    0  0.61280923107E+02  0.78881587881E+01 -0.85988209691E+00  0.61792597835E+02  0.10566000000E+00 0.  1.
         22    1    1    0    0    0 -0.27698200444E+02  0.42728414514E+00  0.59348084306E+01  0.28330104671E+02  0.00000000000E+00 0.  1.
</event>
<event>
 5    1  0.1258624E-009  0.9118800E+02  0.7815553E-02  0.1125453E+00
         25   -1    0    0    0    0  0.00000000000E+00  0.00000000000E+00  0.99999998245E-14  0.12509000000E+03  0.12509000000E+03 0.  0.
        -13    1    3    3    0    0  0.30335505738E+02 -0.72823072874E+01  0.14627367016E+02  0.34456435359E+02  0.10566000000E+00 0. -1.
         23    2    1    0    0    0 -0.10028769949E+02  0.97285665556E+01 -0.26876252512E+02  0.94798843155E+02  0.89829095958E+02 0.  0.
         13    1    3    3    0    0 -0.40364275687E+02  0.17010873843E+02 -0.41503619528E+02  0.60342407796E+02  0.10566000000E+00 0.  1.
         22    1    1    0    0    0  0.10028769949E+02 -0.97285665556E+01  0.26876252512E+02  0.30291156845E+02  0.00000000000E+00 0.  1.
</event>
<event>
 5    1  0.1258624E-009  0.9118800E+02  0.7815553E-02  0.1125453E+00
         25   -1    0    0    0    0  0.00000000000E+00  0.00000000000E+00  0.99999998245E-14  0.12509000000E+03  0.12509000000E+03 0.  0.
        -13    1    3    3    0    0  0.11335409801E+01 -0.39397012989E+02 -0.46576916400E+02  0.61014996951E+02  0.10566000000E+00 0. -1.
         23    2    1    0    0    0 -0.86425435566E+01 -0.13680355652E+02 -0.20991424062E+02  0.98585555579E+02  0.94955917113E+02 0.  0.
         13    1    3    3    0    0 -0.97760845367E+01  0.25716657337E+02  0.25585492338E+02  0.37570558628E+02  0.10566000000E+00 0.  1.
         22    1    1    0    0    0  0.86425435566E+01  0.13680355652E+02  0.20991424062E+02  0.26504444421E+02  0.00000000000E+00 0. -1.
</event>
<event>
 5    1  0.1258624E-009  0.9118800E+02  0.7815553E-02  0.1125453E+00
         25   -1    0    0    0    0  0.00000000000E+00  0.00000000000E+00  0.99999998245E-14  0.12509000000E+03  0.12509000000E+03 0.  0.
        -13    1    3    3    0    0 -0.29004273162E+02 -0.14182868949E+02  0.12842771685E+02  0.34746936294E+02  0.10566000000E+00 0. -1.
         23    2    1    0    0    0  0.12947498046E+02  0.23575890925E+02 -0.11015925588E+02  0.96024368146E+02  0.91519770119E+02 0.  0.
         13    1    3    3    0    0  0.41951771207E+02  0.37758759874E+02 -0.23858697273E+02  0.61277431851E+02  0.10566000000E+00 0.  1.
         22    1    1    0    0    0 -0.12947498046E+02 -0.23575890925E+02  0.11015925588E+02  0.29065631854E+02  0.00000000000E+00 0.  1.
</event>
<event>
 5    1  0.1258624E-009  0.9118800E+02  0.7815553E-02  0.1125453E+00
         25   -1    0    0    0    0  0.00000000000E+00  0.00000000000E+00  0.99999998245E-14  0.12509000000E+03  0.12509000000E+03 0.  0.
        -13    1    3    3    0    0 -0.54627561808E+02 -0.20158216149E+02  0.11871028930E+02  0.59426060607E+02  0.10566000000E+00 0.  1.
         23    2    1    0    0    0 -0.24383660056E+02 -0.18470115440E+02 -0.49939696347E+01  0.94095681572E+02  0.88844524399E+02 0.  0.
         13    1    3    3    0    0  0.30243901752E+02  0.16881007091E+01 -0.16864998565E+02  0.34669620964E+02  0.10566000000E+00 0. -1.
         22    1    1    0    0    0  0.24383660056E+02  0.18470115440E+02  0.49939696347E+01  0.30994318428E+02  0.00000000000E+00 0.  1.
</event>
<event>
 5    1  0.1258624E-009  0.9118800E+02  0.7815553E-02  0.1125453E+00
         25   -1    0    0    0    0  0.00000000000E+00  0.00000000000E+00  0.99999998245E-14  0.12509000000E+03  0.12509000000E+03 0.  0.
        -13    1    3    3    0    0 -0.31905826392E+02 -0.11220476056E+02 -0.28420111617E+02  0.44176857618E+02  0.10566000000E+00 0. -1.
         23    2    1    0    0    0  0.15621757735E+02  0.82028106394E+01 -0.23425858411E+02  0.95762602239E+02  0.91161284152E+02 0.  0.
         13    1    3    3    0    0  0.47527584127E+02  0.19423286695E+02  0.49942532066E+01  0.51585744621E+02  0.10566000000E+00 0.  1.
         22    1    1    0    0    0 -0.15621757735E+02 -0.82028106394E+01  0.23425858411E+02  0.29327397761E+02  0.00000000000E+00 0. -1.
</event>
<event>
 5    1  0.1258624E-009  0.9118800E+02  0.7815553E-02  0.1125453E+00
         25   -1    0    0    0    0  0.00000000000E+00  0.00000000000E+00  0.99999998245E-14  0.12509000000E+03  0.12509000000E+03 0.  0.
        -13    1    3    3    0    0  0.81234258621E+01  0.29558505543E+02 -0.24327845217E+02  0.39135029253E+02  0.10566000000E+00 0. -1.
         23    2    1    0    0    0 -0.19521346119E+02  0.73553784808E+01  0.20197335218E+02  0.96053524718E+02  0.91559612898E+02 0.  0.
         13    1    3    3    0    0 -0.27644771981E+02 -0.22203127062E+02  0.44525180435E+02  0.56918495465E+02  0.10566000000E+00 0.  1.
         22    1    1    0    0    0  0.19521346119E+02 -0.73553784808E+01 -0.20197335218E+02  0.29036475282E+02  0.00000000000E+00 0.  1.
</event>
<event>
 5    1  0.1258624E-009  0.9118800E+02  0.7815553E-02  0.1125453E+00
         25   -1    0    0    0    0  0.00000000000E+00  0.00000000000E+00  0.99999998245E-14  0.12509000000E+03  0.12509000000E+03 0.  0.
        -13    1    3    3    0    0  0.88385700264E+01  0.12067787892E+02  0.32224386953E+02  0.35527089710E+02  0.10566000000E+00 0. -1.
         23    2    1    0    0    0 -0.24606536977E+02 -0.45465918419E+00 -0.16148150456E+02  0.95654457877E+02  0.91012769277E+02 0.  0.
         13    1    3    3    0    0 -0.33445107003E+02 -0.12522447076E+02 -0.48372537409E+02  0.60127368167E+02  0.10566000000E+00 0.  1.
         22    1    1    0    0    0  0.24606536977E+02  0.45465918419E+00  0.16148150456E+02  0.29435542123E+02  0.00000000000E+00 0.  1.
</event>
<event>
 5    1  0.1258624E-009  0.9118800E+02  0.7815553E-02  0.1125453E+00
         25   -1    0    0    0    0  0.00000000000E+00  0.00000000000E+00  0.99999998245E-14  0.12509000000E+03  0.12509000000E+03 0.  0.
        -13    1    3    3    0    0 -0.48100098380E+02  0.17614756637E+02 -0.33570400353E+02  0.61244445131E+02  0.10566000000E+00 0.  1.
         23    2    1    0    0    0 -0.27340117130E+02  0.31421552969E+01 -0.10054371295E+02  0.95790758939E+02  0.91199912124E+02 0.  0.
         13    1    3    3    0    0  0.20759981250E+02 -0.14472601340E+02  0.23516029057E+02  0.34546313808E+02  0.10566000000E+00 0. -1.
         22    1    1    0    0    0  0.27340117130E+02 -0.31421552969E+01  0.10054371295E+02  0.29299241061E+02  0.00000000000E+00 0.  1.
</event>
<event>
 5    1  0.1258624E-009  0.9118800E+02  0.7815553E-02  0.1125453E+00
         25   -1    0    0    0    0  0.00000000000E+00  0.00000000000E+00  0.99999998245E-14  0.12509000000E+03  0.12509000000E+03 0.  0.
        -13    1    3    3    0    0 -0.32978726208E+02  0.30906354097E+02 -0.26480396907E+02  0.52383410449E+02  0.10566000000E+00 0.  1.
         23    2    1    0    0    0 -0.38850968746E+02  0.35047799541E+01 -0.10294656411E+02  0.84745716568E+02  0.74526339444E+02 0.  0.
         13    1    3    3    0    0 -0.58722425382E+01 -0.27401574143E+02  0.16185740496E+02  0.32362306119E+02  0.10566000000E+00 0. -1.
         22    1    1    0    0    0  0.38850968746E+02 -0.35047799541E+01  0.10294656411E+02  0.40344283432E+02  0.00000000000E+00 0.  1.
</event>
<event>
 5    1  0.1258624E-009  0.9118800E+02  0.7815553E-02  0.1125453E+00
         25   -1    0    0    0    0  0.00000000000E+00  0.00000000000E+00  0.99999998245E-14  0.12509000000E+03  0.12509000000E+03 0.  0.
        -13    1    3    3    0    0  0.14744051761E+02  0.59122419937E+00  0.31864077727E+02  0.35115056910E+02  0.10566000000E+00 0.  1.
         23    2    1    0    0    0 -0.56850163210E+01 -0.20371993118E+02 -0.20837061398E+02  0.95399586701E+02  0.90661791847E+02 0.  0.
         13    1    3    3    0    0 -0.20429068082E+02 -0.20963217317E+02 -0.52701139125E+02  0.60284529791E+02  0.10566000000E+00 0. -1.
         22    1    1    0    0    0  0.56850163210E+01  0.20371993118E+02  0.20837061398E+02  0.29690413299E+02  0.00000000000E+00 0. -1.
</event>
<event>
 5    1  0.1258624E-009  0.9118800E+02  0.7815553E-02  0.1125453E+00
         25   -1    0    0    0    0  0.00000000000E+00  0.00000000000E+00  0.99999998245E-14  0.12509000000E+03  0.12509000000E+03 0.  0.
        -13    1    3    3    0    0  0.44633108496E+02  0.14654410256E+02  0.25063288710E+02  0.53245147375E+02  0.10566000000E+00 0.  1.
         23    2    1    0    0    0  0.26899140568E+02  0.74060025672E+01 -0.11805921464E+02  0.94794910977E+02  0.89823620102E+02 0.  0.
         13    1    3    3    0    0 -0.17733967928E+02 -0.72484076889E+01 -0.36869210174E+02  0.41549763602E+02  0.10566000000E+00 0. -1.
         22    1    1    0    0    0 -0.26899140568E+02 -0.74060025672E+01  0.11805921464E+02  0.30295089023E+02  0.00000000000E+00 0. -1.
</event>
<event>
 5    1  0.1258624E-009  0.9118800E+02  0.7815553E-02  0.1125453E+00
         25   -1    0    0    0    0  0.00000000000E+00  0.00000000000E+00  0.99999998245E-14  0.12509000000E+03  0.12509000000E+03 0.  0.
        -13    1    3    3    0    0 -0.36899930120E+02  0.29943001759E+02 -0.25124642007E+02  0.53753576599E+02  0.10566000000E+00 0.  1.
         23    2    1    0    0    0 -0.42924656940E+01  0.42047933072E+01 -0.28998487991E+02  0.95475512764E+02  0.90766489869E+02 0.  0.
         13    1    3    3    0    0  0.32607464426E+02 -0.25738208452E+02 -0.38738459846E+01  0.41721936165E+02  0.10566000000E+00 0. -1.
         22    1    1    0    0    0  0.42924656940E+01 -0.42047933072E+01  0.28998487991E+02  0.29614487236E+02  0.00000000000E+00 0.  1.
</event>
<event>
 5    1  0.1258624E-009  0.9118800E+02  0.7815553E-02  0.1125453E+00
         25   -1    0    0    0    0  0.00000000000E+00  0.00000000000E+00  0.99999998245E-14  0.12509000000E+03  0.12509000000E+03 0.  0.
        -13    1    3    3    0    0 -0.13921850505E+02  0.46119892099E+02  0.36349826335E+02  0.60350504616E+02  0.10566000000E+00 0.  1.
         23    2    1    0    0    0 -0.18404318232E+02  0.24297519871E+02  0.26464606535E+02  0.84723382598E+02  0.74488843180E+02 0.  0.
         13    1    3    3    0    0 -0.44824677265E+01 -0.21822372228E+02 -0.98852198004E+01  0.24372877982E+02  0.10566000000E+00 0. -1.
         22    1    1    0    0    0  0.18404318232E+02 -0.24297519871E+02 -0.26464606535E+02  0.40366617402E+02  0.00000000000E+00 0.  1.
</event>
<event>
 5    1  0.1258624E-009  0.9118800E+02  0.7815553E-02  0.1125453E+00
         25   -1    0    0    0    0  0.00000000000E+00  0.00000000000E+00  0.99999998245E-14  0.12509000000E+03  0.12509000000E+03 0.  0.
        -13    1    3    3    0    0  0.32172635803E+02 -0.38892638973E+01 -0.38286763739E+02  0.50160664966E+02  0.10566000000E+00 0. -1.
         23    2    1    0    0    0  0.40292345054E+01  0.24198268490E+02 -0.16810708737E+02  0.95351290263E+02  0.90595130652E+02 0.  0.
         13    1    3    3    0    0 -0.28143401298E+02  0.28087532387E+02  0.21476055002E+02  0.45190625297E+02  0.10566000000E+00 0.  1.
         22    1    1    0    0    0 -0.40292345054E+01 -0.24198268490E+02  0.16810708737E+02  0.29738709737E+02  0.00000000000E+00 0.  1.
</event>
<event>
 5    1  0.1258624E-009  0.9118800E+02  0.7815553E-02  0.1125453E+00
         25   -1    0    0    0    0  0.00000000000E+00  0.00000000000E+00  0.99999998245E-14  0.12509000000E+03  0.12509000000E+03 0.  0.
        -13    1    3    3    0    0 -0.10635761580E+02  0.39335112531E+02  0.27210281247E+02  0.48997765988E+02  0.10566000000E+00 0. -1.
         23    2    1    0    0    0  0.23822240512E+02  0.10750659916E+02  0.12461552118E+02  0.96135447459E+02  0.91671468546E+02 0.  0.
         13    1    3    3    0    0  0.34458002092E+02 -0.28584452615E+02 -0.14748729129E+02  0.47137681471E+02  0.10566000000E+00 0.  1.
         22    1    1    0    0    0 -0.23822240512E+02 -0.10750659916E+02 -0.12461552118E+02  0.28954552541E+02  0.00000000000E+00 0.  1.
</event>
<event>
 5    1  0.1258624E-009  0.9118800E+02  0.7815553E-02  0.1125453E+00
         25   -1    0    0    0    0  0.00000000000E+00  0.00000000000E+00  0.99999998245E-14  0.12509000000E+03  0.12509000000E+03 0.  0.
        -13    1    3    3    0    0  0.46159460426E+02  0.91388116462E+01 -0.20398789152E+02  0.51286795845E+02  0.10566000000E+00 0. -1.
         23    2    1    0    0    0  0.62194471471E+01  0.26609192207E+02 -0.83949290727E+01  0.96503194182E+02  0.92171910148E+02 0.  0.
         13    1    3    3    0    0 -0.39940013279E+02  0.17470380561E+02  0.12003860079E+02  0.45216398337E+02  0.10566000000E+00 0.  1.
         22    1    1    0    0    0 -0.62194471471E+01 -0.26609192207E+02  0.83949290727E+01  0.28586805818E+02  0.00000000000E+00 0. -1.
</event>
<event>
 5    1  0.1258624E-009  0.9118800E+02  0.7815553E-02  0.1125453E+00
         25   -1    0    0    0    0  0.00000000000E+00  0.00000000000E+00  0.99999998245E-14  0.12509000000E+03  0.12509000000E+03 0.  0.
        -13    1    3    3    0    0  0.16945344132E+02  0.10207273646E+02 -0.28244456549E+02  0.34483236693E+02  0.10566000000E+00 0. -1.
         23    2    1    0    0    0  0.26879010180E+01 -0.84829962940E+01  0.28142486170E+02  0.95574147211E+02  0.90902321473E+02 0.  0.
         13    1    3    3    0    0 -0.14257443114E+02 -0.18690269940E+02  0.56386942720E+02  0.61090910518E+02  0.10566000000E+00 0.  1.
         22    1    1    0    0    0 -0.26879010180E+01  0.84829962940E+01 -0.28142486170E+02  0.29515852789E+02  0.00000000000E+00 0.  1.
</event>
<event>
 5    1  0.1258624E-009  0.9118800E+02  0.7815553E-02  0.1125453E+00
         25   -1    0    0    0    0  0.00000000000E+00  0.00000000000E+00  0.99999998245E-14  0.12509000000E+03  0.12509000000E+03 0.  0.
        -13    1    3    3    0    0  0.19568545353E+02 -0.29579104070E+02  0.48955116677E+02  0.60452179263E+02  0.10566000000E+00 0.  1.
         23    2    1    0    0    0 -0.15088697081E+01 -0.11943431150E+02  0.26649980833E+02  0.95847159614E+02  0.91277238631E+02 0.  0.
         13    1    3    3    0    0 -0.21077415061E+02  0.17635672919E+02 -0.22305135844E+02  0.35394980350E+02  0.10566000000E+00 0. -1.
         22    1    1    0    0    0  0.15088697081E+01  0.11943431150E+02 -0.26649980833E+02  0.29242840386E+02  0.00000000000E+00 0.  1.
</event>
<event>
 5    1  0.1258624E-009  0.9118800E+02  0.7815553E-02  0.1125453E+00
         25   -1    0    0    0    0  0.00000000000E+00  0.00000000000E+00  0.99999998245E-14  0.12509000000E+03  0.12509000000E+03 0.  0.
        -13    1    3    3    0    0 -0.55584959740E+02 -0.10102560684E+02 -0.16225888556E+02  0.58779589188E+02  0.10566000000E+00 0.  1.
         23    2    1    0    0    0 -0.21495003179E+02  0.87474614338E+01 -0.14403425340E+02  0.97776781502E+02  0.93884434792E+02 0.  0.
         13    1    3    3    0    0  0.34089956561E+02  0.18850022118E+02  0.18224632163E+01  0.38997192314E+02  0.10566000000E+00 0. -1.
         22    1    1    0    0    0  0.21495003179E+02 -0.87474614338E+01  0.14403425340E+02  0.27313218498E+02  0.00000000000E+00 0.  1.
</event>
<event>
 5    1  0.1258624E-009  0.9118800E+02  0.7815553E-02  0.1125453E+00
         25   -1    0    0    0    0  0.00000000000E+00  0.00000000000E+00  0.99999998245E-14  0.12509000000E+03  0.12509000000E+03 0.  0.
        -13    1    3    3    0    0 -0.51684396123E+00  0.71018924736E+01  0.31084586296E+02  0.31889914920E+02  0.10566000000E+00 0.  1.
         23    2    1    0    0    0 -0.27580280176E+02 -0.66554220644E+01 -0.19343389045E+02  0.90751491046E+02  0.84004166146E+02 0.  0.
         13    1    3    3    0    0 -0.27063436215E+02 -0.13757314538E+02 -0.50427975341E+02  0.58861576126E+02  0.10566000000E+00 0. -1.
         22    1    1    0    0    0  0.27580280176E+02  0.66554220644E+01  0.19343389045E+02  0.34338508954E+02  0.00000000000E+00 0. -1.
</event>
<event>
 5    1  0.1258624E-009  0.9118800E+02  0.7815553E-02  0.1125453E+00
         25   -1    0    0    0    0  0.00000000000E+00  0.00000000000E+00  0.99999998245E-14  0.12509000000E+03  0.12509000000E+03 0.  0.
        -13    1    3    3    0    0  0.17070410757E+02 -0.93253853999E+01 -0.52848202019E+02  0.56314344149E+02  0.10566000000E+00 0.  1.
         23    2    1    0    0    0 -0.31900015476E+01 -0.20071545706E+02 -0.18550450105E+02  0.97573418526E+02  0.93613085340E+02 0.  0.
         13    1    3    3    0    0 -0.20260412305E+02 -0.10746160306E+02  0.34297751914E+02  0.41259074377E+02  0.10566000000E+00 0. -1.
         22    1    1    0    0    0  0.31900015476E+01  0.20071545706E+02  0.18550450105E+02  0.27516581474E+02  0.00000000000E+00 0. -1.
</event>
<event>
 5    1  0.1258624E-009  0.9118800E+02  0.7815553E-02  0.1125453E+00
         25   -1    0    0    0    0  0.00000000000E+00  0.00000000000E+00  0.99999998245E-14  0.12509000000E+03  0.12509000000E+03 0.  0.
        -13    1    3    3    0    0 -0.22762164641E+02  0.16477457404E+02  0.39554624285E+02  0.48520121682E+02  0.10566000000E+00 0.  1.
         23    2    1    0    0    0  0.36322214327E+01  0.29229671624E+02  0.28438881127E+01  0.95498541175E+02  0.90798220969E+02 0.  0.
         13    1    3    3    0    0  0.26394386074E+02  0.12752214220E+02 -0.36710736172E+02  0.46978419493E+02  0.10566000000E+00 0. -1.
         22    1    1    0    0    0 -0.36322214327E+01 -0.29229671624E+02 -0.28438881127E+01  0.29591458825E+02  0.00000000000E+00 0. -1.
</event>
<event>
 5    1  0.1258624E-009  0.9118800E+02  0.7815553E-02  0.1125453E+00
         25   -1    0    0    0    0  0.00000000000E+00  0.00000000000E+00  0.99999998245E-14  0.12509000000E+03  0.12509000000E+03 0.  0.
        -13    1    3    3    0    0 -0.47151940938E+02 -0.22343046120E+02  0.54868405621E+01  0.52465548959E+02  0.10566000000E+00 0. -1.
         23    2    1    0    0    0 -0.21163536996E+02 -0.81258569420E+00 -0.20922538703E+02  0.95319070900E+02  0.90550632564E+02 0.  0.
         13    1    3    3    0    0  0.25988403941E+02  0.21530460426E+02 -0.26409379265E+02  0.42853521941E+02  0.10566000000E+00 0.  1.
         22    1    1    0    0    0  0.21163536996E+02  0.81258569420E+00  0.20922538703E+02  0.29770929100E+02  0.00000000000E+00 0.  1.
</event>
<event>
 5    1  0.1258624E-009  0.9118800E+02  0.7815553E-02  0.1125453E+00
         25   -1    0    0    0    0  0.00000000000E+00  0.00000000000E+00  0.99999998245E-14  0.12509000000E+03  0.12509000000E+03 0.  0.
        -13    1    3    3    0    0 -0.68867390579E+01 -0.58176964042E+02 -0.21900110029E+02  0.62542883715E+02  0.10566000000E+00 0.  1.
         23    2    1    0    0    0 -0.28102902090E+01 -0.26734233528E+02 -0.10125753133E+02  0.96364613147E+02  0.91983644291E+02 0.  0.
         13    1    3    3    0    0  0.40764488489E+01  0.31442730515E+02  0.11774356896E+02  0.33821729432E+02  0.10566000000E+00 0. -1.
         22    1    1    0    0    0  0.28102902090E+01  0.26734233528E+02  0.10125753133E+02  0.28725386853E+02  0.00000000000E+00 0.  1.
</event>
<event>
 5    1  0.1258624E-009  0.9118800E+02  0.7815553E-02  0.1125453E+00
         25   -1    0    0    0    0  0.00000000000E+00  0.00000000000E+00  0.99999998245E-14  0.12509000000E+03  0.12509000000E+03 0.  0.
        -13    1    3    3    0    0  0.35231895496E+02 -0.10680094391E+02 -0.18031279494E+02  0.40993768803E+02  0.10566000000E+00 0. -1.
         23    2    1    0    0    0  0.54456011597E+01 -0.28185888209E+01  0.28024284969E+02  0.96402728206E+02  0.92035462962E+02 0.  0.
         13    1    3    3    0    0 -0.29786294336E+02  0.78615055702E+01  0.46055564463E+02  0.55408959404E+02  0.10566000000E+00 0.  1.
         22    1    1    0    0    0 -0.54456011597E+01  0.28185888209E+01 -0.28024284969E+02  0.28687271794E+02  0.00000000000E+00 0.  1.
</event>
<event>
 5    1  0.1258624E-009  0.9118800E+02  0.7815553E-02  0.1125453E+00
         25   -1    0    0    0    0  0.00000000000E+00  0.00000000000E+00  0.99999998245E-14  0.12509000000E+03  0.12509000000E+03 0.  0.
        -13    1    3    3    0    0  0.50200015159E+02  0.25447862679E+01  0.36916920157E+02  0.62364955040E+02  0.10566000000E+00 0.  1.
         23    2    1    0    0    0  0.20558707189E+02  0.92037718428E+00  0.11092622085E+02  0.10171150988E+03  0.98988269216E+02 0.  0.
         13    1    3    3    0    0 -0.29641307970E+02 -0.16244090837E+01 -0.25824298072E+02  0.39346554843E+02  0.10566000000E+00 0. -1.
         22    1    1    0    0    0 -0.20558707189E+02 -0.92037718428E+00 -0.11092622085E+02  0.23378490117E+02  0.00000000000E+00 0.  1.
</event>
<event>
 5    1  0.1258624E-009  0.9118800E+02  0.7815553E-02  0.1125453E+00
         25   -1    0    0    0    0  0.00000000000E+00  0.00000000000E+00  0.99999998245E-14  0.12509000000E+03  0.12509000000E+03 0.  0.
        -13    1    3    3    0    0  0.18010155076E+02  0.60424039620E+01 -0.30586045298E+02  0.36005467120E+02  0.10566000000E+00 0.  1.
         23    2    1    0    0    0 -0.88882925257E+01  0.16884779664E+02  0.21944325312E+02  0.96009921910E+02  0.91500022751E+02 0.  0.
         13    1    3    3    0    0 -0.26898447602E+02  0.10842375702E+02  0.52530370610E+02  0.60004454790E+02  0.10566000000E+00 0. -1.
         22    1    1    0    0    0  0.88882925257E+01 -0.16884779664E+02 -0.21944325312E+02  0.29080078090E+02  0.00000000000E+00 0. -1.
</event>
<event>
 5    1  0.1258624E-009  0.9118800E+02  0.7815553E-02  0.1125453E+00
         25   -1    0    0    0    0  0.00000000000E+00  0.00000000000E+00  0.99999998245E-14  0.12509000000E+03  0.12509000000E+03 0.  0.
        -13    1    3    3    0    0 -0.56379022338E+02 -0.50217279747E+01  0.19902976867E+02  0.59999596364E+02  0.10566000000E+00 0. -1.
         23    2    1    0    0    0 -0.28372319824E+02  0.75217239266E+01  0.16809209064E+01  0.95689483710E+02  0.91060896847E+02 0.  0.
         13    1    3    3    0    0  0.28006702514E+02  0.12543451901E+02 -0.18222055961E+02  0.35689887346E+02  0.10566000000E+00 0.  1.
         22    1    1    0    0    0  0.28372319824E+02 -0.75217239266E+01 -0.16809209064E+01  0.29400516290E+02  0.00000000000E+00 0. -1.
</event>
<event>
 5    1  0.1258624E-009  0.9118800E+02  0.7815553E-02  0.1125453E+00
         25   -1    0    0    0    0  0.00000000000E+00  0.00000000000E+00  0.99999998245E-14  0.12509000000E+03  0.12509000000E+03 0.  0.
        -13    1    3    3    0    0 -0.28836641080E+02 -0.10254018293E+02 -0.18673312517E+02  0.35852482819E+02  0.10566000000E+00 0.  1.
         23    2    1    0    0    0  0.23271645288E+02 -0.22752136881E+02 -0.16890021798E+00  0.92543760058E+02  0.86631921319E+02 0.  0.
         13    1    3    3    0    0  0.52108286368E+02 -0.12498118587E+02  0.18504412299E+02  0.56691277239E+02  0.10566000000E+00 0. -1.
         22    1    1    0    0    0 -0.23271645288E+02  0.22752136881E+02  0.16890021798E+00  0.32546239942E+02  0.00000000000E+00 0. -1.
</event>
<event>
 5    1  0.1258624E-009  0.9118800E+02  0.7815553E-02  0.1125453E+00
         25   -1    0    0    0    0  0.00000000000E+00  0.00000000000E+00  0.99999998245E-14  0.12509000000E+03  0.12509000000E+03 0.  0.
        -13    1    3    3    0    0 -0.19615240020E+02  0.17759136269E+02 -0.39676329007E+02  0.47690321970E+02  0.10566000000E+00 0. -1.
         23    2    1    0    0    0 -0.16107037279E+02 -0.21597998933E+02 -0.15911126618E+02  0.93799839277E+02  0.88427007698E+02 0.  0.
         13    1    3    3    0    0  0.35082027414E+01 -0.39357135201E+02  0.23765202389E+02  0.46109517308E+02  0.10566000000E+00 0.  1.
         22    1    1    0    0    0  0.16107037279E+02  0.21597998933E+02  0.15911126618E+02  0.31290160723E+02  0.00000000000E+00 0.  1.
</event>
<event>
 5    1  0.1258624E-009  0.9118800E+02  0.7815553E-02  0.1125453E+00
         25   -1    0    0    0    0  0.00000000000E+00  0.00000000000E+00  0.99999998245E-14  0.12509000000E+03  0.12509000000E+03 0.  0.
        -13    1    3    3    0    0  0.11873285848E+02  0.19317532196E+02  0.16284026794E+02  0.27916351116E+02  0.10566000000E+00 0. -1.
         23    2    1    0    0    0 -0.76913971967E+01 -0.34548047440E+02 -0.55894579342E+01  0.89257511770E+02  0.81749227486E+02 0.  0.
         13    1    3    3    0    0 -0.19564683045E+02 -0.53865579636E+02 -0.21873484728E+02  0.61341160654E+02  0.10566000000E+00 0.  1.
         22    1    1    0    0    0  0.76913971967E+01  0.34548047440E+02  0.55894579342E+01  0.35832488230E+02  0.00000000000E+00 0.  1.
</event>
<event>
 5    1  0.1258624E-009  0.9118800E+02  0.7815553E-02  0.1125453E+00
         25   -1    0    0    0    0  0.00000000000E+00  0.00000000000E+00  0.99999998245E-14  0.12509000000E+03  0.12509000000E+03 0.  0.
        -13    1    3    3    0    0 -0.31232601488E+02  0.12524697928E+02  0.17647000857E+02  0.37996990107E+02  0.10566000000E+00 0.  1.
         23    2    1    0    0    0  0.27399569891E+01 -0.19264808568E+02 -0.19506269964E+02  0.97537599353E+02  0.93565209914E+02 0.  0.
         13    1    3    3    0    0  0.33972558477E+02 -0.31789506496E+02 -0.37153270822E+02  0.59540609247E+02  0.10566000000E+00 0. -1.
         22    1    1    0    0    0 -0.27399569891E+01  0.19264808568E+02  0.19506269964E+02  0.27552400647E+02  0.00000000000E+00 0. -1.
</event>
<event>
 5    1  0.1258624E-009  0.9118800E+02  0.7815553E-02  0.1125453E+00
         25   -1    0    0    0    0  0.00000000000E+00  0.00000000000E+00  0.99999998245E-14  0.12509000000E+03  0.12509000000E+03 0.  0.
        -13    1    3    3    0    0 -0.45698330780E+02  0.39077551184E+02 -0.41178262437E+01  0.60269064201E+02  0.10566000000E+00 0. -1.
         23    2    1    0    0    0 -0.18544946923E+02  0.23552712093E+02  0.83978287061E+01  0.93958523481E+02  0.88651200242E+02 0.  0.
         13    1    3    3    0    0  0.27153383857E+02 -0.15524839091E+02  0.12515654950E+02  0.33689459280E+02  0.10566000000E+00 0.  1.
         22    1    1    0    0    0  0.18544946923E+02 -0.23552712093E+02 -0.83978287061E+01  0.31131476519E+02  0.00000000000E+00 0. -1.
</event>
<event>
 5    1  0.1258624E-009  0.9118800E+02  0.7815553E-02  0.1125453E+00
         25   -1    0    0    0    0  0.00000000000E+00  0.00000000000E+00  0.99999998245E-14  0.12509000000E+03  0.12509000000E+03 0.  0.
        -13    1    3    3    0    0 -0.69303208589E+01  0.19431392083E+02 -0.25930346657E+02  0.33136119074E+02  0.10566000000E+00 0. -1.
         23    2    1    0    0    0  0.85466670759E+01 -0.30984419117E+02  0.21362473789E+01  0.92877528828E+02  0.87112525289E+02 0.  0.
         13    1    3    3    0    0  0.15476987935E+02 -0.50415811201E+02  0.28066594036E+02  0.59741409754E+02  0.10566000000E+00 0.  1.
         22    1    1    0    0    0 -0.85466670759E+01  0.30984419117E+02 -0.21362473789E+01  0.32212471172E+02  0.00000000000E+00 0.  1.
</event>
<event>
 5    1  0.1258624E-009  0.9118800E+02  0.7815553E-02  0.1125453E+00
         25   -1    0    0    0    0  0.00000000000E+00  0.00000000000E+00  0.99999998245E-14  0.12509000000E+03  0.12509000000E+03 0.  0.
        -13    1    3    3    0    0 -0.25021639517E+02 -0.36996836410E+01  0.25495134155E+02  0.35913550824E+02  0.10566000000E+00 0.  1.
         23    2    1    0    0    0  0.24022387750E+02  0.16022856214E+02 -0.31599180314E+01  0.96041899952E+02  0.91543729604E+02 0.  0.
         13    1    3    3    0    0  0.49044027267E+02  0.19722539855E+02 -0.28655052187E+02  0.60128349127E+02  0.10566000000E+00 0. -1.
         22    1    1    0    0    0 -0.24022387750E+02 -0.16022856214E+02  0.31599180314E+01  0.29048100048E+02  0.00000000000E+00 0. -1.
</event>
<event>
 5    1  0.1258624E-009  0.9118800E+02  0.7815553E-02  0.1125453E+00
         25   -1    0    0    0    0  0.00000000000E+00  0.00000000000E+00  0.99999998245E-14  0.12509000000E+03  0.12509000000E+03 0.  0.
        -13    1    3    3    0    0  0.29469175255E+01  0.33447422433E+02 -0.20109689063E+01  0.33637323769E+02  0.10566000000E+00 0.  1.
         23    2    1    0    0    0 -0.33777030609E+01 -0.28120913237E+02 -0.75523849821E+01  0.95777320863E+02  0.91181478567E+02 0.  0.
         13    1    3    3    0    0 -0.63246205864E+01 -0.61568335670E+02 -0.55414160759E+01  0.62139997095E+02  0.10566000000E+00 0. -1.
         22    1    1    0    0    0  0.33777030609E+01  0.28120913237E+02  0.75523849821E+01  0.29312679137E+02  0.00000000000E+00 0. -1.
</event>
<event>
 5    1  0.1258624E-009  0.9118800E+02  0.7815553E-02  0.1125453E+00
         25   -1    0    0    0    0  0.00000000000E+00  0.00000000000E+00  0.99999998245E-14  0.12509000000E+03  0.12509000000E+03 0.  0.
        -13    1    3    3    0    0 -0.38985830442E+02 -0.19819165836E+02  0.17480793553E+02  0.47098658335E+02  0.10566000000E+00 0.  1.
         23    2    1    0    0    0  0.94243065331E+01 -0.23923625125E+02  0.14013810106E+02  0.95806143245E+02  0.91221010831E+02 0.  0.
         13    1    3    3    0    0  0.48410136975E+02 -0.41044592886E+01 -0.34669834465E+01  0.48707484910E+02  0.10566000000E+00 0. -1.
         22    1    1    0    0    0 -0.94243065331E+01  0.23923625125E+02 -0.14013810106E+02  0.29283856755E+02  0.00000000000E+00 0.  1.
</event>
<event>
 5    1  0.1258624E-009  0.9118800E+02  0.7815553E-02  0.1125453E+00
         25   -1    0    0    0    0  0.00000000000E+00  0.00000000000E+00  0.99999998245E-14  0.12509000000E+03  0.12509000000E+03 0.  0.
        -13    1    3    3    0    0 -0.34569825623E+01 -0.62248969994E+01 -0.47737347700E+02  0.48265573659E+02  0.10566000000E+00 0. -1.
         23    2    1    0    0    0  0.25828214951E+02  0.52301034449E+01 -0.11242116283E+02  0.96439767049E+02  0.92085790545E+02 0.  0.
         13    1    3    3    0    0  0.29285197514E+02  0.11455000444E+02  0.36495231417E+02  0.48174193390E+02  0.10566000000E+00 0.  1.
         22    1    1    0    0    0 -0.25828214951E+02 -0.52301034449E+01  0.11242116283E+02  0.28650232951E+02  0.00000000000E+00 0.  1.
</event>
<event>
 5    1  0.1258624E-009  0.9118800E+02  0.7815553E-02  0.1125453E+00
         25   -1    0    0    0    0  0.00000000000E+00  0.00000000000E+00  0.99999998245E-14  0.12509000000E+03  0.12509000000E+03 0.  0.
        -13    1    3    3    0    0 -0.72612654554E+01 -0.48988868732E+02 -0.27702409666E+01  0.49601619275E+02  0.10566000000E+00 0. -1.
         23    2    1    0    0    0 -0.28516667503E+02 -0.91916167433E+01  0.24908867083E+01  0.95025225588E+02  0.90143789789E+02 0.  0.
         13    1    3    3    0    0 -0.21255402048E+02  0.39797251988E+02  0.52611276750E+01  0.45423606313E+02  0.10566000000E+00 0.  1.
         22    1    1    0    0    0  0.28516667503E+02  0.91916167433E+01 -0.24908867083E+01  0.30064774412E+02  0.00000000000E+00 0. -1.
</event>
<event>
 5    1  0.1258624E-009  0.9118800E+02  0.7815553E-02  0.1125453E+00
         25   -1    0    0    0    0  0.00000000000E+00  0.00000000000E+00  0.99999998245E-14  0.12509000000E+03  0.12509000000E+03 0.  0.
        -13    1    3    3    0    0 -0.41111580683E+02 -0.17640230310E+02  0.36682888269E+02  0.57853135156E+02  0.10566000000E+00 0.  1.
         23    2    1    0    0    0 -0.10194529359E+02 -0.22825884854E+02  0.16136398519E+02  0.95335457399E+02  0.90573266652E+02 0.  0.
         13    1    3    3    0    0  0.30917051324E+02 -0.51856545445E+01 -0.20546489750E+02  0.37482322243E+02  0.10566000000E+00 0. -1.
         22    1    1    0    0    0  0.10194529359E+02  0.22825884854E+02 -0.16136398519E+02  0.29754542601E+02  0.00000000000E+00 0.  1.
</event>
<event>
 5    1  0.1258624E-009  0.9118800E+02  0.7815553E-02  0.1125453E+00
         25   -1    0    0    0    0  0.00000000000E+00  0.00000000000E+00  0.99999998245E-14  0.12509000000E+03  0.12509000000E+03 0.  0.
        -13    1    3    3    0    0 -0.27977343434E+02  0.17784911524E+02 -0.33640396632E+02  0.47230522685E+02  0.10566000000E+00 0.  1.
         23    2    1    0    0    0  0.14435899810E+02 -0.15569998518E+01 -0.27157597604E+02  0.94294634123E+02  0.89124202464E+02 0.  0.
         13    1    3    3    0    0  0.42413243244E+02 -0.19341911375E+02  0.64827990277E+01  0.47064111438E+02  0.10566000000E+00 0. -1.
         22    1    1    0    0    0 -0.14435899810E+02  0.15569998518E+01  0.27157597604E+02  0.30795365877E+02  0.00000000000E+00 0.  1.
</event>
<event>
 5    1  0.1258624E-009  0.9118800E+02  0.7815553E-02  0.1125453E+00
         25   -1    0    0    0    0  0.00000000000E+00  0.00000000000E+00  0.99999998245E-14  0.12509000000E+03  0.12509000000E+03 0.  0.
        -13    1    3    3    0    0  0.63104032706E+01  0.21465329716E+02 -0.51320799509E+02  0.55985866034E+02  0.10566000000E+00 0. -1.
         23    2    1    0    0    0  0.21042849399E+02  0.10554283349E+02 -0.13658474860E+02  0.97873307634E+02  0.94012956574E+02 0.  0.
         13    1    3    3    0    0  0.14732446129E+02 -0.10911046367E+02  0.37662324649E+02  0.41887441600E+02  0.10566000000E+00 0.  1.
         22    1    1    0    0    0 -0.21042849399E+02 -0.10554283349E+02  0.13658474860E+02  0.27216692366E+02  0.00000000000E+00 0.  1.
</event>
<event>
 5    1  0.1258624E-009  0.9118800E+02  0.7815553E-02  0.1125453E+00
         25   -1    0    0    0    0  0.00000000000E+00  0.00000000000E+00  0.99999998245E-14  0.12509000000E+03  0.12509000000E+03 0.  0.
        -13    1    3    3    0    0 -0.34431873180E+02 -0.27182650382E+02 -0.18252324644E+02  0.47514301967E+02  0.10566000000E+00 0.  1.
         23    2    1    0    0    0 -0.98173768490E+01 -0.22513040377E+02  0.20119355276E+02  0.93340884549E+02  0.87775363266E+02 0.  0.
         13    1    3    3    0    0  0.24614496331E+02  0.46696100052E+01  0.38371679920E+02  0.45826582582E+02  0.10566000000E+00 0. -1.
         22    1    1    0    0    0  0.98173768490E+01  0.22513040377E+02 -0.20119355276E+02  0.31749115451E+02  0.00000000000E+00 0.  1.
</event>
<event>
 5    1  0.1258624E-009  0.9118800E+02  0.7815553E-02  0.1125453E+00
         25   -1    0    0    0    0  0.00000000000E+00  0.00000000000E+00  0.99999998245E-14  0.12509000000E+03  0.12509000000E+03 0.  0.
        -13    1    3    3    0    0 -0.15550882661E+02 -0.21884906812E+02 -0.26779785620E+02  0.37920273991E+02  0.10566000000E+00 0. -1.
         23    2    1    0    0    0  0.92983802709E+01  0.26503214085E+02 -0.47671677596E+01  0.96601298363E+02  0.92304955037E+02 0.  0.
         13    1    3    3    0    0  0.24849262932E+02  0.48388120897E+02  0.22012617860E+02  0.58681024372E+02  0.10566000000E+00 0.  1.
         22    1    1    0    0    0 -0.92983802709E+01 -0.26503214085E+02  0.47671677596E+01  0.28488701637E+02  0.00000000000E+00 0.  1.
</event>
<event>
 5    1  0.1258624E-009  0.9118800E+02  0.7815553E-02  0.1125453E+00
         25   -1    0    0    0    0  0.00000000000E+00  0.00000000000E+00  0.99999998245E-14  0.12509000000E+03  0.12509000000E+03 0.  0.
        -13    1    3    3    0    0 -0.18518826244E+02  0.17006933472E+02  0.24609467821E+02  0.35182663090E+02  0.10566000000E+00 0.  1.
         23    2    1    0    0    0  0.26251159890E+02  0.32633159543E+00 -0.12818846062E+02  0.95874375717E+02  0.91314529057E+02 0.  0.
         13    1    3    3    0    0  0.44769986135E+02 -0.16680601876E+02 -0.37428313883E+02  0.60691712627E+02  0.10566000000E+00 0. -1.
         22    1    1    0    0    0 -0.26251159890E+02 -0.32633159543E+00  0.12818846062E+02  0.29215624283E+02  0.00000000000E+00 0. -1.
</event>
<event>
 5    1  0.1258624E-009  0.9118800E+02  0.7815553E-02  0.1125453E+00
         25   -1    0    0    0    0  0.00000000000E+00  0.00000000000E+00  0.99999998245E-14  0.12509000000E+03  0.12509000000E+03 0.  0.
        -13    1    3    3    0    0 -0.51716444489E+02  0.11786883484E+02 -0.28058454907E+02  0.60006743860E+02  0.10566000000E+00 0. -1.
         23    2    1    0    0    0 -0.31081699738E+02  0.10473989342E+02 -0.35085851961E+01  0.92103841063E+02  0.85994365263E+02 0.  0.
         13    1    3    3    0    0  0.20634744751E+02 -0.13128941416E+01  0.24549869711E+02  0.32097097203E+02  0.10566000000E+00 0.  1.
         22    1    1    0    0    0  0.31081699738E+02 -0.10473989342E+02  0.35085851961E+01  0.32986158937E+02  0.00000000000E+00 0. -1.
</event>
<event>
 5    1  0.1258624E-009  0.9118800E+02  0.7815553E-02  0.1125453E+00
         25   -1    0    0    0    0  0.00000000000E+00  0.00000000000E+00  0.99999998245E-14  0.12509000000E+03  0.12509000000E+03 0.  0.
        -13    1    3    3    0    0 -0.49419117741E+01 -0.28796030722E+02 -0.14075148144E+02  0.32430769905E+02  0.10566000000E+00 0. -1.
         23    2    1    0    0    0  0.22055692773E+02  0.17209023781E+02  0.15173130183E+02  0.93265041827E+02  0.87667212025E+02 0.  0.
         13    1    3    3    0    0  0.26997604547E+02  0.46005054503E+02  0.29248278327E+02  0.60834271922E+02  0.10566000000E+00 0.  1.
         22    1    1    0    0    0 -0.22055692773E+02 -0.17209023781E+02 -0.15173130183E+02  0.31824958173E+02  0.00000000000E+00 0.  1.
</event>
<event>
 5    1  0.1258624E-009  0.9118800E+02  0.7815553E-02  0.1125453E+00
         25   -1    0    0    0    0  0.00000000000E+00  0.00000000000E+00  0.99999998245E-14  0.12509000000E+03  0.12509000000E+03 0.  0.
        -13    1    3    3    0    0 -0.69667356494E+01  0.26494352966E+02  0.29458930130E+02  0.40228421211E+02  0.10566000000E+00 0. -1.
         23    2    1    0    0    0 -0.42390222500E+01 -0.26293359422E+02  0.11819227695E+02  0.95952323315E+02  0.91421245599E+02 0.  0.
         13    1    3    3    0    0  0.27277133993E+01 -0.52787712388E+02 -0.17639702435E+02  0.55723902103E+02  0.10566000000E+00 0.  1.
         22    1    1    0    0    0  0.42390222500E+01  0.26293359422E+02 -0.11819227695E+02  0.29137676685E+02  0.00000000000E+00 0. -1.
</event>
<event>
 5    1  0.1258624E-009  0.9118800E+02  0.7815553E-02  0.1125453E+00
         25   -1    0    0    0    0  0.00000000000E+00  0.00000000000E+00  0.99999998245E-14  0.12509000000E+03  0.12509000000E+03 0.  0.
        -13    1    3    3    0    0 -0.25987224381E+02  0.62525495545E+00 -0.27750155385E+02  0.38023796006E+02  0.10566000000E+00 0.  1.
         23    2    1    0    0    0  0.13323559471E+02 -0.27097437800E+02  0.24070460954E+01  0.94798379984E+02  0.89828450974E+02 0.  0.
         13    1    3    3    0    0  0.39310783852E+02 -0.27722692755E+02  0.30157201481E+02  0.56774583978E+02  0.10566000000E+00 0. -1.
         22    1    1    0    0    0 -0.13323559471E+02  0.27097437800E+02 -0.24070460954E+01  0.30291620016E+02  0.00000000000E+00 0. -1.
</event>
<event>
 5    1  0.1258624E-009  0.9118800E+02  0.7815553E-02  0.1125453E+00
         25   -1    0    0    0    0  0.00000000000E+00  0.00000000000E+00  0.99999998245E-14  0.12509000000E+03  0.12509000000E+03 0.  0.
        -13    1    3    3    0    0  0.41063485680E+01 -0.15371094093E+02  0.47711794220E+02  0.50294722426E+02  0.10566000000E+00 0.  1.
         23    2    1    0    0    0 -0.23446744528E+02  0.39459965771E+01  0.16911467072E+02  0.95912638288E+02  0.91366929176E+02 0.  0.
         13    1    3    3    0    0 -0.27553093096E+02  0.19317090670E+02 -0.30800327149E+02  0.45617915862E+02  0.10566000000E+00 0. -1.
         22    1    1    0    0    0  0.23446744528E+02 -0.39459965771E+01 -0.16911467072E+02  0.29177361712E+02  0.00000000000E+00 0.  1.
</event>
<event>
 5    1  0.1258624E-009  0.9118800E+02  0.7815553E-02  0.1125453E+00
         25   -1    0    0    0    0  0.00000000000E+00  0.00000000000E+00  0.99999998245E-14  0.12509000000E+03  0.12509000000E+03 0.  0.
        -13    1    3    3    0    0 -0.10722696759E+02  0.26640606986E+02 -0.47062012444E+02  0.55132044635E+02  0.10566000000E+00 0.  1.
         23    2    1    0    0    0 -0.56987912756E+01 -0.78553274535E+01 -0.29235865359E+02  0.94285483859E+02  0.89111358714E+02 0.  0.
         13    1    3    3    0    0  0.50239054835E+01 -0.34495934439E+02  0.17826147084E+02  0.39153439224E+02  0.10566000000E+00 0. -1.
         22    1    1    0    0    0  0.56987912756E+01  0.78553274535E+01  0.29235865359E+02  0.30804516141E+02  0.00000000000E+00 0.  1.
</event>
<event>
 5    1  0.1258624E-009  0.9118800E+02  0.7815553E-02  0.1125453E+00
         25   -1    0    0    0    0  0.00000000000E+00  0.00000000000E+00  0.99999998245E-14  0.12509000000E+03  0.12509000000E+03 0.  0.
        -13    1    3    3    0    0 -0.31190587867E+02 -0.18528020354E+02  0.72020127667E+01  0.36986760626E+02  0.10566000000E+00 0. -1.
         23    2    1    0    0    0  0.23422777027E+01  0.28232634490E+02 -0.62486387723E+01  0.96079426039E+02  0.91594992802E+02 0.  0.
         13    1    3    3    0    0  0.33532865569E+02  0.46760654844E+02 -0.13450651539E+02  0.59092665412E+02  0.10566000000E+00 0.  1.
         22    1    1    0    0    0 -0.23422777027E+01 -0.28232634490E+02  0.62486387723E+01  0.29010573961E+02  0.00000000000E+00 0.  1.
</event>
<event>
 5    1  0.1258624E-009  0.9118800E+02  0.7815553E-02  0.1125453E+00
         25   -1    0    0    0    0  0.00000000000E+00  0.00000000000E+00  0.99999998245E-14  0.12509000000E+03  0.12509000000E+03 0.  0.
        -13    1    3    3    0    0  0.47234261514E+02 -0.40358569762E+02 -0.24341984051E+01  0.62175767787E+02  0.10566000000E+00 0.  1.
         23    2    1    0    0    0  0.24045628756E+02 -0.14415109465E+02 -0.21340168566E+01  0.96973427109E+02  0.92807887025E+02 0.  0.
         13    1    3    3    0    0 -0.23188632757E+02  0.25943460297E+02  0.30018154848E+00  0.34797659322E+02  0.10566000000E+00 0. -1.
         22    1    1    0    0    0 -0.24045628756E+02  0.14415109465E+02  0.21340168566E+01  0.28116572891E+02  0.00000000000E+00 0.  1.
</event>
<event>
 5    1  0.1258624E-009  0.9118800E+02  0.7815553E-02  0.1125453E+00
         25   -1    0    0    0    0  0.00000000000E+00  0.00000000000E+00  0.99999998245E-14  0.12509000000E+03  0.12509000000E+03 0.  0.
        -13    1    3    3    0    0 -0.22742262543E+02  0.44197650918E+02 -0.34726206487E+02  0.60634671874E+02  0.10566000000E+00 0. -1.
         23    2    1    0    0    0 -0.14022531563E+02  0.12747491435E+02 -0.22940833737E+02  0.95334130296E+02  0.90571433782E+02 0.  0.
         13    1    3    3    0    0  0.87197309802E+01 -0.31450159483E+02  0.11785372751E+02  0.34699458422E+02  0.10566000000E+00 0.  1.
         22    1    1    0    0    0  0.14022531563E+02 -0.12747491435E+02  0.22940833737E+02  0.29755869704E+02  0.00000000000E+00 0. -1.
</event>
<event>
 5    1  0.1258624E-009  0.9118800E+02  0.7815553E-02  0.1125453E+00
         25   -1    0    0    0    0  0.00000000000E+00  0.00000000000E+00  0.99999998245E-14  0.12509000000E+03  0.12509000000E+03 0.  0.
        -13    1    3    3    0    0  0.36764047520E+02 -0.14757718551E+02 -0.47496640456E+02  0.61849231730E+02  0.10566000000E+00 0.  1.
         23    2    1    0    0    0  0.21861104216E+02 -0.56627853305E+01 -0.17646614214E+02  0.96430306902E+02  0.92072938917E+02 0.  0.
         13    1    3    3    0    0 -0.14902943304E+02  0.90949332209E+01  0.29850026242E+02  0.34581075173E+02  0.10566000000E+00 0. -1.
         22    1    1    0    0    0 -0.21861104216E+02  0.56627853305E+01  0.17646614214E+02  0.28659693098E+02  0.00000000000E+00 0.  1.
</event>
<event>
 5    1  0.1258624E-009  0.9118800E+02  0.7815553E-02  0.1125453E+00
         25   -1    0    0    0    0  0.00000000000E+00  0.00000000000E+00  0.99999998245E-14  0.12509000000E+03  0.12509000000E+03 0.  0.
        -13    1    3    3    0    0 -0.27424441986E+02  0.15871166907E+02 -0.37123094159E+02  0.48807061386E+02  0.10566000000E+00 0. -1.
         23    2    1    0    0    0 -0.14235108462E+02  0.30321964019E+02  0.91323851142E+00  0.91580392131E+02  0.85229539500E+02 0.  0.
         13    1    3    3    0    0  0.13189333524E+02  0.14450797113E+02  0.38036332670E+02  0.42773330745E+02  0.10566000000E+00 0.  1.
         22    1    1    0    0    0  0.14235108462E+02 -0.30321964019E+02 -0.91323851142E+00  0.33509607869E+02  0.00000000000E+00 0. -1.
</event>
<event>
 5    1  0.1258624E-009  0.9118800E+02  0.7815553E-02  0.1125453E+00
         25   -1    0    0    0    0  0.00000000000E+00  0.00000000000E+00  0.99999998245E-14  0.12509000000E+03  0.12509000000E+03 0.  0.
        -13    1    3    3    0    0 -0.24891736947E+01  0.25109796157E+02 -0.46812549597E+02  0.53180107301E+02  0.10566000000E+00 0.  1.
         23    2    1    0    0    0  0.21877924320E+02  0.12685541720E+02 -0.13049592519E+02  0.96631988717E+02  0.92346536682E+02 0.  0.
         13    1    3    3    0    0  0.24367098015E+02 -0.12424254437E+02  0.33762957077E+02  0.43451881416E+02  0.10566000000E+00 0. -1.
         22    1    1    0    0    0 -0.21877924320E+02 -0.12685541720E+02  0.13049592519E+02  0.28458011283E+02  0.00000000000E+00 0.  1.
</event>
<event>
 5    1  0.1258624E-009  0.9118800E+02  0.7815553E-02  0.1125453E+00
         25   -1    0    0    0    0  0.00000000000E+00  0.00000000000E+00  0.99999998245E-14  0.12509000000E+03  0.12509000000E+03 0.  0.
        -13    1    3    3    0    0  0.18770525775E+02  0.12541125865E+02 -0.55244319247E+02  0.59678793963E+02  0.10566000000E+00 0.  1.
         23    2    1    0    0    0  0.63015531493E+01  0.18824759633E+02 -0.23706297059E+02  0.94169623748E+02  0.88948571485E+02 0.  0.
         13    1    3    3    0    0 -0.12468972626E+02  0.62836337676E+01  0.31538022188E+02  0.34490829784E+02  0.10566000000E+00 0. -1.
         22    1    1    0    0    0 -0.63015531493E+01 -0.18824759633E+02  0.23706297059E+02  0.30920376252E+02  0.00000000000E+00 0.  1.
</event>
<event>
 5    1  0.1258624E-009  0.9118800E+02  0.7815553E-02  0.1125453E+00
         25   -1    0    0    0    0  0.00000000000E+00  0.00000000000E+00  0.99999998245E-14  0.12509000000E+03  0.12509000000E+03 0.  0.
        -13    1    3    3    0    0  0.16646648963E+02 -0.76498293544E+01 -0.33332847305E+02  0.38035781632E+02  0.10566000000E+00 0.  1.
         23    2    1    0    0    0  0.98728042165E+01  0.15467161416E+02  0.20839876029E+02  0.97323009197E+02  0.93277877017E+02 0.  0.
         13    1    3    3    0    0 -0.67738447463E+01  0.23116990770E+02  0.54172723334E+02  0.59287227565E+02  0.10566000000E+00 0. -1.
         22    1    1    0    0    0 -0.98728042165E+01 -0.15467161416E+02 -0.20839876029E+02  0.27766990803E+02  0.00000000000E+00 0. -1.
</event>
<event>
 5    1  0.1258624E-009  0.9118800E+02  0.7815553E-02  0.1125453E+00
         25   -1    0    0    0    0  0.00000000000E+00  0.00000000000E+00  0.99999998245E-14  0.12509000000E+03  0.12509000000E+03 0.  0.
        -13    1    3    3    0    0 -0.12670017595E+02  0.35487621274E+02  0.44639292045E+02  0.58417276279E+02  0.10566000000E+00 0.  1.
         23    2    1    0    0    0  0.10045266253E+02  0.17985820854E+02  0.21977751289E+02  0.94966609128E+02  0.90062412647E+02 0.  0.
         13    1    3    3    0    0  0.22715283848E+02 -0.17501800420E+02 -0.22661540756E+02  0.36549332849E+02  0.10566000000E+00 0. -1.
         22    1    1    0    0    0 -0.10045266253E+02 -0.17985820854E+02 -0.21977751289E+02  0.30123390872E+02  0.00000000000E+00 0.  1.
</event>
<event>
 5    1  0.1258624E-009  0.9118800E+02  0.7815553E-02  0.1125453E+00
         25   -1    0    0    0    0  0.00000000000E+00  0.00000000000E+00  0.99999998245E-14  0.12509000000E+03  0.12509000000E+03 0.  0.
        -13    1    3    3    0    0  0.24080195874E+02  0.43794225810E+02  0.35835736007E+02  0.61497977095E+02  0.10566000000E+00 0.  1.
         23    2    1    0    0    0  0.24541022265E+02  0.32621063629E+02  0.24210263227E+02  0.77629148642E+02  0.61430874219E+02 0.  0.
         13    1    3    3    0    0  0.46082639102E+00 -0.11173162181E+02 -0.11625472780E+02  0.16131171547E+02  0.10566000000E+00 0. -1.
         22    1    1    0    0    0 -0.24541022265E+02 -0.32621063629E+02 -0.24210263227E+02  0.47460851358E+02  0.00000000000E+00 0.  1.
</event>
<event>
 5    1  0.1258624E-009  0.9118800E+02  0.7815553E-02  0.1125453E+00
         25   -1    0    0    0    0  0.00000000000E+00  0.00000000000E+00  0.99999998245E-14  0.12509000000E+03  0.12509000000E+03 0.  0.
        -13    1    3    3    0    0 -0.44224365427E+02 -0.32370145158E+01  0.14817714930E+02  0.46753059795E+02  0.10566000000E+00 0. -1.
         23    2    1    0    0    0 -0.19532024629E+02  0.11960772000E+02 -0.21806943459E+02  0.93465597461E+02  0.87952913953E+02 0.  0.
         13    1    3    3    0    0  0.24692340798E+02  0.15197786516E+02 -0.36624658389E+02  0.46712537666E+02  0.10566000000E+00 0.  1.
         22    1    1    0    0    0  0.19532024629E+02 -0.11960772000E+02  0.21806943459E+02  0.31624402539E+02  0.00000000000E+00 0. -1.
</event>
<event>
 5    1  0.1258624E-009  0.9118800E+02  0.7815553E-02  0.1125453E+00
         25   -1    0    0    0    0  0.00000000000E+00  0.00000000000E+00  0.99999998245E-14  0.12509000000E+03  0.12509000000E+03 0.  0.
        -13    1    3    3    0    0 -0.52508441560E+02  0.22074408406E+02 -0.74022165559E+00  0.56964682337E+02  0.10566000000E+00 0. -1.
         23    2    1    0    0    0 -0.28891683389E+02 -0.77765677894E+01 -0.24748023271E+01  0.95067857802E+02  0.90202929913E+02 0.  0.
         13    1    3    3    0    0  0.23616758172E+02 -0.29850976196E+02 -0.17345806715E+01  0.38103175465E+02  0.10566000000E+00 0.  1.
         22    1    1    0    0    0  0.28891683389E+02  0.77765677894E+01  0.24748023271E+01  0.30022142198E+02  0.00000000000E+00 0. -1.
</event>
<event>
 5    1  0.1258624E-009  0.9118800E+02  0.7815553E-02  0.1125453E+00
         25   -1    0    0    0    0  0.00000000000E+00  0.00000000000E+00  0.99999998245E-14  0.12509000000E+03  0.12509000000E+03 0.  0.
        -13    1    3    3    0    0 -0.90886900024E+01  0.60593971231E+02  0.48224036326E+00  0.61273790117E+02  0.10566000000E+00 0.  1.
         23    2    1    0    0    0  0.37415998262E+00  0.28973898606E+02 -0.73496552393E+01  0.95196117210E+02  0.90380620178E+02 0.  0.
         13    1    3    3    0    0  0.94628499850E+01 -0.31620072625E+02 -0.78318956025E+01  0.33922327093E+02  0.10566000000E+00 0. -1.
         22    1    1    0    0    0 -0.37415998262E+00 -0.28973898606E+02  0.73496552393E+01  0.29893882790E+02  0.00000000000E+00 0.  1.
</event>
<event>
 5    1  0.1258624E-009  0.9118800E+02  0.7815553E-02  0.1125453E+00
         25   -1    0    0    0    0  0.00000000000E+00  0.00000000000E+00  0.99999998245E-14  0.12509000000E+03  0.12509000000E+03 0.  0.
        -13    1    3    3    0    0 -0.12358054953E+02  0.46057141166E+02 -0.16738301040E+02  0.50538734257E+02  0.10566000000E+00 0. -1.
         23    2    1    0    0    0 -0.30158308362E+02  0.11520070130E+02 -0.15156855241E+02  0.89425369905E+02  0.82005676283E+02 0.  0.
         13    1    3    3    0    0 -0.17800253409E+02 -0.34537071036E+02  0.15814457982E+01  0.38886635647E+02  0.10566000000E+00 0.  1.
         22    1    1    0    0    0  0.30158308362E+02 -0.11520070130E+02  0.15156855241E+02  0.35664630095E+02  0.00000000000E+00 0. -1.
</event>
<event>
 5    1  0.1258624E-009  0.9118800E+02  0.7815553E-02  0.1125453E+00
         25   -1    0    0    0    0  0.00000000000E+00  0.00000000000E+00  0.99999998245E-14  0.12509000000E+03  0.12509000000E+03 0.  0.
        -13    1    3    3    0    0  0.25413903913E+02  0.24391549331E+02 -0.39414964107E+02  0.52861751300E+02  0.10566000000E+00 0. -1.
         23    2    1    0    0    0  0.28290714076E+02  0.64782952850E+01 -0.20448138260E+00  0.96066309240E+02  0.91577077621E+02 0.  0.
         13    1    3    3    0    0  0.28768101626E+01 -0.17913254046E+02  0.39210482725E+02  0.43204557940E+02  0.10566000000E+00 0.  1.
         22    1    1    0    0    0 -0.28290714076E+02 -0.64782952850E+01  0.20448138260E+00  0.29023690760E+02  0.00000000000E+00 0. -1.
</event>
<event>
 5    1  0.1258624E-009  0.9118800E+02  0.7815553E-02  0.1125453E+00
         25   -1    0    0    0    0  0.00000000000E+00  0.00000000000E+00  0.99999998245E-14  0.12509000000E+03  0.12509000000E+03 0.  0.
        -13    1    3    3    0    0  0.39881675725E+02 -0.76517130992E+01 -0.11607636391E+02  0.42235591136E+02  0.10566000000E+00 0. -1.
         23    2    1    0    0    0  0.54459075718E+01  0.28379771420E+02  0.68627113334E+01  0.95388718176E+02  0.90646794831E+02 0.  0.
         13    1    3    3    0    0 -0.34435768153E+02  0.36031484520E+02  0.18470347724E+02  0.53153127040E+02  0.10566000000E+00 0.  1.
         22    1    1    0    0    0 -0.54459075718E+01 -0.28379771420E+02 -0.68627113334E+01  0.29701281824E+02  0.00000000000E+00 0.  1.
</event>
<event>
 5    1  0.1258624E-009  0.9118800E+02  0.7815553E-02  0.1125453E+00
         25   -1    0    0    0    0  0.00000000000E+00  0.00000000000E+00  0.99999998245E-14  0.12509000000E+03  0.12509000000E+03 0.  0.
        -13    1    3    3    0    0  0.19667755475E+02 -0.38668374661E+02 -0.23959945838E+01  0.43449001811E+02  0.10566000000E+00 0. -1.
         23    2    1    0    0    0  0.21674128661E+02  0.10664256758E+02 -0.17704123775E+02  0.95141206635E+02  0.90304590004E+02 0.  0.
         13    1    3    3    0    0  0.20063731861E+01  0.49332631419E+02 -0.15308129191E+02  0.51692204823E+02  0.10566000000E+00 0.  1.
         22    1    1    0    0    0 -0.21674128661E+02 -0.10664256758E+02  0.17704123775E+02  0.29948793365E+02  0.00000000000E+00 0.  1.
</event>
<event>
 5    1  0.1258624E-009  0.9118800E+02  0.7815553E-02  0.1125453E+00
         25   -1    0    0    0    0  0.00000000000E+00  0.00000000000E+00  0.99999998245E-14  0.12509000000E+03  0.12509000000E+03 0.  0.
        -13    1    3    3    0    0 -0.68272821117E+01  0.16468047801E+02 -0.49393482101E+02  0.52512242549E+02  0.10566000000E+00 0.  1.
         23    2    1    0    0    0 -0.13474762103E+02 -0.15466057109E+02 -0.20544658520E+02  0.96058101510E+02  0.91565865561E+02 0.  0.
         13    1    3    3    0    0 -0.66474799915E+01 -0.31934104909E+02  0.28848823582E+02  0.43545858961E+02  0.10566000000E+00 0. -1.
         22    1    1    0    0    0  0.13474762103E+02  0.15466057109E+02  0.20544658520E+02  0.29031898490E+02  0.00000000000E+00 0. -1.
</event>
<event>
 5    1  0.1258624E-009  0.9118800E+02  0.7815553E-02  0.1125453E+00
         25   -1    0    0    0    0  0.00000000000E+00  0.00000000000E+00  0.99999998245E-14  0.12509000000E+03  0.12509000000E+03 0.  0.
        -13    1    3    3    0    0  0.50079822692E+02 -0.10651494925E+02  0.15163389392E+02  0.53398338241E+02  0.10566000000E+00 0.  1.
         23    2    1    0    0    0  0.85445316410E+01  0.30164928219E+01  0.25241602884E+02  0.98271223628E+02  0.94540925674E+02 0.  0.
         13    1    3    3    0    0 -0.41535291051E+02  0.13667987747E+02  0.10078213492E+02  0.44872885387E+02  0.10566000000E+00 0. -1.
         22    1    1    0    0    0 -0.85445316410E+01 -0.30164928219E+01 -0.25241602884E+02  0.26818776372E+02  0.00000000000E+00 0.  1.
</event>
<event>
 5    1  0.1258624E-009  0.9118800E+02  0.7815553E-02  0.1125453E+00
         25   -1    0    0    0    0  0.00000000000E+00  0.00000000000E+00  0.99999998245E-14  0.12509000000E+03  0.12509000000E+03 0.  0.
        -13    1    3    3    0    0  0.45560822883E+02  0.32435682404E+02  0.88546940051E+01  0.56624012969E+02  0.10566000000E+00 0. -1.
         23    2    1    0    0    0  0.28676886492E+02  0.10757424364E+01 -0.69090513061E+01  0.95572953559E+02  0.90900678883E+02 0.  0.
         13    1    3    3    0    0 -0.16883936391E+02 -0.31359939967E+02 -0.15763745311E+02  0.38948940590E+02  0.10566000000E+00 0.  1.
         22    1    1    0    0    0 -0.28676886492E+02 -0.10757424364E+01  0.69090513061E+01  0.29517046441E+02  0.00000000000E+00 0. -1.
</event>
<event>
 5    1  0.1258624E-009  0.9118800E+02  0.7815553E-02  0.1125453E+00
         25   -1    0    0    0    0  0.00000000000E+00  0.00000000000E+00  0.99999998245E-14  0.12509000000E+03  0.12509000000E+03 0.  0.
        -13    1    3    3    0    0 -0.29380026272E+02 -0.51721035138E+02  0.60900964264E+01  0.59794246028E+02  0.10566000000E+00 0.  1.
         23    2    1    0    0    0 -0.24874515437E+02 -0.17306663057E+02  0.27893889125E+01  0.94659048735E+02  0.89634216192E+02 0.  0.
         13    1    3    3    0    0  0.45055108352E+01  0.34414372081E+02 -0.33007075139E+01  0.34864802706E+02  0.10566000000E+00 0. -1.
         22    1    1    0    0    0  0.24874515437E+02  0.17306663057E+02 -0.27893889125E+01  0.30430951265E+02  0.00000000000E+00 0.  1.
</event>
<event>
 5    1  0.1258624E-009  0.9118800E+02  0.7815553E-02  0.1125453E+00
         25   -1    0    0    0    0  0.00000000000E+00  0.00000000000E+00  0.99999998245E-14  0.12509000000E+03  0.12509000000E+03 0.  0.
        -13    1    3    3    0    0  0.33129901795E+02  0.17360197324E+02 -0.12234821521E+02  0.39353130317E+02  0.10566000000E+00 0. -1.
         23    2    1    0    0    0 -0.17840825937E+01 -0.26647220927E+02  0.45851498769E+01  0.97992381411E+02  0.94171258255E+02 0.  0.
         13    1    3    3    0    0 -0.34913984388E+02 -0.44007418251E+02  0.16819971397E+02  0.58639251094E+02  0.10566000000E+00 0.  1.
         22    1    1    0    0    0  0.17840825937E+01  0.26647220927E+02 -0.45851498769E+01  0.27097618589E+02  0.00000000000E+00 0.  1.
</event>
<event>
 5    1  0.1258624E-009  0.9118800E+02  0.7815553E-02  0.1125453E+00
         25   -1    0    0    0    0  0.00000000000E+00  0.00000000000E+00  0.99999998245E-14  0.12509000000E+03  0.12509000000E+03 0.  0.
        -13    1    3    3    0    0  0.44523233924E+02  0.18875941175E+02  0.26643025647E+02  0.55213055467E+02  0.10566000000E+00 0.  1.
         23    2    1    0    0    0  0.10776195111E+02 -0.25104562257E+01  0.27785419205E+02  0.95182504419E+02  0.90361777625E+02 0.  0.
         13    1    3    3    0    0 -0.33747038814E+02 -0.21386397400E+02  0.11423935581E+01  0.39969448952E+02  0.10566000000E+00 0. -1.
         22    1    1    0    0    0 -0.10776195111E+02  0.25104562257E+01 -0.27785419205E+02  0.29907495581E+02  0.00000000000E+00 0.  1.
</event>
<event>
 5    1  0.1258624E-009  0.9118800E+02  0.7815553E-02  0.1125453E+00
         25   -1    0    0    0    0  0.00000000000E+00  0.00000000000E+00  0.99999998245E-14  0.12509000000E+03  0.12509000000E+03 0.  0.
        -13    1    3    3    0    0 -0.28076526321E+02  0.44861259311E+02 -0.39253156133E+01  0.53068287930E+02  0.10566000000E+00 0.  1.
         23    2    1    0    0    0 -0.29577995054E+02  0.33850508746E+01  0.30843796219E+01  0.95159584726E+02  0.90330043766E+02 0.  0.
         13    1    3    3    0    0 -0.15014687333E+01 -0.41476208436E+02  0.70096952353E+01  0.42091296795E+02  0.10566000000E+00 0. -1.
         22    1    1    0    0    0  0.29577995054E+02 -0.33850508746E+01 -0.30843796219E+01  0.29930415274E+02  0.00000000000E+00 0.  1.
</event>
<event>
 5    1  0.1258624E-009  0.9118800E+02  0.7815553E-02  0.1125453E+00
         25   -1    0    0    0    0  0.00000000000E+00  0.00000000000E+00  0.99999998245E-14  0.12509000000E+03  0.12509000000E+03 0.  0.
        -13    1    3    3    0    0 -0.19772761045E+02  0.39901584534E+02  0.33950072841E+01  0.44661345324E+02  0.10566000000E+00 0.  1.
         23    2    1    0    0    0 -0.21636168264E+02 -0.83363951461E+01  0.18698658365E+02  0.95303105468E+02  0.90528574638E+02 0.  0.
         13    1    3    3    0    0 -0.18634072192E+01 -0.48237979680E+02  0.15303651081E+02  0.50641760144E+02  0.10566000000E+00 0. -1.
         22    1    1    0    0    0  0.21636168264E+02  0.83363951461E+01 -0.18698658365E+02  0.29786894532E+02  0.00000000000E+00 0. -1.
</event>
<event>
 5    1  0.1258624E-009  0.9118800E+02  0.7815553E-02  0.1125453E+00
         25   -1    0    0    0    0  0.00000000000E+00  0.00000000000E+00  0.99999998245E-14  0.12509000000E+03  0.12509000000E+03 0.  0.
        -13    1    3    3    0    0 -0.20491803945E+02 -0.29065462865E+02 -0.97892227072E+01  0.36885704625E+02  0.10566000000E+00 0. -1.
         23    2    1    0    0    0  0.20324679892E+02  0.19534436701E+01  0.20273947339E+02  0.96316027463E+02  0.91917548111E+02 0.  0.
         13    1    3    3    0    0  0.40816483836E+02  0.31018906535E+02  0.30063170046E+02  0.59430322838E+02  0.10566000000E+00 0.  1.
         22    1    1    0    0    0 -0.20324679892E+02 -0.19534436701E+01 -0.20273947339E+02  0.28773972537E+02  0.00000000000E+00 0.  1.
</event>
<event>
 5    1  0.1258624E-009  0.9118800E+02  0.7815553E-02  0.1125453E+00
         25   -1    0    0    0    0  0.00000000000E+00  0.00000000000E+00  0.99999998245E-14  0.12509000000E+03  0.12509000000E+03 0.  0.
        -13    1    3    3    0    0 -0.13992361636E+02 -0.24436104373E+02 -0.23068433673E+02  0.36401554599E+02  0.10566000000E+00 0.  1.
         23    2    1    0    0    0 -0.50625513499E+01  0.17575831209E+02  0.20524167301E+02  0.97598533828E+02  0.93646639519E+02 0.  0.
         13    1    3    3    0    0  0.89298102857E+01  0.42011935582E+02  0.43592600974E+02  0.61196979229E+02  0.10566000000E+00 0. -1.
         22    1    1    0    0    0  0.50625513499E+01 -0.17575831209E+02 -0.20524167301E+02  0.27491466172E+02  0.00000000000E+00 0. -1.
</event>
<event>
 5    1  0.1258624E-009  0.9118800E+02  0.7815553E-02  0.1125453E+00
         25   -1    0    0    0    0  0.00000000000E+00  0.00000000000E+00  0.99999998245E-14  0.12509000000E+03  0.12509000000E+03 0.  0.
        -13    1    3    3    0    0  0.26042728094E+02 -0.20622281910E+02  0.27463773336E+01  0.33332505910E+02  0.10566000000E+00 0. -1.
         23    2    1    0    0    0 -0.22192250762E+02  0.15911854452E+02 -0.11441313911E+02  0.95482791925E+02  0.90776521105E+02 0.  0.
         13    1    3    3    0    0 -0.48234978856E+02  0.36534136361E+02 -0.14187691244E+02  0.62150286015E+02  0.10566000000E+00 0.  1.
         22    1    1    0    0    0  0.22192250762E+02 -0.15911854452E+02  0.11441313911E+02  0.29607208075E+02  0.00000000000E+00 0.  1.
</event>
<event>
 5    1  0.1258624E-009  0.9118800E+02  0.7815553E-02  0.1125453E+00
         25   -1    0    0    0    0  0.00000000000E+00  0.00000000000E+00  0.99999998245E-14  0.12509000000E+03  0.12509000000E+03 0.  0.
        -13    1    3    3    0    0  0.10626116649E+02 -0.33806976682E+02 -0.23605250529E+02  0.42579866651E+02  0.10566000000E+00 0.  1.
         23    2    1    0    0    0  0.31659265053E+01 -0.82938411688E+01  0.25319397830E+02  0.98259368281E+02  0.94525238198E+02 0.  0.
         13    1    3    3    0    0 -0.74601901437E+01  0.25513135513E+02  0.48924648359E+02  0.55679501630E+02  0.10566000000E+00 0. -1.
         22    1    1    0    0    0 -0.31659265053E+01  0.82938411688E+01 -0.25319397830E+02  0.26830631719E+02  0.00000000000E+00 0. -1.
</event>
<event>
 5    1  0.1258624E-009  0.9118800E+02  0.7815553E-02  0.1125453E+00
         25   -1    0    0    0    0  0.00000000000E+00  0.00000000000E+00  0.99999998245E-14  0.12509000000E+03  0.12509000000E+03 0.  0.
        -13    1    3    3    0    0  0.24237884144E+02 -0.84097434595E+01  0.44189818314E+02  0.51097456096E+02  0.10566000000E+00 0. -1.
         23    2    1    0    0    0 -0.25794138625E+01 -0.17068244232E+02 -0.44072895054E+01  0.10727420538E+03  0.10578446296E+03 0.  0.
         13    1    3    3    0    0 -0.26817298006E+02 -0.86585007725E+01 -0.48597107820E+02  0.56176749287E+02  0.10566000000E+00 0.  1.
         22    1    1    0    0    0  0.25794138625E+01  0.17068244232E+02  0.44072895054E+01  0.17815794617E+02  0.00000000000E+00 0.  1.
</event>
<event>
 5    1  0.1258624E-009  0.9118800E+02  0.7815553E-02  0.1125453E+00
         25   -1    0    0    0    0  0.00000000000E+00  0.00000000000E+00  0.99999998245E-14  0.12509000000E+03  0.12509000000E+03 0.  0.
        -13    1    3    3    0    0 -0.93391981325E+01 -0.34356670518E+02 -0.22873221446E+02  0.42317807767E+02  0.10566000000E+00 0. -1.
         23    2    1    0    0    0 -0.22202852995E+02 -0.44508736748E+01  0.19120506591E+02  0.95452680117E+02  0.90735017560E+02 0.  0.
         13    1    3    3    0    0 -0.12863654862E+02  0.29905796843E+02  0.41993728036E+02  0.53134872350E+02  0.10566000000E+00 0.  1.
         22    1    1    0    0    0  0.22202852995E+02  0.44508736748E+01 -0.19120506591E+02  0.29637319883E+02  0.00000000000E+00 0. -1.
</event>
<event>
 5    1  0.1258624E-009  0.9118800E+02  0.7815553E-02  0.1125453E+00
         25   -1    0    0    0    0  0.00000000000E+00  0.00000000000E+00  0.99999998245E-14  0.12509000000E+03  0.12509000000E+03 0.  0.
        -13    1    3    3    0    0 -0.68059878438E+01 -0.60521892886E+00 -0.34318014894E+02  0.34991785762E+02  0.10566000000E+00 0.  1.
         23    2    1    0    0    0  0.10876156653E+02 -0.56706226305E+01  0.25079312769E+02  0.97171929266E+02  0.93075051242E+02 0.  0.
         13    1    3    3    0    0  0.17682144497E+02 -0.50654037016E+01  0.59397327663E+02  0.62180143504E+02  0.10566000000E+00 0. -1.
         22    1    1    0    0    0 -0.10876156653E+02  0.56706226305E+01 -0.25079312769E+02  0.27918070734E+02  0.00000000000E+00 0. -1.
</event>
<event>
 5    1  0.1258624E-009  0.9118800E+02  0.7815553E-02  0.1125453E+00
         25   -1    0    0    0    0  0.00000000000E+00  0.00000000000E+00  0.99999998245E-14  0.12509000000E+03  0.12509000000E+03 0.  0.
        -13    1    3    3    0    0 -0.57359345902E+02 -0.28045236473E+01  0.41925033543E+01  0.57580796830E+02  0.10566000000E+00 0.  1.
         23    2    1    0    0    0 -0.36752439115E+02  0.15303307676E+02  0.38092099027E+00  0.85276960584E+02  0.75412743612E+02 0.  0.
         13    1    3    3    0    0  0.20606906787E+02  0.18107831323E+02 -0.38115823641E+01  0.27696163755E+02  0.10566000000E+00 0. -1.
         22    1    1    0    0    0  0.36752439115E+02 -0.15303307676E+02 -0.38092099027E+00  0.39813039416E+02  0.00000000000E+00 0.  1.
</event>
<event>
 5    1  0.1258624E-009  0.9118800E+02  0.7815553E-02  0.1125453E+00
         25   -1    0    0    0    0  0.00000000000E+00  0.00000000000E+00  0.99999998245E-14  0.12509000000E+03  0.12509000000E+03 0.  0.
        -13    1    3    3    0    0 -0.87296372771E+01 -0.37770219161E+02 -0.46901676245E+02  0.60848783234E+02  0.10566000000E+00 0. -1.
         23    2    1    0    0    0  0.37379582647E+01 -0.12389686212E+02 -0.26114445415E+02  0.95944830318E+02  0.91410992496E+02 0.  0.
         13    1    3    3    0    0  0.12467595542E+02  0.25380532949E+02  0.20787230829E+02  0.35096047085E+02  0.10566000000E+00 0.  1.
         22    1    1    0    0    0 -0.37379582647E+01  0.12389686212E+02  0.26114445415E+02  0.29145169682E+02  0.00000000000E+00 0. -1.
</event>
<event>
 5    1  0.1258624E-009  0.9118800E+02  0.7815553E-02  0.1125453E+00
         25   -1    0    0    0    0  0.00000000000E+00  0.00000000000E+00  0.99999998245E-14  0.12509000000E+03  0.12509000000E+03 0.  0.
        -13    1    3    3    0    0 -0.21418856505E+02  0.17703940819E+02 -0.20404075511E+02  0.34475127208E+02  0.10566000000E+00 0. -1.
         23    2    1    0    0    0  0.80324211434E+01 -0.23948183141E+02  0.14195975483E+02  0.96114821224E+02  0.91643318762E+02 0.  0.
         13    1    3    3    0    0  0.29451277648E+02 -0.41652123960E+02  0.34600050994E+02  0.61639694016E+02  0.10566000000E+00 0.  1.
         22    1    1    0    0    0 -0.80324211434E+01  0.23948183141E+02 -0.14195975483E+02  0.28975178776E+02  0.00000000000E+00 0.  1.
</event>
<event>
 5    1  0.1258624E-009  0.9118800E+02  0.7815553E-02  0.1125453E+00
         25   -1    0    0    0    0  0.00000000000E+00  0.00000000000E+00  0.99999998245E-14  0.12509000000E+03  0.12509000000E+03 0.  0.
        -13    1    3    3    0    0 -0.21979590179E+02  0.38756545215E+02 -0.35485582565E+02  0.56959721869E+02  0.10566000000E+00 0. -1.
         23    2    1    0    0    0 -0.25439728987E+02  0.87034599948E+01 -0.10392612241E+02  0.96264032262E+02  0.91846760919E+02 0.  0.
         13    1    3    3    0    0 -0.34601388081E+01 -0.30053085220E+02  0.25092970323E+02  0.39304310393E+02  0.10566000000E+00 0.  1.
         22    1    1    0    0    0  0.25439728987E+02 -0.87034599948E+01  0.10392612241E+02  0.28825967738E+02  0.00000000000E+00 0. -1.
</event>
<event>
 5    1  0.1258624E-009  0.9118800E+02  0.7815553E-02  0.1125453E+00
         25   -1    0    0    0    0  0.00000000000E+00  0.00000000000E+00  0.99999998245E-14  0.12509000000E+03  0.12509000000E+03 0.  0.
        -13    1    3    3    0    0 -0.18549583174E+02 -0.27542651185E+02  0.16907584105E+02  0.37263416839E+02  0.10566000000E+00 0.  1.
         23    2    1    0    0    0  0.30480071889E+01  0.35601956702E+00 -0.29427968489E+02  0.95502461624E+02  0.90803621895E+02 0.  0.
         13    1    3    3    0    0  0.21597590363E+02  0.27898670752E+02 -0.46335552594E+02  0.58239044785E+02  0.10566000000E+00 0. -1.
         22    1    1    0    0    0 -0.30480071889E+01 -0.35601956702E+00  0.29427968489E+02  0.29587538376E+02  0.00000000000E+00 0. -1.
</event>
<event>
 5    1  0.1258624E-009  0.9118800E+02  0.7815553E-02  0.1125453E+00
         25   -1    0    0    0    0  0.00000000000E+00  0.00000000000E+00  0.99999998245E-14  0.12509000000E+03  0.12509000000E+03 0.  0.
        -13    1    3    3    0    0  0.28413943246E+02 -0.43803232100E+02  0.34296243599E+02  0.62468542501E+02  0.10566000000E+00 0. -1.
         23    2    1    0    0    0  0.12636848289E+02 -0.21489556159E+02  0.18624942991E+02  0.93971204072E+02  0.88669091203E+02 0.  0.
         13    1    3    3    0    0 -0.15777094957E+02  0.22313675941E+02 -0.15671300608E+02  0.31502661571E+02  0.10566000000E+00 0.  1.
         22    1    1    0    0    0 -0.12636848289E+02  0.21489556159E+02 -0.18624942991E+02  0.31118795928E+02  0.00000000000E+00 0. -1.
</event>
<event>
 5    1  0.1258624E-009  0.9118800E+02  0.7815553E-02  0.1125453E+00
         25   -1    0    0    0    0  0.00000000000E+00  0.00000000000E+00  0.99999998245E-14  0.12509000000E+03  0.12509000000E+03 0.  0.
        -13    1    3    3    0    0  0.32209080816E+02  0.33810154509E+02 -0.12457811590E+02  0.48329697584E+02  0.10566000000E+00 0. -1.
         23    2    1    0    0    0 -0.85798761087E+00  0.76165158191E+01 -0.30081204802E+02  0.94047668608E+02  0.88776898077E+02 0.  0.
         13    1    3    3    0    0 -0.33067068427E+02 -0.26193638690E+02 -0.17623393211E+02  0.45717971023E+02  0.10566000000E+00 0.  1.
         22    1    1    0    0    0  0.85798761087E+00 -0.76165158191E+01  0.30081204802E+02  0.31042331392E+02  0.00000000000E+00 0.  1.
</event>
<event>
 5    1  0.1258624E-009  0.9118800E+02  0.7815553E-02  0.1125453E+00
         25   -1    0    0    0    0  0.00000000000E+00  0.00000000000E+00  0.99999998245E-14  0.12509000000E+03  0.12509000000E+03 0.  0.
        -13    1    3    3    0    0  0.97930972126E+01  0.11136775389E+02  0.31504269353E+02  0.34820434670E+02  0.10566000000E+00 0.  1.
         23    2    1    0    0    0 -0.19928593749E+02 -0.32952575299E+01 -0.20421220931E+02  0.96366597776E+02  0.91986343180E+02 0.  0.
         13    1    3    3    0    0 -0.29721690962E+02 -0.14432032919E+02 -0.51925490284E+02  0.61546163106E+02  0.10566000000E+00 0. -1.
         22    1    1    0    0    0  0.19928593749E+02  0.32952575299E+01  0.20421220931E+02  0.28723402224E+02  0.00000000000E+00 0. -1.
</event>
<event>
 5    1  0.1258624E-009  0.9118800E+02  0.7815553E-02  0.1125453E+00
         25   -1    0    0    0    0  0.00000000000E+00  0.00000000000E+00  0.99999998245E-14  0.12509000000E+03  0.12509000000E+03 0.  0.
        -13    1    3    3    0    0 -0.18595605422E+02 -0.14235878360E+02 -0.41986389060E+02  0.48076239495E+02  0.10566000000E+00 0.  1.
         23    2    1    0    0    0 -0.55395935933E+00 -0.28583540459E+02  0.59298712319E+00  0.96494942912E+02  0.92160711356E+02 0.  0.
         13    1    3    3    0    0  0.18041646063E+02 -0.14347662099E+02  0.42579376183E+02  0.48418703417E+02  0.10566000000E+00 0. -1.
         22    1    1    0    0    0  0.55395935933E+00  0.28583540459E+02 -0.59298712319E+00  0.28595057088E+02  0.00000000000E+00 0. -1.
</event>
<event>
 5    1  0.1258624E-009  0.9118800E+02  0.7815553E-02  0.1125453E+00
         25   -1    0    0    0    0  0.00000000000E+00  0.00000000000E+00  0.99999998245E-14  0.12509000000E+03  0.12509000000E+03 0.  0.
        -13    1    3    3    0    0  0.25659344274E+02  0.25880652556E+02  0.18222835267E+02  0.40746693295E+02  0.10566000000E+00 0. -1.
         23    2    1    0    0    0 -0.21410423782E+02  0.25102954289E+02 -0.21161830000E+01  0.92028802335E+02  0.85885142301E+02 0.  0.
         13    1    3    3    0    0 -0.47069768056E+02 -0.77769826659E+00 -0.20339018267E+02  0.51282109040E+02  0.10566000000E+00 0.  1.
         22    1    1    0    0    0  0.21410423782E+02 -0.25102954289E+02  0.21161830000E+01  0.33061197665E+02  0.00000000000E+00 0. -1.
</event>
<event>
 5    1  0.1258624E-009  0.9118800E+02  0.7815553E-02  0.1125453E+00
         25   -1    0    0    0    0  0.00000000000E+00  0.00000000000E+00  0.99999998245E-14  0.12509000000E+03  0.12509000000E+03 0.  0.
        -13    1    3    3    0    0 -0.42091517616E+02  0.13945117474E+02 -0.34584838182E+02  0.56234192025E+02  0.10566000000E+00 0. -1.
         23    2    1    0    0    0 -0.27664776674E+02  0.10898775025E+02  0.16048428088E+01  0.95312513774E+02  0.90541573854E+02 0.  0.
         13    1    3    3    0    0  0.14426740941E+02 -0.30463424495E+01  0.36189680991E+02  0.39078321749E+02  0.10566000000E+00 0.  1.
         22    1    1    0    0    0  0.27664776674E+02 -0.10898775025E+02 -0.16048428088E+01  0.29777486226E+02  0.00000000000E+00 0. -1.
</event>
<event>
 5    1  0.1258624E-009  0.9118800E+02  0.7815553E-02  0.1125453E+00
         25   -1    0    0    0    0  0.00000000000E+00  0.00000000000E+00  0.99999998245E-14  0.12509000000E+03  0.12509000000E+03 0.  0.
        -13    1    3    3    0    0 -0.42853571387E+02  0.32268352153E+02 -0.23891423547E+02  0.58723814713E+02  0.10566000000E+00 0. -1.
         23    2    1    0    0    0 -0.18363500705E+02  0.38151853907E+01 -0.21812405239E+02  0.96322747437E+02  0.91926692825E+02 0.  0.
         13    1    3    3    0    0  0.24490070682E+02 -0.28453166763E+02  0.20790183080E+01  0.37598932724E+02  0.10566000000E+00 0.  1.
         22    1    1    0    0    0  0.18363500705E+02 -0.38151853907E+01  0.21812405239E+02  0.28767252563E+02  0.00000000000E+00 0. -1.
</event>
<event>
 5    1  0.1258624E-009  0.9118800E+02  0.7815553E-02  0.1125453E+00
         25   -1    0    0    0    0  0.00000000000E+00  0.00000000000E+00  0.99999998245E-14  0.12509000000E+03  0.12509000000E+03 0.  0.
        -13    1    3    3    0    0 -0.15874701357E+02 -0.17809626535E+02  0.28816125046E+02  0.37410816179E+02  0.10566000000E+00 0.  1.
         23    2    1    0    0    0  0.13206596251E+01 -0.11945284817E+02 -0.26692329090E+02  0.95816899661E+02  0.91235759750E+02 0.  0.
         13    1    3    3    0    0  0.17195360982E+02  0.58643417179E+01 -0.55508454136E+02  0.58406083482E+02  0.10566000000E+00 0. -1.
         22    1    1    0    0    0 -0.13206596251E+01  0.11945284817E+02  0.26692329090E+02  0.29273100339E+02  0.00000000000E+00 0. -1.
</event>
<event>
 5    1  0.1258624E-009  0.9118800E+02  0.7815553E-02  0.1125453E+00
         25   -1    0    0    0    0  0.00000000000E+00  0.00000000000E+00  0.99999998245E-14  0.12509000000E+03  0.12509000000E+03 0.  0.
        -13    1    3    3    0    0 -0.52695189612E+02 -0.15872746711E+02  0.27883367857E+02  0.61694574020E+02  0.10566000000E+00 0. -1.
         23    2    1    0    0    0 -0.20408345012E+02 -0.11914574286E+02  0.16936589541E+02  0.96015858708E+02  0.91508138608E+02 0.  0.
         13    1    3    3    0    0  0.32286844599E+02  0.39581724245E+01 -0.10946778316E+02  0.34321284688E+02  0.10566000000E+00 0.  1.
         22    1    1    0    0    0  0.20408345012E+02  0.11914574286E+02 -0.16936589541E+02  0.29074141292E+02  0.00000000000E+00 0. -1.
</event>
<event>
 5    1  0.1258624E-009  0.9118800E+02  0.7815553E-02  0.1125453E+00
         25   -1    0    0    0    0  0.00000000000E+00  0.00000000000E+00  0.99999998245E-14  0.12509000000E+03  0.12509000000E+03 0.  0.
        -13    1    3    3    0    0  0.57418717726E+02  0.12731681826E+01 -0.15240728347E+02  0.59420712442E+02  0.10566000000E+00 0. -1.
         23    2    1    0    0    0  0.21270388678E+02 -0.94596056453E+01 -0.15487605281E+02  0.97129680066E+02  0.93018252289E+02 0.  0.
         13    1    3    3    0    0 -0.36148329048E+02 -0.10732773828E+02 -0.24687693361E+00  0.37708967624E+02  0.10566000000E+00 0.  1.
         22    1    1    0    0    0 -0.21270388678E+02  0.94596056453E+01  0.15487605281E+02  0.27960319934E+02  0.00000000000E+00 0. -1.
</event>
<event>
 5    1  0.1258624E-009  0.9118800E+02  0.7815553E-02  0.1125453E+00
         25   -1    0    0    0    0  0.00000000000E+00  0.00000000000E+00  0.99999998245E-14  0.12509000000E+03  0.12509000000E+03 0.  0.
        -13    1    3    3    0    0 -0.18701699229E+02  0.22960492179E+01  0.30402169203E+02  0.35767701245E+02  0.10566000000E+00 0. -1.
         23    2    1    0    0    0  0.56269802500E+01 -0.68197879436E+01 -0.25871561770E+02  0.97749368647E+02  0.93847903270E+02 0.  0.
         13    1    3    3    0    0  0.24328679479E+02 -0.91158371615E+01 -0.56273730973E+02  0.61981667403E+02  0.10566000000E+00 0.  1.
         22    1    1    0    0    0 -0.56269802500E+01  0.68197879436E+01  0.25871561770E+02  0.27340631353E+02  0.00000000000E+00 0.  1.
</event>
<event>
 5    1  0.1258624E-009  0.9118800E+02  0.7815553E-02  0.1125453E+00
         25   -1    0    0    0    0  0.00000000000E+00  0.00000000000E+00  0.99999998245E-14  0.12509000000E+03  0.12509000000E+03 0.  0.
        -13    1    3    3    0    0  0.19280337059E+02 -0.18295708423E+02  0.34586995184E+02  0.43620359280E+02  0.10566000000E+00 0. -1.
         23    2    1    0    0    0 -0.18636934824E+02  0.13746821831E+02  0.17284544345E+02  0.96192492784E+02  0.91749276535E+02 0.  0.
         13    1    3    3    0    0 -0.37917271883E+02  0.32042530254E+02 -0.17302450839E+02  0.52572133504E+02  0.10566000000E+00 0.  1.
         22    1    1    0    0    0  0.18636934824E+02 -0.13746821831E+02 -0.17284544345E+02  0.28897507216E+02  0.00000000000E+00 0.  1.
</event>
<event>
 5    1  0.1258624E-009  0.9118800E+02  0.7815553E-02  0.1125453E+00
         25   -1    0    0    0    0  0.00000000000E+00  0.00000000000E+00  0.99999998245E-14  0.12509000000E+03  0.12509000000E+03 0.  0.
        -13    1    3    3    0    0 -0.33262271327E+01  0.94455344170E+00  0.50905862573E+02  0.51023268971E+02  0.10566000000E+00 0. -1.
         23    2    1    0    0    0  0.25082359270E+02  0.11684855732E+01  0.20126266166E+02  0.92909933268E+02  0.87159044310E+02 0.  0.
         13    1    3    3    0    0  0.28408586402E+02  0.22393213154E+00 -0.30779596407E+02  0.41886664297E+02  0.10566000000E+00 0.  1.
         22    1    1    0    0    0 -0.25082359270E+02 -0.11684855732E+01 -0.20126266166E+02  0.32180066732E+02  0.00000000000E+00 0. -1.
</event>
<event>
 5    1  0.1258624E-009  0.9118800E+02  0.7815553E-02  0.1125453E+00
         25   -1    0    0    0    0  0.00000000000E+00  0.00000000000E+00  0.99999998245E-14  0.12509000000E+03  0.12509000000E+03 0.  0.
        -13    1    3    3    0    0  0.21584246676E+02  0.43150086194E+00  0.51493868610E+02  0.55836328372E+02  0.10566000000E+00 0. -1.
         23    2    1    0    0    0 -0.90809202583E+01  0.73662787214E+01  0.26919504148E+02  0.95740640918E+02  0.91131144209E+02 0.  0.
         13    1    3    3    0    0 -0.30665166934E+02  0.69347778594E+01 -0.24574364461E+02  0.39904312546E+02  0.10566000000E+00 0.  1.
         22    1    1    0    0    0  0.90809202583E+01 -0.73662787214E+01 -0.26919504148E+02  0.29349359082E+02  0.00000000000E+00 0. -1.
</event>
<event>
 5    1  0.1258624E-009  0.9118800E+02  0.7815553E-02  0.1125453E+00
         25   -1    0    0    0    0  0.00000000000E+00  0.00000000000E+00  0.99999998245E-14  0.12509000000E+03  0.12509000000E+03 0.  0.
        -13    1    3    3    0    0 -0.11257108555E+02 -0.67652744359E+01  0.17920465335E+02  0.22218138380E+02  0.10566000000E+00 0.  1.
         23    2    1    0    0    0  0.19950737069E+02  0.39632269588E+02  0.74505168828E+00  0.80713161398E+02  0.67418918847E+02 0.  0.
         13    1    3    3    0    0  0.31207845624E+02  0.46397544024E+02 -0.17175413646E+02  0.58495023018E+02  0.10566000000E+00 0. -1.
         22    1    1    0    0    0 -0.19950737069E+02 -0.39632269588E+02 -0.74505168828E+00  0.44376838602E+02  0.00000000000E+00 0. -1.
</event>
<event>
 5    1  0.1258624E-009  0.9118800E+02  0.7815553E-02  0.1125453E+00
         25   -1    0    0    0    0  0.00000000000E+00  0.00000000000E+00  0.99999998245E-14  0.12509000000E+03  0.12509000000E+03 0.  0.
        -13    1    3    3    0    0  0.58897013367E+02 -0.97303098256E+01 -0.67703928317E+01  0.60078169879E+02  0.10566000000E+00 0.  1.
         23    2    1    0    0    0  0.22183713342E+02 -0.15948416142E+02 -0.10772088579E+01  0.97747185697E+02  0.93844993568E+02 0.  0.
         13    1    3    3    0    0 -0.36713300025E+02 -0.62181063160E+01  0.56931839738E+01  0.37669015818E+02  0.10566000000E+00 0. -1.
         22    1    1    0    0    0 -0.22183713342E+02  0.15948416142E+02  0.10772088579E+01  0.27342814303E+02  0.00000000000E+00 0.  1.
</event>
<event>
 5    1  0.1258624E-009  0.9118800E+02  0.7815553E-02  0.1125453E+00
         25   -1    0    0    0    0  0.00000000000E+00  0.00000000000E+00  0.99999998245E-14  0.12509000000E+03  0.12509000000E+03 0.  0.
        -13    1    3    3    0    0  0.14750856948E+02 -0.19680929585E+02 -0.37975998740E+02  0.45245048506E+02  0.10566000000E+00 0.  1.
         23    2    1    0    0    0 -0.38981604628E+01  0.23166996769E+02 -0.13415059423E+02  0.98036918593E+02  0.94230399520E+02 0.  0.
         13    1    3    3    0    0 -0.18649017411E+02  0.42847926353E+02  0.24560939317E+02  0.52791870087E+02  0.10566000000E+00 0. -1.
         22    1    1    0    0    0  0.38981604628E+01 -0.23166996769E+02  0.13415059423E+02  0.27053081407E+02  0.00000000000E+00 0. -1.
</event>
<event>
 5    1  0.1258624E-009  0.9118800E+02  0.7815553E-02  0.1125453E+00
         25   -1    0    0    0    0  0.00000000000E+00  0.00000000000E+00  0.99999998245E-14  0.12509000000E+03  0.12509000000E+03 0.  0.
        -13    1    3    3    0    0  0.81035504792E+01  0.75037531689E+01  0.37707061760E+02  0.39291315995E+02  0.10566000000E+00 0.  1.
         23    2    1    0    0    0  0.78635174843E+01 -0.73267873675E+01 -0.21888537761E+02  0.10070507011E+03  0.97708169262E+02 0.  0.
         13    1    3    3    0    0 -0.24003299486E+00 -0.14830540536E+02 -0.59595599521E+02  0.61413754117E+02  0.10566000000E+00 0. -1.
         22    1    1    0    0    0 -0.78635174843E+01  0.73267873675E+01  0.21888537761E+02  0.24384929888E+02  0.00000000000E+00 0. -1.
</event>
<event>
 5    1  0.1258624E-009  0.9118800E+02  0.7815553E-02  0.1125453E+00
         25   -1    0    0    0    0  0.00000000000E+00  0.00000000000E+00  0.99999998245E-14  0.12509000000E+03  0.12509000000E+03 0.  0.
        -13    1    3    3    0    0  0.14785865225E+01 -0.57092864721E+02 -0.10270586871E+02  0.58028247767E+02  0.10566000000E+00 0. -1.
         23    2    1    0    0    0 -0.12538316635E+02 -0.26467136077E+02  0.56184524892E+01  0.95269106577E+02  0.90481583670E+02 0.  0.
         13    1    3    3    0    0 -0.14016903158E+02  0.30625728644E+02  0.15889039360E+02  0.37240858810E+02  0.10566000000E+00 0.  1.
         22    1    1    0    0    0  0.12538316635E+02  0.26467136077E+02 -0.56184524892E+01  0.29820893423E+02  0.00000000000E+00 0. -1.
</event>
<event>
 5    1  0.1258624E-009  0.9118800E+02  0.7815553E-02  0.1125453E+00
         25   -1    0    0    0    0  0.00000000000E+00  0.00000000000E+00  0.99999998245E-14  0.12509000000E+03  0.12509000000E+03 0.  0.
        -13    1    3    3    0    0 -0.43050003789E+02  0.28875901168E+02 -0.32035313927E+02  0.60937615616E+02  0.10566000000E+00 0.  1.
         23    2    1    0    0    0 -0.26346125896E+02  0.11040760912E+02 -0.75217294299E+01  0.95550312038E+02  0.90869516152E+02 0.  0.
         13    1    3    3    0    0  0.16703877893E+02 -0.17835140256E+02  0.24513584498E+02  0.34612696422E+02  0.10566000000E+00 0. -1.
         22    1    1    0    0    0  0.26346125896E+02 -0.11040760912E+02  0.75217294299E+01  0.29539687962E+02  0.00000000000E+00 0.  1.
</event>
<event>
 5    1  0.1258624E-009  0.9118800E+02  0.7815553E-02  0.1125453E+00
         25   -1    0    0    0    0  0.00000000000E+00  0.00000000000E+00  0.99999998245E-14  0.12509000000E+03  0.12509000000E+03 0.  0.
        -13    1    3    3    0    0  0.99941874466E+01 -0.48011763007E+02 -0.25433889412E+02  0.55244068138E+02  0.10566000000E+00 0. -1.
         23    2    1    0    0    0  0.72160542675E+01 -0.29013511375E+02  0.83020756586E+01  0.94061307766E+02  0.88796114087E+02 0.  0.
         13    1    3    3    0    0 -0.27781331791E+01  0.18998251632E+02  0.33735965071E+02  0.38817239628E+02  0.10566000000E+00 0.  1.
         22    1    1    0    0    0 -0.72160542675E+01  0.29013511375E+02 -0.83020756586E+01  0.31028692234E+02  0.00000000000E+00 0. -1.
</event>
<event>
 5    1  0.1258624E-009  0.9118800E+02  0.7815553E-02  0.1125453E+00
         25   -1    0    0    0    0  0.00000000000E+00  0.00000000000E+00  0.99999998245E-14  0.12509000000E+03  0.12509000000E+03 0.  0.
        -13    1    3    3    0    0 -0.32607481542E+02 -0.69638710347E+01 -0.15277039970E+02  0.36676183916E+02  0.10566000000E+00 0. -1.
         23    2    1    0    0    0  0.91484858711E+00 -0.29980938215E+01  0.30986296846E+02  0.93945560581E+02  0.88632907242E+02 0.  0.
         13    1    3    3    0    0  0.33522330129E+02  0.39657772132E+01  0.46263336816E+02  0.57269376665E+02  0.10566000000E+00 0.  1.
         22    1    1    0    0    0 -0.91484858711E+00  0.29980938215E+01 -0.30986296846E+02  0.31144439419E+02  0.00000000000E+00 0.  1.
</event>
<event>
 5    1  0.1258624E-009  0.9118800E+02  0.7815553E-02  0.1125453E+00
         25   -1    0    0    0    0  0.00000000000E+00  0.00000000000E+00  0.99999998245E-14  0.12509000000E+03  0.12509000000E+03 0.  0.
        -13    1    3    3    0    0 -0.37764774863E+02  0.24863452028E+02 -0.30714313383E+02  0.54660311725E+02  0.10566000000E+00 0.  1.
         23    2    1    0    0    0 -0.27722939328E+02  0.97416013490E+01  0.55236350102E+01  0.95190657105E+02  0.90373062881E+02 0.  0.
         13    1    3    3    0    0  0.10041835535E+02 -0.15121850679E+02  0.36237948393E+02  0.40530345380E+02  0.10566000000E+00 0. -1.
         22    1    1    0    0    0  0.27722939328E+02 -0.97416013490E+01 -0.55236350102E+01  0.29899342895E+02  0.00000000000E+00 0.  1.
</event>
<event>
 5    1  0.1258624E-009  0.9118800E+02  0.7815553E-02  0.1125453E+00
         25   -1    0    0    0    0  0.00000000000E+00  0.00000000000E+00  0.99999998245E-14  0.12509000000E+03  0.12509000000E+03 0.  0.
        -13    1    3    3    0    0  0.69549274507E+01 -0.28844171703E+02 -0.34524037007E+02  0.45522275343E+02  0.10566000000E+00 0.  1.
         23    2    1    0    0    0 -0.24362663321E+02  0.56125115491E+01 -0.14312662900E+02  0.96282154379E+02  0.91871438884E+02 0.  0.
         13    1    3    3    0    0 -0.31317590772E+02  0.34456683252E+02  0.20211374106E+02  0.50759879037E+02  0.10566000000E+00 0. -1.
         22    1    1    0    0    0  0.24362663321E+02 -0.56125115491E+01  0.14312662900E+02  0.28807845621E+02  0.00000000000E+00 0. -1.
</event>
<event>
 5    1  0.1258624E-009  0.9118800E+02  0.7815553E-02  0.1125453E+00
         25   -1    0    0    0    0  0.00000000000E+00  0.00000000000E+00  0.99999998245E-14  0.12509000000E+03  0.12509000000E+03 0.  0.
        -13    1    3    3    0    0  0.20267548396E+02 -0.95687542604E+01 -0.53721142365E+02  0.58209164889E+02  0.10566000000E+00 0. -1.
         23    2    1    0    0    0 -0.45064653065E+01 -0.12838329413E+02 -0.27367579630E+02  0.94526699353E+02  0.89449323888E+02 0.  0.
         13    1    3    3    0    0 -0.24774013703E+02 -0.32695751530E+01  0.26353562735E+02  0.36317534463E+02  0.10566000000E+00 0.  1.
         22    1    1    0    0    0  0.45064653065E+01  0.12838329413E+02  0.27367579630E+02  0.30563300647E+02  0.00000000000E+00 0. -1.
</event>
<event>
 5    1  0.1258624E-009  0.9118800E+02  0.7815553E-02  0.1125453E+00
         25   -1    0    0    0    0  0.00000000000E+00  0.00000000000E+00  0.99999998245E-14  0.12509000000E+03  0.12509000000E+03 0.  0.
        -13    1    3    3    0    0  0.64996872370E+01  0.48499460246E+02 -0.21070077608E+02  0.53276663867E+02  0.10566000000E+00 0.  1.
         23    2    1    0    0    0  0.49252201505E+01  0.24076434277E+02  0.14577264521E+02  0.96516776136E+02  0.92190340892E+02 0.  0.
         13    1    3    3    0    0 -0.15744670865E+01 -0.24423025969E+02  0.35647342130E+02  0.43240112269E+02  0.10566000000E+00 0. -1.
         22    1    1    0    0    0 -0.49252201505E+01 -0.24076434277E+02 -0.14577264521E+02  0.28573223864E+02  0.00000000000E+00 0.  1.
</event>
<event>
 5    1  0.1258624E-009  0.9118800E+02  0.7815553E-02  0.1125453E+00
         25   -1    0    0    0    0  0.00000000000E+00  0.00000000000E+00  0.99999998245E-14  0.12509000000E+03  0.12509000000E+03 0.  0.
        -13    1    3    3    0    0  0.58069354594E+02  0.80494991168E+01  0.12903141875E+02  0.60027881966E+02  0.10566000000E+00 0.  1.
         23    2    1    0    0    0  0.26150724469E+02 -0.82092922619E+01  0.97938553401E+01  0.95983772623E+02  0.91464266984E+02 0.  0.
         13    1    3    3    0    0 -0.31918630125E+02 -0.16258791379E+02 -0.31092865344E+01  0.35955890657E+02  0.10566000000E+00 0. -1.
         22    1    1    0    0    0 -0.26150724469E+02  0.82092922619E+01 -0.97938553401E+01  0.29106227377E+02  0.00000000000E+00 0.  1.
</event>
<event>
 5    1  0.1258624E-009  0.9118800E+02  0.7815553E-02  0.1125453E+00
         25   -1    0    0    0    0  0.00000000000E+00  0.00000000000E+00  0.99999998245E-14  0.12509000000E+03  0.12509000000E+03 0.  0.
        -13    1    3    3    0    0 -0.17910331621E+02  0.75279871781E+01  0.33261037659E+02  0.38519584109E+02  0.10566000000E+00 0.  1.
         23    2    1    0    0    0  0.23853334093E+02  0.16149470808E+02 -0.50488041135E+01  0.95844874292E+02  0.91274106680E+02 0.  0.
         13    1    3    3    0    0  0.41763665714E+02  0.86214836295E+01 -0.38309841773E+02  0.57325290183E+02  0.10566000000E+00 0. -1.
         22    1    1    0    0    0 -0.23853334093E+02 -0.16149470808E+02  0.50488041135E+01  0.29245125708E+02  0.00000000000E+00 0. -1.
</event>
<event>
 5    1  0.1258624E-009  0.9118800E+02  0.7815553E-02  0.1125453E+00
         25   -1    0    0    0    0  0.00000000000E+00  0.00000000000E+00  0.99999998245E-14  0.12509000000E+03  0.12509000000E+03 0.  0.
        -13    1    3    3    0    0 -0.26940039023E+01 -0.36556350144E+02  0.45866823291E+02  0.58714572601E+02  0.10566000000E+00 0. -1.
         23    2    1    0    0    0 -0.12772064364E+02 -0.57112537082E+01  0.22086032149E+02  0.98945462079E+02  0.95428861478E+02 0.  0.
         13    1    3    3    0    0 -0.10078060461E+02  0.30845096436E+02 -0.23780791143E+02  0.40230889478E+02  0.10566000000E+00 0.  1.
         22    1    1    0    0    0  0.12772064364E+02  0.57112537082E+01 -0.22086032149E+02  0.26144537921E+02  0.00000000000E+00 0. -1.
</event>
<event>
 5    1  0.1258624E-009  0.9118800E+02  0.7815553E-02  0.1125453E+00
         25   -1    0    0    0    0  0.00000000000E+00  0.00000000000E+00  0.99999998245E-14  0.12509000000E+03  0.12509000000E+03 0.  0.
        -13    1    3    3    0    0 -0.34600517635E+01  0.60763880012E+01 -0.40791901162E+02  0.41387012622E+02  0.10566000000E+00 0.  1.
         23    2    1    0    0    0 -0.14081334263E+01 -0.21525903690E+02  0.11567673578E+02  0.10061228684E+03  0.97589312029E+02 0.  0.
         13    1    3    3    0    0  0.20519183372E+01 -0.27602291691E+02  0.52359574740E+02  0.59225274220E+02  0.10566000000E+00 0. -1.
         22    1    1    0    0    0  0.14081334263E+01  0.21525903690E+02 -0.11567673578E+02  0.24477713157E+02  0.00000000000E+00 0. -1.
</event>
<event>
 5    1  0.1258624E-009  0.9118800E+02  0.7815553E-02  0.1125453E+00
         25   -1    0    0    0    0  0.00000000000E+00  0.00000000000E+00  0.99999998245E-14  0.12509000000E+03  0.12509000000E+03 0.  0.
        -13    1    3    3    0    0  0.32969111193E+01  0.16061735720E+02  0.35017639844E+02  0.38666461456E+02  0.10566000000E+00 0.  1.
         23    2    1    0    0    0  0.20620096251E+02 -0.17854586951E+02 -0.85235926626E+01  0.96513326357E+02  0.92185659883E+02 0.  0.
         13    1    3    3    0    0  0.17323185132E+02 -0.33916322671E+02 -0.43541232506E+02  0.57846864901E+02  0.10566000000E+00 0. -1.
         22    1    1    0    0    0 -0.20620096251E+02  0.17854586951E+02  0.85235926626E+01  0.28576673643E+02  0.00000000000E+00 0. -1.
</event>
<event>
 5    1  0.1258624E-009  0.9118800E+02  0.7815553E-02  0.1125453E+00
         25   -1    0    0    0    0  0.00000000000E+00  0.00000000000E+00  0.99999998245E-14  0.12509000000E+03  0.12509000000E+03 0.  0.
        -13    1    3    3    0    0  0.94764854261E+00  0.33733467161E+02 -0.61514860749E+01  0.34303014291E+02  0.10566000000E+00 0. -1.
         23    2    1    0    0    0  0.99464448766E+01 -0.23069326510E+02  0.15289347150E+02  0.95680992408E+02  0.91049231631E+02 0.  0.
         13    1    3    3    0    0  0.89987963340E+01 -0.56802793671E+02  0.21440833225E+02  0.61377978117E+02  0.10566000000E+00 0.  1.
         22    1    1    0    0    0 -0.99464448766E+01  0.23069326510E+02 -0.15289347150E+02  0.29409007592E+02  0.00000000000E+00 0.  1.
</event>
<event>
 5    1  0.1258624E-009  0.9118800E+02  0.7815553E-02  0.1125453E+00
         25   -1    0    0    0    0  0.00000000000E+00  0.00000000000E+00  0.99999998245E-14  0.12509000000E+03  0.12509000000E+03 0.  0.
        -13    1    3    3    0    0 -0.46042194567E+01 -0.26917032324E+02  0.21519044196E+02  0.34767885945E+02  0.10566000000E+00 0.  1.
         23    2    1    0    0    0  0.23438983273E+02  0.19390891491E+02 -0.36158982117E+01  0.94455585862E+02  0.89349820206E+02 0.  0.
         13    1    3    3    0    0  0.28043202730E+02  0.46307923815E+02 -0.25134942408E+02  0.59687699917E+02  0.10566000000E+00 0. -1.
         22    1    1    0    0    0 -0.23438983273E+02 -0.19390891491E+02  0.36158982117E+01  0.30634414138E+02  0.00000000000E+00 0. -1.
</event>
<event>
 5    1  0.1258624E-009  0.9118800E+02  0.7815553E-02  0.1125453E+00
         25   -1    0    0    0    0  0.00000000000E+00  0.00000000000E+00  0.99999998245E-14  0.12509000000E+03  0.12509000000E+03 0.  0.
        -13    1    3    3    0    0 -0.35223646857E+02 -0.32075740841E+02 -0.10238703359E+02  0.48727822227E+02  0.10566000000E+00 0.  1.
         23    2    1    0    0    0  0.64843114921E+01 -0.26374273849E+02  0.10889631054E+02  0.95828546156E+02  0.91251726434E+02 0.  0.
         13    1    3    3    0    0  0.41707958349E+02  0.57014669924E+01  0.21128334414E+02  0.47100723929E+02  0.10566000000E+00 0. -1.
         22    1    1    0    0    0 -0.64843114921E+01  0.26374273849E+02 -0.10889631054E+02  0.29261453844E+02  0.00000000000E+00 0.  1.
</event>
<event>
 5    1  0.1258624E-009  0.9118800E+02  0.7815553E-02  0.1125453E+00
         25   -1    0    0    0    0  0.00000000000E+00  0.00000000000E+00  0.99999998245E-14  0.12509000000E+03  0.12509000000E+03 0.  0.
        -13    1    3    3    0    0  0.62247441409E+01  0.57920981816E+02  0.12999452705E+02  0.59687389864E+02  0.10566000000E+00 0. -1.
         23    2    1    0    0    0  0.37000259052E+01  0.31157828826E+02 -0.66887770752E+01  0.93008225928E+02  0.87299999214E+02 0.  0.
         13    1    3    3    0    0 -0.25247182357E+01 -0.26763152990E+02 -0.19688229780E+02  0.33320836064E+02  0.10566000000E+00 0.  1.
         22    1    1    0    0    0 -0.37000259052E+01 -0.31157828826E+02  0.66887770752E+01  0.32081774072E+02  0.00000000000E+00 0. -1.
</event>
<event>
 5    1  0.1258624E-009  0.9118800E+02  0.7815553E-02  0.1125453E+00
         25   -1    0    0    0    0  0.00000000000E+00  0.00000000000E+00  0.99999998245E-14  0.12509000000E+03  0.12509000000E+03 0.  0.
        -13    1    3    3    0    0  0.31375621116E+02  0.27660712388E+02  0.11512835810E+01  0.41843532692E+02  0.10566000000E+00 0.  1.
         23    2    1    0    0    0 -0.50994645237E+01  0.61919410087E+00  0.29350508798E+02  0.95293350751E+02  0.90515094824E+02 0.  0.
         13    1    3    3    0    0 -0.36475085640E+02 -0.27041518287E+02  0.28199225217E+02  0.53449818059E+02  0.10566000000E+00 0. -1.
         22    1    1    0    0    0  0.50994645237E+01 -0.61919410087E+00 -0.29350508798E+02  0.29796649249E+02  0.00000000000E+00 0. -1.
</event>
<event>
 5    1  0.1258624E-009  0.9118800E+02  0.7815553E-02  0.1125453E+00
         25   -1    0    0    0    0  0.00000000000E+00  0.00000000000E+00  0.99999998245E-14  0.12509000000E+03  0.12509000000E+03 0.  0.
        -13    1    3    3    0    0 -0.39687606458E+02 -0.14609472495E+01  0.23242906920E+02  0.46016131512E+02  0.10566000000E+00 0.  1.
         23    2    1    0    0    0 -0.25028215636E+02 -0.99313071216E+01 -0.19403570458E+02  0.91900528995E+02  0.85698111088E+02 0.  0.
         13    1    3    3    0    0  0.14659390822E+02 -0.84703598721E+01 -0.42646477377E+02  0.45884397483E+02  0.10566000000E+00 0. -1.
         22    1    1    0    0    0  0.25028215636E+02  0.99313071216E+01  0.19403570458E+02  0.33189471005E+02  0.00000000000E+00 0.  1.
</event>
<event>
 5    1  0.1258624E-009  0.9118800E+02  0.7815553E-02  0.1125453E+00
         25   -1    0    0    0    0  0.00000000000E+00  0.00000000000E+00  0.99999998245E-14  0.12509000000E+03  0.12509000000E+03 0.  0.
        -13    1    3    3    0    0 -0.66655310574E+01  0.15238007146E+02 -0.46041601208E+02  0.48953716630E+02  0.10566000000E+00 0. -1.
         23    2    1    0    0    0 -0.23206093327E+02 -0.12475120841E+02 -0.11156062376E+02  0.96478653733E+02  0.92138599354E+02 0.  0.
         13    1    3    3    0    0 -0.16540562269E+02 -0.27713127986E+02  0.34885538832E+02  0.47524937103E+02  0.10566000000E+00 0.  1.
         22    1    1    0    0    0  0.23206093327E+02  0.12475120841E+02  0.11156062376E+02  0.28611346267E+02  0.00000000000E+00 0.  1.
</event>
<event>
 5    1  0.1258624E-009  0.9118800E+02  0.7815553E-02  0.1125453E+00
         25   -1    0    0    0    0  0.00000000000E+00  0.00000000000E+00  0.99999998245E-14  0.12509000000E+03  0.12509000000E+03 0.  0.
        -13    1    3    3    0    0  0.22557864541E+02  0.91888117119E+01 -0.41965105490E+02  0.48521879149E+02  0.10566000000E+00 0. -1.
         23    2    1    0    0    0  0.23998032545E+02 -0.16983973829E+02 -0.29260334258E+01  0.95544736341E+02  0.90861840383E+02 0.  0.
         13    1    3    3    0    0  0.14401680046E+01 -0.26172785541E+02  0.39039072064E+02  0.47022857192E+02  0.10566000000E+00 0.  1.
         22    1    1    0    0    0 -0.23998032545E+02  0.16983973829E+02  0.29260334258E+01  0.29545263659E+02  0.00000000000E+00 0.  1.
</event>
<event>
 5    1  0.1258624E-009  0.9118800E+02  0.7815553E-02  0.1125453E+00
         25   -1    0    0    0    0  0.00000000000E+00  0.00000000000E+00  0.99999998245E-14  0.12509000000E+03  0.12509000000E+03 0.  0.
        -13    1    3    3    0    0  0.36667662734E+02  0.16282757713E+02  0.39590393027E+02  0.56365380095E+02  0.10566000000E+00 0.  1.
         23    2    1    0    0    0  0.11492373027E+02 -0.88937943800E+01  0.27535648676E+02  0.93955033093E+02  0.88646275044E+02 0.  0.
         13    1    3    3    0    0 -0.25175289708E+02 -0.25176552093E+02 -0.12054744351E+02  0.37589652999E+02  0.10566000000E+00 0. -1.
         22    1    1    0    0    0 -0.11492373027E+02  0.88937943800E+01 -0.27535648676E+02  0.31134966907E+02  0.00000000000E+00 0.  1.
</event>
<event>
 5    1  0.1258624E-009  0.9118800E+02  0.7815553E-02  0.1125453E+00
         25   -1    0    0    0    0  0.00000000000E+00  0.00000000000E+00  0.99999998245E-14  0.12509000000E+03  0.12509000000E+03 0.  0.
        -13    1    3    3    0    0  0.11237159325E+02  0.48883466119E+02  0.15808890883E+02  0.52590866170E+02  0.10566000000E+00 0.  1.
         23    2    1    0    0    0  0.17387477955E+02  0.13648969725E+02 -0.13806594421E+02  0.99027751178E+02  0.95536666729E+02 0.  0.
         13    1    3    3    0    0  0.61503186296E+01 -0.35234496394E+02 -0.29615485304E+02  0.46436885008E+02  0.10566000000E+00 0. -1.
         22    1    1    0    0    0 -0.17387477955E+02 -0.13648969725E+02  0.13806594421E+02  0.26062248822E+02  0.00000000000E+00 0.  1.
</event>
<event>
 5    1  0.1258624E-009  0.9118800E+02  0.7815553E-02  0.1125453E+00
         25   -1    0    0    0    0  0.00000000000E+00  0.00000000000E+00  0.99999998245E-14  0.12509000000E+03  0.12509000000E+03 0.  0.
        -13    1    3    3    0    0  0.50670913593E+02 -0.59001846442E+01  0.35800885838E+02  0.62322293395E+02  0.10566000000E+00 0. -1.
         23    2    1    0    0    0  0.23762661147E+02 -0.48761943912E+01  0.13227664488E+02  0.97460080631E+02  0.93461515462E+02 0.  0.
         13    1    3    3    0    0 -0.26908252446E+02  0.10239902530E+01 -0.22573221350E+02  0.35137787237E+02  0.10566000000E+00 0.  1.
         22    1    1    0    0    0 -0.23762661147E+02  0.48761943912E+01 -0.13227664488E+02  0.27629919369E+02  0.00000000000E+00 0. -1.
</event>
<event>
 5    1  0.1258624E-009  0.9118800E+02  0.7815553E-02  0.1125453E+00
         25   -1    0    0    0    0  0.00000000000E+00  0.00000000000E+00  0.99999998245E-14  0.12509000000E+03  0.12509000000E+03 0.  0.
        -13    1    3    3    0    0  0.30891215788E+02 -0.29588486673E+02 -0.11558503626E+02  0.44309772360E+02  0.10566000000E+00 0.  1.
         23    2    1    0    0    0 -0.24527471151E+01  0.72590591666E+01 -0.27534360954E+02  0.96509395710E+02  0.92180326094E+02 0.  0.
         13    1    3    3    0    0 -0.33343962903E+02  0.36847545840E+02 -0.15975857328E+02  0.52199623350E+02  0.10566000000E+00 0. -1.
         22    1    1    0    0    0  0.24527471151E+01 -0.72590591666E+01  0.27534360954E+02  0.28580604290E+02  0.00000000000E+00 0. -1.
</event>
<event>
 5    1  0.1258624E-009  0.9118800E+02  0.7815553E-02  0.1125453E+00
         25   -1    0    0    0    0  0.00000000000E+00  0.00000000000E+00  0.99999998245E-14  0.12509000000E+03  0.12509000000E+03 0.  0.
        -13    1    3    3    0    0 -0.30581574300E+02 -0.46290235523E+01  0.27970289368E+02  0.41701424401E+02  0.10566000000E+00 0.  1.
         23    2    1    0    0    0 -0.76659556472E+01  0.26111461370E+02 -0.10410973716E+02  0.95953018953E+02  0.91422197423E+02 0.  0.
         13    1    3    3    0    0  0.22915618653E+02  0.30740484922E+02 -0.38381263083E+02  0.54251594552E+02  0.10566000000E+00 0. -1.
         22    1    1    0    0    0  0.76659556472E+01 -0.26111461370E+02  0.10410973716E+02  0.29136981047E+02  0.00000000000E+00 0. -1.
</event>
<event>
 5    1  0.1258624E-009  0.9118800E+02  0.7815553E-02  0.1125453E+00
         25   -1    0    0    0    0  0.00000000000E+00  0.00000000000E+00  0.99999998245E-14  0.12509000000E+03  0.12509000000E+03 0.  0.
        -13    1    3    3    0    0  0.24083042052E+02 -0.38727792168E+02 -0.33979177271E+02  0.56872053354E+02  0.10566000000E+00 0. -1.
         23    2    1    0    0    0  0.61390293065E+01 -0.28434659862E+02 -0.77907328697E+00  0.95989750560E+02  0.91472442271E+02 0.  0.
         13    1    3    3    0    0 -0.17944012745E+02  0.10293132306E+02  0.33200103984E+02  0.39117697205E+02  0.10566000000E+00 0.  1.
         22    1    1    0    0    0 -0.61390293065E+01  0.28434659862E+02  0.77907328697E+00  0.29100249440E+02  0.00000000000E+00 0.  1.
</event>
<event>
 5    1  0.1258624E-009  0.9118800E+02  0.7815553E-02  0.1125453E+00
         25   -1    0    0    0    0  0.00000000000E+00  0.00000000000E+00  0.99999998245E-14  0.12509000000E+03  0.12509000000E+03 0.  0.
        -13    1    3    3    0    0 -0.20752644418E+02  0.39158912159E+02  0.11394161504E+02  0.45759487894E+02  0.10566000000E+00 0.  1.
         23    2    1    0    0    0 -0.88811277276E+01 -0.12351357573E+01  0.31444158588E+02  0.92392368597E+02  0.86413046907E+02 0.  0.
         13    1    3    3    0    0  0.11871516691E+02 -0.40394047917E+02  0.20049997084E+02  0.46632880704E+02  0.10566000000E+00 0. -1.
         22    1    1    0    0    0  0.88811277276E+01  0.12351357573E+01 -0.31444158588E+02  0.32697631403E+02  0.00000000000E+00 0. -1.
</event>
<event>
 5    1  0.1258624E-009  0.9118800E+02  0.7815553E-02  0.1125453E+00
         25   -1    0    0    0    0  0.00000000000E+00  0.00000000000E+00  0.99999998245E-14  0.12509000000E+03  0.12509000000E+03 0.  0.
        -13    1    3    3    0    0 -0.79802004494E+01 -0.44182078872E+02 -0.37741279963E+02  0.58652835140E+02  0.10566000000E+00 0. -1.
         23    2    1    0    0    0 -0.10626911064E+02 -0.28305046284E+02 -0.59656620549E+01  0.94272861787E+02  0.89093638729E+02 0.  0.
         13    1    3    3    0    0 -0.26467106145E+01  0.15877032588E+02  0.31775617908E+02  0.35620026647E+02  0.10566000000E+00 0.  1.
         22    1    1    0    0    0  0.10626911064E+02  0.28305046284E+02  0.59656620549E+01  0.30817138213E+02  0.00000000000E+00 0. -1.
</event>
<event>
 5    1  0.1258624E-009  0.9118800E+02  0.7815553E-02  0.1125453E+00
         25   -1    0    0    0    0  0.00000000000E+00  0.00000000000E+00  0.99999998245E-14  0.12509000000E+03  0.12509000000E+03 0.  0.
        -13    1    3    3    0    0  0.42357595750E+02  0.11313552192E+02  0.20776978418E+02  0.48516557763E+02  0.10566000000E+00 0.  1.
         23    2    1    0    0    0  0.18549616468E+02 -0.24188221367E+02  0.44011964822E+01  0.94291804363E+02  0.89120230675E+02 0.  0.
         13    1    3    3    0    0 -0.23807979282E+02 -0.35501773559E+02 -0.16375781936E+02  0.45775246601E+02  0.10566000000E+00 0. -1.
         22    1    1    0    0    0 -0.18549616468E+02  0.24188221367E+02 -0.44011964822E+01  0.30798195637E+02  0.00000000000E+00 0. -1.
</event>
<event>
 5    1  0.1258624E-009  0.9118800E+02  0.7815553E-02  0.1125453E+00
         25   -1    0    0    0    0  0.00000000000E+00  0.00000000000E+00  0.99999998245E-14  0.12509000000E+03  0.12509000000E+03 0.  0.
        -13    1    3    3    0    0 -0.28472632928E+02 -0.29464077137E+02 -0.44283375954E+02  0.60331179479E+02  0.10566000000E+00 0. -1.
         23    2    1    0    0    0 -0.50649258110E+01 -0.22038524365E+02 -0.23122939261E+02  0.92747762141E+02  0.86925985944E+02 0.  0.
         13    1    3    3    0    0  0.23407707117E+02  0.74255527720E+01  0.21160436693E+02  0.32416582662E+02  0.10566000000E+00 0.  1.
         22    1    1    0    0    0  0.50649258110E+01  0.22038524365E+02  0.23122939261E+02  0.32342237859E+02  0.00000000000E+00 0. -1.
</event>
<event>
 5    1  0.1258624E-009  0.9118800E+02  0.7815553E-02  0.1125453E+00
         25   -1    0    0    0    0  0.00000000000E+00  0.00000000000E+00  0.99999998245E-14  0.12509000000E+03  0.12509000000E+03 0.  0.
        -13    1    3    3    0    0 -0.32447031199E+02 -0.12881403711E+02  0.13507383737E+02  0.37432619126E+02  0.10566000000E+00 0.  1.
         23    2    1    0    0    0  0.18927780249E+02 -0.13746562692E+02 -0.16060117856E+02  0.96714724907E+02  0.92458540856E+02 0.  0.
         13    1    3    3    0    0  0.51374811448E+02 -0.86515898158E+00 -0.29567501593E+02  0.59282105782E+02  0.10566000000E+00 0. -1.
         22    1    1    0    0    0 -0.18927780249E+02  0.13746562692E+02  0.16060117856E+02  0.28375275093E+02  0.00000000000E+00 0. -1.
</event>
<event>
 5    1  0.1258624E-009  0.9118800E+02  0.7815553E-02  0.1125453E+00
         25   -1    0    0    0    0  0.00000000000E+00  0.00000000000E+00  0.99999998245E-14  0.12509000000E+03  0.12509000000E+03 0.  0.
        -13    1    3    3    0    0 -0.44592520086E+01  0.72680797680E+01 -0.49006502900E+02  0.49742923140E+02  0.10566000000E+00 0.  1.
         23    2    1    0    0    0 -0.24841036604E+02 -0.10022423629E+02 -0.11170188328E+02  0.96067608950E+02  0.91578852948E+02 0.  0.
         13    1    3    3    0    0 -0.20381784595E+02 -0.17290503397E+02  0.37836314572E+02  0.46324685810E+02  0.10566000000E+00 0. -1.
         22    1    1    0    0    0  0.24841036604E+02  0.10022423629E+02  0.11170188328E+02  0.29022391050E+02  0.00000000000E+00 0.  1.
</event>
<event>
 5    1  0.1258624E-009  0.9118800E+02  0.7815553E-02  0.1125453E+00
         25   -1    0    0    0    0  0.00000000000E+00  0.00000000000E+00  0.99999998245E-14  0.12509000000E+03  0.12509000000E+03 0.  0.
        -13    1    3    3    0    0  0.20897299320E+02  0.95446351825E+01 -0.55223503791E+02  0.59811735593E+02  0.10566000000E+00 0. -1.
         23    2    1    0    0    0  0.20290102080E+02  0.11656464444E+02 -0.22439584364E+02  0.92669383840E+02  0.86813123139E+02 0.  0.
         13    1    3    3    0    0 -0.60719723949E+00  0.21118292618E+01  0.32783919427E+02  0.32857648248E+02  0.10566000000E+00 0.  1.
         22    1    1    0    0    0 -0.20290102080E+02 -0.11656464444E+02  0.22439584364E+02  0.32420616160E+02  0.00000000000E+00 0. -1.
</event>
<event>
 5    1  0.1258624E-009  0.9118800E+02  0.7815553E-02  0.1125453E+00
         25   -1    0    0    0    0  0.00000000000E+00  0.00000000000E+00  0.99999998245E-14  0.12509000000E+03  0.12509000000E+03 0.  0.
        -13    1    3    3    0    0 -0.35295449577E+01  0.53096200530E+02  0.31135371456E+02  0.61652953847E+02  0.10566000000E+00 0.  1.
         23    2    1    0    0    0  0.56821147040E+01  0.25940142481E+02  0.13773851048E+02  0.95175181062E+02  0.90351639155E+02 0.  0.
         13    1    3    3    0    0  0.92116596616E+01 -0.27156058049E+02 -0.17361520408E+02  0.33522227214E+02  0.10566000000E+00 0. -1.
         22    1    1    0    0    0 -0.56821147040E+01 -0.25940142481E+02 -0.13773851048E+02  0.29914818938E+02  0.00000000000E+00 0.  1.
</event>
<event>
 5    1  0.1258624E-009  0.9118800E+02  0.7815553E-02  0.1125453E+00
         25   -1    0    0    0    0  0.00000000000E+00  0.00000000000E+00  0.99999998245E-14  0.12509000000E+03  0.12509000000E+03 0.  0.
        -13    1    3    3    0    0 -0.53515201387E+02  0.18998016372E+02 -0.77744467882E+01  0.57317140477E+02  0.10566000000E+00 0. -1.
         23    2    1    0    0    0 -0.15955624807E+02  0.24629296990E+02 -0.33814818267E+01  0.95549880627E+02  0.90868922274E+02 0.  0.
         13    1    3    3    0    0  0.37559576579E+02  0.56312806180E+01  0.43929649615E+01  0.38232740151E+02  0.10566000000E+00 0.  1.
         22    1    1    0    0    0  0.15955624807E+02 -0.24629296990E+02  0.33814818267E+01  0.29540119373E+02  0.00000000000E+00 0. -1.
</event>
<event>
 5    1  0.1258624E-009  0.9118800E+02  0.7815553E-02  0.1125453E+00
         25   -1    0    0    0    0  0.00000000000E+00  0.00000000000E+00  0.99999998245E-14  0.12509000000E+03  0.12509000000E+03 0.  0.
        -13    1    3    3    0    0  0.28782617714E+02 -0.21941358617E+02  0.56661035879E+01  0.36633020546E+02  0.10566000000E+00 0. -1.
         23    2    1    0    0    0 -0.34453444178E+01  0.20690250689E+02 -0.20167681016E+02  0.95992023622E+02  0.91475550666E+02 0.  0.
         13    1    3    3    0    0 -0.32227962132E+02  0.42631609306E+02 -0.25833784604E+02  0.59359003076E+02  0.10566000000E+00 0.  1.
         22    1    1    0    0    0  0.34453444178E+01 -0.20690250689E+02  0.20167681016E+02  0.29097976378E+02  0.00000000000E+00 0.  1.
</event>
<event>
 5    1  0.1258624E-009  0.9118800E+02  0.7815553E-02  0.1125453E+00
         25   -1    0    0    0    0  0.00000000000E+00  0.00000000000E+00  0.99999998245E-14  0.12509000000E+03  0.12509000000E+03 0.  0.
        -13    1    3    3    0    0 -0.14690115440E+02  0.37541737820E+02 -0.62304584747E+01  0.40792295192E+02  0.10566000000E+00 0. -1.
         23    2    1    0    0    0 -0.69908239595E+01 -0.18131308241E+02 -0.18434226547E+02  0.98304991757E+02  0.94585594769E+02 0.  0.
         13    1    3    3    0    0  0.76992914801E+01 -0.55673046061E+02 -0.12203768073E+02  0.57512696565E+02  0.10566000000E+00 0.  1.
         22    1    1    0    0    0  0.69908239595E+01  0.18131308241E+02  0.18434226547E+02  0.26785008243E+02  0.00000000000E+00 0.  1.
</event>
<event>
 5    1  0.1258624E-009  0.9118800E+02  0.7815553E-02  0.1125453E+00
         25   -1    0    0    0    0  0.00000000000E+00  0.00000000000E+00  0.99999998245E-14  0.12509000000E+03  0.12509000000E+03 0.  0.
        -13    1    3    3    0    0  0.31605174620E+01  0.25507618278E+02  0.23792091952E+02  0.35024309620E+02  0.10566000000E+00 0. -1.
         23    2    1    0    0    0 -0.13858996979E+02 -0.24560729564E+02 -0.67496829942E+01  0.96092423299E+02  0.91612741259E+02 0.  0.
         13    1    3    3    0    0 -0.17019514441E+02 -0.50068347842E+02 -0.30541774947E+02  0.61068113679E+02  0.10566000000E+00 0.  1.
         22    1    1    0    0    0  0.13858996979E+02  0.24560729564E+02  0.67496829942E+01  0.28997576701E+02  0.00000000000E+00 0.  1.
</event>
<event>
 5    1  0.1258624E-009  0.9118800E+02  0.7815553E-02  0.1125453E+00
         25   -1    0    0    0    0  0.00000000000E+00  0.00000000000E+00  0.99999998245E-14  0.12509000000E+03  0.12509000000E+03 0.  0.
        -13    1    3    3    0    0  0.25544428091E+02 -0.49076258893E+02 -0.10285990609E+02  0.56274414793E+02  0.10566000000E+00 0. -1.
         23    2    1    0    0    0  0.13150685983E+01 -0.21092248304E+02 -0.21490989029E+02  0.94949081743E+02  0.90038065119E+02 0.  0.
         13    1    3    3    0    0 -0.24229359492E+02  0.27984010589E+02 -0.11204998421E+02  0.38674666950E+02  0.10566000000E+00 0.  1.
         22    1    1    0    0    0 -0.13150685983E+01  0.21092248304E+02  0.21490989029E+02  0.30140918257E+02  0.00000000000E+00 0. -1.
</event>
<event>
 5    1  0.1258624E-009  0.9118800E+02  0.7815553E-02  0.1125453E+00
         25   -1    0    0    0    0  0.00000000000E+00  0.00000000000E+00  0.99999998245E-14  0.12509000000E+03  0.12509000000E+03 0.  0.
        -13    1    3    3    0    0  0.47770542882E+02  0.27882863374E+02  0.17117541479E+02  0.57900779161E+02  0.10566000000E+00 0.  1.
         23    2    1    0    0    0  0.10362449621E+02  0.22799722994E+02  0.15395861408E+02  0.95692036138E+02  0.91064403040E+02 0.  0.
         13    1    3    3    0    0 -0.37408093261E+02 -0.50831403800E+01 -0.17216800714E+01  0.37791256976E+02  0.10566000000E+00 0. -1.
         22    1    1    0    0    0 -0.10362449621E+02 -0.22799722994E+02 -0.15395861408E+02  0.29397963862E+02  0.00000000000E+00 0.  1.
</event>
<event>
 5    1  0.1258624E-009  0.9118800E+02  0.7815553E-02  0.1125453E+00
         25   -1    0    0    0    0  0.00000000000E+00  0.00000000000E+00  0.99999998245E-14  0.12509000000E+03  0.12509000000E+03 0.  0.
        -13    1    3    3    0    0 -0.18027602391E+02  0.39466469275E+02 -0.40077458974E+02  0.59066153818E+02  0.10566000000E+00 0. -1.
         23    2    1    0    0    0  0.61309927331E+01  0.19061067868E+02 -0.21355842031E+02  0.95815687557E+02  0.91234097864E+02 0.  0.
         13    1    3    3    0    0  0.24158595125E+02 -0.20405401408E+02  0.18721616943E+02  0.36749533738E+02  0.10566000000E+00 0.  1.
         22    1    1    0    0    0 -0.61309927331E+01 -0.19061067868E+02  0.21355842031E+02  0.29274312443E+02  0.00000000000E+00 0. -1.
</event>
<event>
 5    1  0.1258624E-009  0.9118800E+02  0.7815553E-02  0.1125453E+00
         25   -1    0    0    0    0  0.00000000000E+00  0.00000000000E+00  0.99999998245E-14  0.12509000000E+03  0.12509000000E+03 0.  0.
        -13    1    3    3    0    0  0.38329944772E+02  0.95940016412E+01 -0.20890612189E+02  0.44695171724E+02  0.10566000000E+00 0.  1.
         23    2    1    0    0    0  0.10421948572E+02 -0.28081565714E+02 -0.25946057799E+01  0.95024682371E+02  0.90143035980E+02 0.  0.
         13    1    3    3    0    0 -0.27907996201E+02 -0.37675567355E+02  0.18296006409E+02  0.50329510648E+02  0.10566000000E+00 0. -1.
         22    1    1    0    0    0 -0.10421948572E+02  0.28081565714E+02  0.25946057799E+01  0.30065317629E+02  0.00000000000E+00 0. -1.
</event>
<event>
 5    1  0.1258624E-009  0.9118800E+02  0.7815553E-02  0.1125453E+00
         25   -1    0    0    0    0  0.00000000000E+00  0.00000000000E+00  0.99999998245E-14  0.12509000000E+03  0.12509000000E+03 0.  0.
        -13    1    3    3    0    0  0.70083836054E+01 -0.31986836150E+02  0.42174629277E+02  0.53394621886E+02  0.10566000000E+00 0.  1.
         23    2    1    0    0    0  0.24687564430E+02 -0.46113635393E+01  0.21847121404E+02  0.91802806895E+02  0.85555351258E+02 0.  0.
         13    1    3    3    0    0  0.17679180825E+02  0.27375472611E+02 -0.20327507873E+02  0.38408185009E+02  0.10566000000E+00 0. -1.
         22    1    1    0    0    0 -0.24687564430E+02  0.46113635393E+01 -0.21847121404E+02  0.33287193105E+02  0.00000000000E+00 0. -1.
</event>
<event>
 5    1  0.1258624E-009  0.9118800E+02  0.7815553E-02  0.1125453E+00
         25   -1    0    0    0    0  0.00000000000E+00  0.00000000000E+00  0.99999998245E-14  0.12509000000E+03  0.12509000000E+03 0.  0.
        -13    1    3    3    0    0 -0.19181536669E+02 -0.36979657509E+02  0.38817240314E+02  0.56940457744E+02  0.10566000000E+00 0. -1.
         23    2    1    0    0    0  0.69048005475E+01 -0.25916368490E+02  0.12952164098E+02  0.95305893817E+02  0.90532427423E+02 0.  0.
         13    1    3    3    0    0  0.26086337217E+02  0.11063289019E+02 -0.25865076217E+02  0.38365436073E+02  0.10566000000E+00 0.  1.
         22    1    1    0    0    0 -0.69048005475E+01  0.25916368490E+02 -0.12952164098E+02  0.29784106183E+02  0.00000000000E+00 0. -1.
</event>
<event>
 5    1  0.1258624E-009  0.9118800E+02  0.7815553E-02  0.1125453E+00
         25   -1    0    0    0    0  0.00000000000E+00  0.00000000000E+00  0.99999998245E-14  0.12509000000E+03  0.12509000000E+03 0.  0.
        -13    1    3    3    0    0 -0.33346191684E+02 -0.40963358699E+02  0.22741869743E+02  0.57507991263E+02  0.10566000000E+00 0.  1.
         23    2    1    0    0    0 -0.32582172961E+01 -0.17864183916E+02  0.23430365459E+02  0.95446669005E+02  0.90726730084E+02 0.  0.
         13    1    3    3    0    0  0.30087974388E+02  0.23099174782E+02  0.68849571568E+00  0.37938677742E+02  0.10566000000E+00 0. -1.
         22    1    1    0    0    0  0.32582172961E+01  0.17864183916E+02 -0.23430365459E+02  0.29643330995E+02  0.00000000000E+00 0.  1.
</event>
<event>
 5    1  0.1258624E-009  0.9118800E+02  0.7815553E-02  0.1125453E+00
         25   -1    0    0    0    0  0.00000000000E+00  0.00000000000E+00  0.99999998245E-14  0.12509000000E+03  0.12509000000E+03 0.  0.
        -13    1    3    3    0    0  0.18084928412E+02 -0.11714837226E+01 -0.59544333460E+02  0.62241271043E+02  0.10566000000E+00 0. -1.
         23    2    1    0    0    0  0.10091717134E+02  0.34339671825E+01 -0.27196774249E+02  0.95878710832E+02  0.91320467453E+02 0.  0.
         13    1    3    3    0    0 -0.79932112778E+01  0.46054509051E+01  0.32347559211E+02  0.33637439789E+02  0.10566000000E+00 0.  1.
         22    1    1    0    0    0 -0.10091717134E+02 -0.34339671825E+01  0.27196774249E+02  0.29211289168E+02  0.00000000000E+00 0. -1.
</event>
<event>
 5    1  0.1258624E-009  0.9118800E+02  0.7815553E-02  0.1125453E+00
         25   -1    0    0    0    0  0.00000000000E+00  0.00000000000E+00  0.99999998245E-14  0.12509000000E+03  0.12509000000E+03 0.  0.
        -13    1    3    3    0    0 -0.70282023903E+01  0.11114385027E+02  0.39477981245E+02  0.41610663905E+02  0.10566000000E+00 0.  1.
         23    2    1    0    0    0 -0.23044356098E+01 -0.25187568040E+02 -0.50941245788E+01  0.99289338914E+02  0.95878562304E+02 0.  0.
         13    1    3    3    0    0  0.47237667806E+01 -0.36301953068E+02 -0.44572105824E+02  0.57678675009E+02  0.10566000000E+00 0. -1.
         22    1    1    0    0    0  0.23044356098E+01  0.25187568040E+02  0.50941245788E+01  0.25800661086E+02  0.00000000000E+00 0. -1.
</event>
<event>
 5    1  0.1258624E-009  0.9118800E+02  0.7815553E-02  0.1125453E+00
         25   -1    0    0    0    0  0.00000000000E+00  0.00000000000E+00  0.99999998245E-14  0.12509000000E+03  0.12509000000E+03 0.  0.
        -13    1    3    3    0    0 -0.25628625296E+02  0.27508506728E+02 -0.40040607982E+02  0.54925457018E+02  0.10566000000E+00 0.  1.
         23    2    1    0    0    0  0.42310442547E+01  0.26062241844E+02 -0.11383665285E+02  0.96337086743E+02  0.91946203084E+02 0.  0.
         13    1    3    3    0    0  0.29859669551E+02 -0.14462648842E+01  0.28656942697E+02  0.41411629726E+02  0.10566000000E+00 0. -1.
         22    1    1    0    0    0 -0.42310442547E+01 -0.26062241844E+02  0.11383665285E+02  0.28752913257E+02  0.00000000000E+00 0.  1.
</event>
<event>
 5    1  0.1258624E-009  0.9118800E+02  0.7815553E-02  0.1125453E+00
         25   -1    0    0    0    0  0.00000000000E+00  0.00000000000E+00  0.99999998245E-14  0.12509000000E+03  0.12509000000E+03 0.  0.
        -13    1    3    3    0    0 -0.48554078740E+02 -0.17451862911E+02  0.28655344940E+02  0.59018692285E+02  0.10566000000E+00 0. -1.
         23    2    1    0    0    0 -0.27604281555E+02 -0.68984757176E+01 -0.74052402220E+00  0.96627152229E+02  0.92339985080E+02 0.  0.
         13    1    3    3    0    0  0.20949797184E+02  0.10553387193E+02 -0.29395868962E+02  0.37608459944E+02  0.10566000000E+00 0.  1.
         22    1    1    0    0    0  0.27604281555E+02  0.68984757176E+01  0.74052402220E+00  0.28462847771E+02  0.00000000000E+00 0. -1.
</event>
<event>
 5    1  0.1258624E-009  0.9118800E+02  0.7815553E-02  0.1125453E+00
         25   -1    0    0    0    0  0.00000000000E+00  0.00000000000E+00  0.99999998245E-14  0.12509000000E+03  0.12509000000E+03 0.  0.
        -13    1    3    3    0    0 -0.77958551862E+01  0.61077486086E+02  0.15554796873E+01  0.61592737768E+02  0.10566000000E+00 0.  1.
         23    2    1    0    0    0  0.88299203700E+00  0.29810965425E+02  0.68984222125E+01  0.94478538690E+02  0.89381948454E+02 0.  0.
         13    1    3    3    0    0  0.86788472233E+01 -0.31266520662E+02  0.53429425253E+01  0.32885800922E+02  0.10566000000E+00 0. -1.
         22    1    1    0    0    0 -0.88299203700E+00 -0.29810965425E+02 -0.68984222125E+01  0.30611461310E+02  0.00000000000E+00 0.  1.
</event>
<event>
 5    1  0.1258624E-009  0.9118800E+02  0.7815553E-02  0.1125453E+00
         25   -1    0    0    0    0  0.00000000000E+00  0.00000000000E+00  0.99999998245E-14  0.12509000000E+03  0.12509000000E+03 0.  0.
        -13    1    3    3    0    0  0.29704289075E+02 -0.39126632486E+02  0.37684091693E+02  0.61913973300E+02  0.10566000000E+00 0. -1.
         23    2    1    0    0    0  0.85152800820E+01 -0.19372210977E+02  0.20663602086E+02  0.95513370642E+02  0.90818648786E+02 0.  0.
         13    1    3    3    0    0 -0.21189008993E+02  0.19754421509E+02 -0.17020489607E+02  0.33599397342E+02  0.10566000000E+00 0.  1.
         22    1    1    0    0    0 -0.85152800820E+01  0.19372210977E+02 -0.20663602086E+02  0.29576629358E+02  0.00000000000E+00 0. -1.
</event>
<event>
 5    1  0.1258624E-009  0.9118800E+02  0.7815553E-02  0.1125453E+00
         25   -1    0    0    0    0  0.00000000000E+00  0.00000000000E+00  0.99999998245E-14  0.12509000000E+03  0.12509000000E+03 0.  0.
        -13    1    3    3    0    0 -0.48643388895E+02 -0.27120862511E+02 -0.24652313200E+02  0.60905403510E+02  0.10566000000E+00 0.  1.
         23    2    1    0    0    0 -0.29457013383E+02 -0.91275634937E+01 -0.47555323397E+01  0.93886744711E+02  0.88549859920E+02 0.  0.
         13    1    3    3    0    0  0.19186375512E+02  0.17993299017E+02  0.19896780861E+02  0.32981341202E+02  0.10566000000E+00 0. -1.
         22    1    1    0    0    0  0.29457013383E+02  0.91275634937E+01  0.47555323397E+01  0.31203255289E+02  0.00000000000E+00 0.  1.
</event>
<event>
 5    1  0.1258624E-009  0.9118800E+02  0.7815553E-02  0.1125453E+00
         25   -1    0    0    0    0  0.00000000000E+00  0.00000000000E+00  0.99999998245E-14  0.12509000000E+03  0.12509000000E+03 0.  0.
        -13    1    3    3    0    0 -0.28618263982E+02  0.15301738133E+02  0.66154479690E+01  0.33119836036E+02  0.10566000000E+00 0.  1.
         23    2    1    0    0    0  0.20261073635E+02 -0.21233764256E+02 -0.52149904917E+01  0.95280941391E+02  0.90497943718E+02 0.  0.
         13    1    3    3    0    0  0.48879337617E+02 -0.36535502389E+02 -0.11830438461E+02  0.62161105354E+02  0.10566000000E+00 0. -1.
         22    1    1    0    0    0 -0.20261073635E+02  0.21233764256E+02  0.52149904917E+01  0.29809058609E+02  0.00000000000E+00 0. -1.
</event>
<event>
 5    1  0.1258624E-009  0.9118800E+02  0.7815553E-02  0.1125453E+00
         25   -1    0    0    0    0  0.00000000000E+00  0.00000000000E+00  0.99999998245E-14  0.12509000000E+03  0.12509000000E+03 0.  0.
        -13    1    3    3    0    0  0.32041943692E+02  0.94442470151E+01  0.16355638840E+02  0.37194059245E+02  0.10566000000E+00 0.  1.
         23    2    1    0    0    0  0.80835395555E+01 -0.31864437770E+02 -0.86480108776E+01  0.91097734729E+02  0.84518182508E+02 0.  0.
         13    1    3    3    0    0 -0.23958404136E+02 -0.41308684785E+02 -0.25003649718E+02  0.53903675484E+02  0.10566000000E+00 0. -1.
         22    1    1    0    0    0 -0.80835395555E+01  0.31864437770E+02  0.86480108776E+01  0.33992265271E+02  0.00000000000E+00 0.  1.
</event>
<event>
 5    1  0.1258624E-009  0.9118800E+02  0.7815553E-02  0.1125453E+00
         25   -1    0    0    0    0  0.00000000000E+00  0.00000000000E+00  0.99999998245E-14  0.12509000000E+03  0.12509000000E+03 0.  0.
        -13    1    3    3    0    0  0.23612800247E+02  0.12126064943E+02  0.23718651001E+02  0.35597631324E+02  0.10566000000E+00 0.  1.
         23    2    1    0    0    0 -0.11571824354E+01  0.39782474813E+01 -0.29732559385E+02  0.95070163028E+02  0.90206126657E+02 0.  0.
         13    1    3    3    0    0 -0.24769982683E+02 -0.81478174620E+01 -0.53451210386E+02  0.59472531704E+02  0.10566000000E+00 0. -1.
         22    1    1    0    0    0  0.11571824354E+01 -0.39782474813E+01  0.29732559385E+02  0.30019836972E+02  0.00000000000E+00 0. -1.
</event>
<event>
 5    1  0.1258624E-009  0.9118800E+02  0.7815553E-02  0.1125453E+00
         25   -1    0    0    0    0  0.00000000000E+00  0.00000000000E+00  0.99999998245E-14  0.12509000000E+03  0.12509000000E+03 0.  0.
        -13    1    3    3    0    0  0.31482467963E+01  0.61379758104E+01 -0.38538039465E+02  0.39150706951E+02  0.10566000000E+00 0.  1.
         23    2    1    0    0    0 -0.23406113372E+02  0.13895121959E+02  0.10872849748E+02  0.95778919859E+02  0.91183672169E+02 0.  0.
         13    1    3    3    0    0 -0.26554360168E+02  0.77571461485E+01  0.49410889213E+02  0.56628212908E+02  0.10566000000E+00 0. -1.
         22    1    1    0    0    0  0.23406113372E+02 -0.13895121959E+02 -0.10872849748E+02  0.29311080141E+02  0.00000000000E+00 0. -1.
</event>
<event>
 5    1  0.1258624E-009  0.9118800E+02  0.7815553E-02  0.1125453E+00
         25   -1    0    0    0    0  0.00000000000E+00  0.00000000000E+00  0.99999998245E-14  0.12509000000E+03  0.12509000000E+03 0.  0.
        -13    1    3    3    0    0  0.25925375477E+02  0.25689989880E+02  0.19817648853E+02  0.41531326054E+02  0.10566000000E+00 0.  1.
         23    2    1    0    0    0 -0.23237814796E+02  0.92385843375E+01  0.19506096486E+02  0.93375093770E+02  0.87824101814E+02 0.  0.
         13    1    3    3    0    0 -0.49163190273E+02 -0.16451405543E+02 -0.31155236778E+00  0.51843767717E+02  0.10566000000E+00 0. -1.
         22    1    1    0    0    0  0.23237814796E+02 -0.92385843375E+01 -0.19506096486E+02  0.31714906230E+02  0.00000000000E+00 0. -1.
</event>
<event>
 5    1  0.1258624E-009  0.9118800E+02  0.7815553E-02  0.1125453E+00
         25   -1    0    0    0    0  0.00000000000E+00  0.00000000000E+00  0.99999998245E-14  0.12509000000E+03  0.12509000000E+03 0.  0.
        -13    1    3    3    0    0  0.32803902068E+02  0.37766017911E+02 -0.37016434180E+02  0.62230182895E+02  0.10566000000E+00 0. -1.
         23    2    1    0    0    0  0.18543162971E+02  0.15083786155E+02 -0.19508502856E+02  0.94236293879E+02  0.89042281544E+02 0.  0.
         13    1    3    3    0    0 -0.14260739097E+02 -0.22682231756E+02  0.17507931324E+02  0.32006110984E+02  0.10566000000E+00 0.  1.
         22    1    1    0    0    0 -0.18543162971E+02 -0.15083786155E+02  0.19508502856E+02  0.30853706121E+02  0.00000000000E+00 0. -1.
</event>
<event>
 5    1  0.1258624E-009  0.9118800E+02  0.7815553E-02  0.1125453E+00
         25   -1    0    0    0    0  0.00000000000E+00  0.00000000000E+00  0.99999998245E-14  0.12509000000E+03  0.12509000000E+03 0.  0.
        -13    1    3    3    0    0  0.14814786240E+02 -0.44370036413E+02 -0.37357158358E+02  0.59864400667E+02  0.10566000000E+00 0.  1.
         23    2    1    0    0    0  0.16256365196E+02 -0.27751484532E+02 -0.10920005676E+02  0.91124417022E+02  0.84557664055E+02 0.  0.
         13    1    3    3    0    0  0.14415789558E+01  0.16618551881E+02  0.26437152682E+02  0.31260016355E+02  0.10566000000E+00 0. -1.
         22    1    1    0    0    0 -0.16256365196E+02  0.27751484532E+02  0.10920005676E+02  0.33965582978E+02  0.00000000000E+00 0.  1.
</event>
<event>
 5    1  0.1258624E-009  0.9118800E+02  0.7815553E-02  0.1125453E+00
         25   -1    0    0    0    0  0.00000000000E+00  0.00000000000E+00  0.99999998245E-14  0.12509000000E+03  0.12509000000E+03 0.  0.
        -13    1    3    3    0    0  0.48394612179E+02  0.32446546995E+01 -0.31157279470E+02  0.57648534241E+02  0.10566000000E+00 0. -1.
         23    2    1    0    0    0  0.29852436601E+02 -0.20304922067E-01  0.13417422582E+01  0.95207418860E+02  0.90396260711E+02 0.  0.
         13    1    3    3    0    0 -0.18542175579E+02 -0.32649596216E+01  0.32499021728E+02  0.37558884619E+02  0.10566000000E+00 0.  1.
         22    1    1    0    0    0 -0.29852436601E+02  0.20304922067E-01 -0.13417422582E+01  0.29882581140E+02  0.00000000000E+00 0. -1.
</event>
<event>
 5    1  0.1258624E-009  0.9118800E+02  0.7815553E-02  0.1125453E+00
         25   -1    0    0    0    0  0.00000000000E+00  0.00000000000E+00  0.99999998245E-14  0.12509000000E+03  0.12509000000E+03 0.  0.
        -13    1    3    3    0    0 -0.40317598192E+02  0.16751214943E+02 -0.18204362623E+02  0.47302451402E+02  0.10566000000E+00 0. -1.
         23    2    1    0    0    0 -0.94900489343E+01 -0.19755807430E+02 -0.20418397138E+02  0.95135636417E+02  0.90296873804E+02 0.  0.
         13    1    3    3    0    0  0.30827549258E+02 -0.36507022373E+02 -0.22140345150E+01  0.47833185015E+02  0.10566000000E+00 0.  1.
         22    1    1    0    0    0  0.94900489343E+01  0.19755807430E+02  0.20418397138E+02  0.29954363583E+02  0.00000000000E+00 0.  1.
</event>
<event>
 5    1  0.1258624E-009  0.9118800E+02  0.7815553E-02  0.1125453E+00
         25   -1    0    0    0    0  0.00000000000E+00  0.00000000000E+00  0.99999998245E-14  0.12509000000E+03  0.12509000000E+03 0.  0.
        -13    1    3    3    0    0  0.88717389333E+01 -0.34266863062E+02  0.74596740925E+01  0.36174349440E+02  0.10566000000E+00 0.  1.
         23    2    1    0    0    0  0.61851103270E+01  0.17872519990E+02 -0.21965661344E+02  0.96104264908E+02  0.91628908618E+02 0.  0.
         13    1    3    3    0    0 -0.26866286063E+01  0.52139383052E+02 -0.29425335437E+02  0.59929915467E+02  0.10566000000E+00 0. -1.
         22    1    1    0    0    0 -0.61851103270E+01 -0.17872519990E+02  0.21965661344E+02  0.28985735092E+02  0.00000000000E+00 0. -1.
</event>
<event>
 5    1  0.1258624E-009  0.9118800E+02  0.7815553E-02  0.1125453E+00
         25   -1    0    0    0    0  0.00000000000E+00  0.00000000000E+00  0.99999998245E-14  0.12509000000E+03  0.12509000000E+03 0.  0.
        -13    1    3    3    0    0 -0.43108477590E+02 -0.38475721192E+02 -0.19046717165E+01  0.57813155076E+02  0.10566000000E+00 0. -1.
         23    2    1    0    0    0 -0.30089701718E+02 -0.68170256507E+01 -0.93647421122E+01  0.92847785699E+02  0.87069804906E+02 0.  0.
         13    1    3    3    0    0  0.13018775873E+02  0.31658695541E+02 -0.74600703958E+01  0.35034630624E+02  0.10566000000E+00 0.  1.
         22    1    1    0    0    0  0.30089701718E+02  0.68170256507E+01  0.93647421122E+01  0.32242214301E+02  0.00000000000E+00 0.  1.
</event>
<event>
 5    1  0.1258624E-009  0.9118800E+02  0.7815553E-02  0.1125453E+00
         25   -1    0    0    0    0  0.00000000000E+00  0.00000000000E+00  0.99999998245E-14  0.12509000000E+03  0.12509000000E+03 0.  0.
        -13    1    3    3    0    0  0.37672870510E+01 -0.66423539600E+01  0.22889428501E+02  0.24129865706E+02  0.10566000000E+00 0. -1.
         23    2    1    0    0    0 -0.39737762364E+01 -0.19323393897E+02 -0.35552537470E+02  0.84430839042E+02  0.73995940507E+02 0.  0.
         13    1    3    3    0    0 -0.77410632874E+01 -0.12681039937E+02 -0.58441965971E+02  0.60300973336E+02  0.10566000000E+00 0.  1.
         22    1    1    0    0    0  0.39737762364E+01  0.19323393897E+02  0.35552537470E+02  0.40659160958E+02  0.00000000000E+00 0.  1.
</event>
<event>
 5    1  0.1258624E-009  0.9118800E+02  0.7815553E-02  0.1125453E+00
         25   -1    0    0    0    0  0.00000000000E+00  0.00000000000E+00  0.99999998245E-14  0.12509000000E+03  0.12509000000E+03 0.  0.
        -13    1    3    3    0    0 -0.17130251701E+02  0.37508093452E+02  0.29005692530E+02  0.50414719685E+02  0.10566000000E+00 0. -1.
         23    2    1    0    0    0  0.19627000538E+02  0.11631561707E+02  0.16045345772E+02  0.97197967108E+02  0.93110038724E+02 0.  0.
         13    1    3    3    0    0  0.36757252240E+02 -0.25876531745E+02 -0.12960346758E+02  0.46783247423E+02  0.10566000000E+00 0.  1.
         22    1    1    0    0    0 -0.19627000538E+02 -0.11631561707E+02 -0.16045345772E+02  0.27892032892E+02  0.00000000000E+00 0.  1.
</event>
<event>
 5    1  0.1258624E-009  0.9118800E+02  0.7815553E-02  0.1125453E+00
         25   -1    0    0    0    0  0.00000000000E+00  0.00000000000E+00  0.99999998245E-14  0.12509000000E+03  0.12509000000E+03 0.  0.
        -13    1    3    3    0    0  0.25385444272E+01  0.38805033365E+02 -0.30690207138E+01  0.39009035806E+02  0.10566000000E+00 0.  1.
         23    2    1    0    0    0 -0.15548169249E+02 -0.66634852856E+01  0.24608668971E+02  0.95228081246E+02  0.90424848721E+02 0.  0.
         13    1    3    3    0    0 -0.18086713676E+02 -0.45468518651E+02  0.27677689685E+02  0.56219045441E+02  0.10566000000E+00 0. -1.
         22    1    1    0    0    0  0.15548169249E+02  0.66634852856E+01 -0.24608668971E+02  0.29861918754E+02  0.00000000000E+00 0. -1.
</event>
<event>
 5    1  0.1258624E-009  0.9118800E+02  0.7815553E-02  0.1125453E+00
         25   -1    0    0    0    0  0.00000000000E+00  0.00000000000E+00  0.99999998245E-14  0.12509000000E+03  0.12509000000E+03 0.  0.
        -13    1    3    3    0    0  0.41951215190E+02 -0.32914967052E+02  0.13907702299E+02  0.55106577277E+02  0.10566000000E+00 0.  1.
         23    2    1    0    0    0  0.80408644627E+01 -0.13292251188E+02  0.24849082463E+02  0.95784431549E+02  0.91191233049E+02 0.  0.
         13    1    3    3    0    0 -0.33910350727E+02  0.19622715863E+02  0.10941380164E+02  0.40677854272E+02  0.10566000000E+00 0. -1.
         22    1    1    0    0    0 -0.80408644627E+01  0.13292251188E+02 -0.24849082463E+02  0.29305568451E+02  0.00000000000E+00 0.  1.
</event>
<event>
 5    1  0.1258624E-009  0.9118800E+02  0.7815553E-02  0.1125453E+00
         25   -1    0    0    0    0  0.00000000000E+00  0.00000000000E+00  0.99999998245E-14  0.12509000000E+03  0.12509000000E+03 0.  0.
        -13    1    3    3    0    0  0.47131602928E+02 -0.15232075091E+02 -0.49633161287E+01  0.49780013833E+02  0.10566000000E+00 0.  1.
         23    2    1    0    0    0 -0.47525984475E+01  0.12767218036E+02 -0.88164309497E+01  0.10886290836E+03  0.10764671065E+03 0.  0.
         13    1    3    3    0    0 -0.51884201376E+02  0.27999293127E+02 -0.38531148210E+01  0.59082894528E+02  0.10566000000E+00 0. -1.
         22    1    1    0    0    0  0.47525984475E+01 -0.12767218036E+02  0.88164309497E+01  0.16227091639E+02  0.00000000000E+00 0. -1.
</event>
<event>
 5    1  0.1258624E-009  0.9118800E+02  0.7815553E-02  0.1125453E+00
         25   -1    0    0    0    0  0.00000000000E+00  0.00000000000E+00  0.99999998245E-14  0.12509000000E+03  0.12509000000E+03 0.  0.
        -13    1    3    3    0    0  0.37193281327E+02  0.12496510712E+02  0.73814622641E+00  0.39243585205E+02  0.10566000000E+00 0.  1.
         23    2    1    0    0    0 -0.12882399576E+02 -0.20230608972E+02  0.86658665685E+01  0.99588411783E+02  0.96267963310E+02 0.  0.
         13    1    3    3    0    0 -0.50075680904E+02 -0.32727119684E+02  0.79277203421E+01  0.60344826577E+02  0.10566000000E+00 0. -1.
         22    1    1    0    0    0  0.12882399576E+02  0.20230608972E+02 -0.86658665685E+01  0.25501588217E+02  0.00000000000E+00 0. -1.
</event>
<event>
 5    1  0.1258624E-009  0.9118800E+02  0.7815553E-02  0.1125453E+00
         25   -1    0    0    0    0  0.00000000000E+00  0.00000000000E+00  0.99999998245E-14  0.12509000000E+03  0.12509000000E+03 0.  0.
        -13    1    3    3    0    0  0.76188700334E+01  0.21074693606E+02 -0.39013552488E+02  0.44991758501E+02  0.10566000000E+00 0. -1.
         23    2    1    0    0    0 -0.17882211674E+02 -0.16635987223E+02 -0.13080717714E+02  0.97383777934E+02  0.93359335171E+02 0.  0.
         13    1    3    3    0    0 -0.25501081707E+02 -0.37710680829E+02  0.25932834774E+02  0.52392019434E+02  0.10566000000E+00 0.  1.
         22    1    1    0    0    0  0.17882211674E+02  0.16635987223E+02  0.13080717714E+02  0.27706222066E+02  0.00000000000E+00 0.  1.
</event>
<event>
 5    1  0.1258624E-009  0.9118800E+02  0.7815553E-02  0.1125453E+00
         25   -1    0    0    0    0  0.00000000000E+00  0.00000000000E+00  0.99999998245E-14  0.12509000000E+03  0.12509000000E+03 0.  0.
        -13    1    3    3    0    0  0.10965754899E+02  0.91281457252E+01 -0.22335525200E+01  0.14441978597E+02  0.10566000000E+00 0. -1.
         23    2    1    0    0    0 -0.32561762007E+02 -0.94107113716E+01  0.36275104015E+02  0.75444123990E+02  0.56807594914E+02 0.  0.
         13    1    3    3    0    0 -0.43527516906E+02 -0.18538857097E+02  0.38508656535E+02  0.61002145393E+02  0.10566000000E+00 0.  1.
         22    1    1    0    0    0  0.32561762007E+02  0.94107113716E+01 -0.36275104015E+02  0.49645876010E+02  0.00000000000E+00 0.  1.
</event>
<event>
 5    1  0.1258624E-009  0.9118800E+02  0.7815553E-02  0.1125453E+00
         25   -1    0    0    0    0  0.00000000000E+00  0.00000000000E+00  0.99999998245E-14  0.12509000000E+03  0.12509000000E+03 0.  0.
        -13    1    3    3    0    0  0.18612475691E+02  0.41965129032E+02 -0.14852362496E+02  0.48250390068E+02  0.10566000000E+00 0. -1.
         23    2    1    0    0    0 -0.21768790646E+02  0.18200376797E+02 -0.31817652275E+01  0.96537283987E+02  0.92218163113E+02 0.  0.
         13    1    3    3    0    0 -0.40381266337E+02 -0.23764752234E+02  0.11670597269E+02  0.48286893919E+02  0.10566000000E+00 0.  1.
         22    1    1    0    0    0  0.21768790646E+02 -0.18200376797E+02  0.31817652275E+01  0.28552716013E+02  0.00000000000E+00 0.  1.
</event>
<event>
 5    1  0.1258624E-009  0.9118800E+02  0.7815553E-02  0.1125453E+00
         25   -1    0    0    0    0  0.00000000000E+00  0.00000000000E+00  0.99999998245E-14  0.12509000000E+03  0.12509000000E+03 0.  0.
        -13    1    3    3    0    0 -0.22544160139E+01  0.40322799642E+02 -0.34961692807E+02  0.53416679890E+02  0.10566000000E+00 0. -1.
         23    2    1    0    0    0 -0.34286731440E+01 -0.15146296346E+01 -0.29182419254E+02  0.95667840053E+02  0.91031160184E+02 0.  0.
         13    1    3    3    0    0 -0.11742571301E+01 -0.41837429276E+02  0.57792735539E+01  0.42251160163E+02  0.10566000000E+00 0.  1.
         22    1    1    0    0    0  0.34286731440E+01  0.15146296346E+01  0.29182419254E+02  0.29422159947E+02  0.00000000000E+00 0. -1.
</event>
<event>
 5    1  0.1258624E-009  0.9118800E+02  0.7815553E-02  0.1125453E+00
         25   -1    0    0    0    0  0.00000000000E+00  0.00000000000E+00  0.99999998245E-14  0.12509000000E+03  0.12509000000E+03 0.  0.
        -13    1    3    3    0    0 -0.22222219500E+02  0.35228808261E+02  0.30657230572E+01  0.41764887081E+02  0.10566000000E+00 0.  1.
         23    2    1    0    0    0  0.25489606858E+02  0.19470039982E+02 -0.49112982809E+01  0.92641219353E+02  0.86772531124E+02 0.  0.
         13    1    3    3    0    0  0.47711826357E+02 -0.15758768278E+02 -0.79770213381E+01  0.50876332272E+02  0.10566000000E+00 0. -1.
         22    1    1    0    0    0 -0.25489606858E+02 -0.19470039982E+02  0.49112982809E+01  0.32448780647E+02  0.00000000000E+00 0.  1.
</event>
<event>
 5    1  0.1258624E-009  0.9118800E+02  0.7815553E-02  0.1125453E+00
         25   -1    0    0    0    0  0.00000000000E+00  0.00000000000E+00  0.99999998245E-14  0.12509000000E+03  0.12509000000E+03 0.  0.
        -13    1    3    3    0    0  0.81967407151E+01 -0.33605715251E+01 -0.59387505799E+02  0.60044708413E+02  0.10566000000E+00 0.  1.
         23    2    1    0    0    0 -0.78150263899E+01 -0.59258594812E+01 -0.28813175054E+02  0.94653352604E+02  0.89626266543E+02 0.  0.
         13    1    3    3    0    0 -0.16011767105E+02 -0.25652879561E+01  0.30574330746E+02  0.34608644191E+02  0.10566000000E+00 0. -1.
         22    1    1    0    0    0  0.78150263899E+01  0.59258594812E+01  0.28813175054E+02  0.30436647396E+02  0.00000000000E+00 0.  1.
</event>
<event>
 5    1  0.1258624E-009  0.9118800E+02  0.7815553E-02  0.1125453E+00
         25   -1    0    0    0    0  0.00000000000E+00  0.00000000000E+00  0.99999998245E-14  0.12509000000E+03  0.12509000000E+03 0.  0.
        -13    1    3    3    0    0  0.15985420765E+01 -0.37524653760E+02  0.21051553896E+02  0.43056173332E+02  0.10566000000E+00 0. -1.
         23    2    1    0    0    0  0.85724067469E+01  0.96247012396E+01  0.30797006729E+02  0.91704723981E+02  0.85411824390E+02 0.  0.
         13    1    3    3    0    0  0.69738646705E+01  0.47149354999E+02  0.97454528330E+01  0.48648550649E+02  0.10566000000E+00 0.  1.
         22    1    1    0    0    0 -0.85724067469E+01 -0.96247012396E+01 -0.30797006729E+02  0.33385276019E+02  0.00000000000E+00 0. -1.
</event>
<event>
 5    1  0.1258624E-009  0.9118800E+02  0.7815553E-02  0.1125453E+00
         25   -1    0    0    0    0  0.00000000000E+00  0.00000000000E+00  0.99999998245E-14  0.12509000000E+03  0.12509000000E+03 0.  0.
        -13    1    3    3    0    0 -0.24846290527E+02 -0.48495711500E+02 -0.26207670420E+02  0.60465075372E+02  0.10566000000E+00 0.  1.
         23    2    1    0    0    0 -0.22135600995E+02 -0.18230479902E+02 -0.12149346201E+02  0.93946110679E+02  0.88633683607E+02 0.  0.
         13    1    3    3    0    0  0.27106895316E+01  0.30265231598E+02  0.14058324219E+02  0.33481035308E+02  0.10566000000E+00 0. -1.
         22    1    1    0    0    0  0.22135600995E+02  0.18230479902E+02  0.12149346201E+02  0.31143889321E+02  0.00000000000E+00 0.  1.
</event>
<event>
 5    1  0.1258624E-009  0.9118800E+02  0.7815553E-02  0.1125453E+00
         25   -1    0    0    0    0  0.00000000000E+00  0.00000000000E+00  0.99999998245E-14  0.12509000000E+03  0.12509000000E+03 0.  0.
        -13    1    3    3    0    0 -0.32512838300E+02 -0.39455522520E+02  0.32888293838E+02  0.60790409994E+02  0.10566000000E+00 0.  1.
         23    2    1    0    0    0 -0.95537914126E+01 -0.16703776301E+02  0.24029140981E+02  0.94305414744E+02  0.89139332288E+02 0.  0.
         13    1    3    3    0    0  0.22959046887E+02  0.22751746220E+02 -0.88591528571E+01  0.33515004750E+02  0.10566000000E+00 0. -1.
         22    1    1    0    0    0  0.95537914126E+01  0.16703776301E+02 -0.24029140981E+02  0.30784585256E+02  0.00000000000E+00 0.  1.
</event>
<event>
 5    1  0.1258624E-009  0.9118800E+02  0.7815553E-02  0.1125453E+00
         25   -1    0    0    0    0  0.00000000000E+00  0.00000000000E+00  0.99999998245E-14  0.12509000000E+03  0.12509000000E+03 0.  0.
        -13    1    3    3    0    0 -0.24316993761E+02  0.47827111497E+02  0.26683782690E+02  0.59923152474E+02  0.10566000000E+00 0.  1.
         23    2    1    0    0    0 -0.93488312822E+01  0.15744692030E+02  0.23254761693E+02  0.95491352821E+02  0.90788317248E+02 0.  0.
         13    1    3    3    0    0  0.14968162479E+02 -0.32082419467E+02 -0.34290209967E+01  0.35568200347E+02  0.10566000000E+00 0. -1.
         22    1    1    0    0    0  0.93488312822E+01 -0.15744692030E+02 -0.23254761693E+02  0.29598647179E+02  0.00000000000E+00 0.  1.
</event>
<event>
 5    1  0.1258624E-009  0.9118800E+02  0.7815553E-02  0.1125453E+00
         25   -1    0    0    0    0  0.00000000000E+00  0.00000000000E+00  0.99999998245E-14  0.12509000000E+03  0.12509000000E+03 0.  0.
        -13    1    3    3    0    0  0.12555433258E+02  0.29582527610E+02 -0.16402762101E+02  0.36080834423E+02  0.10566000000E+00 0. -1.
         23    2    1    0    0    0 -0.16619253761E+02 -0.13619977942E+02  0.16736860277E+02  0.97853519195E+02  0.93986623155E+02 0.  0.
         13    1    3    3    0    0 -0.29174687019E+02 -0.43202505552E+02  0.33139622378E+02  0.61772684772E+02  0.10566000000E+00 0.  1.
         22    1    1    0    0    0  0.16619253761E+02  0.13619977942E+02 -0.16736860277E+02  0.27236480805E+02  0.00000000000E+00 0.  1.
</event>
<event>
 5    1  0.1258624E-009  0.9118800E+02  0.7815553E-02  0.1125453E+00
         25   -1    0    0    0    0  0.00000000000E+00  0.00000000000E+00  0.99999998245E-14  0.12509000000E+03  0.12509000000E+03 0.  0.
        -13    1    3    3    0    0  0.14766069515E+02  0.81807511726E+01 -0.49667932607E+02  0.52458328148E+02  0.10566000000E+00 0. -1.
         23    2    1    0    0    0 -0.95039650981E+01  0.22473853437E+02 -0.18490266348E+02  0.94474817647E+02  0.89376740705E+02 0.  0.
         13    1    3    3    0    0 -0.24270034613E+02  0.14293102264E+02  0.31177666259E+02  0.42016489499E+02  0.10566000000E+00 0.  1.
         22    1    1    0    0    0  0.95039650981E+01 -0.22473853437E+02  0.18490266348E+02  0.30615182353E+02  0.00000000000E+00 0. -1.
</event>
<event>
 5    1  0.1258624E-009  0.9118800E+02  0.7815553E-02  0.1125453E+00
         25   -1    0    0    0    0  0.00000000000E+00  0.00000000000E+00  0.99999998245E-14  0.12509000000E+03  0.12509000000E+03 0.  0.
        -13    1    3    3    0    0  0.34594499997E+02 -0.57367968829E+01 -0.24227133004E+02  0.42622240746E+02  0.10566000000E+00 0.  1.
         23    2    1    0    0    0 -0.12626808362E+02  0.10156201220E+02 -0.28158987130E+02  0.92601336303E+02  0.86715017248E+02 0.  0.
         13    1    3    3    0    0 -0.47221308359E+02  0.15892998102E+02 -0.39318541253E+01  0.49979095558E+02  0.10566000000E+00 0. -1.
         22    1    1    0    0    0  0.12626808362E+02 -0.10156201220E+02  0.28158987130E+02  0.32488663697E+02  0.00000000000E+00 0. -1.
</event>
<event>
 5    1  0.1258624E-009  0.9118800E+02  0.7815553E-02  0.1125453E+00
         25   -1    0    0    0    0  0.00000000000E+00  0.00000000000E+00  0.99999998245E-14  0.12509000000E+03  0.12509000000E+03 0.  0.
        -13    1    3    3    0    0  0.28172576286E+02  0.41996201188E+02 -0.29408398930E+01  0.50656042800E+02  0.10566000000E+00 0.  1.
         23    2    1    0    0    0 -0.68475650632E+01  0.20715956508E+02 -0.20419609896E+02  0.95206886547E+02  0.90395524095E+02 0.  0.
         13    1    3    3    0    0 -0.35020141349E+02 -0.21280244680E+02 -0.17478770003E+02  0.44550843748E+02  0.10566000000E+00 0. -1.
         22    1    1    0    0    0  0.68475650632E+01 -0.20715956508E+02  0.20419609896E+02  0.29883113453E+02  0.00000000000E+00 0.  1.
</event>
<event>
 5    1  0.1258624E-009  0.9118800E+02  0.7815553E-02  0.1125453E+00
         25   -1    0    0    0    0  0.00000000000E+00  0.00000000000E+00  0.99999998245E-14  0.12509000000E+03  0.12509000000E+03 0.  0.
        -13    1    3    3    0    0  0.10314089612E+02  0.39263421249E+02  0.11066220023E+02  0.42076942407E+02  0.10566000000E+00 0. -1.
         23    2    1    0    0    0 -0.25338886539E+02  0.20937135382E+02 -0.14007471559E+02  0.89360011636E+02  0.81905919267E+02 0.  0.
         13    1    3    3    0    0 -0.35652976152E+02 -0.18326285867E+02 -0.25073691581E+02  0.47283069229E+02  0.10566000000E+00 0.  1.
         22    1    1    0    0    0  0.25338886539E+02 -0.20937135382E+02  0.14007471559E+02  0.35729988364E+02  0.00000000000E+00 0. -1.
</event>
<event>
 5    1  0.1258624E-009  0.9118800E+02  0.7815553E-02  0.1125453E+00
         25   -1    0    0    0    0  0.00000000000E+00  0.00000000000E+00  0.99999998245E-14  0.12509000000E+03  0.12509000000E+03 0.  0.
        -13    1    3    3    0    0 -0.25696903774E+02 -0.30591258415E+02 -0.33223120850E+02  0.51960974568E+02  0.10566000000E+00 0.  1.
         23    2    1    0    0    0  0.10527027649E+02 -0.26608270215E+02 -0.12719596087E+02  0.93775363174E+02  0.88392376700E+02 0.  0.
         13    1    3    3    0    0  0.36223931423E+02  0.39829882001E+01  0.20503524763E+02  0.41814388606E+02  0.10566000000E+00 0. -1.
         22    1    1    0    0    0 -0.10527027649E+02  0.26608270215E+02  0.12719596087E+02  0.31314636826E+02  0.00000000000E+00 0. -1.
</event>
<event>
 5    1  0.1258624E-009  0.9118800E+02  0.7815553E-02  0.1125453E+00
         25   -1    0    0    0    0  0.00000000000E+00  0.00000000000E+00  0.99999998245E-14  0.12509000000E+03  0.12509000000E+03 0.  0.
        -13    1    3    3    0    0 -0.64032090905E+01  0.89221153700E+01 -0.35190652400E+02  0.36864595613E+02  0.10566000000E+00 0.  1.
         23    2    1    0    0    0  0.40001492785E+01 -0.99968577964E+01  0.23413376637E+02  0.99319385618E+02  0.95917755363E+02 0.  0.
         13    1    3    3    0    0  0.10403358369E+02 -0.18918973166E+02  0.58604029038E+02  0.62454790005E+02  0.10566000000E+00 0. -1.
         22    1    1    0    0    0 -0.40001492785E+01  0.99968577964E+01 -0.23413376637E+02  0.25770614382E+02  0.00000000000E+00 0. -1.
</event>
<event>
 5    1  0.1258624E-009  0.9118800E+02  0.7815553E-02  0.1125453E+00
         25   -1    0    0    0    0  0.00000000000E+00  0.00000000000E+00  0.99999998245E-14  0.12509000000E+03  0.12509000000E+03 0.  0.
        -13    1    3    3    0    0 -0.39339309037E+02  0.60390501107E+01 -0.41045434887E+02  0.57173335139E+02  0.10566000000E+00 0.  1.
         23    2    1    0    0    0 -0.17253530991E+02  0.20275849364E+02 -0.13509065769E+02  0.95235532042E+02  0.90435155256E+02 0.  0.
         13    1    3    3    0    0  0.22085778046E+02  0.14236799253E+02  0.27536369118E+02  0.38062196903E+02  0.10566000000E+00 0. -1.
         22    1    1    0    0    0  0.17253530991E+02 -0.20275849364E+02  0.13509065769E+02  0.29854467958E+02  0.00000000000E+00 0.  1.
</event>
<event>
 5    1  0.1258624E-009  0.9118800E+02  0.7815553E-02  0.1125453E+00
         25   -1    0    0    0    0  0.00000000000E+00  0.00000000000E+00  0.99999998245E-14  0.12509000000E+03  0.12509000000E+03 0.  0.
        -13    1    3    3    0    0 -0.44597514828E+02  0.19395909107E+02 -0.22578340957E+02  0.53618394822E+02  0.10566000000E+00 0. -1.
         23    2    1    0    0    0 -0.26647845047E+02 -0.10625036982E+02 -0.22556267164E+02  0.88596380765E+02  0.80731248223E+02 0.  0.
         13    1    3    3    0    0  0.17949669781E+02 -0.30020946089E+02  0.22073793453E-01  0.34977985943E+02  0.10566000000E+00 0.  1.
         22    1    1    0    0    0  0.26647845047E+02  0.10625036982E+02  0.22556267164E+02  0.36493619235E+02  0.00000000000E+00 0. -1.
</event>
<event>
 5    1  0.1258624E-009  0.9118800E+02  0.7815553E-02  0.1125453E+00
         25   -1    0    0    0    0  0.00000000000E+00  0.00000000000E+00  0.99999998245E-14  0.12509000000E+03  0.12509000000E+03 0.  0.
        -13    1    3    3    0    0  0.15606844792E+02 -0.30951866137E+02 -0.68501566449E+00  0.34670910461E+02  0.10566000000E+00 0. -1.
         23    2    1    0    0    0 -0.23344910990E+02  0.15389521029E+02  0.84188071030E+01  0.95888997625E+02  0.91334557129E+02 0.  0.
         13    1    3    3    0    0 -0.38951755783E+02  0.46341387166E+02  0.91038227675E+01  0.61218087164E+02  0.10566000000E+00 0.  1.
         22    1    1    0    0    0  0.23344910990E+02 -0.15389521029E+02 -0.84188071030E+01  0.29201002375E+02  0.00000000000E+00 0.  1.
</event>
<event>
 5    1  0.1258624E-009  0.9118800E+02  0.7815553E-02  0.1125453E+00
         25   -1    0    0    0    0  0.00000000000E+00  0.00000000000E+00  0.99999998245E-14  0.12509000000E+03  0.12509000000E+03 0.  0.
        -13    1    3    3    0    0  0.26561990517E+01 -0.10308551636E+02 -0.60428066200E+02  0.61358650400E+02  0.10566000000E+00 0.  1.
         23    2    1    0    0    0 -0.29133447783E+01 -0.11889796352E+02 -0.25034320966E+02  0.97222957435E+02  0.93143606282E+02 0.  0.
         13    1    3    3    0    0 -0.55695438300E+01 -0.15812447166E+01  0.35393745235E+02  0.35864307035E+02  0.10566000000E+00 0. -1.
         22    1    1    0    0    0  0.29133447783E+01  0.11889796352E+02  0.25034320966E+02  0.27867042565E+02  0.00000000000E+00 0.  1.
</event>
<event>
 5    1  0.1258624E-009  0.9118800E+02  0.7815553E-02  0.1125453E+00
         25   -1    0    0    0    0  0.00000000000E+00  0.00000000000E+00  0.99999998245E-14  0.12509000000E+03  0.12509000000E+03 0.  0.
        -13    1    3    3    0    0 -0.36148650770E+02  0.13849102184E+02  0.47566075028E+01  0.39002039213E+02  0.10566000000E+00 0. -1.
         23    2    1    0    0    0  0.11941609631E+02  0.54678567028E+01 -0.25480731505E+02  0.96423518257E+02  0.92063715423E+02 0.  0.
         13    1    3    3    0    0  0.48090260401E+02 -0.83812454809E+01 -0.30237339008E+02  0.57421479044E+02  0.10566000000E+00 0.  1.
         22    1    1    0    0    0 -0.11941609631E+02 -0.54678567028E+01  0.25480731505E+02  0.28666481743E+02  0.00000000000E+00 0.  1.
</event>
<event>
 5    1  0.1258624E-009  0.9118800E+02  0.7815553E-02  0.1125453E+00
         25   -1    0    0    0    0  0.00000000000E+00  0.00000000000E+00  0.99999998245E-14  0.12509000000E+03  0.12509000000E+03 0.  0.
        -13    1    3    3    0    0 -0.29527461057E+02 -0.22707691820E+02  0.35520876768E+02  0.51470905127E+02  0.10566000000E+00 0.  1.
         23    2    1    0    0    0 -0.19058312033E+01  0.11169205220E+02  0.26731398838E+02  0.96056381183E+02  0.91563515356E+02 0.  0.
         13    1    3    3    0    0  0.27621629853E+02  0.33876897039E+02 -0.87894779305E+01  0.44585476055E+02  0.10566000000E+00 0. -1.
         22    1    1    0    0    0  0.19058312033E+01 -0.11169205220E+02 -0.26731398838E+02  0.29033618817E+02  0.00000000000E+00 0.  1.
</event>
<event>
 5    1  0.1258624E-009  0.9118800E+02  0.7815553E-02  0.1125453E+00
         25   -1    0    0    0    0  0.00000000000E+00  0.00000000000E+00  0.99999998245E-14  0.12509000000E+03  0.12509000000E+03 0.  0.
        -13    1    3    3    0    0  0.14510191048E+02  0.33971278348E+02  0.30158721933E+02  0.47688081001E+02  0.10566000000E+00 0.  1.
         23    2    1    0    0    0  0.25309251035E+02 -0.90424467828E+01  0.98489550492E+01  0.96466129764E+02  0.92121594885E+02 0.  0.
         13    1    3    3    0    0  0.10799059987E+02 -0.43013725131E+02 -0.20309766884E+02  0.48778048763E+02  0.10566000000E+00 0. -1.
         22    1    1    0    0    0 -0.25309251035E+02  0.90424467828E+01 -0.98489550492E+01  0.28623870236E+02  0.00000000000E+00 0. -1.
</event>
<event>
 5    1  0.1258624E-009  0.9118800E+02  0.7815553E-02  0.1125453E+00
         25   -1    0    0    0    0  0.00000000000E+00  0.00000000000E+00  0.99999998245E-14  0.12509000000E+03  0.12509000000E+03 0.  0.
        -13    1    3    3    0    0 -0.35387763583E+02 -0.40268758693E+01  0.40470164665E+01  0.35845488517E+02  0.10566000000E+00 0. -1.
         23    2    1    0    0    0  0.10411135330E+02  0.30115972230E+02  0.40359485112E+01  0.92970653764E+02  0.87246146383E+02 0.  0.
         13    1    3    3    0    0  0.45798898913E+02  0.34142848100E+02 -0.11067955223E-01  0.57125165248E+02  0.10566000000E+00 0.  1.
         22    1    1    0    0    0 -0.10411135330E+02 -0.30115972230E+02 -0.40359485112E+01  0.32119346236E+02  0.00000000000E+00 0. -1.
</event>
<event>
 5    1  0.1258624E-009  0.9118800E+02  0.7815553E-02  0.1125453E+00
         25   -1    0    0    0    0  0.00000000000E+00  0.00000000000E+00  0.99999998245E-14  0.12509000000E+03  0.12509000000E+03 0.  0.
        -13    1    3    3    0    0 -0.12303668319E+02 -0.17889720214E+02  0.53790109798E+02  0.58006977335E+02  0.10566000000E+00 0.  1.
         23    2    1    0    0    0 -0.62927595982E+01 -0.22377598578E+02  0.15208245101E+02  0.97311474831E+02  0.93262407610E+02 0.  0.
         13    1    3    3    0    0  0.60109087210E+01 -0.44878783643E+01 -0.38581864697E+02  0.39304497496E+02  0.10566000000E+00 0. -1.
         22    1    1    0    0    0  0.62927595982E+01  0.22377598578E+02 -0.15208245101E+02  0.27778525169E+02  0.00000000000E+00 0.  1.
</event>
<event>
 5    1  0.1258624E-009  0.9118800E+02  0.7815553E-02  0.1125453E+00
         25   -1    0    0    0    0  0.00000000000E+00  0.00000000000E+00  0.99999998245E-14  0.12509000000E+03  0.12509000000E+03 0.  0.
        -13    1    3    3    0    0  0.14848487315E+02  0.24412616271E+02  0.16768796842E+02  0.33130908836E+02  0.10566000000E+00 0. -1.
         23    2    1    0    0    0 -0.10269126130E+02 -0.15954755244E+02 -0.23112470832E+02  0.95186898583E+02  0.90367860369E+02 0.  0.
         13    1    3    3    0    0 -0.25117613446E+02 -0.40367371515E+02 -0.39881267673E+02  0.62055989747E+02  0.10566000000E+00 0.  1.
         22    1    1    0    0    0  0.10269126130E+02  0.15954755244E+02  0.23112470832E+02  0.29903101417E+02  0.00000000000E+00 0.  1.
</event>
<event>
 5    1  0.1258624E-009  0.9118800E+02  0.7815553E-02  0.1125453E+00
         25   -1    0    0    0    0  0.00000000000E+00  0.00000000000E+00  0.99999998245E-14  0.12509000000E+03  0.12509000000E+03 0.  0.
        -13    1    3    3    0    0  0.68366003097E+01 -0.23559041840E+02 -0.52211179191E+02  0.57686965189E+02  0.10566000000E+00 0.  1.
         23    2    1    0    0    0  0.18276611608E+02 -0.24046418064E+01 -0.25424131115E+02  0.93686126401E+02  0.88266001399E+02 0.  0.
         13    1    3    3    0    0  0.11440011298E+02  0.21154400034E+02  0.26787048076E+02  0.35999161212E+02  0.10566000000E+00 0. -1.
         22    1    1    0    0    0 -0.18276611608E+02  0.24046418064E+01  0.25424131115E+02  0.31403873599E+02  0.00000000000E+00 0.  1.
</event>
<event>
 5    1  0.1258624E-009  0.9118800E+02  0.7815553E-02  0.1125453E+00
         25   -1    0    0    0    0  0.00000000000E+00  0.00000000000E+00  0.99999998245E-14  0.12509000000E+03  0.12509000000E+03 0.  0.
        -13    1    3    3    0    0  0.49720040499E+02 -0.26889937417E+02  0.88286889054E+01  0.57211083483E+02  0.10566000000E+00 0.  1.
         23    2    1    0    0    0  0.25900313713E+02  0.33055296204E+01  0.13046679226E+02  0.95901498576E+02  0.91351676579E+02 0.  0.
         13    1    3    3    0    0 -0.23819726786E+02  0.30195467037E+02  0.42179903209E+01  0.38690415093E+02  0.10566000000E+00 0. -1.
         22    1    1    0    0    0 -0.25900313713E+02 -0.33055296204E+01 -0.13046679226E+02  0.29188501424E+02  0.00000000000E+00 0.  1.
</event>
<event>
 5    1  0.1258624E-009  0.9118800E+02  0.7815553E-02  0.1125453E+00
         25   -1    0    0    0    0  0.00000000000E+00  0.00000000000E+00  0.99999998245E-14  0.12509000000E+03  0.12509000000E+03 0.  0.
        -13    1    3    3    0    0  0.22915984190E+02 -0.38241226807E+02 -0.17058637219E+02  0.47734076161E+02  0.10566000000E+00 0.  1.
         23    2    1    0    0    0 -0.19132812074E+02 -0.24619501113E+02 -0.87163840120E+01  0.92714705667E+02  0.86878403321E+02 0.  0.
         13    1    3    3    0    0 -0.42048796264E+02  0.13621725694E+02  0.83422532072E+01  0.44980629506E+02  0.10566000000E+00 0. -1.
         22    1    1    0    0    0  0.19132812074E+02  0.24619501113E+02  0.87163840120E+01  0.32375294333E+02  0.00000000000E+00 0.  1.
</event>
<event>
 5    1  0.1258624E-009  0.9118800E+02  0.7815553E-02  0.1125453E+00
         25   -1    0    0    0    0  0.00000000000E+00  0.00000000000E+00  0.99999998245E-14  0.12509000000E+03  0.12509000000E+03 0.  0.
        -13    1    3    3    0    0  0.85794203079E+01 -0.86355650730E+01 -0.59227899356E+02  0.60465979386E+02  0.10566000000E+00 0.  1.
         23    2    1    0    0    0 -0.57923512289E+01  0.74205185155E+00 -0.31337106383E+02  0.93213422233E+02  0.87593526440E+02 0.  0.
         13    1    3    3    0    0 -0.14371771537E+02  0.93776169245E+01  0.27890792973E+02  0.32747442847E+02  0.10566000000E+00 0. -1.
         22    1    1    0    0    0  0.57923512289E+01 -0.74205185155E+00  0.31337106383E+02  0.31876577767E+02  0.00000000000E+00 0.  1.
</event>
<event>
 5    1  0.1258624E-009  0.9118800E+02  0.7815553E-02  0.1125453E+00
         25   -1    0    0    0    0  0.00000000000E+00  0.00000000000E+00  0.99999998245E-14  0.12509000000E+03  0.12509000000E+03 0.  0.
        -13    1    3    3    0    0 -0.27809036930E+02 -0.83947740311E+01 -0.18573602525E+02  0.34479046403E+02  0.10566000000E+00 0. -1.
         23    2    1    0    0    0  0.15016037453E+02  0.84836493772E+01  0.22888839685E+02  0.96430748968E+02  0.92073539505E+02 0.  0.
         13    1    3    3    0    0  0.42825074384E+02  0.16878423408E+02  0.41462442210E+02  0.61951702566E+02  0.10566000000E+00 0.  1.
         22    1    1    0    0    0 -0.15016037453E+02 -0.84836493772E+01 -0.22888839685E+02  0.28659251032E+02  0.00000000000E+00 0.  1.
</event>
<event>
 5    1  0.1258624E-009  0.9118800E+02  0.7815553E-02  0.1125453E+00
         25   -1    0    0    0    0  0.00000000000E+00  0.00000000000E+00  0.99999998245E-14  0.12509000000E+03  0.12509000000E+03 0.  0.
        -13    1    3    3    0    0  0.58877791601E+01 -0.52072660376E+01  0.29830205629E+02  0.30848563903E+02  0.10566000000E+00 0. -1.
         23    2    1    0    0    0 -0.14496062095E+02 -0.15498084303E+02 -0.26212299261E+02  0.91364474565E+02  0.84912049479E+02 0.  0.
         13    1    3    3    0    0 -0.20383841255E+02 -0.10290818266E+02 -0.56042504889E+02  0.60515910662E+02  0.10566000000E+00 0.  1.
         22    1    1    0    0    0  0.14496062095E+02  0.15498084303E+02  0.26212299261E+02  0.33725525435E+02  0.00000000000E+00 0.  1.
</event>
<event>
 5    1  0.1258624E-009  0.9118800E+02  0.7815553E-02  0.1125453E+00
         25   -1    0    0    0    0  0.00000000000E+00  0.00000000000E+00  0.99999998245E-14  0.12509000000E+03  0.12509000000E+03 0.  0.
        -13    1    3    3    0    0  0.27702886529E+02  0.14522737503E+02 -0.36538227128E+02  0.48097952475E+02  0.10566000000E+00 0.  1.
         23    2    1    0    0    0 -0.18597966641E+02  0.55725242438E+01 -0.17493617535E+02  0.98956419226E+02  0.95443223237E+02 0.  0.
         13    1    3    3    0    0 -0.46300853170E+02 -0.89502132587E+01  0.19044609593E+02  0.50858466751E+02  0.10566000000E+00 0. -1.
         22    1    1    0    0    0  0.18597966641E+02 -0.55725242438E+01  0.17493617535E+02  0.26133580774E+02  0.00000000000E+00 0. -1.
</event>
<event>
 5    1  0.1258624E-009  0.9118800E+02  0.7815553E-02  0.1125453E+00
         25   -1    0    0    0    0  0.00000000000E+00  0.00000000000E+00  0.99999998245E-14  0.12509000000E+03  0.12509000000E+03 0.  0.
        -13    1    3    3    0    0  0.31907790100E+02  0.75714859784E+01 -0.14570053510E+02  0.35884984218E+02  0.10566000000E+00 0.  1.
         23    2    1    0    0    0 -0.11098382698E+02  0.10374233557E+02  0.25937356039E+02  0.95030970430E+02  0.90151761393E+02 0.  0.
         13    1    3    3    0    0 -0.43006172798E+02  0.28027475783E+01  0.40507409549E+02  0.59145986213E+02  0.10566000000E+00 0. -1.
         22    1    1    0    0    0  0.11098382698E+02 -0.10374233557E+02 -0.25937356039E+02  0.30059029570E+02  0.00000000000E+00 0. -1.
</event>
<event>
 5    1  0.1258624E-009  0.9118800E+02  0.7815553E-02  0.1125453E+00
         25   -1    0    0    0    0  0.00000000000E+00  0.00000000000E+00  0.99999998245E-14  0.12509000000E+03  0.12509000000E+03 0.  0.
        -13    1    3    3    0    0  0.39681068833E+02 -0.15100464036E+02  0.34119689831E+02  0.54468115774E+02  0.10566000000E+00 0.  1.
         23    2    1    0    0    0  0.17977930341E+02 -0.27010331600E+02  0.57200498054E+01  0.92143331546E+02  0.86051790139E+02 0.  0.
         13    1    3    3    0    0 -0.21703138492E+02 -0.11909867564E+02 -0.28399640026E+02  0.37675215771E+02  0.10566000000E+00 0. -1.
         22    1    1    0    0    0 -0.17977930341E+02  0.27010331600E+02 -0.57200498054E+01  0.32946668454E+02  0.00000000000E+00 0.  1.
</event>
<event>
 5    1  0.1258624E-009  0.9118800E+02  0.7815553E-02  0.1125453E+00
         25   -1    0    0    0    0  0.00000000000E+00  0.00000000000E+00  0.99999998245E-14  0.12509000000E+03  0.12509000000E+03 0.  0.
        -13    1    3    3    0    0  0.42477629370E+02  0.24119697234E+02  0.30832271609E+02  0.57764599264E+02  0.10566000000E+00 0. -1.
         23    2    1    0    0    0  0.12465577075E+02  0.25905735117E+02  0.88473648198E+01  0.95010545417E+02  0.90123416227E+02 0.  0.
         13    1    3    3    0    0 -0.30012052295E+02  0.17860378829E+01 -0.21984906789E+02  0.37245946153E+02  0.10566000000E+00 0.  1.
         22    1    1    0    0    0 -0.12465577075E+02 -0.25905735117E+02 -0.88473648198E+01  0.30079454583E+02  0.00000000000E+00 0. -1.
</event>
<event>
 5    1  0.1258624E-009  0.9118800E+02  0.7815553E-02  0.1125453E+00
         25   -1    0    0    0    0  0.00000000000E+00  0.00000000000E+00  0.99999998245E-14  0.12509000000E+03  0.12509000000E+03 0.  0.
        -13    1    3    3    0    0 -0.30436834534E+02 -0.21574663635E+02  0.13286778942E+02  0.39603240601E+02  0.10566000000E+00 0.  1.
         23    2    1    0    0    0 -0.90789552085E+01  0.16080695220E+02 -0.22649726619E+02  0.95866271587E+02  0.91303426692E+02 0.  0.
         13    1    3    3    0    0  0.21357879326E+02  0.37655358855E+02 -0.35936505560E+02  0.56263030986E+02  0.10566000000E+00 0. -1.
         22    1    1    0    0    0  0.90789552085E+01 -0.16080695220E+02  0.22649726619E+02  0.29223728413E+02  0.00000000000E+00 0. -1.
</event>
<event>
 5    1  0.1258624E-009  0.9118800E+02  0.7815553E-02  0.1125453E+00
         25   -1    0    0    0    0  0.00000000000E+00  0.00000000000E+00  0.99999998245E-14  0.12509000000E+03  0.12509000000E+03 0.  0.
        -13    1    3    3    0    0  0.59342851664E+01  0.31258101325E+02  0.21000901128E+02  0.38122613382E+02  0.10566000000E+00 0.  1.
         23    2    1    0    0    0 -0.23346827655E+02 -0.16085588437E+02  0.32432686782E+01  0.96553369004E+02  0.92239979171E+02 0.  0.
         13    1    3    3    0    0 -0.29281112821E+02 -0.47343689762E+02 -0.17757632449E+02  0.58430755622E+02  0.10566000000E+00 0. -1.
         22    1    1    0    0    0  0.23346827655E+02  0.16085588437E+02 -0.32432686782E+01  0.28536630996E+02  0.00000000000E+00 0. -1.
</event>
<event>
 5    1  0.1258624E-009  0.9118800E+02  0.7815553E-02  0.1125453E+00
         25   -1    0    0    0    0  0.00000000000E+00  0.00000000000E+00  0.99999998245E-14  0.12509000000E+03  0.12509000000E+03 0.  0.
        -13    1    3    3    0    0 -0.50095344918E+02 -0.24286066860E+02 -0.19858153068E+02  0.59107647841E+02  0.10566000000E+00 0.  1.
         23    2    1    0    0    0 -0.23695179360E+02 -0.17658099486E+02  0.39572397496E+01  0.95275075067E+02  0.90489834679E+02 0.  0.
         13    1    3    3    0    0  0.26400165559E+02  0.66279673746E+01  0.23815392817E+02  0.36167427226E+02  0.10566000000E+00 0. -1.
         22    1    1    0    0    0  0.23695179360E+02  0.17658099486E+02 -0.39572397496E+01  0.29814924933E+02  0.00000000000E+00 0.  1.
</event>
<event>
 5    1  0.1258624E-009  0.9118800E+02  0.7815553E-02  0.1125453E+00
         25   -1    0    0    0    0  0.00000000000E+00  0.00000000000E+00  0.99999998245E-14  0.12509000000E+03  0.12509000000E+03 0.  0.
        -13    1    3    3    0    0  0.46018826122E+02  0.54763299994E+01 -0.19084168631E+02  0.50119249837E+02  0.10566000000E+00 0. -1.
         23    2    1    0    0    0  0.15746276619E+02  0.24035354579E+02  0.85466160412E+01  0.95111872259E+02  0.90263946854E+02 0.  0.
         13    1    3    3    0    0 -0.30272549503E+02  0.18559024580E+02  0.27630784672E+02  0.44992622422E+02  0.10566000000E+00 0.  1.
         22    1    1    0    0    0 -0.15746276619E+02 -0.24035354579E+02 -0.85466160412E+01  0.29978127741E+02  0.00000000000E+00 0. -1.
</event>
<event>
 5    1  0.1258624E-009  0.9118800E+02  0.7815553E-02  0.1125453E+00
         25   -1    0    0    0    0  0.00000000000E+00  0.00000000000E+00  0.99999998245E-14  0.12509000000E+03  0.12509000000E+03 0.  0.
        -13    1    3    3    0    0 -0.36893268597E-01  0.11388835413E+02 -0.38305349378E+02  0.39962706217E+02  0.10566000000E+00 0.  1.
         23    2    1    0    0    0 -0.18256730868E+02  0.21741058362E+02  0.11854927285E+02  0.94324416280E+02  0.89165993321E+02 0.  0.
         13    1    3    3    0    0 -0.18219837600E+02  0.10352222949E+02  0.50160276662E+02  0.54361710063E+02  0.10566000000E+00 0. -1.
         22    1    1    0    0    0  0.18256730868E+02 -0.21741058362E+02 -0.11854927285E+02  0.30765583720E+02  0.00000000000E+00 0. -1.
</event>
<event>
 5    1  0.1258624E-009  0.9118800E+02  0.7815553E-02  0.1125453E+00
         25   -1    0    0    0    0  0.00000000000E+00  0.00000000000E+00  0.99999998245E-14  0.12509000000E+03  0.12509000000E+03 0.  0.
        -13    1    3    3    0    0 -0.34981206111E+02 -0.84570674909E+01 -0.79413969001E+00  0.35997897070E+02  0.10566000000E+00 0.  1.
         23    2    1    0    0    0  0.12683538032E+02  0.26555996716E+02 -0.47807310788E+01  0.95274760805E+02  0.90489400254E+02 0.  0.
         13    1    3    3    0    0  0.47664744143E+02  0.35013064207E+02 -0.39865913888E+01  0.59276863736E+02  0.10566000000E+00 0. -1.
         22    1    1    0    0    0 -0.12683538032E+02 -0.26555996716E+02  0.47807310788E+01  0.29815239195E+02  0.00000000000E+00 0. -1.
</event>
<event>
 5    1  0.1258624E-009  0.9118800E+02  0.7815553E-02  0.1125453E+00
         25   -1    0    0    0    0  0.00000000000E+00  0.00000000000E+00  0.99999998245E-14  0.12509000000E+03  0.12509000000E+03 0.  0.
        -13    1    3    3    0    0  0.27039641240E+02 -0.43620214122E+02 -0.25219948964E+02  0.57183234153E+02  0.10566000000E+00 0.  1.
         23    2    1    0    0    0  0.27800047811E+00 -0.16065500841E+02 -0.24730493059E+02  0.95598053837E+02  0.90935213251E+02 0.  0.
         13    1    3    3    0    0 -0.26761640762E+02  0.27554713281E+02  0.48945590503E+00  0.38414819684E+02  0.10566000000E+00 0. -1.
         22    1    1    0    0    0 -0.27800047811E+00  0.16065500841E+02  0.24730493059E+02  0.29491946163E+02  0.00000000000E+00 0.  1.
</event>
<event>
 5    1  0.1258624E-009  0.9118800E+02  0.7815553E-02  0.1125453E+00
         25   -1    0    0    0    0  0.00000000000E+00  0.00000000000E+00  0.99999998245E-14  0.12509000000E+03  0.12509000000E+03 0.  0.
        -13    1    3    3    0    0  0.18123818309E+02  0.31879261748E+02 -0.16128764236E+02  0.40061307012E+02  0.10566000000E+00 0.  1.
         23    2    1    0    0    0  0.24285488365E+02 -0.15987219958E+02  0.92367324103E+01  0.94582732461E+02  0.89527648841E+02 0.  0.
         13    1    3    3    0    0  0.61616700555E+01 -0.47866481706E+02  0.25365496646E+02  0.54521425448E+02  0.10566000000E+00 0. -1.
         22    1    1    0    0    0 -0.24285488365E+02  0.15987219958E+02 -0.92367324103E+01  0.30507267539E+02  0.00000000000E+00 0.  1.
</event>
<event>
 5    1  0.1258624E-009  0.9118800E+02  0.7815553E-02  0.1125453E+00
         25   -1    0    0    0    0  0.00000000000E+00  0.00000000000E+00  0.99999998245E-14  0.12509000000E+03  0.12509000000E+03 0.  0.
        -13    1    3    3    0    0  0.60728447472E+01 -0.13231435252E+02  0.56657008361E+02  0.58497675874E+02  0.10566000000E+00 0. -1.
         23    2    1    0    0    0  0.53672240638E+01  0.95887779509E+01  0.27107214309E+02  0.95840165396E+02  0.91267652971E+02 0.  0.
         13    1    3    3    0    0 -0.70562068341E+00  0.22820213203E+02 -0.29549794052E+02  0.37342489522E+02  0.10566000000E+00 0.  1.
         22    1    1    0    0    0 -0.53672240638E+01 -0.95887779509E+01 -0.27107214309E+02  0.29249834604E+02  0.00000000000E+00 0. -1.
</event>
<event>
 5    1  0.1258624E-009  0.9118800E+02  0.7815553E-02  0.1125453E+00
         25   -1    0    0    0    0  0.00000000000E+00  0.00000000000E+00  0.99999998245E-14  0.12509000000E+03  0.12509000000E+03 0.  0.
        -13    1    3    3    0    0 -0.17388120472E+02  0.29492917065E+02  0.13719919916E+02  0.36883956635E+02  0.10566000000E+00 0.  1.
         23    2    1    0    0    0 -0.10987579255E+02 -0.15547155509E+02 -0.22918347415E+02  0.95295846370E+02  0.90518543652E+02 0.  0.
         13    1    3    3    0    0  0.64005412168E+01 -0.45040072574E+02 -0.36638267331E+02  0.58411889735E+02  0.10566000000E+00 0. -1.
         22    1    1    0    0    0  0.10987579255E+02  0.15547155509E+02  0.22918347415E+02  0.29794153630E+02  0.00000000000E+00 0. -1.
</event>
<event>
 5    1  0.1258624E-009  0.9118800E+02  0.7815553E-02  0.1125453E+00
         25   -1    0    0    0    0  0.00000000000E+00  0.00000000000E+00  0.99999998245E-14  0.12509000000E+03  0.12509000000E+03 0.  0.
        -13    1    3    3    0    0  0.14759366374E+01 -0.94032206861E+00  0.37588174467E+02  0.37629039562E+02  0.10566000000E+00 0.  1.
         23    2    1    0    0    0  0.21851504987E+02  0.97704967818E+01 -0.16234366048E+02  0.96167594869E+02  0.91715324698E+02 0.  0.
         13    1    3    3    0    0  0.20375568350E+02  0.10710818850E+02 -0.53822540515E+02  0.58538555308E+02  0.10566000000E+00 0. -1.
         22    1    1    0    0    0 -0.21851504987E+02 -0.97704967818E+01  0.16234366048E+02  0.28922405131E+02  0.00000000000E+00 0. -1.
</event>
<event>
 5    1  0.1258624E-009  0.9118800E+02  0.7815553E-02  0.1125453E+00
         25   -1    0    0    0    0  0.00000000000E+00  0.00000000000E+00  0.99999998245E-14  0.12509000000E+03  0.12509000000E+03 0.  0.
        -13    1    3    3    0    0 -0.30884226902E+02  0.35040565234E+02 -0.15319829436E+02  0.49156739327E+02  0.10566000000E+00 0. -1.
         23    2    1    0    0    0 -0.26696306803E+02 -0.10454359398E+02 -0.51882164563E+01  0.95954042536E+02  0.91423597947E+02 0.  0.
         13    1    3    3    0    0  0.41879200989E+01 -0.45494924632E+02  0.10131612980E+02  0.46797303209E+02  0.10566000000E+00 0.  1.
         22    1    1    0    0    0  0.26696306803E+02  0.10454359398E+02  0.51882164563E+01  0.29135957464E+02  0.00000000000E+00 0. -1.
</event>
<event>
 5    1  0.1258624E-009  0.9118800E+02  0.7815553E-02  0.1125453E+00
         25   -1    0    0    0    0  0.00000000000E+00  0.00000000000E+00  0.99999998245E-14  0.12509000000E+03  0.12509000000E+03 0.  0.
        -13    1    3    3    0    0  0.15289867677E+02 -0.18404047887E+02 -0.46907681873E+02  0.52657675746E+02  0.10566000000E+00 0. -1.
         23    2    1    0    0    0  0.46955478285E+01  0.15747442822E+02 -0.26723804911E+02  0.93718167510E+02  0.88311398175E+02 0.  0.
         13    1    3    3    0    0 -0.10594319848E+02  0.34151490709E+02  0.20183876962E+02  0.41060491765E+02  0.10566000000E+00 0.  1.
         22    1    1    0    0    0 -0.46955478285E+01 -0.15747442822E+02  0.26723804911E+02  0.31371832490E+02  0.00000000000E+00 0. -1.
</event>
<event>
 5    1  0.1258624E-009  0.9118800E+02  0.7815553E-02  0.1125453E+00
         25   -1    0    0    0    0  0.00000000000E+00  0.00000000000E+00  0.99999998245E-14  0.12509000000E+03  0.12509000000E+03 0.  0.
        -13    1    3    3    0    0  0.63234086211E+00  0.22574667747E+01  0.27223602320E+02  0.27324562184E+02  0.10566000000E+00 0.  1.
         23    2    1    0    0    0 -0.51055041301E+01  0.91129531620E+01 -0.34166567208E+02  0.89362330015E+02  0.81909459913E+02 0.  0.
         13    1    3    3    0    0 -0.57378449922E+01  0.68554863874E+01 -0.61390169528E+02  0.62037767832E+02  0.10566000000E+00 0. -1.
         22    1    1    0    0    0  0.51055041301E+01 -0.91129531620E+01  0.34166567208E+02  0.35727669985E+02  0.00000000000E+00 0. -1.
</event>
<event>
 5    1  0.1258624E-009  0.9118800E+02  0.7815553E-02  0.1125453E+00
         25   -1    0    0    0    0  0.00000000000E+00  0.00000000000E+00  0.99999998245E-14  0.12509000000E+03  0.12509000000E+03 0.  0.
        -13    1    3    3    0    0  0.23555356333E+02 -0.40045021625E+02  0.10050998490E+02  0.47534117259E+02  0.10566000000E+00 0. -1.
         23    2    1    0    0    0  0.10818978689E+02  0.33535313268E+01  0.26981024948E+02  0.95827871242E+02  0.91250801242E+02 0.  0.
         13    1    3    3    0    0 -0.12736377644E+02  0.43398552952E+02  0.16930026458E+02  0.48293753983E+02  0.10566000000E+00 0.  1.
         22    1    1    0    0    0 -0.10818978689E+02 -0.33535313268E+01 -0.26981024948E+02  0.29262128758E+02  0.00000000000E+00 0. -1.
</event>
<event>
 5    1  0.1258624E-009  0.9118800E+02  0.7815553E-02  0.1125453E+00
         25   -1    0    0    0    0  0.00000000000E+00  0.00000000000E+00  0.99999998245E-14  0.12509000000E+03  0.12509000000E+03 0.  0.
        -13    1    3    3    0    0  0.67136973217E+01  0.22108883320E+02 -0.28129648317E+02  0.36402812142E+02  0.10566000000E+00 0.  1.
         23    2    1    0    0    0  0.14017280354E+02 -0.24933349789E+02  0.70904093682E+01  0.95620863853E+02  0.90966585177E+02 0.  0.
         13    1    3    3    0    0  0.73035830327E+01 -0.47042233109E+02  0.35220057685E+02  0.59218051711E+02  0.10566000000E+00 0. -1.
         22    1    1    0    0    0 -0.14017280354E+02  0.24933349789E+02 -0.70904093682E+01  0.29469136147E+02  0.00000000000E+00 0. -1.
</event>
<event>
 5    1  0.1258624E-009  0.9118800E+02  0.7815553E-02  0.1125453E+00
         25   -1    0    0    0    0  0.00000000000E+00  0.00000000000E+00  0.99999998245E-14  0.12509000000E+03  0.12509000000E+03 0.  0.
        -13    1    3    3    0    0  0.18281367017E+02 -0.94349914217E+01 -0.88769569894E+00  0.20591906440E+02  0.10566000000E+00 0. -1.
         23    2    1    0    0    0 -0.16632805043E+02  0.27313714626E+02  0.31059971282E+02  0.80509611640E+02  0.67040186008E+02 0.  0.
         13    1    3    3    0    0 -0.34914172060E+02  0.36748706048E+02  0.31947666981E+02  0.59917705200E+02  0.10566000000E+00 0.  1.
         22    1    1    0    0    0  0.16632805043E+02 -0.27313714626E+02 -0.31059971282E+02  0.44580388360E+02  0.00000000000E+00 0.  1.
</event>
<event>
 5    1  0.1258624E-009  0.9118800E+02  0.7815553E-02  0.1125453E+00
         25   -1    0    0    0    0  0.00000000000E+00  0.00000000000E+00  0.99999998245E-14  0.12509000000E+03  0.12509000000E+03 0.  0.
        -13    1    3    3    0    0  0.24575971676E+02  0.16148709327E+02  0.37310497319E+02  0.47506247704E+02  0.10566000000E+00 0. -1.
         23    2    1    0    0    0  0.45100366927E+01 -0.23145238572E+02  0.16640839268E+02  0.96228953050E+02  0.91798972619E+02 0.  0.
         13    1    3    3    0    0 -0.20065934984E+02 -0.39293947898E+02 -0.20669658050E+02  0.48722705345E+02  0.10566000000E+00 0.  1.
         22    1    1    0    0    0 -0.45100366927E+01  0.23145238572E+02 -0.16640839268E+02  0.28861046950E+02  0.00000000000E+00 0.  1.
</event>
<event>
 5    1  0.1258624E-009  0.9118800E+02  0.7815553E-02  0.1125453E+00
         25   -1    0    0    0    0  0.00000000000E+00  0.00000000000E+00  0.99999998245E-14  0.12509000000E+03  0.12509000000E+03 0.  0.
        -13    1    3    3    0    0  0.51126222073E+01  0.34118253191E+02  0.14949035156E+02  0.37598921830E+02  0.10566000000E+00 0.  1.
         23    2    1    0    0    0  0.19487901220E+02 -0.20826507838E+02  0.10964630698E+02  0.94532761102E+02  0.89457800513E+02 0.  0.
         13    1    3    3    0    0  0.14375279013E+02 -0.54944761030E+02 -0.39844044586E+01  0.56933839272E+02  0.10566000000E+00 0. -1.
         22    1    1    0    0    0 -0.19487901220E+02  0.20826507838E+02 -0.10964630698E+02  0.30557238898E+02  0.00000000000E+00 0. -1.
</event>
<event>
 5    1  0.1258624E-009  0.9118800E+02  0.7815553E-02  0.1125453E+00
         25   -1    0    0    0    0  0.00000000000E+00  0.00000000000E+00  0.99999998245E-14  0.12509000000E+03  0.12509000000E+03 0.  0.
        -13    1    3    3    0    0  0.18098616803E+02 -0.31948027734E+02  0.53008739634E+01  0.37099148711E+02  0.10566000000E+00 0.  1.
         23    2    1    0    0    0 -0.15112747802E+02  0.56677860213E+01 -0.24715578253E+02  0.95570874794E+02  0.90897818214E+02 0.  0.
         13    1    3    3    0    0 -0.33211364605E+02  0.37615813756E+02 -0.30016452216E+02  0.58471726083E+02  0.10566000000E+00 0. -1.
         22    1    1    0    0    0  0.15112747802E+02 -0.56677860213E+01  0.24715578253E+02  0.29519125206E+02  0.00000000000E+00 0. -1.
</event>
<event>
 5    1  0.1258624E-009  0.9118800E+02  0.7815553E-02  0.1125453E+00
         25   -1    0    0    0    0  0.00000000000E+00  0.00000000000E+00  0.99999998245E-14  0.12509000000E+03  0.12509000000E+03 0.  0.
        -13    1    3    3    0    0  0.37500741031E+02  0.34437162309E+02 -0.10253711406E+02  0.51936244448E+02  0.10566000000E+00 0.  1.
         23    2    1    0    0    0  0.25257103815E+02  0.10237810396E+01  0.15113762882E+02  0.95638425353E+02  0.90990731148E+02 0.  0.
         13    1    3    3    0    0 -0.12243637216E+02 -0.33413381269E+02  0.25367474288E+02  0.43702180905E+02  0.10566000000E+00 0. -1.
         22    1    1    0    0    0 -0.25257103815E+02 -0.10237810396E+01 -0.15113762882E+02  0.29451574647E+02  0.00000000000E+00 0.  1.
</event>
<event>
 5    1  0.1258624E-009  0.9118800E+02  0.7815553E-02  0.1125453E+00
         25   -1    0    0    0    0  0.00000000000E+00  0.00000000000E+00  0.99999998245E-14  0.12509000000E+03  0.12509000000E+03 0.  0.
        -13    1    3    3    0    0  0.98072715798E+01  0.14494276947E+02 -0.37356397749E+02  0.41252615152E+02  0.10566000000E+00 0. -1.
         23    2    1    0    0    0  0.26434218006E+02  0.96496861561E+00  0.12730730237E+02  0.95734071495E+02  0.91122126329E+02 0.  0.
         13    1    3    3    0    0  0.16626946426E+02 -0.13529308331E+02  0.50087127986E+02  0.54481456343E+02  0.10566000000E+00 0.  1.
         22    1    1    0    0    0 -0.26434218006E+02 -0.96496861561E+00 -0.12730730237E+02  0.29355928505E+02  0.00000000000E+00 0.  1.
</event>
<event>
 5    1  0.1258624E-009  0.9118800E+02  0.7815553E-02  0.1125453E+00
         25   -1    0    0    0    0  0.00000000000E+00  0.00000000000E+00  0.99999998245E-14  0.12509000000E+03  0.12509000000E+03 0.  0.
        -13    1    3    3    0    0  0.25303798248E+02  0.40685702835E+02  0.16589037725E+02  0.50703214470E+02  0.10566000000E+00 0. -1.
         23    2    1    0    0    0 -0.13879358655E+02  0.18791369042E+02  0.17980859432E+02  0.95610117825E+02  0.90951806894E+02 0.  0.
         13    1    3    3    0    0 -0.39183156904E+02 -0.21894333792E+02  0.13918217073E+01  0.44906903354E+02  0.10566000000E+00 0.  1.
         22    1    1    0    0    0  0.13879358655E+02 -0.18791369042E+02 -0.17980859432E+02  0.29479882175E+02  0.00000000000E+00 0. -1.
</event>
<event>
 5    1  0.1258624E-009  0.9118800E+02  0.7815553E-02  0.1125453E+00
         25   -1    0    0    0    0  0.00000000000E+00  0.00000000000E+00  0.99999998245E-14  0.12509000000E+03  0.12509000000E+03 0.  0.
        -13    1    3    3    0    0  0.17342139615E+02  0.78417237107E+01 -0.34863874585E+02  0.39720817618E+02  0.10566000000E+00 0. -1.
         23    2    1    0    0    0 -0.10289412203E+02 -0.25640389171E+02  0.29669239618E+01  0.97303236998E+02  0.93251357803E+02 0.  0.
         13    1    3    3    0    0 -0.27631551818E+02 -0.33482112882E+02  0.37830798547E+02  0.57582419380E+02  0.10566000000E+00 0.  1.
         22    1    1    0    0    0  0.10289412203E+02  0.25640389171E+02 -0.29669239618E+01  0.27786763002E+02  0.00000000000E+00 0.  1.
</event>
<event>
 5    1  0.1258624E-009  0.9118800E+02  0.7815553E-02  0.1125453E+00
         25   -1    0    0    0    0  0.00000000000E+00  0.00000000000E+00  0.99999998245E-14  0.12509000000E+03  0.12509000000E+03 0.  0.
        -13    1    3    3    0    0 -0.20531132245E+02  0.24223161727E+02  0.24103162292E+02  0.39865555958E+02  0.10566000000E+00 0.  1.
         23    2    1    0    0    0 -0.69199484288E+01 -0.12099737734E+02 -0.21332789870E+02  0.99607118233E+02  0.96292267289E+02 0.  0.
         13    1    3    3    0    0  0.13611183816E+02 -0.36322899461E+02 -0.45435952163E+02  0.59741562275E+02  0.10566000000E+00 0. -1.
         22    1    1    0    0    0  0.69199484288E+01  0.12099737734E+02  0.21332789870E+02  0.25482881767E+02  0.00000000000E+00 0. -1.
</event>
<event>
 5    1  0.1258624E-009  0.9118800E+02  0.7815553E-02  0.1125453E+00
         25   -1    0    0    0    0  0.00000000000E+00  0.00000000000E+00  0.99999998245E-14  0.12509000000E+03  0.12509000000E+03 0.  0.
        -13    1    3    3    0    0  0.32063662691E+02 -0.33114728724E+02  0.73481761599E+01  0.46676231431E+02  0.10566000000E+00 0.  1.
         23    2    1    0    0    0 -0.15867909540E+02 -0.23438193603E+02  0.83316615590E+01  0.95584813051E+02  0.90916997470E+02 0.  0.
         13    1    3    3    0    0 -0.47931572232E+02  0.96765351208E+01  0.98348539905E+00  0.48908581620E+02  0.10566000000E+00 0. -1.
         22    1    1    0    0    0  0.15867909540E+02  0.23438193603E+02 -0.83316615590E+01  0.29505186949E+02  0.00000000000E+00 0. -1.
</event>
<event>
 5    1  0.1258624E-009  0.9118800E+02  0.7815553E-02  0.1125453E+00
         25   -1    0    0    0    0  0.00000000000E+00  0.00000000000E+00  0.99999998245E-14  0.12509000000E+03  0.12509000000E+03 0.  0.
        -13    1    3    3    0    0 -0.47531648766E+02  0.38033595326E+02 -0.13690421395E+02  0.62395919818E+02  0.10566000000E+00 0.  1.
         23    2    1    0    0    0 -0.21771898618E+02  0.19878598048E+02 -0.41869874698E+01  0.95312406177E+02  0.90541425201E+02 0.  0.
         13    1    3    3    0    0  0.25759750148E+02 -0.18154997279E+02  0.95034339250E+01  0.32916486360E+02  0.10566000000E+00 0. -1.
         22    1    1    0    0    0  0.21771898618E+02 -0.19878598048E+02  0.41869874698E+01  0.29777593823E+02  0.00000000000E+00 0.  1.
</event>
<event>
 5    1  0.1258624E-009  0.9118800E+02  0.7815553E-02  0.1125453E+00
         25   -1    0    0    0    0  0.00000000000E+00  0.00000000000E+00  0.99999998245E-14  0.12509000000E+03  0.12509000000E+03 0.  0.
        -13    1    3    3    0    0  0.13290781588E+02 -0.53999115612E+02 -0.72003170844E+01  0.56074995250E+02  0.10566000000E+00 0.  1.
         23    2    1    0    0    0  0.22663935915E+02 -0.16812890654E+02 -0.11402663850E+02  0.94654034002E+02  0.89627217555E+02 0.  0.
         13    1    3    3    0    0  0.93731543275E+01  0.37186224958E+02 -0.42023467660E+01  0.38579038752E+02  0.10566000000E+00 0. -1.
         22    1    1    0    0    0 -0.22663935915E+02  0.16812890654E+02  0.11402663850E+02  0.30435965998E+02  0.00000000000E+00 0.  1.
</event>
<event>
 5    1  0.1258624E-009  0.9118800E+02  0.7815553E-02  0.1125453E+00
         25   -1    0    0    0    0  0.00000000000E+00  0.00000000000E+00  0.99999998245E-14  0.12509000000E+03  0.12509000000E+03 0.  0.
        -13    1    3    3    0    0  0.26341174271E+02 -0.23111535561E+02 -0.10570674254E+02  0.36602607232E+02  0.10566000000E+00 0.  1.
         23    2    1    0    0    0  0.11394538396E+02  0.23166764205E+02  0.18561475985E+02  0.93292785347E+02  0.87706789577E+02 0.  0.
         13    1    3    3    0    0 -0.14946635875E+02  0.46278299765E+02  0.29132150239E+02  0.56690178115E+02  0.10566000000E+00 0. -1.
         22    1    1    0    0    0 -0.11394538396E+02 -0.23166764205E+02 -0.18561475985E+02  0.31797214653E+02  0.00000000000E+00 0.  1.
</event>
<event>
 5    1  0.1258624E-009  0.9118800E+02  0.7815553E-02  0.1125453E+00
         25   -1    0    0    0    0  0.00000000000E+00  0.00000000000E+00  0.99999998245E-14  0.12509000000E+03  0.12509000000E+03 0.  0.
        -13    1    3    3    0    0  0.16317820507E+02 -0.16309579113E+02  0.53044999554E+02  0.57845110240E+02  0.10566000000E+00 0. -1.
         23    2    1    0    0    0  0.13390235576E+02 -0.20615041786E+02  0.14898248010E+02  0.96345676206E+02  0.91957888043E+02 0.  0.
         13    1    3    3    0    0 -0.29275849312E+01 -0.43054626726E+01 -0.38146751544E+02  0.38500565967E+02  0.10566000000E+00 0.  1.
         22    1    1    0    0    0 -0.13390235576E+02  0.20615041786E+02 -0.14898248010E+02  0.28744323794E+02  0.00000000000E+00 0.  1.
</event>
<event>
 5    1  0.1258624E-009  0.9118800E+02  0.7815553E-02  0.1125453E+00
         25   -1    0    0    0    0  0.00000000000E+00  0.00000000000E+00  0.99999998245E-14  0.12509000000E+03  0.12509000000E+03 0.  0.
        -13    1    3    3    0    0  0.52516018505E+02  0.51635126954E+01 -0.22182863706E+02  0.57242332842E+02  0.10566000000E+00 0.  1.
         23    2    1    0    0    0  0.24415611680E+02 -0.78648525088E+01  0.55817038359E+01  0.98838649247E+02  0.95288746285E+02 0.  0.
         13    1    3    3    0    0 -0.28100406825E+02 -0.13028365204E+02  0.27764567542E+02  0.41596316405E+02  0.10566000000E+00 0. -1.
         22    1    1    0    0    0 -0.24415611680E+02  0.78648525088E+01 -0.55817038359E+01  0.26251350753E+02  0.00000000000E+00 0.  1.
</event>
<event>
 5    1  0.1258624E-009  0.9118800E+02  0.7815553E-02  0.1125453E+00
         25   -1    0    0    0    0  0.00000000000E+00  0.00000000000E+00  0.99999998245E-14  0.12509000000E+03  0.12509000000E+03 0.  0.
        -13    1    3    3    0    0 -0.11138537006E+02 -0.35181266927E+02  0.21869916213E+02  0.42896304600E+02  0.10566000000E+00 0. -1.
         23    2    1    0    0    0  0.56352011995E+01 -0.18277659570E+02 -0.23892906738E+02  0.94484455987E+02  0.89390229325E+02 0.  0.
         13    1    3    3    0    0  0.16773738205E+02  0.16903607356E+02 -0.45762822951E+02  0.51588151387E+02  0.10566000000E+00 0.  1.
         22    1    1    0    0    0 -0.56352011995E+01  0.18277659570E+02  0.23892906738E+02  0.30605544013E+02  0.00000000000E+00 0.  1.
</event>
<event>
 5    1  0.1258624E-009  0.9118800E+02  0.7815553E-02  0.1125453E+00
         25   -1    0    0    0    0  0.00000000000E+00  0.00000000000E+00  0.99999998245E-14  0.12509000000E+03  0.12509000000E+03 0.  0.
        -13    1    3    3    0    0  0.59402978441E+01  0.32556197860E+02 -0.47412212852E+02  0.57819739269E+02  0.10566000000E+00 0. -1.
         23    2    1    0    0    0  0.96568244393E+01  0.23793786231E+02 -0.82554270202E+01  0.98116854156E+02  0.94336453573E+02 0.  0.
         13    1    3    3    0    0  0.37165265952E+01 -0.87624116295E+01  0.39156785832E+02  0.40297114887E+02  0.10566000000E+00 0.  1.
         22    1    1    0    0    0 -0.96568244393E+01 -0.23793786231E+02  0.82554270202E+01  0.26973145844E+02  0.00000000000E+00 0. -1.
</event>
<event>
 5    1  0.1258624E-009  0.9118800E+02  0.7815553E-02  0.1125453E+00
         25   -1    0    0    0    0  0.00000000000E+00  0.00000000000E+00  0.99999998245E-14  0.12509000000E+03  0.12509000000E+03 0.  0.
        -13    1    3    3    0    0  0.21736353340E+02  0.54101291727E+01 -0.40782438854E+02  0.46529098821E+02  0.10566000000E+00 0. -1.
         23    2    1    0    0    0  0.37000526280E+01  0.28627612339E+02 -0.72840482381E+00  0.96215077467E+02  0.91780063089E+02 0.  0.
         13    1    3    3    0    0 -0.18036300712E+02  0.23217483167E+02  0.40054034030E+02  0.49685978646E+02  0.10566000000E+00 0.  1.
         22    1    1    0    0    0 -0.37000526280E+01 -0.28627612339E+02  0.72840482381E+00  0.28874922533E+02  0.00000000000E+00 0.  1.
</event>
<event>
 5    1  0.1258624E-009  0.9118800E+02  0.7815553E-02  0.1125453E+00
         25   -1    0    0    0    0  0.00000000000E+00  0.00000000000E+00  0.99999998245E-14  0.12509000000E+03  0.12509000000E+03 0.  0.
        -13    1    3    3    0    0  0.37194209538E+02  0.10198270460E+01  0.81193626973E+01  0.38083913730E+02  0.10566000000E+00 0.  1.
         23    2    1    0    0    0 -0.62035166321E+01  0.11566864487E+02 -0.27111615129E+02  0.94968319310E+02  0.90064787931E+02 0.  0.
         13    1    3    3    0    0 -0.43397726170E+02  0.10547037441E+02 -0.35230977827E+02  0.56884405580E+02  0.10566000000E+00 0. -1.
         22    1    1    0    0    0  0.62035166321E+01 -0.11566864487E+02  0.27111615129E+02  0.30121680690E+02  0.00000000000E+00 0. -1.
</event>
<event>
 4    1  0.1258624E-009  0.9118800E+02  0.7815553E-02  0.1125453E+00
         25   -1    0    0    0    0  0.00000000000E+00  0.00000000000E+00  0.99999998245E-14  0.12509000000E+03  0.12509000000E+03 0.  0.
        -13    1    1    0    0    0 -0.33642589250E+01  0.44789241003E+01 -0.95869429111E+01  0.11104036997E+02  0.10566000000E+00 0. -1.
         13    1    1    0    0    0  0.25165467482E+02  0.31146723069E+00  0.56599860523E+02  0.61943144420E+02  0.10566000000E+00 0.  1.
         22    1    1    0    0    0 -0.21801208557E+02 -0.47903913310E+01 -0.47012917612E+02  0.52042818583E+02  0.00000000000E+00 0.  1.
</event>
<event>
 5    1  0.1258624E-009  0.9118800E+02  0.7815553E-02  0.1125453E+00
         25   -1    0    0    0    0  0.00000000000E+00  0.00000000000E+00  0.99999998245E-14  0.12509000000E+03  0.12509000000E+03 0.  0.
        -13    1    3    3    0    0  0.25341902199E+02 -0.17763083350E+01 -0.24438660962E+02  0.35250909095E+02  0.10566000000E+00 0. -1.
         23    2    1    0    0    0 -0.29160490788E+01 -0.13431469626E+02  0.26832263708E+02  0.94942394884E+02  0.90028774578E+02 0.  0.
         13    1    3    3    0    0 -0.28257951278E+02 -0.11655161291E+02  0.51270924670E+02  0.59691485789E+02  0.10566000000E+00 0.  1.
         22    1    1    0    0    0  0.29160490788E+01  0.13431469626E+02 -0.26832263708E+02  0.30147605116E+02  0.00000000000E+00 0.  1.
</event>
<event>
 5    1  0.1258624E-009  0.9118800E+02  0.7815553E-02  0.1125453E+00
         25   -1    0    0    0    0  0.00000000000E+00  0.00000000000E+00  0.99999998245E-14  0.12509000000E+03  0.12509000000E+03 0.  0.
        -13    1    3    3    0    0 -0.22429306859E+01  0.62180853277E+00  0.55367634775E+02  0.55416635846E+02  0.10566000000E+00 0. -1.
         23    2    1    0    0    0  0.12701662078E+02 -0.14989940906E+02  0.18779685762E+02  0.97910832514E+02  0.94062872476E+02 0.  0.
         13    1    3    3    0    0  0.14944592764E+02 -0.15611749439E+02 -0.36587949013E+02  0.42494196668E+02  0.10566000000E+00 0.  1.
         22    1    1    0    0    0 -0.12701662078E+02  0.14989940906E+02 -0.18779685762E+02  0.27179167486E+02  0.00000000000E+00 0. -1.
</event>
<event>
 5    1  0.1258624E-009  0.9118800E+02  0.7815553E-02  0.1125453E+00
         25   -1    0    0    0    0  0.00000000000E+00  0.00000000000E+00  0.99999998245E-14  0.12509000000E+03  0.12509000000E+03 0.  0.
        -13    1    3    3    0    0 -0.28016644857E+02  0.30906243404E+02 -0.41107173440E+02  0.58565682295E+02  0.10566000000E+00 0.  1.
         23    2    1    0    0    0 -0.23546370421E+02  0.16747977608E+02 -0.76045194438E+01  0.95210993492E+02  0.90401207137E+02 0.  0.
         13    1    3    3    0    0  0.44702744363E+01 -0.14158265796E+02  0.33502653996E+02  0.36645311197E+02  0.10566000000E+00 0. -1.
         22    1    1    0    0    0  0.23546370421E+02 -0.16747977608E+02  0.76045194438E+01  0.29879006508E+02  0.00000000000E+00 0.  1.
</event>
<event>
 5    1  0.1258624E-009  0.9118800E+02  0.7815553E-02  0.1125453E+00
         25   -1    0    0    0    0  0.00000000000E+00  0.00000000000E+00  0.99999998245E-14  0.12509000000E+03  0.12509000000E+03 0.  0.
        -13    1    3    3    0    0 -0.11061966120E+02 -0.31316278409E+02  0.12136625770E+02  0.35360786713E+02  0.10566000000E+00 0. -1.
         23    2    1    0    0    0  0.42512920964E+00  0.23855565893E+02 -0.13940266855E+02  0.97456690409E+02  0.93456977838E+02 0.  0.
         13    1    3    3    0    0  0.11487095330E+02  0.55171844303E+02 -0.26076892625E+02  0.62095903696E+02  0.10566000000E+00 0.  1.
         22    1    1    0    0    0 -0.42512920964E+00 -0.23855565893E+02  0.13940266855E+02  0.27633309591E+02  0.00000000000E+00 0.  1.
</event>
<event>
 5    1  0.1258624E-009  0.9118800E+02  0.7815553E-02  0.1125453E+00
         25   -1    0    0    0    0  0.00000000000E+00  0.00000000000E+00  0.99999998245E-14  0.12509000000E+03  0.12509000000E+03 0.  0.
        -13    1    3    3    0    0  0.14360783488E+02 -0.51419554180E+02 -0.25125916381E+02  0.59004453159E+02  0.10566000000E+00 0.  1.
         23    2    1    0    0    0  0.16610825687E+02 -0.15674232469E+02 -0.19085876391E+02  0.95326401913E+02  0.90560759331E+02 0.  0.
         13    1    3    3    0    0  0.22500421987E+01  0.35745321712E+02  0.60400399900E+01  0.36321948754E+02  0.10566000000E+00 0. -1.
         22    1    1    0    0    0 -0.16610825687E+02  0.15674232469E+02  0.19085876391E+02  0.29763598087E+02  0.00000000000E+00 0.  1.
</event>
<event>
 5    1  0.1258624E-009  0.9118800E+02  0.7815553E-02  0.1125453E+00
         25   -1    0    0    0    0  0.00000000000E+00  0.00000000000E+00  0.99999998245E-14  0.12509000000E+03  0.12509000000E+03 0.  0.
        -13    1    3    3    0    0  0.33190512516E+02 -0.35883093472E+02  0.59743518807E+01  0.49243380902E+02  0.10566000000E+00 0. -1.
         23    2    1    0    0    0  0.14133735515E+02 -0.36588660734E+00  0.26931435892E+02  0.94672922694E+02  0.89653576056E+02 0.  0.
         13    1    3    3    0    0 -0.19056777001E+02  0.35517206865E+02  0.20957084012E+02  0.45429541792E+02  0.10566000000E+00 0.  1.
         22    1    1    0    0    0 -0.14133735515E+02  0.36588660734E+00 -0.26931435892E+02  0.30417077306E+02  0.00000000000E+00 0. -1.
</event>
<event>
 5    1  0.1258624E-009  0.9118800E+02  0.7815553E-02  0.1125453E+00
         25   -1    0    0    0    0  0.00000000000E+00  0.00000000000E+00  0.99999998245E-14  0.12509000000E+03  0.12509000000E+03 0.  0.
        -13    1    3    3    0    0 -0.56787235300E+02 -0.17640895291E+01  0.79252104043E+01  0.57364816995E+02  0.10566000000E+00 0.  1.
         23    2    1    0    0    0 -0.32079524918E+02  0.16330983583E+02 -0.35962064843E+00  0.89091024031E+02  0.81494075197E+02 0.  0.
         13    1    3    3    0    0  0.24707710382E+02  0.18095073112E+02 -0.82848310528E+01  0.31726207036E+02  0.10566000000E+00 0. -1.
         22    1    1    0    0    0  0.32079524918E+02 -0.16330983583E+02  0.35962064843E+00  0.35998975969E+02  0.00000000000E+00 0.  1.
</event>
<event>
 5    1  0.1258624E-009  0.9118800E+02  0.7815553E-02  0.1125453E+00
         25   -1    0    0    0    0  0.00000000000E+00  0.00000000000E+00  0.99999998245E-14  0.12509000000E+03  0.12509000000E+03 0.  0.
        -13    1    3    3    0    0  0.21751339809E+02 -0.41995471032E+02 -0.30802919808E+02  0.56440866431E+02  0.10566000000E+00 0.  1.
         23    2    1    0    0    0  0.19910706061E+02 -0.37252882114E+01 -0.20835887678E+02  0.96030609032E+02  0.91528299819E+02 0.  0.
         13    1    3    3    0    0 -0.18406337488E+01  0.38270182821E+02  0.99670321299E+01  0.39589742602E+02  0.10566000000E+00 0. -1.
         22    1    1    0    0    0 -0.19910706061E+02  0.37252882114E+01  0.20835887678E+02  0.29059390968E+02  0.00000000000E+00 0.  1.
</event>
<event>
 5    1  0.1258624E-009  0.9118800E+02  0.7815553E-02  0.1125453E+00
         25   -1    0    0    0    0  0.00000000000E+00  0.00000000000E+00  0.99999998245E-14  0.12509000000E+03  0.12509000000E+03 0.  0.
        -13    1    3    3    0    0 -0.19483830309E+02 -0.30271941467E+01  0.32400022776E+02  0.37928303255E+02  0.10566000000E+00 0. -1.
         23    2    1    0    0    0  0.10741198855E+01  0.20403040262E+02 -0.18443003942E+02  0.97565789206E+02  0.93602890145E+02 0.  0.
         13    1    3    3    0    0  0.20557950195E+02  0.23430234408E+02 -0.50843026718E+02  0.59637485950E+02  0.10566000000E+00 0.  1.
         22    1    1    0    0    0 -0.10741198855E+01 -0.20403040262E+02  0.18443003942E+02  0.27524210794E+02  0.00000000000E+00 0.  1.
</event>
<event>
 5    1  0.1258624E-009  0.9118800E+02  0.7815553E-02  0.1125453E+00
         25   -1    0    0    0    0  0.00000000000E+00  0.00000000000E+00  0.99999998245E-14  0.12509000000E+03  0.12509000000E+03 0.  0.
        -13    1    3    3    0    0  0.21316774127E+02 -0.33447665977E+02  0.13072169090E+02  0.41761752684E+02  0.10566000000E+00 0.  1.
         23    2    1    0    0    0 -0.19895917471E+02  0.10097361555E+01  0.21092484902E+02  0.96076899192E+02  0.91591541858E+02 0.  0.
         13    1    3    3    0    0 -0.41212691598E+02  0.34457402132E+02  0.80203158123E+01  0.54315146508E+02  0.10566000000E+00 0. -1.
         22    1    1    0    0    0  0.19895917471E+02 -0.10097361555E+01 -0.21092484902E+02  0.29013100808E+02  0.00000000000E+00 0. -1.
</event>
<event>
 5    1  0.1258624E-009  0.9118800E+02  0.7815553E-02  0.1125453E+00
         25   -1    0    0    0    0  0.00000000000E+00  0.00000000000E+00  0.99999998245E-14  0.12509000000E+03  0.12509000000E+03 0.  0.
        -13    1    3    3    0    0  0.35433374616E+02 -0.36883111620E+02 -0.18372151466E+02  0.54345515666E+02  0.10566000000E+00 0. -1.
         23    2    1    0    0    0  0.29483565437E+02 -0.22048484536E+02  0.10026383850E+02  0.86933156913E+02  0.78111645077E+02 0.  0.
         13    1    3    3    0    0 -0.59498091790E+01  0.14834627084E+02  0.28398535315E+02  0.32587641248E+02  0.10566000000E+00 0.  1.
         22    1    1    0    0    0 -0.29483565437E+02  0.22048484536E+02 -0.10026383850E+02  0.38156843087E+02  0.00000000000E+00 0. -1.
</event>
<event>
 5    1  0.1258624E-009  0.9118800E+02  0.7815553E-02  0.1125453E+00
         25   -1    0    0    0    0  0.00000000000E+00  0.00000000000E+00  0.99999998245E-14  0.12509000000E+03  0.12509000000E+03 0.  0.
        -13    1    3    3    0    0 -0.38074800067E+02  0.25065724371E+02 -0.50855670275E+01  0.45867800192E+02  0.10566000000E+00 0. -1.
         23    2    1    0    0    0 -0.22090238653E+02 -0.20690810677E+02  0.15239666541E+01  0.94784707317E+02  0.89809409176E+02 0.  0.
         13    1    3    3    0    0  0.15984561414E+02 -0.45756535048E+02  0.66095336816E+01  0.48916907125E+02  0.10566000000E+00 0.  1.
         22    1    1    0    0    0  0.22090238653E+02  0.20690810677E+02 -0.15239666541E+01  0.30305292683E+02  0.00000000000E+00 0.  1.
</event>
<event>
 5    1  0.1258624E-009  0.9118800E+02  0.7815553E-02  0.1125453E+00
         25   -1    0    0    0    0  0.00000000000E+00  0.00000000000E+00  0.99999998245E-14  0.12509000000E+03  0.12509000000E+03 0.  0.
        -13    1    3    3    0    0 -0.25017958439E+02 -0.32919224219E+02 -0.27351405086E+02  0.49575034965E+02  0.10566000000E+00 0. -1.
         23    2    1    0    0    0  0.13742387375E+02 -0.59280410540E+01 -0.23844758911E+02  0.96937426245E+02  0.92759351000E+02 0.  0.
         13    1    3    3    0    0  0.38760345814E+02  0.26991183165E+02  0.35066461744E+01  0.47362391279E+02  0.10566000000E+00 0.  1.
         22    1    1    0    0    0 -0.13742387375E+02  0.59280410540E+01  0.23844758911E+02  0.28152573755E+02  0.00000000000E+00 0.  1.
</event>
<event>
 5    1  0.1258624E-009  0.9118800E+02  0.7815553E-02  0.1125453E+00
         25   -1    0    0    0    0  0.00000000000E+00  0.00000000000E+00  0.99999998245E-14  0.12509000000E+03  0.12509000000E+03 0.  0.
        -13    1    3    3    0    0 -0.34566852132E+01  0.37621483687E+02 -0.80794763182E+01  0.38634360472E+02  0.10566000000E+00 0.  1.
         23    2    1    0    0    0 -0.22290933384E+02 -0.85373368996E+01  0.18277169222E+02  0.95026288532E+02  0.90145264795E+02 0.  0.
         13    1    3    3    0    0 -0.18834248171E+02 -0.46158820587E+02  0.26356645541E+02  0.56391928060E+02  0.10566000000E+00 0. -1.
         22    1    1    0    0    0  0.22290933384E+02  0.85373368996E+01 -0.18277169222E+02  0.30063711468E+02  0.00000000000E+00 0. -1.
</event>
<event>
 5    1  0.1258624E-009  0.9118800E+02  0.7815553E-02  0.1125453E+00
         25   -1    0    0    0    0  0.00000000000E+00  0.00000000000E+00  0.99999998245E-14  0.12509000000E+03  0.12509000000E+03 0.  0.
        -13    1    3    3    0    0 -0.11874325324E+02  0.33106248756E+02  0.13597925272E+02  0.37708593773E+02  0.10566000000E+00 0.  1.
         23    2    1    0    0    0 -0.15110853729E+02 -0.23846590290E+02  0.10933473255E+02  0.94815611381E+02  0.89852443235E+02 0.  0.
         13    1    3    3    0    0 -0.32365284044E+01 -0.56952839046E+02 -0.26644520169E+01  0.57107017608E+02  0.10566000000E+00 0. -1.
         22    1    1    0    0    0  0.15110853729E+02  0.23846590290E+02 -0.10933473255E+02  0.30274388619E+02  0.00000000000E+00 0. -1.
</event>
<event>
 5    1  0.1258624E-009  0.9118800E+02  0.7815553E-02  0.1125453E+00
         25   -1    0    0    0    0  0.00000000000E+00  0.00000000000E+00  0.99999998245E-14  0.12509000000E+03  0.12509000000E+03 0.  0.
        -13    1    3    3    0    0  0.24731693526E+02  0.43818645001E+02 -0.10791090598E+02  0.51460558827E+02  0.10566000000E+00 0. -1.
         23    2    1    0    0    0 -0.44062786893E+01  0.23303517630E+02  0.16374613946E+02  0.96269916592E+02  0.91854774687E+02 0.  0.
         13    1    3    3    0    0 -0.29137972215E+02 -0.20515127372E+02  0.27165704544E+02  0.44809357765E+02  0.10566000000E+00 0.  1.
         22    1    1    0    0    0  0.44062786893E+01 -0.23303517630E+02 -0.16374613946E+02  0.28820083408E+02  0.00000000000E+00 0. -1.
</event>
<event>
 5    1  0.1258624E-009  0.9118800E+02  0.7815553E-02  0.1125453E+00
         25   -1    0    0    0    0  0.00000000000E+00  0.00000000000E+00  0.99999998245E-14  0.12509000000E+03  0.12509000000E+03 0.  0.
        -13    1    3    3    0    0  0.17837181584E+02 -0.37255440516E+02 -0.14537811258E+02  0.43789176918E+02  0.10566000000E+00 0.  1.
         23    2    1    0    0    0 -0.93037542053E+01 -0.14844718762E+02  0.23607257349E+02  0.95692242994E+02  0.91064687186E+02 0.  0.
         13    1    3    3    0    0 -0.27140935789E+02  0.22410721754E+02  0.38145068607E+02  0.51903066077E+02  0.10566000000E+00 0. -1.
         22    1    1    0    0    0  0.93037542053E+01  0.14844718762E+02 -0.23607257349E+02  0.29397757006E+02  0.00000000000E+00 0. -1.
</event>
<event>
 5    1  0.1258624E-009  0.9118800E+02  0.7815553E-02  0.1125453E+00
         25   -1    0    0    0    0  0.00000000000E+00  0.00000000000E+00  0.99999998245E-14  0.12509000000E+03  0.12509000000E+03 0.  0.
        -13    1    3    3    0    0  0.37387374806E+02 -0.22657884031E+02  0.32780915923E+02  0.54642429636E+02  0.10566000000E+00 0.  1.
         23    2    1    0    0    0  0.17642102112E+02 -0.32854303537E+02  0.99699406841E+01  0.86488850469E+02  0.77396850779E+02 0.  0.
         13    1    3    3    0    0 -0.19745272695E+02 -0.10196419506E+02 -0.22810975239E+02  0.31846420834E+02  0.10566000000E+00 0. -1.
         22    1    1    0    0    0 -0.17642102112E+02  0.32854303537E+02 -0.99699406841E+01  0.38601149531E+02  0.00000000000E+00 0.  1.
</event>
<event>
 5    1  0.1258624E-009  0.9118800E+02  0.7815553E-02  0.1125453E+00
         25   -1    0    0    0    0  0.00000000000E+00  0.00000000000E+00  0.99999998245E-14  0.12509000000E+03  0.12509000000E+03 0.  0.
        -13    1    3    3    0    0 -0.47619941142E+01  0.12774839917E+02  0.52934350794E+02  0.54661959176E+02  0.10566000000E+00 0. -1.
         23    2    1    0    0    0  0.19893612711E+02  0.49390556281E+01  0.21279379761E+02  0.95544067958E+02  0.90860920212E+02 0.  0.
         13    1    3    3    0    0  0.24655606825E+02 -0.78357842888E+01 -0.31654971034E+02  0.40882108783E+02  0.10566000000E+00 0.  1.
         22    1    1    0    0    0 -0.19893612711E+02 -0.49390556281E+01 -0.21279379761E+02  0.29545932042E+02  0.00000000000E+00 0.  1.
</event>
<event>
 5    1  0.1258624E-009  0.9118800E+02  0.7815553E-02  0.1125453E+00
         25   -1    0    0    0    0  0.00000000000E+00  0.00000000000E+00  0.99999998245E-14  0.12509000000E+03  0.12509000000E+03 0.  0.
        -13    1    3    3    0    0 -0.47372807195E+02  0.85053231368E+01  0.20727961754E+01  0.48175004216E+02  0.10566000000E+00 0.  1.
         23    2    1    0    0    0 -0.29155586208E+02 -0.24315782990E+02  0.83072208350E+01  0.86227223110E+02  0.76972843118E+02 0.  0.
         13    1    3    3    0    0  0.18217220987E+02 -0.32821106127E+02  0.62344246596E+01  0.38052218894E+02  0.10566000000E+00 0. -1.
         22    1    1    0    0    0  0.29155586208E+02  0.24315782990E+02 -0.83072208350E+01  0.38862776890E+02  0.00000000000E+00 0. -1.
</event>
<event>
 5    1  0.1258624E-009  0.9118800E+02  0.7815553E-02  0.1125453E+00
         25   -1    0    0    0    0  0.00000000000E+00  0.00000000000E+00  0.99999998245E-14  0.12509000000E+03  0.12509000000E+03 0.  0.
        -13    1    3    3    0    0  0.28898603807E+02 -0.28412318210E+02 -0.35979365790E+02  0.54193311900E+02  0.10566000000E+00 0. -1.
         23    2    1    0    0    0  0.48587211667E+01 -0.28157115459E+02 -0.11766006955E+01  0.96492540120E+02  0.92157449983E+02 0.  0.
         13    1    3    3    0    0 -0.24039882640E+02  0.25520275046E+00  0.34802765094E+02  0.42299228220E+02  0.10566000000E+00 0.  1.
         22    1    1    0    0    0 -0.48587211667E+01  0.28157115459E+02  0.11766006955E+01  0.28597459880E+02  0.00000000000E+00 0.  1.
</event>
<event>
 5    1  0.1258624E-009  0.9118800E+02  0.7815553E-02  0.1125453E+00
         25   -1    0    0    0    0  0.00000000000E+00  0.00000000000E+00  0.99999998245E-14  0.12509000000E+03  0.12509000000E+03 0.  0.
        -13    1    3    3    0    0 -0.26533246142E+02 -0.20960508300E+02 -0.55066699050E+01  0.34259168649E+02  0.10566000000E+00 0.  1.
         23    2    1    0    0    0  0.20612709030E+02  0.36267094599E+01  0.22503770094E+02  0.94357989595E+02  0.89213080526E+02 0.  0.
         13    1    3    3    0    0  0.47145955172E+02  0.24587217759E+02  0.28010439999E+02  0.60098820947E+02  0.10566000000E+00 0. -1.
         22    1    1    0    0    0 -0.20612709030E+02 -0.36267094599E+01 -0.22503770094E+02  0.30732010405E+02  0.00000000000E+00 0. -1.
</event>
<event>
 5    1  0.1258624E-009  0.9118800E+02  0.7815553E-02  0.1125453E+00
         25   -1    0    0    0    0  0.00000000000E+00  0.00000000000E+00  0.99999998245E-14  0.12509000000E+03  0.12509000000E+03 0.  0.
        -13    1    3    3    0    0  0.48656298408E+02 -0.31863237081E+02 -0.32431127741E+01  0.58251439438E+02  0.10566000000E+00 0. -1.
         23    2    1    0    0    0  0.16443423083E+02 -0.22565858726E+02  0.11519649338E+02  0.94885588673E+02  0.89949810863E+02 0.  0.
         13    1    3    3    0    0 -0.32212875325E+02  0.92973783548E+01  0.14762762112E+02  0.36634149236E+02  0.10566000000E+00 0.  1.
         22    1    1    0    0    0 -0.16443423083E+02  0.22565858726E+02 -0.11519649338E+02  0.30204411327E+02  0.00000000000E+00 0. -1.
</event>
<event>
 5    1  0.1258624E-009  0.9118800E+02  0.7815553E-02  0.1125453E+00
         25   -1    0    0    0    0  0.00000000000E+00  0.00000000000E+00  0.99999998245E-14  0.12509000000E+03  0.12509000000E+03 0.  0.
        -13    1    3    3    0    0  0.21835968337E+01 -0.65177298048E+01 -0.58803557463E+02  0.59204040666E+02  0.10566000000E+00 0. -1.
         23    2    1    0    0    0  0.15155860984E+02 -0.54576087086E+00 -0.25839762332E+02  0.95128503134E+02  0.90286991389E+02 0.  0.
         13    1    3    3    0    0  0.12972264150E+02  0.59719689340E+01  0.32963795131E+02  0.35924462467E+02  0.10566000000E+00 0.  1.
         22    1    1    0    0    0 -0.15155860984E+02  0.54576087086E+00  0.25839762332E+02  0.29961496866E+02  0.00000000000E+00 0. -1.
</event>
<event>
 5    1  0.1258624E-009  0.9118800E+02  0.7815553E-02  0.1125453E+00
         25   -1    0    0    0    0  0.00000000000E+00  0.00000000000E+00  0.99999998245E-14  0.12509000000E+03  0.12509000000E+03 0.  0.
        -13    1    3    3    0    0  0.38728681335E+02  0.20924301460E+02 -0.15546672736E+02  0.46684551479E+02  0.10566000000E+00 0.  1.
         23    2    1    0    0    0  0.20979304105E+02 -0.17698355628E+02  0.95285648843E+01  0.96035627843E+02  0.91535158676E+02 0.  0.
         13    1    3    3    0    0 -0.17749377230E+02 -0.38622657088E+02  0.25075237620E+02  0.49351076364E+02  0.10566000000E+00 0. -1.
         22    1    1    0    0    0 -0.20979304105E+02  0.17698355628E+02 -0.95285648843E+01  0.29054372157E+02  0.00000000000E+00 0. -1.
</event>
<event>
 5    1  0.1258624E-009  0.9118800E+02  0.7815553E-02  0.1125453E+00
         25   -1    0    0    0    0  0.00000000000E+00  0.00000000000E+00  0.99999998245E-14  0.12509000000E+03  0.12509000000E+03 0.  0.
        -13    1    3    3    0    0  0.55906377710E+02  0.21987729954E+02 -0.37935869820E+01  0.60194566228E+02  0.10566000000E+00 0. -1.
         23    2    1    0    0    0  0.26741094436E+02  0.53473520445E+01  0.93604064304E+01  0.96257769527E+02  0.91838231038E+02 0.  0.
         13    1    3    3    0    0 -0.29165283274E+02 -0.16640377909E+02  0.13153993412E+02  0.36063203299E+02  0.10566000000E+00 0.  1.
         22    1    1    0    0    0 -0.26741094436E+02 -0.53473520445E+01 -0.93604064304E+01  0.28832230473E+02  0.00000000000E+00 0. -1.
</event>
<event>
 5    1  0.1258624E-009  0.9118800E+02  0.7815553E-02  0.1125453E+00
         25   -1    0    0    0    0  0.00000000000E+00  0.00000000000E+00  0.99999998245E-14  0.12509000000E+03  0.12509000000E+03 0.  0.
        -13    1    3    3    0    0  0.43860428304E+02 -0.15738237426E+02 -0.11772136472E+02  0.48062705390E+02  0.10566000000E+00 0.  1.
         23    2    1    0    0    0  0.24929535350E+00  0.44195979352E+01 -0.26428717826E+02  0.98293132272E+02  0.94569909230E+02 0.  0.
         13    1    3    3    0    0 -0.43611132951E+02  0.20157835361E+02 -0.14656581355E+02  0.50230426882E+02  0.10566000000E+00 0. -1.
         22    1    1    0    0    0 -0.24929535350E+00 -0.44195979352E+01  0.26428717826E+02  0.26796867728E+02  0.00000000000E+00 0. -1.
</event>
<event>
 5    1  0.1258624E-009  0.9118800E+02  0.7815553E-02  0.1125453E+00
         25   -1    0    0    0    0  0.00000000000E+00  0.00000000000E+00  0.99999998245E-14  0.12509000000E+03  0.12509000000E+03 0.  0.
        -13    1    3    3    0    0 -0.59696442867E+01 -0.33943355447E+02 -0.11528148841E+02  0.36341400794E+02  0.10566000000E+00 0.  1.
         23    2    1    0    0    0  0.16077296461E-02  0.25329763914E+02 -0.14343311143E+02  0.95981109313E+02  0.91460624467E+02 0.  0.
         13    1    3    3    0    0  0.59712520163E+01  0.59273119361E+02 -0.28151623014E+01  0.59639708519E+02  0.10566000000E+00 0. -1.
         22    1    1    0    0    0 -0.16077296461E-02 -0.25329763914E+02  0.14343311143E+02  0.29108890687E+02  0.00000000000E+00 0. -1.
</event>
<event>
 5    1  0.1258624E-009  0.9118800E+02  0.7815553E-02  0.1125453E+00
         25   -1    0    0    0    0  0.00000000000E+00  0.00000000000E+00  0.99999998245E-14  0.12509000000E+03  0.12509000000E+03 0.  0.
        -13    1    3    3    0    0  0.20691413590E+02 -0.52016112865E+02 -0.20408202218E+02  0.59584532185E+02  0.10566000000E+00 0. -1.
         23    2    1    0    0    0  0.52726573339E+01 -0.28951588426E+02  0.24894687384E+01  0.95557088827E+02  0.90878844528E+02 0.  0.
         13    1    3    3    0    0 -0.15418756256E+02  0.23064524439E+02  0.22897670957E+02  0.35972556642E+02  0.10566000000E+00 0.  1.
         22    1    1    0    0    0 -0.52726573339E+01  0.28951588426E+02 -0.24894687384E+01  0.29532911173E+02  0.00000000000E+00 0. -1.
</event>
<event>
 5    1  0.1258624E-009  0.9118800E+02  0.7815553E-02  0.1125453E+00
         25   -1    0    0    0    0  0.00000000000E+00  0.00000000000E+00  0.99999998245E-14  0.12509000000E+03  0.12509000000E+03 0.  0.
        -13    1    3    3    0    0  0.23391828633E+02 -0.26900399387E+02  0.28851669302E+02  0.45861085023E+02  0.10566000000E+00 0.  1.
         23    2    1    0    0    0 -0.15238497710E+02 -0.14026115372E+02 -0.99550570146E+01  0.10211072923E+03  0.99491477721E+02 0.  0.
         13    1    3    3    0    0 -0.38630326342E+02  0.12874284014E+02 -0.38806726316E+02  0.56249644209E+02  0.10566000000E+00 0. -1.
         22    1    1    0    0    0  0.15238497710E+02  0.14026115372E+02  0.99550570146E+01  0.22979270769E+02  0.00000000000E+00 0. -1.
</event>
<event>
 5    1  0.1258624E-009  0.9118800E+02  0.7815553E-02  0.1125453E+00
         25   -1    0    0    0    0  0.00000000000E+00  0.00000000000E+00  0.99999998245E-14  0.12509000000E+03  0.12509000000E+03 0.  0.
        -13    1    3    3    0    0  0.67360952932E+01  0.24288630492E+02  0.33531277627E+02  0.41948424217E+02  0.10566000000E+00 0.  1.
         23    2    1    0    0    0  0.25693315509E+02  0.11370736892E+02 -0.13230248961E+02  0.94033928019E+02  0.88757534958E+02 0.  0.
         13    1    3    3    0    0  0.18957220216E+02 -0.12917893601E+02 -0.46761526588E+02  0.52085503802E+02  0.10566000000E+00 0. -1.
         22    1    1    0    0    0 -0.25693315509E+02 -0.11370736892E+02  0.13230248961E+02  0.31056071981E+02  0.00000000000E+00 0.  1.
</event>
<event>
 5    1  0.1258624E-009  0.9118800E+02  0.7815553E-02  0.1125453E+00
         25   -1    0    0    0    0  0.00000000000E+00  0.00000000000E+00  0.99999998245E-14  0.12509000000E+03  0.12509000000E+03 0.  0.
        -13    1    3    3    0    0 -0.12535645901E+02  0.34395670998E+02 -0.78954210887E+01  0.37450680098E+02  0.10566000000E+00 0.  1.
         23    2    1    0    0    0 -0.12463223724E+02 -0.22901437480E+02 -0.14712928937E+02  0.95152096564E+02  0.90319673485E+02 0.  0.
         13    1    3    3    0    0  0.72422177661E-01 -0.57297108478E+02 -0.68175078481E+01  0.57701416466E+02  0.10566000000E+00 0. -1.
         22    1    1    0    0    0  0.12463223724E+02  0.22901437480E+02  0.14712928937E+02  0.29937903436E+02  0.00000000000E+00 0. -1.
</event>
<event>
 5    1  0.1258624E-009  0.9118800E+02  0.7815553E-02  0.1125453E+00
         25   -1    0    0    0    0  0.00000000000E+00  0.00000000000E+00  0.99999998245E-14  0.12509000000E+03  0.12509000000E+03 0.  0.
        -13    1    3    3    0    0  0.26683818392E+02  0.55416204843E-01  0.32535493902E+02  0.42078483366E+02  0.10566000000E+00 0. -1.
         23    2    1    0    0    0  0.19690288571E+02  0.18005515675E+02 -0.15778848421E+02  0.94091965930E+02  0.88839292750E+02 0.  0.
         13    1    3    3    0    0 -0.69935298203E+01  0.17950099470E+02 -0.48314342322E+02  0.52013482564E+02  0.10566000000E+00 0.  1.
         22    1    1    0    0    0 -0.19690288571E+02 -0.18005515675E+02  0.15778848421E+02  0.30998034070E+02  0.00000000000E+00 0.  1.
</event>
<event>
 5    1  0.1258624E-009  0.9118800E+02  0.7815553E-02  0.1125453E+00
         25   -1    0    0    0    0  0.00000000000E+00  0.00000000000E+00  0.99999998245E-14  0.12509000000E+03  0.12509000000E+03 0.  0.
        -13    1    3    3    0    0 -0.32084443348E+02  0.48104644457E+02  0.18545738565E+02  0.60724162458E+02  0.10566000000E+00 0. -1.
         23    2    1    0    0    0 -0.14647345943E+02  0.16184497269E+02  0.17501574214E+02  0.97111654892E+02  0.92994009059E+02 0.  0.
         13    1    3    3    0    0  0.17437097405E+02 -0.31920147188E+02 -0.10441643511E+01  0.36387492434E+02  0.10566000000E+00 0.  1.
         22    1    1    0    0    0  0.14647345943E+02 -0.16184497269E+02 -0.17501574214E+02  0.27978345108E+02  0.00000000000E+00 0. -1.
</event>
<event>
 5    1  0.1258624E-009  0.9118800E+02  0.7815553E-02  0.1125453E+00
         25   -1    0    0    0    0  0.00000000000E+00  0.00000000000E+00  0.99999998245E-14  0.12509000000E+03  0.12509000000E+03 0.  0.
        -13    1    3    3    0    0  0.31788875585E+02  0.13739682038E+02  0.17949834928E+02  0.39006655989E+02  0.10566000000E+00 0.  1.
         23    2    1    0    0    0 -0.12049233674E+02  0.23108673741E+02 -0.15344863571E+02  0.94846659043E+02  0.89895656510E+02 0.  0.
         13    1    3    3    0    0 -0.43838109259E+02  0.93689917030E+01 -0.33294698499E+02  0.55840003054E+02  0.10566000000E+00 0. -1.
         22    1    1    0    0    0  0.12049233674E+02 -0.23108673741E+02  0.15344863571E+02  0.30243340957E+02  0.00000000000E+00 0. -1.
</event>
<event>
 5    1  0.1258624E-009  0.9118800E+02  0.7815553E-02  0.1125453E+00
         25   -1    0    0    0    0  0.00000000000E+00  0.00000000000E+00  0.99999998245E-14  0.12509000000E+03  0.12509000000E+03 0.  0.
        -13    1    3    3    0    0  0.26891450051E+02 -0.11665976231E+02  0.35144824127E+02  0.45764778096E+02  0.10566000000E+00 0.  1.
         23    2    1    0    0    0 -0.17213135792E+02 -0.19668217068E+02  0.10452666746E+02  0.96940594170E+02  0.92763622986E+02 0.  0.
         13    1    3    3    0    0 -0.44104585843E+02 -0.80022408375E+01 -0.24692157380E+02  0.51175816074E+02  0.10566000000E+00 0. -1.
         22    1    1    0    0    0  0.17213135792E+02  0.19668217068E+02 -0.10452666746E+02  0.28149405830E+02  0.00000000000E+00 0.  1.
</event>
<event>
 5    1  0.1258624E-009  0.9118800E+02  0.7815553E-02  0.1125453E+00
         25   -1    0    0    0    0  0.00000000000E+00  0.00000000000E+00  0.99999998245E-14  0.12509000000E+03  0.12509000000E+03 0.  0.
        -13    1    3    3    0    0 -0.22336454180E+02  0.79978790725E+01 -0.25016932349E+02  0.34478128185E+02  0.10566000000E+00 0. -1.
         23    2    1    0    0    0  0.10983697682E+02  0.64900552280E+01  0.26401641202E+02  0.95767498576E+02  0.91168002576E+02 0.  0.
         13    1    3    3    0    0  0.33320151861E+02 -0.15078238445E+01  0.51418573551E+02  0.61289370390E+02  0.10566000000E+00 0.  1.
         22    1    1    0    0    0 -0.10983697682E+02 -0.64900552280E+01 -0.26401641202E+02  0.29322501424E+02  0.00000000000E+00 0.  1.
</event>
<event>
 5    1  0.1258624E-009  0.9118800E+02  0.7815553E-02  0.1125453E+00
         25   -1    0    0    0    0  0.00000000000E+00  0.00000000000E+00  0.99999998245E-14  0.12509000000E+03  0.12509000000E+03 0.  0.
        -13    1    3    3    0    0 -0.47277623805E+01  0.46499538779E+01 -0.36514884341E+02  0.37112285710E+02  0.10566000000E+00 0. -1.
         23    2    1    0    0    0  0.17607917487E+02  0.19535275444E+02  0.14719157455E+02  0.94951663266E+02  0.90041651561E+02 0.  0.
         13    1    3    3    0    0  0.22335679867E+02  0.14885321566E+02  0.51234041796E+02  0.57839377556E+02  0.10566000000E+00 0.  1.
         22    1    1    0    0    0 -0.17607917487E+02 -0.19535275444E+02 -0.14719157455E+02  0.30138336734E+02  0.00000000000E+00 0.  1.
</event>
<event>
 5    1  0.1258624E-009  0.9118800E+02  0.7815553E-02  0.1125453E+00
         25   -1    0    0    0    0  0.00000000000E+00  0.00000000000E+00  0.99999998245E-14  0.12509000000E+03  0.12509000000E+03 0.  0.
        -13    1    3    3    0    0  0.30498251507E+02 -0.45183110399E+01  0.44226701050E+02  0.53912621244E+02  0.10566000000E+00 0. -1.
         23    2    1    0    0    0 -0.44645704319E+01  0.10797240874E+02  0.26761928702E+02  0.95888739282E+02  0.91334203307E+02 0.  0.
         13    1    3    3    0    0 -0.34962821939E+02  0.15315551914E+02 -0.17464772348E+02  0.41976118038E+02  0.10566000000E+00 0.  1.
         22    1    1    0    0    0  0.44645704319E+01 -0.10797240874E+02 -0.26761928702E+02  0.29201260718E+02  0.00000000000E+00 0. -1.
</event>
<event>
 5    1  0.1258624E-009  0.9118800E+02  0.7815553E-02  0.1125453E+00
         25   -1    0    0    0    0  0.00000000000E+00  0.00000000000E+00  0.99999998245E-14  0.12509000000E+03  0.12509000000E+03 0.  0.
        -13    1    3    3    0    0 -0.12983498746E+02  0.57501354709E+02 -0.19233105479E+02  0.62007262022E+02  0.10566000000E+00 0. -1.
         23    2    1    0    0    0 -0.31570325295E+01  0.29697530315E+02 -0.47906396144E+01  0.94843340861E+02  0.89891039134E+02 0.  0.
         13    1    3    3    0    0  0.98264662162E+01 -0.27803824394E+02  0.14442465865E+02  0.32836078839E+02  0.10566000000E+00 0.  1.
         22    1    1    0    0    0  0.31570325295E+01 -0.29697530315E+02  0.47906396144E+01  0.30246659139E+02  0.00000000000E+00 0. -1.
</event>
<event>
 5    1  0.1258624E-009  0.9118800E+02  0.7815553E-02  0.1125453E+00
         25   -1    0    0    0    0  0.00000000000E+00  0.00000000000E+00  0.99999998245E-14  0.12509000000E+03  0.12509000000E+03 0.  0.
        -13    1    3    3    0    0  0.33760582195E+02  0.13775483237E+02  0.48085657919E+02  0.60347183116E+02  0.10566000000E+00 0.  1.
         23    2    1    0    0    0  0.66614027610E+01  0.13631257866E+02  0.24497386430E+02  0.96274944566E+02  0.91861621647E+02 0.  0.
         13    1    3    3    0    0 -0.27099179434E+02 -0.14422537156E+00 -0.23588271489E+02  0.35927761450E+02  0.10566000000E+00 0. -1.
         22    1    1    0    0    0 -0.66614027610E+01 -0.13631257866E+02 -0.24497386430E+02  0.28815055434E+02  0.00000000000E+00 0.  1.
</event>
<event>
 5    1  0.1258624E-009  0.9118800E+02  0.7815553E-02  0.1125453E+00
         25   -1    0    0    0    0  0.00000000000E+00  0.00000000000E+00  0.99999998245E-14  0.12509000000E+03  0.12509000000E+03 0.  0.
        -13    1    3    3    0    0  0.83549921275E+01 -0.37716704598E+02 -0.49925653224E+01  0.38952439868E+02  0.10566000000E+00 0. -1.
         23    2    1    0    0    0 -0.25713583652E+02 -0.77946299991E+01  0.20793335185E+02  0.91114899865E+02  0.84543583720E+02 0.  0.
         13    1    3    3    0    0 -0.34068575779E+02  0.29922074599E+02  0.25785900507E+02  0.52162459997E+02  0.10566000000E+00 0.  1.
         22    1    1    0    0    0  0.25713583652E+02  0.77946299991E+01 -0.20793335185E+02  0.33975100135E+02  0.00000000000E+00 0.  1.
</event>
<event>
 5    1  0.1258624E-009  0.9118800E+02  0.7815553E-02  0.1125453E+00
         25   -1    0    0    0    0  0.00000000000E+00  0.00000000000E+00  0.99999998245E-14  0.12509000000E+03  0.12509000000E+03 0.  0.
        -13    1    3    3    0    0 -0.16866110018E+02 -0.27771497157E+00 -0.22406382839E+02  0.28046389228E+02  0.10566000000E+00 0.  1.
         23    2    1    0    0    0  0.15641273738E+02 -0.28280276238E+02  0.18939754953E+02  0.87631519172E+02  0.79222126748E+02 0.  0.
         13    1    3    3    0    0  0.32507383756E+02 -0.28002561266E+02  0.41346137792E+02  0.59585129945E+02  0.10566000000E+00 0. -1.
         22    1    1    0    0    0 -0.15641273738E+02  0.28280276238E+02 -0.18939754953E+02  0.37458480828E+02  0.00000000000E+00 0. -1.
</event>
<event>
 5    1  0.1258624E-009  0.9118800E+02  0.7815553E-02  0.1125453E+00
         25   -1    0    0    0    0  0.00000000000E+00  0.00000000000E+00  0.99999998245E-14  0.12509000000E+03  0.12509000000E+03 0.  0.
        -13    1    3    3    0    0  0.22136616177E+02  0.44726510712E+02  0.31645639322E+02  0.59092708420E+02  0.10566000000E+00 0. -1.
         23    2    1    0    0    0  0.22438172826E+02  0.12514493181E+02  0.14641990534E+02  0.95518526819E+02  0.90825750421E+02 0.  0.
         13    1    3    3    0    0  0.30155664916E+00 -0.32212017531E+02 -0.17003648789E+02  0.36425818399E+02  0.10566000000E+00 0.  1.
         22    1    1    0    0    0 -0.22438172826E+02 -0.12514493181E+02 -0.14641990534E+02  0.29571473181E+02  0.00000000000E+00 0. -1.
</event>
<event>
 5    1  0.1258624E-009  0.9118800E+02  0.7815553E-02  0.1125453E+00
         25   -1    0    0    0    0  0.00000000000E+00  0.00000000000E+00  0.99999998245E-14  0.12509000000E+03  0.12509000000E+03 0.  0.
        -13    1    3    3    0    0 -0.24457874369E+02  0.28009488751E+02 -0.19720346486E+02  0.42090643952E+02  0.10566000000E+00 0. -1.
         23    2    1    0    0    0 -0.16055935196E+02 -0.23281523434E+02 -0.10754791085E+02  0.94832969087E+02  0.89876604887E+02 0.  0.
         13    1    3    3    0    0  0.84019391735E+01 -0.51291012185E+02  0.89655554005E+01  0.52742325134E+02  0.10566000000E+00 0.  1.
         22    1    1    0    0    0  0.16055935196E+02  0.23281523434E+02  0.10754791085E+02  0.30257030913E+02  0.00000000000E+00 0.  1.
</event>
<event>
 5    1  0.1258624E-009  0.9118800E+02  0.7815553E-02  0.1125453E+00
         25   -1    0    0    0    0  0.00000000000E+00  0.00000000000E+00  0.99999998245E-14  0.12509000000E+03  0.12509000000E+03 0.  0.
        -13    1    3    3    0    0  0.19182232258E+02  0.53341645310E+02  0.16246605034E+02  0.58968232955E+02  0.10566000000E+00 0.  1.
         23    2    1    0    0    0 -0.18756177300E+01  0.29209641073E+02 -0.18617788090E+01  0.95761050244E+02  0.91159154505E+02 0.  0.
         13    1    3    3    0    0 -0.21057849988E+02 -0.24132004237E+02 -0.18108383843E+02  0.36792817288E+02  0.10566000000E+00 0. -1.
         22    1    1    0    0    0  0.18756177300E+01 -0.29209641073E+02  0.18617788090E+01  0.29328949756E+02  0.00000000000E+00 0.  1.
</event>
<event>
 5    1  0.1258624E-009  0.9118800E+02  0.7815553E-02  0.1125453E+00
         25   -1    0    0    0    0  0.00000000000E+00  0.00000000000E+00  0.99999998245E-14  0.12509000000E+03  0.12509000000E+03 0.  0.
        -13    1    3    3    0    0  0.11325590968E+02  0.46004704201E+01 -0.41513039526E+02  0.43275593047E+02  0.10566000000E+00 0. -1.
         23    2    1    0    0    0  0.25676617012E+02  0.86864151446E+01  0.94543384450E+01  0.96382388036E+02  0.92007813466E+02 0.  0.
         13    1    3    3    0    0  0.14351026043E+02  0.40859447245E+01  0.50967377971E+02  0.53106794989E+02  0.10566000000E+00 0.  1.
         22    1    1    0    0    0 -0.25676617012E+02 -0.86864151446E+01 -0.94543384450E+01  0.28707611964E+02  0.00000000000E+00 0. -1.
</event>
<event>
 5    1  0.1258624E-009  0.9118800E+02  0.7815553E-02  0.1125453E+00
         25   -1    0    0    0    0  0.00000000000E+00  0.00000000000E+00  0.99999998245E-14  0.12509000000E+03  0.12509000000E+03 0.  0.
        -13    1    3    3    0    0 -0.32358380571E+02 -0.35482389606E+02  0.29226606852E+02  0.56216283028E+02  0.10566000000E+00 0.  1.
         23    2    1    0    0    0 -0.46375576537E+01 -0.28616655231E+02  0.14366612781E+01  0.96064426909E+02  0.91574506410E+02 0.  0.
         13    1    3    3    0    0  0.27720822917E+02  0.68657343752E+01 -0.27789945574E+02  0.39848143881E+02  0.10566000000E+00 0. -1.
         22    1    1    0    0    0  0.46375576537E+01  0.28616655231E+02 -0.14366612781E+01  0.29025573091E+02  0.00000000000E+00 0.  1.
</event>
<event>
 5    1  0.1258624E-009  0.9118800E+02  0.7815553E-02  0.1125453E+00
         25   -1    0    0    0    0  0.00000000000E+00  0.00000000000E+00  0.99999998245E-14  0.12509000000E+03  0.12509000000E+03 0.  0.
        -13    1    3    3    0    0 -0.11467147784E+02  0.40498370255E+02  0.12643680338E+02  0.43948689265E+02  0.10566000000E+00 0.  1.
         23    2    1    0    0    0 -0.28350419007E+02 -0.66763747457E+01  0.10599308480E+02  0.94095394375E+02  0.88844120034E+02 0.  0.
         13    1    3    3    0    0 -0.16883271223E+02 -0.47174745000E+02 -0.20443718580E+01  0.50146705110E+02  0.10566000000E+00 0. -1.
         22    1    1    0    0    0  0.28350419007E+02  0.66763747457E+01 -0.10599308480E+02  0.30994605625E+02  0.00000000000E+00 0.  1.
</event>
<event>
 5    1  0.1258624E-009  0.9118800E+02  0.7815553E-02  0.1125453E+00
         25   -1    0    0    0    0  0.00000000000E+00  0.00000000000E+00  0.99999998245E-14  0.12509000000E+03  0.12509000000E+03 0.  0.
        -13    1    3    3    0    0  0.42902772094E+02 -0.77626740198E+01  0.13195644843E+02  0.45552641725E+02  0.10566000000E+00 0.  1.
         23    2    1    0    0    0  0.43632968068E+01 -0.90526844630E+01 -0.23963779224E+02  0.99104385332E+02  0.95636954271E+02 0.  0.
         13    1    3    3    0    0 -0.38539475287E+02 -0.12900104433E+01 -0.37159424066E+02  0.53551743607E+02  0.10566000000E+00 0. -1.
         22    1    1    0    0    0 -0.43632968068E+01  0.90526844630E+01  0.23963779224E+02  0.25985614668E+02  0.00000000000E+00 0. -1.
</event>
<event>
 5    1  0.1258624E-009  0.9118800E+02  0.7815553E-02  0.1125453E+00
         25   -1    0    0    0    0  0.00000000000E+00  0.00000000000E+00  0.99999998245E-14  0.12509000000E+03  0.12509000000E+03 0.  0.
        -13    1    3    3    0    0 -0.75130353002E+00 -0.28193138648E+01 -0.60446180450E+02  0.60516649632E+02  0.10566000000E+00 0. -1.
         23    2    1    0    0    0 -0.11312801713E+02  0.11179992941E+01 -0.27725694539E+02  0.95124293890E+02  0.90281159416E+02 0.  0.
         13    1    3    3    0    0 -0.10561498183E+02  0.39373131589E+01  0.32720485911E+02  0.34607644258E+02  0.10566000000E+00 0.  1.
         22    1    1    0    0    0  0.11312801713E+02 -0.11179992941E+01  0.27725694539E+02  0.29965706110E+02  0.00000000000E+00 0. -1.
</event>
<event>
 5    1  0.1258624E-009  0.9118800E+02  0.7815553E-02  0.1125453E+00
         25   -1    0    0    0    0  0.00000000000E+00  0.00000000000E+00  0.99999998245E-14  0.12509000000E+03  0.12509000000E+03 0.  0.
        -13    1    3    3    0    0 -0.37869254332E+02 -0.34187976427E+02 -0.14680756473E+02  0.53088924744E+02  0.10566000000E+00 0.  1.
         23    2    1    0    0    0  0.17423888669E+01 -0.28946104908E+02  0.11522305351E+01  0.96068619200E+02  0.91580232865E+02 0.  0.
         13    1    3    3    0    0  0.39611643199E+02  0.52418715194E+01  0.15832987008E+02  0.42979694456E+02  0.10566000000E+00 0. -1.
         22    1    1    0    0    0 -0.17423888669E+01  0.28946104908E+02 -0.11522305351E+01  0.29021380800E+02  0.00000000000E+00 0.  1.
</event>
<event>
 5    1  0.1258624E-009  0.9118800E+02  0.7815553E-02  0.1125453E+00
         25   -1    0    0    0    0  0.00000000000E+00  0.00000000000E+00  0.99999998245E-14  0.12509000000E+03  0.12509000000E+03 0.  0.
        -13    1    3    3    0    0  0.22337171568E+02  0.57641069249E+02  0.79352235644E+01  0.62325123625E+02  0.10566000000E+00 0. -1.
         23    2    1    0    0    0  0.75864185942E+01  0.29768876217E+02  0.43481010987E+01  0.94063467460E+02  0.88799156466E+02 0.  0.
         13    1    3    3    0    0 -0.14750752974E+02 -0.27872193032E+02 -0.35871224657E+01  0.31738343834E+02  0.10566000000E+00 0.  1.
         22    1    1    0    0    0 -0.75864185942E+01 -0.29768876217E+02 -0.43481010987E+01  0.31026532540E+02  0.00000000000E+00 0. -1.
</event>
<event>
 5    1  0.1258624E-009  0.9118800E+02  0.7815553E-02  0.1125453E+00
         25   -1    0    0    0    0  0.00000000000E+00  0.00000000000E+00  0.99999998245E-14  0.12509000000E+03  0.12509000000E+03 0.  0.
        -13    1    3    3    0    0  0.41689166707E+02  0.18018857468E+02 -0.38001755971E+01  0.45575413808E+02  0.10566000000E+00 0. -1.
         23    2    1    0    0    0 -0.58025167003E+01  0.29867865576E+02 -0.88170155941E-01  0.94663590943E+02  0.89640554896E+02 0.  0.
         13    1    3    3    0    0 -0.47491683407E+02  0.11849008108E+02  0.37120054412E+01  0.49088177135E+02  0.10566000000E+00 0.  1.
         22    1    1    0    0    0  0.58025167003E+01 -0.29867865576E+02  0.88170155941E-01  0.30426409057E+02  0.00000000000E+00 0.  1.
</event>
<event>
 5    1  0.1258624E-009  0.9118800E+02  0.7815553E-02  0.1125453E+00
         25   -1    0    0    0    0  0.00000000000E+00  0.00000000000E+00  0.99999998245E-14  0.12509000000E+03  0.12509000000E+03 0.  0.
        -13    1    3    3    0    0  0.19508938399E+02  0.13789850895E+02  0.22099923906E+02  0.32544991409E+02  0.10566000000E+00 0.  1.
         23    2    1    0    0    0 -0.15246586406E+01  0.11409772511E+02 -0.32236930215E+02  0.90859499530E+02  0.84164847130E+02 0.  0.
         13    1    3    3    0    0 -0.21033597040E+02 -0.23800783835E+01 -0.54336854121E+02  0.58314508121E+02  0.10566000000E+00 0. -1.
         22    1    1    0    0    0  0.15246586406E+01 -0.11409772511E+02  0.32236930215E+02  0.34230500470E+02  0.00000000000E+00 0. -1.
</event>
<event>
 5    1  0.1258624E-009  0.9118800E+02  0.7815553E-02  0.1125453E+00
         25   -1    0    0    0    0  0.00000000000E+00  0.00000000000E+00  0.99999998245E-14  0.12509000000E+03  0.12509000000E+03 0.  0.
        -13    1    3    3    0    0 -0.28399540795E+01  0.41373015035E+02 -0.36337352529E+02  0.55138063669E+02  0.10566000000E+00 0.  1.
         23    2    1    0    0    0 -0.19988658388E+02  0.10728139404E+02 -0.23227381189E+02  0.92622313354E+02  0.86745272233E+02 0.  0.
         13    1    3    3    0    0 -0.17148704309E+02 -0.30644875631E+02  0.13109971339E+02  0.37484249685E+02  0.10566000000E+00 0. -1.
         22    1    1    0    0    0  0.19988658388E+02 -0.10728139404E+02  0.23227381189E+02  0.32467686646E+02  0.00000000000E+00 0.  1.
</event>
<event>
 5    1  0.1258624E-009  0.9118800E+02  0.7815553E-02  0.1125453E+00
         25   -1    0    0    0    0  0.00000000000E+00  0.00000000000E+00  0.99999998245E-14  0.12509000000E+03  0.12509000000E+03 0.  0.
        -13    1    3    3    0    0 -0.33463459608E+02  0.22806442469E+02  0.45777406130E+02  0.61118892521E+02  0.10566000000E+00 0. -1.
         23    2    1    0    0    0 -0.16008707205E+02  0.15047767039E+02  0.11666888730E+02  0.10021370020E+03  0.97077059161E+02 0.  0.
         13    1    3    3    0    0  0.17454752403E+02 -0.77586754298E+01 -0.34110517400E+02  0.39094807676E+02  0.10566000000E+00 0.  1.
         22    1    1    0    0    0  0.16008707205E+02 -0.15047767039E+02 -0.11666888730E+02  0.24876299803E+02  0.00000000000E+00 0. -1.
</event>
<event>
 5    1  0.1258624E-009  0.9118800E+02  0.7815553E-02  0.1125453E+00
         25   -1    0    0    0    0  0.00000000000E+00  0.00000000000E+00  0.99999998245E-14  0.12509000000E+03  0.12509000000E+03 0.  0.
        -13    1    3    3    0    0  0.39945875924E+02 -0.10945722696E+02  0.11046678474E+02  0.42866328487E+02  0.10566000000E+00 0.  1.
         23    2    1    0    0    0  0.31494711819E+01  0.26566703846E+02  0.12779361764E+02  0.95441711533E+02  0.90719894683E+02 0.  0.
         13    1    3    3    0    0 -0.36796404742E+02  0.37512426542E+02  0.17326832894E+01  0.52575383045E+02  0.10566000000E+00 0. -1.
         22    1    1    0    0    0 -0.31494711819E+01 -0.26566703846E+02 -0.12779361764E+02  0.29648288467E+02  0.00000000000E+00 0. -1.
</event>
<event>
 5    1  0.1258624E-009  0.9118800E+02  0.7815553E-02  0.1125453E+00
         25   -1    0    0    0    0  0.00000000000E+00  0.00000000000E+00  0.99999998245E-14  0.12509000000E+03  0.12509000000E+03 0.  0.
        -13    1    3    3    0    0 -0.28555466543E+02 -0.23724606168E+02 -0.22569897532E+02  0.43447474564E+02  0.10566000000E+00 0. -1.
         23    2    1    0    0    0  0.20184083860E+02 -0.53021444285E+01 -0.20863855323E+02  0.95580502618E+02  0.90911066680E+02 0.  0.
         13    1    3    3    0    0  0.48739550403E+02  0.18422461739E+02  0.17060422090E+01  0.52133028054E+02  0.10566000000E+00 0.  1.
         22    1    1    0    0    0 -0.20184083860E+02  0.53021444285E+01  0.20863855323E+02  0.29509497382E+02  0.00000000000E+00 0.  1.
</event>
<event>
 5    1  0.1258624E-009  0.9118800E+02  0.7815553E-02  0.1125453E+00
         25   -1    0    0    0    0  0.00000000000E+00  0.00000000000E+00  0.99999998245E-14  0.12509000000E+03  0.12509000000E+03 0.  0.
        -13    1    3    3    0    0  0.32822969269E+02  0.52979792899E+02  0.18430865575E+00  0.62323758720E+02  0.10566000000E+00 0.  1.
         23    2    1    0    0    0  0.16728763695E+02  0.22775423080E+02  0.30422813244E+01  0.96667704053E+02  0.92394902998E+02 0.  0.
         13    1    3    3    0    0 -0.16094205575E+02 -0.30204369819E+02  0.28579726687E+01  0.34343945333E+02  0.10566000000E+00 0. -1.
         22    1    1    0    0    0 -0.16728763695E+02 -0.22775423080E+02 -0.30422813244E+01  0.28422295947E+02  0.00000000000E+00 0.  1.
</event>
<event>
 5    1  0.1258624E-009  0.9118800E+02  0.7815553E-02  0.1125453E+00
         25   -1    0    0    0    0  0.00000000000E+00  0.00000000000E+00  0.99999998245E-14  0.12509000000E+03  0.12509000000E+03 0.  0.
        -13    1    3    3    0    0  0.12214794840E+02 -0.38620687435E+02  0.89964415710E+00  0.40516406980E+02  0.10566000000E+00 0.  1.
         23    2    1    0    0    0 -0.29516051694E+02 -0.31123285121E+01  0.22368852889E+01  0.95326136807E+02  0.90560393144E+02 0.  0.
         13    1    3    3    0    0 -0.41730846534E+02  0.35508358923E+02  0.13372411318E+01  0.54809729827E+02  0.10566000000E+00 0. -1.
         22    1    1    0    0    0  0.29516051694E+02  0.31123285121E+01 -0.22368852889E+01  0.29763863193E+02  0.00000000000E+00 0. -1.
</event>
<event>
 5    1  0.1258624E-009  0.9118800E+02  0.7815553E-02  0.1125453E+00
         25   -1    0    0    0    0  0.00000000000E+00  0.00000000000E+00  0.99999998245E-14  0.12509000000E+03  0.12509000000E+03 0.  0.
        -13    1    3    3    0    0 -0.28257883090E+01  0.30584372861E+02  0.43874725536E+02  0.53557367820E+02  0.10566000000E+00 0.  1.
         23    2    1    0    0    0 -0.10900355872E+01  0.29400965687E+02  0.18756244633E+01  0.95609109103E+02  0.90950419546E+02 0.  0.
         13    1    3    3    0    0  0.17357527218E+01 -0.11834071737E+01 -0.41999101073E+02  0.42051741284E+02  0.10566000000E+00 0. -1.
         22    1    1    0    0    0  0.10900355872E+01 -0.29400965687E+02 -0.18756244633E+01  0.29480890897E+02  0.00000000000E+00 0.  1.
</event>
<event>
 5    1  0.1258624E-009  0.9118800E+02  0.7815553E-02  0.1125453E+00
         25   -1    0    0    0    0  0.00000000000E+00  0.00000000000E+00  0.99999998245E-14  0.12509000000E+03  0.12509000000E+03 0.  0.
        -13    1    3    3    0    0  0.20972699112E+02  0.11324888768E+02  0.47281330473E+02  0.52949434265E+02  0.10566000000E+00 0.  1.
         23    2    1    0    0    0  0.51990753657E+01  0.26698449552E+02  0.10276734780E+02  0.96013396504E+02  0.91504772758E+02 0.  0.
         13    1    3    3    0    0 -0.15773623746E+02  0.15373560784E+02 -0.37004595694E+02  0.43063962239E+02  0.10566000000E+00 0. -1.
         22    1    1    0    0    0 -0.51990753657E+01 -0.26698449552E+02 -0.10276734780E+02  0.29076603496E+02  0.00000000000E+00 0.  1.
</event>
<event>
 5    1  0.1258624E-009  0.9118800E+02  0.7815553E-02  0.1125453E+00
         25   -1    0    0    0    0  0.00000000000E+00  0.00000000000E+00  0.99999998245E-14  0.12509000000E+03  0.12509000000E+03 0.  0.
        -13    1    3    3    0    0 -0.28651094839E+01  0.24554180891E+02 -0.22661772186E+02  0.33536304720E+02  0.10566000000E+00 0. -1.
         23    2    1    0    0    0  0.24101773749E+02 -0.20724652415E+02  0.47666284866E+01  0.92947699791E+02  0.87213229695E+02 0.  0.
         13    1    3    3    0    0  0.26966883233E+02 -0.45278833306E+02  0.27428400673E+02  0.59411395072E+02  0.10566000000E+00 0.  1.
         22    1    1    0    0    0 -0.24101773749E+02  0.20724652415E+02 -0.47666284866E+01  0.32142300209E+02  0.00000000000E+00 0.  1.
</event>
<event>
 5    1  0.1258624E-009  0.9118800E+02  0.7815553E-02  0.1125453E+00
         25   -1    0    0    0    0  0.00000000000E+00  0.00000000000E+00  0.99999998245E-14  0.12509000000E+03  0.12509000000E+03 0.  0.
        -13    1    3    3    0    0 -0.45812014249E+02 -0.22291174564E+02 -0.32482182621E+01  0.51050947091E+02  0.10566000000E+00 0. -1.
         23    2    1    0    0    0  0.19201656396E+01 -0.25961433218E+02 -0.25953956208E+01  0.98928594663E+02  0.95406748780E+02 0.  0.
         13    1    3    3    0    0  0.47732179889E+02 -0.36702586541E+01  0.65282264129E+00  0.47877647571E+02  0.10566000000E+00 0.  1.
         22    1    1    0    0    0 -0.19201656396E+01  0.25961433218E+02  0.25953956208E+01  0.26161405337E+02  0.00000000000E+00 0. -1.
</event>
<event>
 5    1  0.1258624E-009  0.9118800E+02  0.7815553E-02  0.1125453E+00
         25   -1    0    0    0    0  0.00000000000E+00  0.00000000000E+00  0.99999998245E-14  0.12509000000E+03  0.12509000000E+03 0.  0.
        -13    1    3    3    0    0  0.67707138244E+01  0.38477771446E+02  0.75893327502E+01  0.39799379352E+02  0.10566000000E+00 0.  1.
         23    2    1    0    0    0  0.29473528366E+02 -0.55302271680E+01 -0.11641859025E+02  0.92921612281E+02  0.87175804329E+02 0.  0.
         13    1    3    3    0    0  0.22702814542E+02 -0.44007998614E+02 -0.19231191775E+02  0.53122232929E+02  0.10566000000E+00 0. -1.
         22    1    1    0    0    0 -0.29473528366E+02  0.55302271680E+01  0.11641859025E+02  0.32168387719E+02  0.00000000000E+00 0. -1.
</event>
<event>
 5    1  0.1258624E-009  0.9118800E+02  0.7815553E-02  0.1125453E+00
         25   -1    0    0    0    0  0.00000000000E+00  0.00000000000E+00  0.99999998245E-14  0.12509000000E+03  0.12509000000E+03 0.  0.
        -13    1    3    3    0    0  0.54297517499E+02  0.94033455807E+01 -0.28949398361E+02  0.62247266159E+02  0.10566000000E+00 0.  1.
         23    2    1    0    0    0  0.23361503601E+02  0.73082724476E+01 -0.15981315970E+02  0.95856916742E+02  0.91290609213E+02 0.  0.
         13    1    3    3    0    0 -0.30936013899E+02 -0.20950731331E+01  0.12968082391E+02  0.33609650583E+02  0.10566000000E+00 0. -1.
         22    1    1    0    0    0 -0.23361503601E+02 -0.73082724476E+01  0.15981315970E+02  0.29233083258E+02  0.00000000000E+00 0.  1.
</event>
<event>
 5    1  0.1258624E-009  0.9118800E+02  0.7815553E-02  0.1125453E+00
         25   -1    0    0    0    0  0.00000000000E+00  0.00000000000E+00  0.99999998245E-14  0.12509000000E+03  0.12509000000E+03 0.  0.
        -13    1    3    3    0    0 -0.29595211514E+02 -0.24231839255E+02  0.34171703435E+01  0.38402432155E+02  0.10566000000E+00 0. -1.
         23    2    1    0    0    0  0.28156785401E+01  0.60653809255E+01 -0.30258074435E+02  0.94101809348E+02  0.88853151675E+02 0.  0.
         13    1    3    3    0    0  0.32410890054E+02  0.30297220181E+02 -0.33675244778E+02  0.55699377193E+02  0.10566000000E+00 0.  1.
         22    1    1    0    0    0 -0.28156785401E+01 -0.60653809255E+01  0.30258074435E+02  0.30988190652E+02  0.00000000000E+00 0.  1.
</event>
<event>
 5    1  0.1258624E-009  0.9118800E+02  0.7815553E-02  0.1125453E+00
         25   -1    0    0    0    0  0.00000000000E+00  0.00000000000E+00  0.99999998245E-14  0.12509000000E+03  0.12509000000E+03 0.  0.
        -13    1    3    3    0    0 -0.13423033481E+02  0.91241342076E+01 -0.29563770899E+02  0.33726182213E+02  0.10566000000E+00 0.  1.
         23    2    1    0    0    0  0.75988272844E+01 -0.96170004591E+01  0.26181388395E+02  0.96181627991E+02  0.91734462394E+02 0.  0.
         13    1    3    3    0    0  0.21021860765E+02 -0.18741134667E+02  0.55745159294E+02  0.62455445778E+02  0.10566000000E+00 0. -1.
         22    1    1    0    0    0 -0.75988272844E+01  0.96170004591E+01 -0.26181388395E+02  0.28908372009E+02  0.00000000000E+00 0. -1.
</event>
<event>
 5    1  0.1258624E-009  0.9118800E+02  0.7815553E-02  0.1125453E+00
         25   -1    0    0    0    0  0.00000000000E+00  0.00000000000E+00  0.99999998245E-14  0.12509000000E+03  0.12509000000E+03 0.  0.
        -13    1    3    3    0    0 -0.35253670234E+02  0.30412612388E+02 -0.38027122481E+02  0.60115068539E+02  0.10566000000E+00 0. -1.
         23    2    1    0    0    0 -0.24721274004E+02  0.15137151628E+02 -0.86890683655E+01  0.94828231101E+02  0.89870010331E+02 0.  0.
         13    1    3    3    0    0  0.10532396230E+02 -0.15275460760E+02  0.29338054115E+02  0.34713162562E+02  0.10566000000E+00 0.  1.
         22    1    1    0    0    0  0.24721274004E+02 -0.15137151628E+02  0.86890683655E+01  0.30261768899E+02  0.00000000000E+00 0. -1.
</event>
<event>
 5    1  0.1258624E-009  0.9118800E+02  0.7815553E-02  0.1125453E+00
         25   -1    0    0    0    0  0.00000000000E+00  0.00000000000E+00  0.99999998245E-14  0.12509000000E+03  0.12509000000E+03 0.  0.
        -13    1    3    3    0    0  0.38963009045E+02 -0.32429726639E+02  0.40555020287E+01  0.50855299669E+02  0.10566000000E+00 0. -1.
         23    2    1    0    0    0  0.35869719880E+01 -0.15702888060E+02 -0.21967828845E+02  0.97849725302E+02  0.93981573598E+02 0.  0.
         13    1    3    3    0    0 -0.35376037057E+02  0.16726838579E+02 -0.26023330874E+02  0.46994425632E+02  0.10566000000E+00 0.  1.
         22    1    1    0    0    0 -0.35869719880E+01  0.15702888060E+02  0.21967828845E+02  0.27240274698E+02  0.00000000000E+00 0. -1.
</event>
<event>
 5    1  0.1258624E-009  0.9118800E+02  0.7815553E-02  0.1125453E+00
         25   -1    0    0    0    0  0.00000000000E+00  0.00000000000E+00  0.99999998245E-14  0.12509000000E+03  0.12509000000E+03 0.  0.
        -13    1    3    3    0    0  0.45843661675E+02  0.17575701791E+02  0.18348051401E+02  0.52413822256E+02  0.10566000000E+00 0. -1.
         23    2    1    0    0    0  0.22132249099E+02 -0.16755930774E+02  0.12856275759E+02  0.94497819746E+02  0.89408928213E+02 0.  0.
         13    1    3    3    0    0 -0.23711412577E+02 -0.34331632565E+02 -0.54917756417E+01  0.42083997490E+02  0.10566000000E+00 0.  1.
         22    1    1    0    0    0 -0.22132249099E+02  0.16755930774E+02 -0.12856275759E+02  0.30592180254E+02  0.00000000000E+00 0. -1.
</event>
<event>
 5    1  0.1258624E-009  0.9118800E+02  0.7815553E-02  0.1125453E+00
         25   -1    0    0    0    0  0.00000000000E+00  0.00000000000E+00  0.99999998245E-14  0.12509000000E+03  0.12509000000E+03 0.  0.
        -13    1    3    3    0    0  0.55659228346E+02  0.52569143386E+01 -0.25282009664E+01  0.55964165433E+02  0.10566000000E+00 0. -1.
         23    2    1    0    0    0  0.21336726153E+02  0.15766456034E+02 -0.15773004939E+02  0.94225381039E+02  0.89026949450E+02 0.  0.
         13    1    3    3    0    0 -0.34322502192E+02  0.10509541695E+02 -0.13244803972E+02  0.38261215607E+02  0.10566000000E+00 0.  1.
         22    1    1    0    0    0 -0.21336726153E+02 -0.15766456034E+02  0.15773004939E+02  0.30864618961E+02  0.00000000000E+00 0. -1.
</event>
<event>
 5    1  0.1258624E-009  0.9118800E+02  0.7815553E-02  0.1125453E+00
         25   -1    0    0    0    0  0.00000000000E+00  0.00000000000E+00  0.99999998245E-14  0.12509000000E+03  0.12509000000E+03 0.  0.
        -13    1    3    3    0    0 -0.80174295734E+00  0.38010553892E+01  0.45962756331E+02  0.46126748719E+02  0.10566000000E+00 0. -1.
         23    2    1    0    0    0 -0.29990530988E+02  0.66818236703E+01  0.94862152300E+01  0.92933087898E+02  0.87192269327E+02 0.  0.
         13    1    3    3    0    0 -0.29188788031E+02  0.28807682811E+01 -0.36476541101E+02  0.46806339179E+02  0.10566000000E+00 0.  1.
         22    1    1    0    0    0  0.29990530988E+02 -0.66818236703E+01 -0.94862152300E+01  0.32156912102E+02  0.00000000000E+00 0.  1.
</event>
<event>
 5    1  0.1258624E-009  0.9118800E+02  0.7815553E-02  0.1125453E+00
         25   -1    0    0    0    0  0.00000000000E+00  0.00000000000E+00  0.99999998245E-14  0.12509000000E+03  0.12509000000E+03 0.  0.
        -13    1    3    3    0    0 -0.46760048279E+02  0.34865692608E+02  0.37298594589E+01  0.58446913106E+02  0.10566000000E+00 0. -1.
         23    2    1    0    0    0 -0.30454653872E+02  0.12130816408E+02  0.15535428847E+02  0.88813393231E+02  0.81066803431E+02 0.  0.
         13    1    3    3    0    0  0.16305394407E+02 -0.22734876199E+02  0.11805569389E+02  0.30366480125E+02  0.10566000000E+00 0.  1.
         22    1    1    0    0    0  0.30454653872E+02 -0.12130816408E+02 -0.15535428847E+02  0.36276606769E+02  0.00000000000E+00 0. -1.
</event>
<event>
 5    1  0.1258624E-009  0.9118800E+02  0.7815553E-02  0.1125453E+00
         25   -1    0    0    0    0  0.00000000000E+00  0.00000000000E+00  0.99999998245E-14  0.12509000000E+03  0.12509000000E+03 0.  0.
        -13    1    3    3    0    0 -0.57790225099E+02 -0.13473643132E+02 -0.13409325413E+02  0.60836422875E+02  0.10566000000E+00 0.  1.
         23    2    1    0    0    0 -0.27551504873E+02  0.38928306270E+01 -0.38048862879E+01  0.97005899325E+02  0.92851643997E+02 0.  0.
         13    1    3    3    0    0  0.30238720225E+02  0.17366473759E+02  0.96044391248E+01  0.36169476449E+02  0.10566000000E+00 0. -1.
         22    1    1    0    0    0  0.27551504873E+02 -0.38928306270E+01  0.38048862879E+01  0.28084100675E+02  0.00000000000E+00 0.  1.
</event>
<event>
 5    1  0.1258624E-009  0.9118800E+02  0.7815553E-02  0.1125453E+00
         25   -1    0    0    0    0  0.00000000000E+00  0.00000000000E+00  0.99999998245E-14  0.12509000000E+03  0.12509000000E+03 0.  0.
        -13    1    3    3    0    0 -0.59331338121E+02 -0.93475674461E+01 -0.78370588433E+01  0.60572397639E+02  0.10566000000E+00 0. -1.
         23    2    1    0    0    0 -0.28829790229E+02  0.64032100686E+01 -0.60298379082E+01  0.94948386754E+02  0.90037099566E+02 0.  0.
         13    1    3    3    0    0  0.30501547892E+02  0.15750777515E+02  0.18072209350E+01  0.34375989115E+02  0.10566000000E+00 0.  1.
         22    1    1    0    0    0  0.28829790229E+02 -0.64032100686E+01  0.60298379082E+01  0.30141613246E+02  0.00000000000E+00 0. -1.
</event>
<event>
 5    1  0.1258624E-009  0.9118800E+02  0.7815553E-02  0.1125453E+00
         25   -1    0    0    0    0  0.00000000000E+00  0.00000000000E+00  0.99999998245E-14  0.12509000000E+03  0.12509000000E+03 0.  0.
        -13    1    3    3    0    0 -0.31648974383E+02 -0.31261135489E+02 -0.28319914851E+02  0.52734665190E+02  0.10566000000E+00 0. -1.
         23    2    1    0    0    0 -0.26201836042E+02 -0.10456189283E+02  0.87168968719E+01  0.95562853214E+02  0.90886778560E+02 0.  0.
         13    1    3    3    0    0  0.54471383413E+01  0.20804946206E+02  0.37036811722E+02  0.42828188023E+02  0.10566000000E+00 0.  1.
         22    1    1    0    0    0  0.26201836042E+02  0.10456189283E+02 -0.87168968719E+01  0.29527146786E+02  0.00000000000E+00 0. -1.
</event>
<event>
 5    1  0.1258624E-009  0.9118800E+02  0.7815553E-02  0.1125453E+00
         25   -1    0    0    0    0  0.00000000000E+00  0.00000000000E+00  0.99999998245E-14  0.12509000000E+03  0.12509000000E+03 0.  0.
        -13    1    3    3    0    0  0.37916907782E+02  0.28488152541E+02  0.14537927827E+02  0.49604730021E+02  0.10566000000E+00 0.  1.
         23    2    1    0    0    0 -0.56257159521E+01  0.22482388166E+02  0.20732780758E+02  0.93994105487E+02  0.88701393511E+02 0.  0.
         13    1    3    3    0    0 -0.43542623734E+02 -0.60057643753E+01  0.61948529310E+01  0.44389375466E+02  0.10566000000E+00 0. -1.
         22    1    1    0    0    0  0.56257159521E+01 -0.22482388166E+02 -0.20732780758E+02  0.31095894513E+02  0.00000000000E+00 0.  1.
</event>
<event>
 5    1  0.1258624E-009  0.9118800E+02  0.7815553E-02  0.1125453E+00
         25   -1    0    0    0    0  0.00000000000E+00  0.00000000000E+00  0.99999998245E-14  0.12509000000E+03  0.12509000000E+03 0.  0.
        -13    1    3    3    0    0  0.21916659814E+02 -0.19447809575E+02 -0.18450481952E+02  0.34626416548E+02  0.10566000000E+00 0. -1.
         23    2    1    0    0    0 -0.18366746976E+02  0.92720049233E+01  0.19317625290E+02  0.96868056116E+02  0.92665755158E+02 0.  0.
         13    1    3    3    0    0 -0.40283406790E+02  0.28719814498E+02  0.37768107241E+02  0.62241639568E+02  0.10566000000E+00 0.  1.
         22    1    1    0    0    0  0.18366746976E+02 -0.92720049233E+01 -0.19317625290E+02  0.28221943884E+02  0.00000000000E+00 0.  1.
</event>
<event>
 5    1  0.1258624E-009  0.9118800E+02  0.7815553E-02  0.1125453E+00
         25   -1    0    0    0    0  0.00000000000E+00  0.00000000000E+00  0.99999998245E-14  0.12509000000E+03  0.12509000000E+03 0.  0.
        -13    1    3    3    0    0 -0.21670992869E+02 -0.18718045574E+02 -0.35343294265E+02  0.45487984959E+02  0.10566000000E+00 0. -1.
         23    2    1    0    0    0 -0.15140330550E+02 -0.44212073552E+01  0.18034121943E+02  0.10113157272E+03  0.98252678142E+02 0.  0.
         13    1    3    3    0    0  0.65306623185E+01  0.14296838219E+02  0.53377416209E+02  0.55643587758E+02  0.10566000000E+00 0.  1.
         22    1    1    0    0    0  0.15140330550E+02  0.44212073552E+01 -0.18034121943E+02  0.23958427284E+02  0.00000000000E+00 0.  1.
</event>
<event>
 5    1  0.1258624E-009  0.9118800E+02  0.7815553E-02  0.1125453E+00
         25   -1    0    0    0    0  0.00000000000E+00  0.00000000000E+00  0.99999998245E-14  0.12509000000E+03  0.12509000000E+03 0.  0.
        -13    1    3    3    0    0 -0.15280114020E+02  0.52209361343E+02  0.10469270314E+02  0.55397798524E+02  0.10566000000E+00 0.  1.
         23    2    1    0    0    0  0.75809883042E+01  0.23616391025E+02 -0.11130563076E+02  0.97903703027E+02  0.94053390812E+02 0.  0.
         13    1    3    3    0    0  0.22861102325E+02 -0.28592970318E+02 -0.21599833390E+02  0.42505904503E+02  0.10566000000E+00 0. -1.
         22    1    1    0    0    0 -0.75809883042E+01 -0.23616391025E+02  0.11130563076E+02  0.27186296973E+02  0.00000000000E+00 0. -1.
</event>
<event>
 5    1  0.1258624E-009  0.9118800E+02  0.7815553E-02  0.1125453E+00
         25   -1    0    0    0    0  0.00000000000E+00  0.00000000000E+00  0.99999998245E-14  0.12509000000E+03  0.12509000000E+03 0.  0.
        -13    1    3    3    0    0 -0.17250579564E+02 -0.31334555811E+02 -0.12904866612E+02  0.38026091430E+02  0.10566000000E+00 0.  1.
         23    2    1    0    0    0  0.21889629738E+02  0.10181864631E+02 -0.17506142275E+02  0.95269012847E+02  0.90481454089E+02 0.  0.
         13    1    3    3    0    0  0.39140209302E+02  0.41516420442E+02 -0.46012756629E+01  0.57242921417E+02  0.10566000000E+00 0. -1.
         22    1    1    0    0    0 -0.21889629738E+02 -0.10181864631E+02  0.17506142275E+02  0.29820987153E+02  0.00000000000E+00 0. -1.
</event>
<event>
 5    1  0.1258624E-009  0.9118800E+02  0.7815553E-02  0.1125453E+00
         25   -1    0    0    0    0  0.00000000000E+00  0.00000000000E+00  0.99999998245E-14  0.12509000000E+03  0.12509000000E+03 0.  0.
        -13    1    3    3    0    0 -0.24655913019E+02 -0.23814741499E+02 -0.48074728002E+02  0.59044445937E+02  0.10566000000E+00 0.  1.
         23    2    1    0    0    0 -0.55870074953E+01 -0.22971644055E+02 -0.15433832263E+02  0.96856787968E+02  0.92650542977E+02 0.  0.
         13    1    3    3    0    0  0.19068905524E+02  0.84309744484E+00  0.32640895739E+02  0.37812342031E+02  0.10566000000E+00 0. -1.
         22    1    1    0    0    0  0.55870074953E+01  0.22971644055E+02  0.15433832263E+02  0.28233212032E+02  0.00000000000E+00 0.  1.
</event>
<event>
 5    1  0.1258624E-009  0.9118800E+02  0.7815553E-02  0.1125453E+00
         25   -1    0    0    0    0  0.00000000000E+00  0.00000000000E+00  0.99999998245E-14  0.12509000000E+03  0.12509000000E+03 0.  0.
        -13    1    3    3    0    0  0.54314131877E+02 -0.10669964158E+01  0.19392621025E+02  0.57682305061E+02  0.10566000000E+00 0. -1.
         23    2    1    0    0    0  0.25476905502E+02 -0.13098999530E+02 -0.32336375268E+01  0.96260970979E+02  0.91842591532E+02 0.  0.
         13    1    3    3    0    0 -0.28837226374E+02 -0.12032003115E+02 -0.22626258552E+02  0.38578665918E+02  0.10566000000E+00 0.  1.
         22    1    1    0    0    0 -0.25476905502E+02  0.13098999530E+02  0.32336375268E+01  0.28829029021E+02  0.00000000000E+00 0. -1.
</event>
<event>
 5    1  0.1258624E-009  0.9118800E+02  0.7815553E-02  0.1125453E+00
         25   -1    0    0    0    0  0.00000000000E+00  0.00000000000E+00  0.99999998245E-14  0.12509000000E+03  0.12509000000E+03 0.  0.
        -13    1    3    3    0    0  0.37389784713E+02  0.13274377556E+02  0.40621175840E+02  0.56782886427E+02  0.10566000000E+00 0. -1.
         23    2    1    0    0    0  0.59128587265E+01 -0.59423240180E+01  0.28157004742E+02  0.95711606084E+02  0.91091281197E+02 0.  0.
         13    1    3    3    0    0 -0.31476925986E+02 -0.19216701574E+02 -0.12464171098E+02  0.38928719657E+02  0.10566000000E+00 0.  1.
         22    1    1    0    0    0 -0.59128587265E+01  0.59423240180E+01 -0.28157004742E+02  0.29378393916E+02  0.00000000000E+00 0. -1.
</event>
<event>
 5    1  0.1258624E-009  0.9118800E+02  0.7815553E-02  0.1125453E+00
         25   -1    0    0    0    0  0.00000000000E+00  0.00000000000E+00  0.99999998245E-14  0.12509000000E+03  0.12509000000E+03 0.  0.
        -13    1    3    3    0    0  0.26413117695E+02 -0.32891438747E+02 -0.13000241911E+01  0.42204274145E+02  0.10566000000E+00 0.  1.
         23    2    1    0    0    0 -0.21937274746E+02 -0.12730426676E+02 -0.14016646269E+02  0.96111142892E+02  0.91638297827E+02 0.  0.
         13    1    3    3    0    0 -0.48350392441E+02  0.20161012071E+02 -0.12716622078E+02  0.53906868746E+02  0.10566000000E+00 0. -1.
         22    1    1    0    0    0  0.21937274746E+02  0.12730426676E+02  0.14016646269E+02  0.28978857108E+02  0.00000000000E+00 0. -1.
</event>
<event>
 5    1  0.1258624E-009  0.9118800E+02  0.7815553E-02  0.1125453E+00
         25   -1    0    0    0    0  0.00000000000E+00  0.00000000000E+00  0.99999998245E-14  0.12509000000E+03  0.12509000000E+03 0.  0.
        -13    1    3    3    0    0 -0.97702828316E+01  0.22435032902E+02  0.40505523744E+02  0.47323331939E+02  0.10566000000E+00 0. -1.
         23    2    1    0    0    0 -0.27376578102E+02 -0.67311849610E+01  0.51322967857E+01  0.96434697701E+02  0.92078904049E+02 0.  0.
         13    1    3    3    0    0 -0.17606295270E+02 -0.29166217863E+02 -0.35373226959E+02  0.49111365763E+02  0.10566000000E+00 0.  1.
         22    1    1    0    0    0  0.27376578102E+02  0.67311849610E+01 -0.51322967857E+01  0.28655302299E+02  0.00000000000E+00 0. -1.
</event>
<event>
 5    1  0.1258624E-009  0.9118800E+02  0.7815553E-02  0.1125453E+00
         25   -1    0    0    0    0  0.00000000000E+00  0.00000000000E+00  0.99999998245E-14  0.12509000000E+03  0.12509000000E+03 0.  0.
        -13    1    3    3    0    0  0.40266816256E+02  0.34276647747E+02 -0.26110520254E+02  0.58975210929E+02  0.10566000000E+00 0.  1.
         23    2    1    0    0    0  0.99039427462E+01  0.27973947887E+02 -0.11365499283E+02  0.93312580088E+02  0.87735016877E+02 0.  0.
         13    1    3    3    0    0 -0.30362873510E+02 -0.63026998599E+01  0.14745020971E+02  0.34337369159E+02  0.10566000000E+00 0. -1.
         22    1    1    0    0    0 -0.99039427462E+01 -0.27973947887E+02  0.11365499283E+02  0.31777419912E+02  0.00000000000E+00 0.  1.
</event>
<event>
 5    1  0.1258624E-009  0.9118800E+02  0.7815553E-02  0.1125453E+00
         25   -1    0    0    0    0  0.00000000000E+00  0.00000000000E+00  0.99999998245E-14  0.12509000000E+03  0.12509000000E+03 0.  0.
        -13    1    3    3    0    0  0.15043519705E+02  0.18030368709E+02 -0.27891122503E+02  0.36459944588E+02  0.10566000000E+00 0. -1.
         23    2    1    0    0    0 -0.26846479280E+02  0.67897407179E+01  0.11552291054E+02  0.95085176099E+02  0.90226943074E+02 0.  0.
         13    1    3    3    0    0 -0.41889998985E+02 -0.11240627991E+02  0.39443413557E+02  0.58625231510E+02  0.10566000000E+00 0.  1.
         22    1    1    0    0    0  0.26846479280E+02 -0.67897407179E+01 -0.11552291054E+02  0.30004823901E+02  0.00000000000E+00 0.  1.
</event>
<event>
 5    1  0.1258624E-009  0.9118800E+02  0.7815553E-02  0.1125453E+00
         25   -1    0    0    0    0  0.00000000000E+00  0.00000000000E+00  0.99999998245E-14  0.12509000000E+03  0.12509000000E+03 0.  0.
        -13    1    3    3    0    0 -0.98026114854E+01  0.15570253061E+02 -0.54071325776E+02  0.57116052100E+02  0.10566000000E+00 0. -1.
         23    2    1    0    0    0 -0.17171380980E+02 -0.61602798374E+01 -0.24321620180E+02  0.94686931394E+02  0.89673119697E+02 0.  0.
         13    1    3    3    0    0 -0.73687694949E+01 -0.21730532898E+02  0.29749705595E+02  0.37570879294E+02  0.10566000000E+00 0.  1.
         22    1    1    0    0    0  0.17171380980E+02  0.61602798374E+01  0.24321620180E+02  0.30403068606E+02  0.00000000000E+00 0. -1.
</event>
<event>
 5    1  0.1258624E-009  0.9118800E+02  0.7815553E-02  0.1125453E+00
         25   -1    0    0    0    0  0.00000000000E+00  0.00000000000E+00  0.99999998245E-14  0.12509000000E+03  0.12509000000E+03 0.  0.
        -13    1    3    3    0    0 -0.37827131401E+02  0.13401002714E+02  0.19148669519E+01  0.40176568087E+02  0.10566000000E+00 0.  1.
         23    2    1    0    0    0  0.24871585783E+01 -0.15014957729E+02 -0.24591074141E+02  0.96170182559E+02  0.91718853965E+02 0.  0.
         13    1    3    3    0    0  0.40314289979E+02 -0.28415960443E+02 -0.26505941093E+02  0.55993614472E+02  0.10566000000E+00 0. -1.
         22    1    1    0    0    0 -0.24871585783E+01  0.15014957729E+02  0.24591074141E+02  0.28919817441E+02  0.00000000000E+00 0. -1.
</event>
<event>
 5    1  0.1258624E-009  0.9118800E+02  0.7815553E-02  0.1125453E+00
         25   -1    0    0    0    0  0.00000000000E+00  0.00000000000E+00  0.99999998245E-14  0.12509000000E+03  0.12509000000E+03 0.  0.
        -13    1    3    3    0    0  0.11443895552E+02 -0.35458451398E+02  0.38143900568E+02  0.53321973290E+02  0.10566000000E+00 0.  1.
         23    2    1    0    0    0  0.24397133256E+02 -0.16228835618E+01  0.13259309211E+02  0.97275199212E+02  0.93213739539E+02 0.  0.
         13    1    3    3    0    0  0.12953237704E+02  0.33835567837E+02 -0.24884591357E+02  0.43953225922E+02  0.10566000000E+00 0. -1.
         22    1    1    0    0    0 -0.24397133256E+02  0.16228835618E+01 -0.13259309211E+02  0.27814800788E+02  0.00000000000E+00 0.  1.
</event>
<event>
 5    1  0.1258624E-009  0.9118800E+02  0.7815553E-02  0.1125453E+00
         25   -1    0    0    0    0  0.00000000000E+00  0.00000000000E+00  0.99999998245E-14  0.12509000000E+03  0.12509000000E+03 0.  0.
        -13    1    3    3    0    0 -0.43415434695E+02 -0.23285516558E+01 -0.14911040492E+02  0.45963816368E+02  0.10566000000E+00 0.  1.
         23    2    1    0    0    0  0.67613949826E-02  0.61941255580E+01 -0.31323266563E+02  0.93160166532E+02  0.87517440336E+02 0.  0.
         13    1    3    3    0    0  0.43422196090E+02  0.85226772138E+01 -0.16412226071E+02  0.47196350164E+02  0.10566000000E+00 0. -1.
         22    1    1    0    0    0 -0.67613949826E-02 -0.61941255580E+01  0.31323266563E+02  0.31929833468E+02  0.00000000000E+00 0. -1.
</event>
<event>
 5    1  0.1258624E-009  0.9118800E+02  0.7815553E-02  0.1125453E+00
         25   -1    0    0    0    0  0.00000000000E+00  0.00000000000E+00  0.99999998245E-14  0.12509000000E+03  0.12509000000E+03 0.  0.
        -13    1    3    3    0    0  0.11170505597E+02  0.14805970323E+01 -0.53598720992E+02  0.54770488577E+02  0.10566000000E+00 0.  1.
         23    2    1    0    0    0  0.52039787998E+01 -0.20875537046E+02 -0.19039530573E+02  0.96360691503E+02  0.91978311031E+02 0.  0.
         13    1    3    3    0    0 -0.59665267968E+01 -0.22356134078E+02  0.34559190420E+02  0.41590202926E+02  0.10566000000E+00 0. -1.
         22    1    1    0    0    0 -0.52039787998E+01  0.20875537046E+02  0.19039530573E+02  0.28729308497E+02  0.00000000000E+00 0.  1.
</event>
<event>
 5    1  0.1258624E-009  0.9118800E+02  0.7815553E-02  0.1125453E+00
         25   -1    0    0    0    0  0.00000000000E+00  0.00000000000E+00  0.99999998245E-14  0.12509000000E+03  0.12509000000E+03 0.  0.
        -13    1    3    3    0    0 -0.23881070870E+01 -0.16865478350E+02 -0.53204961944E+02  0.55865253556E+02  0.10566000000E+00 0.  1.
         23    2    1    0    0    0 -0.19254162830E+02  0.15231191328E+01 -0.22186698104E+02  0.95674149664E+02  0.91039830091E+02 0.  0.
         13    1    3    3    0    0 -0.16866055743E+02  0.18388597483E+02  0.31018263839E+02  0.39808896108E+02  0.10566000000E+00 0. -1.
         22    1    1    0    0    0  0.19254162830E+02 -0.15231191328E+01  0.22186698104E+02  0.29415850336E+02  0.00000000000E+00 0.  1.
</event>
<event>
 5    1  0.1258624E-009  0.9118800E+02  0.7815553E-02  0.1125453E+00
         25   -1    0    0    0    0  0.00000000000E+00  0.00000000000E+00  0.99999998245E-14  0.12509000000E+03  0.12509000000E+03 0.  0.
        -13    1    3    3    0    0  0.17729946601E+02 -0.11117831342E+02  0.34567350799E+02  0.40408787232E+02  0.10566000000E+00 0.  1.
         23    2    1    0    0    0  0.27668057997E+02  0.10326794538E+02 -0.12456099065E+02  0.93038190025E+02  0.87342923471E+02 0.  0.
         13    1    3    3    0    0  0.99381113956E+01  0.21444625879E+02 -0.47023449864E+02  0.52629402793E+02  0.10566000000E+00 0. -1.
         22    1    1    0    0    0 -0.27668057997E+02 -0.10326794538E+02  0.12456099065E+02  0.32051809975E+02  0.00000000000E+00 0. -1.
</event>
<event>
 5    1  0.1258624E-009  0.9118800E+02  0.7815553E-02  0.1125453E+00
         25   -1    0    0    0    0  0.00000000000E+00  0.00000000000E+00  0.99999998245E-14  0.12509000000E+03  0.12509000000E+03 0.  0.
        -13    1    3    3    0    0 -0.16145915926E+02  0.17277907018E+01 -0.28804852608E+02  0.33066698650E+02  0.10566000000E+00 0.  1.
         23    2    1    0    0    0  0.16939542036E+02  0.92279180005E+01  0.23050119100E+02  0.95033211323E+02  0.90154870688E+02 0.  0.
         13    1    3    3    0    0  0.33085457962E+02  0.75001272987E+01  0.51854971708E+02  0.61966512674E+02  0.10566000000E+00 0. -1.
         22    1    1    0    0    0 -0.16939542036E+02 -0.92279180005E+01 -0.23050119100E+02  0.30056788677E+02  0.00000000000E+00 0. -1.
</event>
<event>
 5    1  0.1258624E-009  0.9118800E+02  0.7815553E-02  0.1125453E+00
         25   -1    0    0    0    0  0.00000000000E+00  0.00000000000E+00  0.99999998245E-14  0.12509000000E+03  0.12509000000E+03 0.  0.
        -13    1    3    3    0    0 -0.10754060624E+02  0.20142339984E+02  0.24563590906E+02  0.33537215778E+02  0.10566000000E+00 0. -1.
         23    2    1    0    0    0  0.24376779307E+02 -0.10469460576E+02 -0.14954906223E+02  0.94635341994E+02  0.89601125886E+02 0.  0.
         13    1    3    3    0    0  0.35130839930E+02 -0.30611800560E+02 -0.39518497129E+02  0.61098126216E+02  0.10566000000E+00 0.  1.
         22    1    1    0    0    0 -0.24376779307E+02  0.10469460576E+02  0.14954906223E+02  0.30454658006E+02  0.00000000000E+00 0.  1.
</event>
<event>
 5    1  0.1258624E-009  0.9118800E+02  0.7815553E-02  0.1125453E+00
         25   -1    0    0    0    0  0.00000000000E+00  0.00000000000E+00  0.99999998245E-14  0.12509000000E+03  0.12509000000E+03 0.  0.
        -13    1    3    3    0    0 -0.34974303091E+02 -0.27578681090E+02  0.22852647366E+02  0.50060365391E+02  0.10566000000E+00 0. -1.
         23    2    1    0    0    0 -0.22504093693E+02  0.14928675104E+02  0.62312893197E+01  0.97374868034E+02  0.93347396240E+02 0.  0.
         13    1    3    3    0    0  0.12470209399E+02  0.42507356194E+02 -0.16621358046E+02  0.47314502644E+02  0.10566000000E+00 0.  1.
         22    1    1    0    0    0  0.22504093693E+02 -0.14928675104E+02 -0.62312893197E+01  0.27715131966E+02  0.00000000000E+00 0. -1.
</event>
<event>
 5    1  0.1258624E-009  0.9118800E+02  0.7815553E-02  0.1125453E+00
         25   -1    0    0    0    0  0.00000000000E+00  0.00000000000E+00  0.99999998245E-14  0.12509000000E+03  0.12509000000E+03 0.  0.
        -13    1    3    3    0    0 -0.28193868280E+02 -0.12781648199E+02 -0.47566744327E+02  0.56752718606E+02  0.10566000000E+00 0.  1.
         23    2    1    0    0    0  0.21898157560E+01 -0.17757332027E+02 -0.21701257182E+02  0.96964163176E+02  0.92795399905E+02 0.  0.
         13    1    3    3    0    0  0.30383684035E+02 -0.49756838281E+01  0.25865487146E+02  0.40211444570E+02  0.10566000000E+00 0. -1.
         22    1    1    0    0    0 -0.21898157560E+01  0.17757332027E+02  0.21701257182E+02  0.28125836824E+02  0.00000000000E+00 0.  1.
</event>
<event>
 5    1  0.1258624E-009  0.9118800E+02  0.7815553E-02  0.1125453E+00
         25   -1    0    0    0    0  0.00000000000E+00  0.00000000000E+00  0.99999998245E-14  0.12509000000E+03  0.12509000000E+03 0.  0.
        -13    1    3    3    0    0 -0.19225751808E+02  0.35480254623E+02  0.21505379517E+02  0.45727131037E+02  0.10566000000E+00 0.  1.
         23    2    1    0    0    0 -0.12983835553E+02  0.90996987029E+01 -0.22591226511E+02  0.97490217077E+02  0.93501841738E+02 0.  0.
         13    1    3    3    0    0  0.62419162551E+01 -0.26380555920E+02 -0.44096606028E+02  0.51763086040E+02  0.10566000000E+00 0. -1.
         22    1    1    0    0    0  0.12983835553E+02 -0.90996987029E+01  0.22591226511E+02  0.27599782923E+02  0.00000000000E+00 0. -1.
</event>
<event>
 5    1  0.1258624E-009  0.9118800E+02  0.7815553E-02  0.1125453E+00
         25   -1    0    0    0    0  0.00000000000E+00  0.00000000000E+00  0.99999998245E-14  0.12509000000E+03  0.12509000000E+03 0.  0.
        -13    1    3    3    0    0 -0.57865300089E+01  0.25016692409E+02 -0.56950711871E+02  0.62471702196E+02  0.10566000000E+00 0. -1.
         23    2    1    0    0    0 -0.89868285892E+00  0.12833967219E+02 -0.26464454201E+02  0.95664064473E+02  0.91025971843E+02 0.  0.
         13    1    3    3    0    0  0.48878471500E+01 -0.12182725190E+02  0.30486257669E+02  0.33192362277E+02  0.10566000000E+00 0.  1.
         22    1    1    0    0    0  0.89868285892E+00 -0.12833967219E+02  0.26464454201E+02  0.29425935527E+02  0.00000000000E+00 0. -1.
</event>
<event>
 5    1  0.1258624E-009  0.9118800E+02  0.7815553E-02  0.1125453E+00
         25   -1    0    0    0    0  0.00000000000E+00  0.00000000000E+00  0.99999998245E-14  0.12509000000E+03  0.12509000000E+03 0.  0.
        -13    1    3    3    0    0  0.32574262035E+02  0.10147849892E+02  0.19414613160E+02  0.39255569958E+02  0.10566000000E+00 0. -1.
         23    2    1    0    0    0  0.81175667633E+01 -0.10802725477E+02 -0.26503422237E+02  0.95340627600E+02  0.90580406894E+02 0.  0.
         13    1    3    3    0    0 -0.24456695272E+02 -0.20950575369E+02 -0.45918035397E+02  0.56085057642E+02  0.10566000000E+00 0.  1.
         22    1    1    0    0    0 -0.81175667633E+01  0.10802725477E+02  0.26503422237E+02  0.29749372400E+02  0.00000000000E+00 0.  1.
</event>
<event>
 5    1  0.1258624E-009  0.9118800E+02  0.7815553E-02  0.1125453E+00
         25   -1    0    0    0    0  0.00000000000E+00  0.00000000000E+00  0.99999998245E-14  0.12509000000E+03  0.12509000000E+03 0.  0.
        -13    1    3    3    0    0  0.16904985302E+02  0.19140748902E+02 -0.48326182725E+02  0.54658740357E+02  0.10566000000E+00 0.  1.
         23    2    1    0    0    0 -0.24974574616E+01  0.22213677085E+02 -0.45353467060E+02  0.74526953041E+02  0.54750753528E+02 0.  0.
         13    1    3    3    0    0 -0.19402442764E+02  0.30729281834E+01  0.29727156650E+01  0.19868212685E+02  0.10566000000E+00 0. -1.
         22    1    1    0    0    0  0.24974574616E+01 -0.22213677085E+02  0.45353467060E+02  0.50563046959E+02  0.00000000000E+00 0.  1.
</event>
<event>
 5    1  0.1258624E-009  0.9118800E+02  0.7815553E-02  0.1125453E+00
         25   -1    0    0    0    0  0.00000000000E+00  0.00000000000E+00  0.99999998245E-14  0.12509000000E+03  0.12509000000E+03 0.  0.
        -13    1    3    3    0    0  0.20998234262E+02  0.34202634555E+01  0.55371026359E+02  0.59317668264E+02  0.10566000000E+00 0. -1.
         23    2    1    0    0    0  0.21397866480E+02 -0.33116459867E+01  0.19079387489E+02  0.96230708325E+02  0.91801364416E+02 0.  0.
         13    1    3    3    0    0  0.39963221790E+00 -0.67319094422E+01 -0.36291638870E+02  0.36913040061E+02  0.10566000000E+00 0.  1.
         22    1    1    0    0    0 -0.21397866480E+02  0.33116459867E+01 -0.19079387489E+02  0.28859291675E+02  0.00000000000E+00 0. -1.
</event>
<event>
 5    1  0.1258624E-009  0.9118800E+02  0.7815553E-02  0.1125453E+00
         25   -1    0    0    0    0  0.00000000000E+00  0.00000000000E+00  0.99999998245E-14  0.12509000000E+03  0.12509000000E+03 0.  0.
        -13    1    3    3    0    0 -0.42812472349E+02 -0.34714350308E+02 -0.28147505320E+02  0.61889313502E+02  0.10566000000E+00 0.  1.
         23    2    1    0    0    0 -0.23038306449E+02 -0.17790895393E+02 -0.77205719832E+01  0.94975439490E+02  0.90074676529E+02 0.  0.
         13    1    3    3    0    0  0.19774165900E+02  0.16923454915E+02  0.20426933337E+02  0.33086125988E+02  0.10566000000E+00 0. -1.
         22    1    1    0    0    0  0.23038306449E+02  0.17790895393E+02  0.77205719832E+01  0.30114560510E+02  0.00000000000E+00 0.  1.
</event>
<event>
 5    1  0.1258624E-009  0.9118800E+02  0.7815553E-02  0.1125453E+00
         25   -1    0    0    0    0  0.00000000000E+00  0.00000000000E+00  0.99999998245E-14  0.12509000000E+03  0.12509000000E+03 0.  0.
        -13    1    3    3    0    0 -0.49702098441E+02  0.35894652086E+02 -0.11657999154E+01  0.61319612615E+02  0.10566000000E+00 0.  1.
         23    2    1    0    0    0 -0.26474346527E+02  0.13888586586E+02  0.70901425734E+01  0.94364538521E+02  0.89222262621E+02 0.  0.
         13    1    3    3    0    0  0.23227751914E+02 -0.22006065500E+02  0.82559424887E+01  0.33044925906E+02  0.10566000000E+00 0. -1.
         22    1    1    0    0    0  0.26474346527E+02 -0.13888586586E+02 -0.70901425734E+01  0.30725461479E+02  0.00000000000E+00 0.  1.
</event>
<event>
 5    1  0.1258624E-009  0.9118800E+02  0.7815553E-02  0.1125453E+00
         25   -1    0    0    0    0  0.00000000000E+00  0.00000000000E+00  0.99999998245E-14  0.12509000000E+03  0.12509000000E+03 0.  0.
        -13    1    3    3    0    0 -0.30683433560E+02 -0.16412850555E+01 -0.60591004836E+01  0.31319175825E+02  0.10566000000E+00 0.  1.
         23    2    1    0    0    0  0.29228892241E+02 -0.13399809034E+02 -0.60345826797E+01  0.92374572264E+02  0.86387281408E+02 0.  0.
         13    1    3    3    0    0  0.59912325802E+02 -0.11758523979E+02  0.24517803920E-01  0.61055396439E+02  0.10566000000E+00 0. -1.
         22    1    1    0    0    0 -0.29228892241E+02  0.13399809034E+02  0.60345826797E+01  0.32715427736E+02  0.00000000000E+00 0. -1.
</event>
<event>
 5    1  0.1258624E-009  0.9118800E+02  0.7815553E-02  0.1125453E+00
         25   -1    0    0    0    0  0.00000000000E+00  0.00000000000E+00  0.99999998245E-14  0.12509000000E+03  0.12509000000E+03 0.  0.
        -13    1    3    3    0    0  0.45856205577E+02  0.56345668327E+00 -0.34120168661E+01  0.45986542558E+02  0.10566000000E+00 0.  1.
         23    2    1    0    0    0  0.51913511453E+01 -0.24889934724E+02 -0.15305697464E+02  0.95413016459E+02  0.90680319572E+02 0.  0.
         13    1    3    3    0    0 -0.40664854431E+02 -0.25453391407E+02 -0.11893680598E+02  0.49426473900E+02  0.10566000000E+00 0. -1.
         22    1    1    0    0    0 -0.51913511453E+01  0.24889934724E+02  0.15305697464E+02  0.29676983541E+02  0.00000000000E+00 0. -1.
</event>
<event>
 5    1  0.1258624E-009  0.9118800E+02  0.7815553E-02  0.1125453E+00
         25   -1    0    0    0    0  0.00000000000E+00  0.00000000000E+00  0.99999998245E-14  0.12509000000E+03  0.12509000000E+03 0.  0.
        -13    1    3    3    0    0  0.15078508489E+01  0.23453167076E+02 -0.55770573236E+02  0.60520183932E+02  0.10566000000E+00 0. -1.
         23    2    1    0    0    0  0.11957735964E+02  0.12071360003E+02 -0.26703204337E+02  0.93439308008E+02  0.87915516135E+02 0.  0.
         13    1    3    3    0    0  0.10449885115E+02 -0.11381807072E+02  0.29067368899E+02  0.32919124076E+02  0.10566000000E+00 0.  1.
         22    1    1    0    0    0 -0.11957735964E+02 -0.12071360003E+02  0.26703204337E+02  0.31650691992E+02  0.00000000000E+00 0. -1.
</event>
<event>
 5    1  0.1258624E-009  0.9118800E+02  0.7815553E-02  0.1125453E+00
         25   -1    0    0    0    0  0.00000000000E+00  0.00000000000E+00  0.99999998245E-14  0.12509000000E+03  0.12509000000E+03 0.  0.
        -13    1    3    3    0    0  0.30057299147E+02 -0.15254202221E+02  0.44633319505E+02  0.55930995803E+02  0.10566000000E+00 0. -1.
         23    2    1    0    0    0  0.34717607541E+02 -0.16458297831E+02  0.18604355772E+02  0.82401478187E+02  0.70481867972E+02 0.  0.
         13    1    3    3    0    0  0.46603083937E+01 -0.12040956107E+01 -0.26028963734E+02  0.26470482384E+02  0.10566000000E+00 0.  1.
         22    1    1    0    0    0 -0.34717607541E+02  0.16458297831E+02 -0.18604355772E+02  0.42688521813E+02  0.00000000000E+00 0. -1.
</event>
<event>
 5    1  0.1258624E-009  0.9118800E+02  0.7815553E-02  0.1125453E+00
         25   -1    0    0    0    0  0.00000000000E+00  0.00000000000E+00  0.99999998245E-14  0.12509000000E+03  0.12509000000E+03 0.  0.
        -13    1    3    3    0    0  0.45615435337E+02  0.74033513124E+01  0.28065778859E+02  0.54067334488E+02  0.10566000000E+00 0. -1.
         23    2    1    0    0    0  0.19027630756E+02  0.26388915340E+02  0.12792345812E+02  0.90131886544E+02  0.83076394214E+02 0.  0.
         13    1    3    3    0    0 -0.26587804581E+02  0.18985564028E+02 -0.15273433047E+02  0.36064552056E+02  0.10566000000E+00 0.  1.
         22    1    1    0    0    0 -0.19027630756E+02 -0.26388915340E+02 -0.12792345812E+02  0.34958113456E+02  0.00000000000E+00 0. -1.
</event>
<event>
 5    1  0.1258624E-009  0.9118800E+02  0.7815553E-02  0.1125453E+00
         25   -1    0    0    0    0  0.00000000000E+00  0.00000000000E+00  0.99999998245E-14  0.12509000000E+03  0.12509000000E+03 0.  0.
        -13    1    3    3    0    0 -0.41140953778E+02 -0.95542245221E+01 -0.33197908720E+02  0.53721258282E+02  0.10566000000E+00 0.  1.
         23    2    1    0    0    0 -0.38690408304E+00 -0.11728258200E+02 -0.27832888216E+02  0.94884513717E+02  0.89948315947E+02 0.  0.
         13    1    3    3    0    0  0.40754049695E+02 -0.21740336777E+01  0.53650205044E+01  0.41163255435E+02  0.10566000000E+00 0. -1.
         22    1    1    0    0    0  0.38690408304E+00  0.11728258200E+02  0.27832888216E+02  0.30205486283E+02  0.00000000000E+00 0. -1.
</event>
<event>
 5    1  0.1258624E-009  0.9118800E+02  0.7815553E-02  0.1125453E+00
         25   -1    0    0    0    0  0.00000000000E+00  0.00000000000E+00  0.99999998245E-14  0.12509000000E+03  0.12509000000E+03 0.  0.
        -13    1    3    3    0    0 -0.22019220408E+02 -0.56466784632E+02  0.87452844916E+01  0.61235896326E+02  0.10566000000E+00 0. -1.
         23    2    1    0    0    0 -0.18515921462E+02 -0.23541751236E+02  0.16819192924E+01  0.95091962542E+02  0.90236351260E+02 0.  0.
         13    1    3    3    0    0  0.35032989460E+01  0.32925033396E+02 -0.70633651992E+01  0.33856066215E+02  0.10566000000E+00 0.  1.
         22    1    1    0    0    0  0.18515921462E+02  0.23541751236E+02 -0.16819192924E+01  0.29998037458E+02  0.00000000000E+00 0. -1.
</event>
<event>
 5    1  0.1258624E-009  0.9118800E+02  0.7815553E-02  0.1125453E+00
         25   -1    0    0    0    0  0.00000000000E+00  0.00000000000E+00  0.99999998245E-14  0.12509000000E+03  0.12509000000E+03 0.  0.
        -13    1    3    3    0    0  0.95637007267E+01  0.55134562602E+02 -0.27997689592E+01  0.56027977254E+02  0.10566000000E+00 0.  1.
         23    2    1    0    0    0  0.77032529121E+01  0.22050527419E+02  0.18391405392E+02  0.95361063639E+02  0.90608624320E+02 0.  0.
         13    1    3    3    0    0 -0.18604478146E+01 -0.33084035183E+02  0.21191174351E+02  0.39333086384E+02  0.10566000000E+00 0. -1.
         22    1    1    0    0    0 -0.77032529121E+01 -0.22050527419E+02 -0.18391405392E+02  0.29728936361E+02  0.00000000000E+00 0. -1.
</event>
<event>
 5    1  0.1258624E-009  0.9118800E+02  0.7815553E-02  0.1125453E+00
         25   -1    0    0    0    0  0.00000000000E+00  0.00000000000E+00  0.99999998245E-14  0.12509000000E+03  0.12509000000E+03 0.  0.
        -13    1    3    3    0    0  0.31332428870E+02  0.17244027277E+02 -0.26049706255E+02  0.44245631826E+02  0.10566000000E+00 0.  1.
         23    2    1    0    0    0  0.11880163615E+02  0.64837680915E+00  0.22794071702E+02  0.99377583063E+02  0.95993622864E+02 0.  0.
         13    1    3    3    0    0 -0.19452265255E+02 -0.16595650468E+02  0.48843777957E+02  0.55131951237E+02  0.10566000000E+00 0. -1.
         22    1    1    0    0    0 -0.11880163615E+02 -0.64837680915E+00 -0.22794071702E+02  0.25712416937E+02  0.00000000000E+00 0.  1.
</event>
<event>
 5    1  0.1258624E-009  0.9118800E+02  0.7815553E-02  0.1125453E+00
         25   -1    0    0    0    0  0.00000000000E+00  0.00000000000E+00  0.99999998245E-14  0.12509000000E+03  0.12509000000E+03 0.  0.
        -13    1    3    3    0    0  0.45379932457E+02 -0.33532652022E+02 -0.24030696949E+02  0.61329133218E+02  0.10566000000E+00 0.  1.
         23    2    1    0    0    0  0.16005538127E+02 -0.22133553686E+02 -0.14005064325E+02  0.94394507232E+02  0.89264268996E+02 0.  0.
         13    1    3    3    0    0 -0.29374394331E+02  0.11399098336E+02  0.10025632624E+02  0.33065374014E+02  0.10566000000E+00 0. -1.
         22    1    1    0    0    0 -0.16005538127E+02  0.22133553686E+02  0.14005064325E+02  0.30695492768E+02  0.00000000000E+00 0.  1.
</event>
<event>
 5    1  0.1258624E-009  0.9118800E+02  0.7815553E-02  0.1125453E+00
         25   -1    0    0    0    0  0.00000000000E+00  0.00000000000E+00  0.99999998245E-14  0.12509000000E+03  0.12509000000E+03 0.  0.
        -13    1    3    3    0    0 -0.58631866129E+02 -0.16849211940E+02  0.58799418130E+01  0.61287654128E+02  0.10566000000E+00 0.  1.
         23    2    1    0    0    0 -0.27630744761E+02  0.71383968904E+00  0.54332747493E+01  0.96921079224E+02  0.92737303715E+02 0.  0.
         13    1    3    3    0    0  0.31001121368E+02  0.17563051629E+02 -0.44666706374E+00  0.35633425096E+02  0.10566000000E+00 0. -1.
         22    1    1    0    0    0  0.27630744761E+02 -0.71383968904E+00 -0.54332747493E+01  0.28168920776E+02  0.00000000000E+00 0.  1.
</event>
<event>
 5    1  0.1258624E-009  0.9118800E+02  0.7815553E-02  0.1125453E+00
         25   -1    0    0    0    0  0.00000000000E+00  0.00000000000E+00  0.99999998245E-14  0.12509000000E+03  0.12509000000E+03 0.  0.
        -13    1    3    3    0    0 -0.31108588043E+02  0.39671394661E+02 -0.14914953332E+02  0.52574050646E+02  0.10566000000E+00 0.  1.
         23    2    1    0    0    0 -0.11008954612E+02  0.22567557975E+02  0.17581030326E+02  0.94437359300E+02  0.89324299323E+02 0.  0.
         13    1    3    3    0    0  0.20099633431E+02 -0.17103836686E+02  0.32495983659E+02  0.41863308654E+02  0.10566000000E+00 0. -1.
         22    1    1    0    0    0  0.11008954612E+02 -0.22567557975E+02 -0.17581030326E+02  0.30652640700E+02  0.00000000000E+00 0.  1.
</event>
<event>
 5    1  0.1258624E-009  0.9118800E+02  0.7815553E-02  0.1125453E+00
         25   -1    0    0    0    0  0.00000000000E+00  0.00000000000E+00  0.99999998245E-14  0.12509000000E+03  0.12509000000E+03 0.  0.
        -13    1    3    3    0    0  0.26923479391E+02  0.96417965084E+01  0.15426536552E+02  0.32493494371E+02  0.10566000000E+00 0.  1.
         23    2    1    0    0    0 -0.14953656949E+02 -0.85428325385E+01 -0.25841473241E+02  0.94035635038E+02  0.88759940705E+02 0.  0.
         13    1    3    3    0    0 -0.41877136340E+02 -0.18184629047E+02 -0.41268009793E+02  0.61542140667E+02  0.10566000000E+00 0. -1.
         22    1    1    0    0    0  0.14953656949E+02  0.85428325385E+01  0.25841473241E+02  0.31054364962E+02  0.00000000000E+00 0. -1.
</event>
<event>
 5    1  0.1258624E-009  0.9118800E+02  0.7815553E-02  0.1125453E+00
         25   -1    0    0    0    0  0.00000000000E+00  0.00000000000E+00  0.99999998245E-14  0.12509000000E+03  0.12509000000E+03 0.  0.
        -13    1    3    3    0    0 -0.16277108014E+01  0.55387134945E+02 -0.26669163848E+02  0.61495037396E+02  0.10566000000E+00 0. -1.
         23    2    1    0    0    0 -0.24740178689E+01  0.29246673220E+02 -0.53109497697E+01  0.95262247045E+02  0.90472099930E+02 0.  0.
         13    1    3    3    0    0 -0.84630706743E+00 -0.26140461725E+02  0.21358214079E+02  0.33767209649E+02  0.10566000000E+00 0.  1.
         22    1    1    0    0    0  0.24740178689E+01 -0.29246673220E+02  0.53109497697E+01  0.29827752955E+02  0.00000000000E+00 0. -1.
</event>
<event>
 5    1  0.1258624E-009  0.9118800E+02  0.7815553E-02  0.1125453E+00
         25   -1    0    0    0    0  0.00000000000E+00  0.00000000000E+00  0.99999998245E-14  0.12509000000E+03  0.12509000000E+03 0.  0.
        -13    1    3    3    0    0  0.23761989042E+02  0.26765812768E+02 -0.20759499694E+02  0.41376428651E+02  0.10566000000E+00 0.  1.
         23    2    1    0    0    0 -0.15172100276E+02 -0.91679906981E+01 -0.24904769634E+02  0.94520534340E+02  0.89440702039E+02 0.  0.
         13    1    3    3    0    0 -0.38934089318E+02 -0.35933803466E+02 -0.41452699400E+01  0.53144105689E+02  0.10566000000E+00 0. -1.
         22    1    1    0    0    0  0.15172100276E+02  0.91679906981E+01  0.24904769634E+02  0.30569465660E+02  0.00000000000E+00 0.  1.
</event>
<event>
 5    1  0.1258624E-009  0.9118800E+02  0.7815553E-02  0.1125453E+00
         25   -1    0    0    0    0  0.00000000000E+00  0.00000000000E+00  0.99999998245E-14  0.12509000000E+03  0.12509000000E+03 0.  0.
        -13    1    3    3    0    0  0.69261292210E+01  0.25855203623E+01 -0.44029729330E+02  0.44646213842E+02  0.10566000000E+00 0.  1.
         23    2    1    0    0    0  0.26389749602E+02  0.10719709318E+02  0.32526290957E+01  0.96421015924E+02  0.92060315358E+02 0.  0.
         13    1    3    3    0    0  0.19463620381E+02  0.81341889557E+01  0.47282358425E+02  0.51774802082E+02  0.10566000000E+00 0. -1.
         22    1    1    0    0    0 -0.26389749602E+02 -0.10719709318E+02 -0.32526290957E+01  0.28668984076E+02  0.00000000000E+00 0. -1.
</event>
<event>
 5    1  0.1258624E-009  0.9118800E+02  0.7815553E-02  0.1125453E+00
         25   -1    0    0    0    0  0.00000000000E+00  0.00000000000E+00  0.99999998245E-14  0.12509000000E+03  0.12509000000E+03 0.  0.
        -13    1    3    3    0    0 -0.19730329352E+02  0.24062692434E+02 -0.34217364129E+02  0.46250818755E+02  0.10566000000E+00 0.  1.
         23    2    1    0    0    0 -0.17787973803E+01  0.23630361354E+02  0.13905018399E+02  0.97614417485E+02  0.93667853965E+02 0.  0.
         13    1    3    3    0    0  0.17951531972E+02 -0.43233108018E+00  0.48122382528E+02  0.51363598730E+02  0.10566000000E+00 0. -1.
         22    1    1    0    0    0  0.17787973803E+01 -0.23630361354E+02 -0.13905018399E+02  0.27475582515E+02  0.00000000000E+00 0. -1.
</event>
<event>
 5    1  0.1258624E-009  0.9118800E+02  0.7815553E-02  0.1125453E+00
         25   -1    0    0    0    0  0.00000000000E+00  0.00000000000E+00  0.99999998245E-14  0.12509000000E+03  0.12509000000E+03 0.  0.
        -13    1    3    3    0    0 -0.12532940992E+02 -0.43129133235E+02  0.27256338085E+02  0.52536804940E+02  0.10566000000E+00 0.  1.
         23    2    1    0    0    0 -0.31645235237E+01 -0.24452574786E+02 -0.12497286668E+02  0.97447192674E+02  0.93444264475E+02 0.  0.
         13    1    3    3    0    0  0.93684174684E+01  0.18676558449E+02 -0.39753624753E+02  0.44910387734E+02  0.10566000000E+00 0. -1.
         22    1    1    0    0    0  0.31645235237E+01  0.24452574786E+02  0.12497286668E+02  0.27642807326E+02  0.00000000000E+00 0.  1.
</event>
<event>
 5    1  0.1258624E-009  0.9118800E+02  0.7815553E-02  0.1125453E+00
         25   -1    0    0    0    0  0.00000000000E+00  0.00000000000E+00  0.99999998245E-14  0.12509000000E+03  0.12509000000E+03 0.  0.
        -13    1    3    3    0    0 -0.36364899677E+02 -0.87715925523E+01  0.31410560749E+02  0.48846507092E+02  0.10566000000E+00 0.  1.
         23    2    1    0    0    0  0.83625655542E+01 -0.86664470108E+01  0.29056977798E+02  0.93636100954E+02  0.88195077168E+02 0.  0.
         13    1    3    3    0    0  0.44727465231E+02  0.10514554143E+00 -0.23535829512E+01  0.44789593862E+02  0.10566000000E+00 0. -1.
         22    1    1    0    0    0 -0.83625655542E+01  0.86664470108E+01 -0.29056977798E+02  0.31453899046E+02  0.00000000000E+00 0. -1.
</event>
<event>
 5    1  0.1258624E-009  0.9118800E+02  0.7815553E-02  0.1125453E+00
         25   -1    0    0    0    0  0.00000000000E+00  0.00000000000E+00  0.99999998245E-14  0.12509000000E+03  0.12509000000E+03 0.  0.
        -13    1    3    3    0    0  0.33448974769E+02 -0.53240904920E+01 -0.14587494583E+02  0.36877988216E+02  0.10566000000E+00 0.  1.
         23    2    1    0    0    0 -0.16233784058E+02 -0.13985325121E+02  0.18154047409E+02  0.97006294744E+02  0.92852176706E+02 0.  0.
         13    1    3    3    0    0 -0.49682758827E+02 -0.86612346295E+01  0.32741541991E+02  0.60128306528E+02  0.10566000000E+00 0. -1.
         22    1    1    0    0    0  0.16233784058E+02  0.13985325121E+02 -0.18154047409E+02  0.28083705256E+02  0.00000000000E+00 0. -1.
</event>
<event>
 5    1  0.1258624E-009  0.9118800E+02  0.7815553E-02  0.1125453E+00
         25   -1    0    0    0    0  0.00000000000E+00  0.00000000000E+00  0.99999998245E-14  0.12509000000E+03  0.12509000000E+03 0.  0.
        -13    1    3    3    0    0  0.37389901941E+02  0.12923183205E+02  0.47730415576E+02  0.61993686505E+02  0.10566000000E+00 0. -1.
         23    2    1    0    0    0  0.20317492325E+02  0.88690230068E+01  0.17924891753E+02  0.96581022329E+02  0.92277473234E+02 0.  0.
         13    1    3    3    0    0 -0.17072409616E+02 -0.40541601985E+01 -0.29805523824E+02  0.34587335825E+02  0.10566000000E+00 0.  1.
         22    1    1    0    0    0 -0.20317492325E+02 -0.88690230068E+01 -0.17924891753E+02  0.28508977671E+02  0.00000000000E+00 0. -1.
</event>
<event>
 5    1  0.1258624E-009  0.9118800E+02  0.7815553E-02  0.1125453E+00
         25   -1    0    0    0    0  0.00000000000E+00  0.00000000000E+00  0.99999998245E-14  0.12509000000E+03  0.12509000000E+03 0.  0.
        -13    1    3    3    0    0  0.31707352053E+02  0.19415238619E+02  0.19914141931E+02  0.42176911666E+02  0.10566000000E+00 0. -1.
         23    2    1    0    0    0  0.13052626165E+01  0.14939442088E+02 -0.24606832098E+02  0.96273566732E+02  0.91859745400E+02 0.  0.
         13    1    3    3    0    0 -0.30402089436E+02 -0.44757965311E+01 -0.44520974030E+02  0.54096655065E+02  0.10566000000E+00 0.  1.
         22    1    1    0    0    0 -0.13052626165E+01 -0.14939442088E+02  0.24606832098E+02  0.28816433268E+02  0.00000000000E+00 0. -1.
</event>
<event>
 5    1  0.1258624E-009  0.9118800E+02  0.7815553E-02  0.1125453E+00
         25   -1    0    0    0    0  0.00000000000E+00  0.00000000000E+00  0.99999998245E-14  0.12509000000E+03  0.12509000000E+03 0.  0.
        -13    1    3    3    0    0  0.13053383560E+02  0.33707551843E+02 -0.19599789892E+02  0.41118764591E+02  0.10566000000E+00 0.  1.
         23    2    1    0    0    0 -0.26388273223E+02 -0.94817970140E+00 -0.16996749932E+02  0.93687300805E+02  0.88267665741E+02 0.  0.
         13    1    3    3    0    0 -0.39441656783E+02 -0.34655731544E+02  0.26030399594E+01  0.52568536215E+02  0.10566000000E+00 0. -1.
         22    1    1    0    0    0  0.26388273223E+02  0.94817970140E+00  0.16996749932E+02  0.31402699195E+02  0.00000000000E+00 0. -1.
</event>
<event>
 5    1  0.1258624E-009  0.9118800E+02  0.7815553E-02  0.1125453E+00
         25   -1    0    0    0    0  0.00000000000E+00  0.00000000000E+00  0.99999998245E-14  0.12509000000E+03  0.12509000000E+03 0.  0.
        -13    1    3    3    0    0 -0.28049729228E+02  0.35878902721E+02 -0.38546494439E+02  0.59665118519E+02  0.10566000000E+00 0.  1.
         23    2    1    0    0    0 -0.11687417505E+02  0.30301174530E+02 -0.13915208990E+02  0.89757437865E+02  0.82510652070E+02 0.  0.
         13    1    3    3    0    0  0.16362311723E+02 -0.55777281915E+01  0.24631285450E+02  0.30092319346E+02  0.10566000000E+00 0. -1.
         22    1    1    0    0    0  0.11687417505E+02 -0.30301174530E+02  0.13915208990E+02  0.35332562135E+02  0.00000000000E+00 0.  1.
</event>
<event>
 5    1  0.1258624E-009  0.9118800E+02  0.7815553E-02  0.1125453E+00
         25   -1    0    0    0    0  0.00000000000E+00  0.00000000000E+00  0.99999998245E-14  0.12509000000E+03  0.12509000000E+03 0.  0.
        -13    1    3    3    0    0 -0.31552887943E+02  0.10467785427E+02  0.36444473875E+01  0.33443271821E+02  0.10566000000E+00 0.  1.
         23    2    1    0    0    0  0.18932953698E+02 -0.19407256572E+02 -0.13830142893E+02  0.94653653376E+02  0.89626686325E+02 0.  0.
         13    1    3    3    0    0  0.50485841641E+02 -0.29875041999E+02 -0.17474590280E+02  0.61210381555E+02  0.10566000000E+00 0. -1.
         22    1    1    0    0    0 -0.18932953698E+02  0.19407256572E+02  0.13830142893E+02  0.30436346624E+02  0.00000000000E+00 0. -1.
</event>
<event>
 5    1  0.1258624E-009  0.9118800E+02  0.7815553E-02  0.1125453E+00
         25   -1    0    0    0    0  0.00000000000E+00  0.00000000000E+00  0.99999998245E-14  0.12509000000E+03  0.12509000000E+03 0.  0.
        -13    1    3    3    0    0 -0.84604269634E+01 -0.37420980451E+02 -0.97905772038E+01  0.39595140716E+02  0.10566000000E+00 0.  1.
         23    2    1    0    0    0  0.15132614129E+02  0.17257936894E+02 -0.12003142027E+02  0.99188111753E+02  0.95746403058E+02 0.  0.
         13    1    3    3    0    0  0.23593041092E+02  0.54678917345E+02 -0.22125648235E+01  0.59592971038E+02  0.10566000000E+00 0. -1.
         22    1    1    0    0    0 -0.15132614129E+02 -0.17257936894E+02  0.12003142027E+02  0.25901888247E+02  0.00000000000E+00 0. -1.
</event>
<event>
 5    1  0.1258624E-009  0.9118800E+02  0.7815553E-02  0.1125453E+00
         25   -1    0    0    0    0  0.00000000000E+00  0.00000000000E+00  0.99999998245E-14  0.12509000000E+03  0.12509000000E+03 0.  0.
        -13    1    3    3    0    0 -0.22239547189E+02  0.23240333376E+02  0.26422371597E+02  0.41627676364E+02  0.10566000000E+00 0.  1.
         23    2    1    0    0    0  0.14176564680E+02 -0.15767137789E+02  0.20968271261E+02  0.95269771633E+02  0.90482503100E+02 0.  0.
         13    1    3    3    0    0  0.36416111869E+02 -0.39007471165E+02 -0.54541003368E+01  0.53642095269E+02  0.10566000000E+00 0. -1.
         22    1    1    0    0    0 -0.14176564680E+02  0.15767137789E+02 -0.20968271261E+02  0.29820228367E+02  0.00000000000E+00 0. -1.
</event>
<event>
 5    1  0.1258624E-009  0.9118800E+02  0.7815553E-02  0.1125453E+00
         25   -1    0    0    0    0  0.00000000000E+00  0.00000000000E+00  0.99999998245E-14  0.12509000000E+03  0.12509000000E+03 0.  0.
        -13    1    3    3    0    0  0.42587352777E+02 -0.80562464558E+01 -0.25992214062E+02  0.50539015418E+02  0.10566000000E+00 0. -1.
         23    2    1    0    0    0  0.30335690666E+02  0.21785293950E+02 -0.10694731182E+02  0.86241184887E+02  0.76995529318E+02 0.  0.
         13    1    3    3    0    0 -0.12251662111E+02  0.29841540406E+02  0.15297482881E+02  0.35702169469E+02  0.10566000000E+00 0.  1.
         22    1    1    0    0    0 -0.30335690666E+02 -0.21785293950E+02  0.10694731182E+02  0.38848815113E+02  0.00000000000E+00 0. -1.
</event>
<event>
 5    1  0.1258624E-009  0.9118800E+02  0.7815553E-02  0.1125453E+00
         25   -1    0    0    0    0  0.00000000000E+00  0.00000000000E+00  0.99999998245E-14  0.12509000000E+03  0.12509000000E+03 0.  0.
        -13    1    3    3    0    0 -0.27179079939E+01 -0.28905394677E+02  0.18428412914E+02  0.34387882050E+02  0.10566000000E+00 0.  1.
         23    2    1    0    0    0  0.34103467652E+01  0.28655073599E+02 -0.29208674748E+01  0.96085255995E+02  0.91602954345E+02 0.  0.
         13    1    3    3    0    0  0.61282547591E+01  0.57560468276E+02 -0.21349280389E+02  0.61697373945E+02  0.10566000000E+00 0. -1.
         22    1    1    0    0    0 -0.34103467652E+01 -0.28655073599E+02  0.29208674748E+01  0.29004744005E+02  0.00000000000E+00 0. -1.
</event>
<event>
 5    1  0.1258624E-009  0.9118800E+02  0.7815553E-02  0.1125453E+00
         25   -1    0    0    0    0  0.00000000000E+00  0.00000000000E+00  0.99999998245E-14  0.12509000000E+03  0.12509000000E+03 0.  0.
        -13    1    3    3    0    0  0.26812690307E+02 -0.26716389780E+02 -0.47096035664E+02  0.60421300744E+02  0.10566000000E+00 0. -1.
         23    2    1    0    0    0  0.11785748261E+01 -0.12599827280E+02 -0.24927452668E+02  0.97134274600E+02  0.93024430767E+02 0.  0.
         13    1    3    3    0    0 -0.25634115481E+02  0.14116562500E+02  0.22168582995E+02  0.36712973856E+02  0.10566000000E+00 0.  1.
         22    1    1    0    0    0 -0.11785748261E+01  0.12599827280E+02  0.24927452668E+02  0.27955725400E+02  0.00000000000E+00 0. -1.
</event>
<event>
 5    1  0.1258624E-009  0.9118800E+02  0.7815553E-02  0.1125453E+00
         25   -1    0    0    0    0  0.00000000000E+00  0.00000000000E+00  0.99999998245E-14  0.12509000000E+03  0.12509000000E+03 0.  0.
        -13    1    3    3    0    0 -0.45090566641E+02 -0.19621608657E+02  0.15837758224E+02  0.51662486157E+02  0.10566000000E+00 0. -1.
         23    2    1    0    0    0 -0.46782940122E+01 -0.28337602234E+02 -0.11202131208E+01  0.96346983237E+02  0.91959665974E+02 0.  0.
         13    1    3    3    0    0  0.40412272629E+02 -0.87159935766E+01 -0.16957971344E+02  0.44684497079E+02  0.10566000000E+00 0.  1.
         22    1    1    0    0    0  0.46782940122E+01  0.28337602234E+02  0.11202131208E+01  0.28743016763E+02  0.00000000000E+00 0. -1.
</event>
<event>
 5    1  0.1258624E-009  0.9118800E+02  0.7815553E-02  0.1125453E+00
         25   -1    0    0    0    0  0.00000000000E+00  0.00000000000E+00  0.99999998245E-14  0.12509000000E+03  0.12509000000E+03 0.  0.
        -13    1    3    3    0    0 -0.34570112946E+02 -0.12638498123E+02  0.15471322978E+01  0.36840590743E+02  0.10566000000E+00 0.  1.
         23    2    1    0    0    0  0.23328686024E+02 -0.11170746326E+02  0.13401852581E+02  0.95958868582E+02  0.91430200928E+02 0.  0.
         13    1    3    3    0    0  0.57898798971E+02  0.14677517962E+01  0.11854720283E+02  0.59118277839E+02  0.10566000000E+00 0. -1.
         22    1    1    0    0    0 -0.23328686024E+02  0.11170746326E+02 -0.13401852581E+02  0.29131131418E+02  0.00000000000E+00 0. -1.
</event>
<event>
 5    1  0.1258624E-009  0.9118800E+02  0.7815553E-02  0.1125453E+00
         25   -1    0    0    0    0  0.00000000000E+00  0.00000000000E+00  0.99999998245E-14  0.12509000000E+03  0.12509000000E+03 0.  0.
        -13    1    3    3    0    0 -0.56179367769E+02 -0.45681718812E+01  0.23311626151E+02  0.60995349291E+02  0.10566000000E+00 0.  1.
         23    2    1    0    0    0 -0.26235474733E+02  0.77044216219E+01  0.10585815170E+02  0.95769056464E+02  0.91170140102E+02 0.  0.
         13    1    3    3    0    0  0.29943893036E+02  0.12272593503E+02 -0.12725810982E+02  0.34773707174E+02  0.10566000000E+00 0. -1.
         22    1    1    0    0    0  0.26235474733E+02 -0.77044216219E+01 -0.10585815170E+02  0.29320943536E+02  0.00000000000E+00 0.  1.
</event>
<event>
 5    1  0.1258624E-009  0.9118800E+02  0.7815553E-02  0.1125453E+00
         25   -1    0    0    0    0  0.00000000000E+00  0.00000000000E+00  0.99999998245E-14  0.12509000000E+03  0.12509000000E+03 0.  0.
        -13    1    3    3    0    0 -0.51472885156E+02  0.32123650333E+02  0.56660454785E+01  0.60938510422E+02  0.10566000000E+00 0. -1.
         23    2    1    0    0    0 -0.27324065579E+02  0.69278899769E+01  0.76089828167E+01  0.95892451493E+02  0.91339287356E+02 0.  0.
         13    1    3    3    0    0  0.24148819577E+02 -0.25195760356E+02  0.19429373382E+01  0.34953941072E+02  0.10566000000E+00 0.  1.
         22    1    1    0    0    0  0.27324065579E+02 -0.69278899769E+01 -0.76089828167E+01  0.29197548507E+02  0.00000000000E+00 0. -1.
</event>
<event>
 5    1  0.1258624E-009  0.9118800E+02  0.7815553E-02  0.1125453E+00
         25   -1    0    0    0    0  0.00000000000E+00  0.00000000000E+00  0.99999998245E-14  0.12509000000E+03  0.12509000000E+03 0.  0.
        -13    1    3    3    0    0 -0.70104928963E+01 -0.29434269966E+02  0.23196711329E+02  0.38126392953E+02  0.10566000000E+00 0. -1.
         23    2    1    0    0    0 -0.19287549366E+02  0.22047236493E+02  0.29195298149E+00  0.95795368511E+02  0.91206234403E+02 0.  0.
         13    1    3    3    0    0 -0.12277056470E+02  0.51481506459E+02 -0.22904758348E+02  0.57668975558E+02  0.10566000000E+00 0.  1.
         22    1    1    0    0    0  0.19287549366E+02 -0.22047236493E+02 -0.29195298149E+00  0.29294631489E+02  0.00000000000E+00 0.  1.
</event>
<event>
 4    1  0.1258624E-009  0.9118800E+02  0.7815553E-02  0.1125453E+00
         25   -1    0    0    0    0  0.00000000000E+00  0.00000000000E+00  0.99999998245E-14  0.12509000000E+03  0.12509000000E+03 0.  0.
        -13    1    1    0    0    0 -0.18901542652E+02  0.43906050705E+02 -0.37684481685E+02  0.60869868794E+02  0.10566000000E+00 0.  1.
         13    1    1    0    0    0  0.61453994069E+01 -0.15997705847E+01  0.10705026953E+02  0.12447247322E+02  0.10566000000E+00 0. -1.
         22    1    1    0    0    0  0.12756143245E+02 -0.42306280120E+02  0.26979454732E+02  0.51772883885E+02  0.00000000000E+00 0.  1.
</event>
<event>
 5    1  0.1258624E-009  0.9118800E+02  0.7815553E-02  0.1125453E+00
         25   -1    0    0    0    0  0.00000000000E+00  0.00000000000E+00  0.99999998245E-14  0.12509000000E+03  0.12509000000E+03 0.  0.
        -13    1    3    3    0    0 -0.35666656123E+02  0.25237363907E+02  0.13991877495E+02  0.45878303105E+02  0.10566000000E+00 0. -1.
         23    2    1    0    0    0 -0.23635293177E+02 -0.11794907381E+02 -0.15263925908E+02  0.94582060741E+02  0.89526710295E+02 0.  0.
         13    1    3    3    0    0  0.12031362945E+02 -0.37032271288E+02 -0.29255803403E+02  0.48703757636E+02  0.10566000000E+00 0.  1.
         22    1    1    0    0    0  0.23635293177E+02  0.11794907381E+02  0.15263925908E+02  0.30507939259E+02  0.00000000000E+00 0.  1.
</event>
<event>
 5    1  0.1258624E-009  0.9118800E+02  0.7815553E-02  0.1125453E+00
         25   -1    0    0    0    0  0.00000000000E+00  0.00000000000E+00  0.99999998245E-14  0.12509000000E+03  0.12509000000E+03 0.  0.
        -13    1    3    3    0    0  0.53204632094E+02  0.30660009954E+01 -0.26217127361E+01  0.53357452901E+02  0.10566000000E+00 0.  1.
         23    2    1    0    0    0  0.23355752223E+02  0.74139956789E+01 -0.24359360016E+02  0.90538054841E+02  0.83685736301E+02 0.  0.
         13    1    3    3    0    0 -0.29848879871E+02  0.43479946836E+01 -0.21737647280E+02  0.37180601940E+02  0.10566000000E+00 0. -1.
         22    1    1    0    0    0 -0.23355752223E+02 -0.74139956789E+01  0.24359360016E+02  0.34551945159E+02  0.00000000000E+00 0.  1.
</event>
<event>
 5    1  0.1258624E-009  0.9118800E+02  0.7815553E-02  0.1125453E+00
         25   -1    0    0    0    0  0.00000000000E+00  0.00000000000E+00  0.99999998245E-14  0.12509000000E+03  0.12509000000E+03 0.  0.
        -13    1    3    3    0    0  0.33498541280E+02  0.62724831155E+01  0.45961534009E+02  0.57218616593E+02  0.10566000000E+00 0.  1.
         23    2    1    0    0    0  0.13498594129E+01  0.12995406148E+02  0.26878552208E+02  0.95204229637E+02  0.90391847368E+02 0.  0.
         13    1    3    3    0    0 -0.32148681867E+02  0.67229230321E+01 -0.19082981801E+02  0.37985613044E+02  0.10566000000E+00 0. -1.
         22    1    1    0    0    0 -0.13498594129E+01 -0.12995406148E+02 -0.26878552208E+02  0.29885770363E+02  0.00000000000E+00 0.  1.
</event>
<event>
 5    1  0.1258624E-009  0.9118800E+02  0.7815553E-02  0.1125453E+00
         25   -1    0    0    0    0  0.00000000000E+00  0.00000000000E+00  0.99999998245E-14  0.12509000000E+03  0.12509000000E+03 0.  0.
        -13    1    3    3    0    0 -0.24851602117E+02  0.19446526797E+02 -0.27404929728E+02  0.41794866547E+02  0.10566000000E+00 0. -1.
         23    2    1    0    0    0  0.23781982433E+02  0.42233296825E+01 -0.20862091905E+02  0.93173764622E+02  0.87536874133E+02 0.  0.
         13    1    3    3    0    0  0.48633584550E+02 -0.15223197115E+02  0.65428378223E+01  0.51378898075E+02  0.10566000000E+00 0.  1.
         22    1    1    0    0    0 -0.23781982433E+02 -0.42233296825E+01  0.20862091905E+02  0.31916235378E+02  0.00000000000E+00 0.  1.
</event>
<event>
 5    1  0.1258624E-009  0.9118800E+02  0.7815553E-02  0.1125453E+00
         25   -1    0    0    0    0  0.00000000000E+00  0.00000000000E+00  0.99999998245E-14  0.12509000000E+03  0.12509000000E+03 0.  0.
        -13    1    3    3    0    0  0.26666962186E+02  0.24530550556E+02  0.25164143424E+02  0.44114850799E+02  0.10566000000E+00 0. -1.
         23    2    1    0    0    0 -0.20197537433E+02  0.92781628119E+01  0.22487703761E+02  0.93471624901E+02  0.87961485990E+02 0.  0.
         13    1    3    3    0    0 -0.46864499618E+02 -0.15252387744E+02 -0.26764396631E+01  0.49356774101E+02  0.10566000000E+00 0.  1.
         22    1    1    0    0    0  0.20197537433E+02 -0.92781628119E+01 -0.22487703761E+02  0.31618375099E+02  0.00000000000E+00 0.  1.
</event>
<event>
 5    1  0.1258624E-009  0.9118800E+02  0.7815553E-02  0.1125453E+00
         25   -1    0    0    0    0  0.00000000000E+00  0.00000000000E+00  0.99999998245E-14  0.12509000000E+03  0.12509000000E+03 0.  0.
        -13    1    3    3    0    0  0.38566992474E+02 -0.20323591517E+02 -0.32213290281E+02  0.54204875384E+02  0.10566000000E+00 0.  1.
         23    2    1    0    0    0  0.17461639043E+02  0.12815254977E+02 -0.20659415119E+02  0.95157558882E+02  0.90327238312E+02 0.  0.
         13    1    3    3    0    0 -0.21105353431E+02  0.33138846494E+02  0.11553875162E+02  0.40952683498E+02  0.10566000000E+00 0. -1.
         22    1    1    0    0    0 -0.17461639043E+02 -0.12815254977E+02  0.20659415119E+02  0.29932441118E+02  0.00000000000E+00 0. -1.
</event>
<event>
 5    1  0.1258624E-009  0.9118800E+02  0.7815553E-02  0.1125453E+00
         25   -1    0    0    0    0  0.00000000000E+00  0.00000000000E+00  0.99999998245E-14  0.12509000000E+03  0.12509000000E+03 0.  0.
        -13    1    3    3    0    0 -0.13007464624E+02  0.18686604589E+02  0.28671341106E+02  0.36612023870E+02  0.10566000000E+00 0.  1.
         23    2    1    0    0    0  0.30695488495E+02  0.78541947081E+00 -0.41231159671E+01  0.94108876989E+02  0.88863101146E+02 0.  0.
         13    1    3    3    0    0  0.43702953119E+02 -0.17901185118E+02 -0.32794457073E+02  0.57496853120E+02  0.10566000000E+00 0. -1.
         22    1    1    0    0    0 -0.30695488495E+02 -0.78541947081E+00  0.41231159671E+01  0.30981123011E+02  0.00000000000E+00 0. -1.
</event>
<event>
 5    1  0.1258624E-009  0.9118800E+02  0.7815553E-02  0.1125453E+00
         25   -1    0    0    0    0  0.00000000000E+00  0.00000000000E+00  0.99999998245E-14  0.12509000000E+03  0.12509000000E+03 0.  0.
        -13    1    3    3    0    0  0.24950221387E+02  0.13825803725E+02 -0.36525433047E+02  0.46344199412E+02  0.10566000000E+00 0. -1.
         23    2    1    0    0    0 -0.20835452275E+02  0.95886620561E+01 -0.18069464261E+02  0.95891300539E+02  0.91337711099E+02 0.  0.
         13    1    3    3    0    0 -0.45785673662E+02 -0.42371416687E+01  0.18455968786E+02  0.49547101127E+02  0.10566000000E+00 0.  1.
         22    1    1    0    0    0  0.20835452275E+02 -0.95886620561E+01  0.18069464261E+02  0.29198699461E+02  0.00000000000E+00 0.  1.
</event>
<event>
 5    1  0.1258624E-009  0.9118800E+02  0.7815553E-02  0.1125453E+00
         25   -1    0    0    0    0  0.00000000000E+00  0.00000000000E+00  0.99999998245E-14  0.12509000000E+03  0.12509000000E+03 0.  0.
        -13    1    3    3    0    0  0.10434661055E+01  0.42157546506E+01  0.33843946802E+02  0.34121625225E+02  0.10566000000E+00 0. -1.
         23    2    1    0    0    0 -0.12560581646E+02  0.11605739337E+02 -0.24906353917E+02  0.94877620711E+02  0.89938729419E+02 0.  0.
         13    1    3    3    0    0 -0.13604047751E+02  0.73899846867E+01 -0.58750300719E+02  0.60755995486E+02  0.10566000000E+00 0.  1.
         22    1    1    0    0    0  0.12560581646E+02 -0.11605739337E+02  0.24906353917E+02  0.30212379289E+02  0.00000000000E+00 0.  1.
</event>
<event>
 5    1  0.1258624E-009  0.9118800E+02  0.7815553E-02  0.1125453E+00
         25   -1    0    0    0    0  0.00000000000E+00  0.00000000000E+00  0.99999998245E-14  0.12509000000E+03  0.12509000000E+03 0.  0.
        -13    1    3    3    0    0  0.46769154621E+02  0.34908361806E+01  0.33305344261E+02  0.57522142533E+02  0.10566000000E+00 0.  1.
         23    2    1    0    0    0  0.34187173845E+02 -0.61814452927E+01  0.49761011246E+01  0.89993921817E+02  0.82868397234E+02 0.  0.
         13    1    3    3    0    0 -0.12581980775E+02 -0.96722814732E+01 -0.28329243137E+02  0.32471779284E+02  0.10566000000E+00 0. -1.
         22    1    1    0    0    0 -0.34187173845E+02  0.61814452927E+01 -0.49761011246E+01  0.35096078183E+02  0.00000000000E+00 0.  1.
</event>
<event>
 5    1  0.1258624E-009  0.9118800E+02  0.7815553E-02  0.1125453E+00
         25   -1    0    0    0    0  0.00000000000E+00  0.00000000000E+00  0.99999998245E-14  0.12509000000E+03  0.12509000000E+03 0.  0.
        -13    1    3    3    0    0 -0.88764404332E+01 -0.33740698314E+02  0.17573831442E+02  0.39065030821E+02  0.10566000000E+00 0.  1.
         23    2    1    0    0    0 -0.41184745802E+01  0.22346054790E+02 -0.81466099287E+01  0.10095133287E+03  0.98022937913E+02 0.  0.
         13    1    3    3    0    0  0.47579658529E+01  0.56086753104E+02 -0.25720441371E+02  0.61886302048E+02  0.10566000000E+00 0. -1.
         22    1    1    0    0    0  0.41184745802E+01 -0.22346054790E+02  0.81466099287E+01  0.24138667131E+02  0.00000000000E+00 0. -1.
</event>
<event>
 5    1  0.1258624E-009  0.9118800E+02  0.7815553E-02  0.1125453E+00
         25   -1    0    0    0    0  0.00000000000E+00  0.00000000000E+00  0.99999998245E-14  0.12509000000E+03  0.12509000000E+03 0.  0.
        -13    1    3    3    0    0  0.35227795596E+00 -0.36144146360E+02 -0.12198471471E+02  0.38148883157E+02  0.10566000000E+00 0.  1.
         23    2    1    0    0    0 -0.19777919168E+02  0.39339471883E+01  0.22516117597E+02  0.94863892431E+02  0.89919633609E+02 0.  0.
         13    1    3    3    0    0 -0.20130197124E+02  0.40078093548E+02  0.34714589068E+02  0.56715009274E+02  0.10566000000E+00 0. -1.
         22    1    1    0    0    0  0.19777919168E+02 -0.39339471883E+01 -0.22516117597E+02  0.30226107569E+02  0.00000000000E+00 0. -1.
</event>
<event>
 5    1  0.1258624E-009  0.9118800E+02  0.7815553E-02  0.1125453E+00
         25   -1    0    0    0    0  0.00000000000E+00  0.00000000000E+00  0.99999998245E-14  0.12509000000E+03  0.12509000000E+03 0.  0.
        -13    1    3    3    0    0 -0.28685543287E+02 -0.46327601582E+02  0.68156934376E+01  0.54914223140E+02  0.10566000000E+00 0.  1.
         23    2    1    0    0    0 -0.12118365558E+02 -0.20158265827E+02 -0.18698484124E+02  0.95042641156E+02  0.90167953644E+02 0.  0.
         13    1    3    3    0    0  0.16567177729E+02  0.26169335755E+02 -0.25514177562E+02  0.40128418016E+02  0.10566000000E+00 0. -1.
         22    1    1    0    0    0  0.12118365558E+02  0.20158265827E+02  0.18698484124E+02  0.30047358844E+02  0.00000000000E+00 0.  1.
</event>
<event>
 5    1  0.1258624E-009  0.9118800E+02  0.7815553E-02  0.1125453E+00
         25   -1    0    0    0    0  0.00000000000E+00  0.00000000000E+00  0.99999998245E-14  0.12509000000E+03  0.12509000000E+03 0.  0.
        -13    1    3    3    0    0  0.32561591893E+02 -0.11299510306E+02 -0.26434306942E+02  0.43436389667E+02  0.10566000000E+00 0.  1.
         23    2    1    0    0    0 -0.17950441896E+02 -0.17547037960E+02 -0.15790215396E+02  0.95434514711E+02  0.90709970734E+02 0.  0.
         13    1    3    3    0    0 -0.50512033789E+02 -0.62475276535E+01  0.10644091545E+02  0.51998125045E+02  0.10566000000E+00 0. -1.
         22    1    1    0    0    0  0.17950441896E+02  0.17547037960E+02  0.15790215396E+02  0.29655485289E+02  0.00000000000E+00 0.  1.
</event>
<event>
 5    1  0.1258624E-009  0.9118800E+02  0.7815553E-02  0.1125453E+00
         25   -1    0    0    0    0  0.00000000000E+00  0.00000000000E+00  0.99999998245E-14  0.12509000000E+03  0.12509000000E+03 0.  0.
        -13    1    3    3    0    0 -0.38253964835E+02  0.22221051193E+02 -0.15470639535E+01  0.44266754033E+02  0.10566000000E+00 0. -1.
         23    2    1    0    0    0 -0.50356478369E+01 -0.14969235077E+02 -0.21868929240E+02  0.98114347755E+02  0.94333130031E+02 0.  0.
         13    1    3    3    0    0  0.33218316998E+02 -0.37190286270E+02 -0.20321865286E+02  0.53847593723E+02  0.10566000000E+00 0.  1.
         22    1    1    0    0    0  0.50356478369E+01  0.14969235077E+02  0.21868929240E+02  0.26975652245E+02  0.00000000000E+00 0.  1.
</event>
<event>
 5    1  0.1258624E-009  0.9118800E+02  0.7815553E-02  0.1125453E+00
         25   -1    0    0    0    0  0.00000000000E+00  0.00000000000E+00  0.99999998245E-14  0.12509000000E+03  0.12509000000E+03 0.  0.
        -13    1    3    3    0    0  0.60715227021E+01 -0.32358619093E+02  0.28116510466E+01  0.33043307389E+02  0.10566000000E+00 0. -1.
         23    2    1    0    0    0 -0.80849631457E+01  0.26748315731E+02 -0.10457914340E+02  0.95253663163E+02  0.90460230765E+02 0.  0.
         13    1    3    3    0    0 -0.14156485848E+02  0.59106934825E+02 -0.13269565387E+02  0.62210355774E+02  0.10566000000E+00 0.  1.
         22    1    1    0    0    0  0.80849631457E+01 -0.26748315731E+02  0.10457914340E+02  0.29836336837E+02  0.00000000000E+00 0.  1.
</event>
<event>
 5    1  0.1258624E-009  0.9118800E+02  0.7815553E-02  0.1125453E+00
         25   -1    0    0    0    0  0.00000000000E+00  0.00000000000E+00  0.99999998245E-14  0.12509000000E+03  0.12509000000E+03 0.  0.
        -13    1    3    3    0    0 -0.42946327912E+02  0.23161813880E+02  0.84481314910E+01  0.49520084744E+02  0.10566000000E+00 0.  1.
         23    2    1    0    0    0 -0.11488930245E+02  0.28221830814E+01  0.30072657201E+02  0.92773983125E+02  0.86963710813E+02 0.  0.
         13    1    3    3    0    0  0.31457397667E+02 -0.20339630799E+02  0.21624525710E+02  0.43253898382E+02  0.10566000000E+00 0. -1.
         22    1    1    0    0    0  0.11488930245E+02 -0.28221830814E+01 -0.30072657201E+02  0.32316016875E+02  0.00000000000E+00 0.  1.
</event>
<event>
 5    1  0.1258624E-009  0.9118800E+02  0.7815553E-02  0.1125453E+00
         25   -1    0    0    0    0  0.00000000000E+00  0.00000000000E+00  0.99999998245E-14  0.12509000000E+03  0.12509000000E+03 0.  0.
        -13    1    3    3    0    0 -0.41385893701E+02 -0.19093141964E+02 -0.37442215791E+01  0.45731505844E+02  0.10566000000E+00 0. -1.
         23    2    1    0    0    0 -0.40076264225E+01  0.21206577318E+01 -0.29104416374E+02  0.95634519844E+02  0.90985361870E+02 0.  0.
         13    1    3    3    0    0  0.37378267278E+02  0.21213799696E+02 -0.25360194795E+02  0.49903014000E+02  0.10566000000E+00 0.  1.
         22    1    1    0    0    0  0.40076264225E+01 -0.21206577318E+01  0.29104416374E+02  0.29455480156E+02  0.00000000000E+00 0.  1.
</event>
<event>
 5    1  0.1258624E-009  0.9118800E+02  0.7815553E-02  0.1125453E+00
         25   -1    0    0    0    0  0.00000000000E+00  0.00000000000E+00  0.99999998245E-14  0.12509000000E+03  0.12509000000E+03 0.  0.
        -13    1    3    3    0    0 -0.42582346122E+02  0.78856915689E+01  0.25202354478E+02  0.50105989343E+02  0.10566000000E+00 0.  1.
         23    2    1    0    0    0 -0.20330167583E+02 -0.22236842318E+02  0.52503589770E+00  0.94955824503E+02  0.90047432357E+02 0.  0.
         13    1    3    3    0    0  0.22252178539E+02 -0.30122533887E+02 -0.24677318580E+02  0.44849835159E+02  0.10566000000E+00 0. -1.
         22    1    1    0    0    0  0.20330167583E+02  0.22236842318E+02 -0.52503589770E+00  0.30134175497E+02  0.00000000000E+00 0. -1.
</event>
<event>
 5    1  0.1258624E-009  0.9118800E+02  0.7815553E-02  0.1125453E+00
         25   -1    0    0    0    0  0.00000000000E+00  0.00000000000E+00  0.99999998245E-14  0.12509000000E+03  0.12509000000E+03 0.  0.
        -13    1    3    3    0    0 -0.28416746295E+02 -0.48750119314E+02 -0.23306035992E+02  0.61051356094E+02  0.10566000000E+00 0.  1.
         23    2    1    0    0    0 -0.83588199231E+01 -0.18295727260E+02 -0.18367895766E+02  0.97850633242E+02  0.93982782064E+02 0.  0.
         13    1    3    3    0    0  0.20057926372E+02  0.30454392054E+02  0.49381402262E+01  0.36799277148E+02  0.10566000000E+00 0. -1.
         22    1    1    0    0    0  0.83588199231E+01  0.18295727260E+02  0.18367895766E+02  0.27239366758E+02  0.00000000000E+00 0.  1.
</event>
<event>
 5    1  0.1258624E-009  0.9118800E+02  0.7815553E-02  0.1125453E+00
         25   -1    0    0    0    0  0.00000000000E+00  0.00000000000E+00  0.99999998245E-14  0.12509000000E+03  0.12509000000E+03 0.  0.
        -13    1    3    3    0    0  0.43332040169E+01  0.70939102595E+01  0.25589288349E+02  0.26905818368E+02  0.10566000000E+00 0. -1.
         23    2    1    0    0    0 -0.52979312953E+01 -0.44510949867E+01 -0.35040901730E+02  0.89372425661E+02  0.81924876270E+02 0.  0.
         13    1    3    3    0    0 -0.96311353122E+01 -0.11545005246E+02 -0.60630190079E+02  0.62466607293E+02  0.10566000000E+00 0.  1.
         22    1    1    0    0    0  0.52979312953E+01  0.44510949867E+01  0.35040901730E+02  0.35717574339E+02  0.00000000000E+00 0.  1.
</event>
<event>
 5    1  0.1258624E-009  0.9118800E+02  0.7815553E-02  0.1125453E+00
         25   -1    0    0    0    0  0.00000000000E+00  0.00000000000E+00  0.99999998245E-14  0.12509000000E+03  0.12509000000E+03 0.  0.
        -13    1    3    3    0    0  0.20844021899E+02 -0.57089641910E+02  0.10674738281E+02  0.61706253036E+02  0.10566000000E+00 0. -1.
         23    2    1    0    0    0  0.32223517714E+01 -0.27713170850E+02  0.16006209991E+01  0.97144242235E+02  0.93037833285E+02 0.  0.
         13    1    3    3    0    0 -0.17621670128E+02  0.29376471060E+02 -0.90741172816E+01  0.35437989199E+02  0.10566000000E+00 0.  1.
         22    1    1    0    0    0 -0.32223517714E+01  0.27713170850E+02 -0.16006209991E+01  0.27945757765E+02  0.00000000000E+00 0. -1.
</event>
<event>
 5    1  0.1258624E-009  0.9118800E+02  0.7815553E-02  0.1125453E+00
         25   -1    0    0    0    0  0.00000000000E+00  0.00000000000E+00  0.99999998245E-14  0.12509000000E+03  0.12509000000E+03 0.  0.
        -13    1    3    3    0    0  0.84933140487E+01 -0.36000052810E+02  0.47651889951E+02  0.60322914102E+02  0.10566000000E+00 0. -1.
         23    2    1    0    0    0  0.15222760140E+02 -0.13395317533E+02  0.21752357548E+02  0.95352279560E+02  0.90596496622E+02 0.  0.
         13    1    3    3    0    0  0.67294460917E+01  0.22604735277E+02 -0.25899532403E+02  0.35029365458E+02  0.10566000000E+00 0.  1.
         22    1    1    0    0    0 -0.15222760140E+02  0.13395317533E+02 -0.21752357548E+02  0.29737720440E+02  0.00000000000E+00 0. -1.
</event>
<event>
 5    1  0.1258624E-009  0.9118800E+02  0.7815553E-02  0.1125453E+00
         25   -1    0    0    0    0  0.00000000000E+00  0.00000000000E+00  0.99999998245E-14  0.12509000000E+03  0.12509000000E+03 0.  0.
        -13    1    3    3    0    0  0.48715874960E+02  0.29814547517E+01 -0.35657673701E+02  0.60445069305E+02  0.10566000000E+00 0. -1.
         23    2    1    0    0    0  0.15068053818E+02  0.30107506837E+01 -0.25008575577E+02  0.95738003169E+02  0.91127523465E+02 0.  0.
         13    1    3    3    0    0 -0.33647821142E+02  0.29295932024E-01  0.10649098124E+02  0.35292933864E+02  0.10566000000E+00 0.  1.
         22    1    1    0    0    0 -0.15068053818E+02 -0.30107506837E+01  0.25008575577E+02  0.29351996831E+02  0.00000000000E+00 0. -1.
</event>
<event>
 5    1  0.1258624E-009  0.9118800E+02  0.7815553E-02  0.1125453E+00
         25   -1    0    0    0    0  0.00000000000E+00  0.00000000000E+00  0.99999998245E-14  0.12509000000E+03  0.12509000000E+03 0.  0.
        -13    1    3    3    0    0 -0.33960647387E+02 -0.16512786611E+01  0.49472593078E+01  0.34358970166E+02  0.10566000000E+00 0.  1.
         23    2    1    0    0    0  0.26545894392E+02 -0.82925442517E+01  0.10228585487E+02  0.95457673728E+02  0.90741901640E+02 0.  0.
         13    1    3    3    0    0  0.60506541779E+02 -0.66412655905E+01  0.52813261790E+01  0.61098703562E+02  0.10566000000E+00 0. -1.
         22    1    1    0    0    0 -0.26545894392E+02  0.82925442517E+01 -0.10228585487E+02  0.29632326272E+02  0.00000000000E+00 0. -1.
</event>
<event>
 5    1  0.1258624E-009  0.9118800E+02  0.7815553E-02  0.1125453E+00
         25   -1    0    0    0    0  0.00000000000E+00  0.00000000000E+00  0.99999998245E-14  0.12509000000E+03  0.12509000000E+03 0.  0.
        -13    1    3    3    0    0  0.92047740891E+01  0.38837055550E+00 -0.48692246661E+02  0.49556278580E+02  0.10566000000E+00 0.  1.
         23    2    1    0    0    0 -0.23707874363E+02  0.57561396162E+01 -0.20537699777E+02  0.93199663498E+02  0.87573875751E+02 0.  0.
         13    1    3    3    0    0 -0.32912648452E+02  0.53677690607E+01  0.28154546885E+02  0.43643384918E+02  0.10566000000E+00 0. -1.
         22    1    1    0    0    0  0.23707874363E+02 -0.57561396162E+01  0.20537699777E+02  0.31890336502E+02  0.00000000000E+00 0. -1.
</event>
<event>
 5    1  0.1258624E-009  0.9118800E+02  0.7815553E-02  0.1125453E+00
         25   -1    0    0    0    0  0.00000000000E+00  0.00000000000E+00  0.99999998245E-14  0.12509000000E+03  0.12509000000E+03 0.  0.
        -13    1    3    3    0    0 -0.44062844583E+02  0.12868847754E+02  0.36891205091E+02  0.58890692748E+02  0.10566000000E+00 0. -1.
         23    2    1    0    0    0 -0.12309432902E+02  0.16907030433E+02  0.23619734293E+02  0.93542232020E+02  0.88061839106E+02 0.  0.
         13    1    3    3    0    0  0.31753411681E+02  0.40381826791E+01 -0.13271470799E+02  0.34651539272E+02  0.10566000000E+00 0.  1.
         22    1    1    0    0    0  0.12309432902E+02 -0.16907030433E+02 -0.23619734293E+02  0.31547767980E+02  0.00000000000E+00 0. -1.
</event>
<event>
 5    1  0.1258624E-009  0.9118800E+02  0.7815553E-02  0.1125453E+00
         25   -1    0    0    0    0  0.00000000000E+00  0.00000000000E+00  0.99999998245E-14  0.12509000000E+03  0.12509000000E+03 0.  0.
        -13    1    3    3    0    0 -0.26041824277E+01 -0.28766264557E+01 -0.40831285454E+02  0.41015384696E+02  0.10566000000E+00 0.  1.
         23    2    1    0    0    0 -0.19448388285E+02  0.27942095915E+02 -0.59225746559E+01  0.90534574644E+02  0.83680534083E+02 0.  0.
         13    1    3    3    0    0 -0.16844205857E+02  0.30818722370E+02  0.34908710798E+02  0.49519189948E+02  0.10566000000E+00 0. -1.
         22    1    1    0    0    0  0.19448388285E+02 -0.27942095915E+02  0.59225746559E+01  0.34555425356E+02  0.00000000000E+00 0. -1.
</event>
<event>
 5    1  0.1258624E-009  0.9118800E+02  0.7815553E-02  0.1125453E+00
         25   -1    0    0    0    0  0.00000000000E+00  0.00000000000E+00  0.99999998245E-14  0.12509000000E+03  0.12509000000E+03 0.  0.
        -13    1    3    3    0    0 -0.86646744474E+01 -0.16111533628E+02 -0.28203865973E+02  0.33617366331E+02  0.10566000000E+00 0.  1.
         23    2    1    0    0    0  0.37069082409E+02 -0.56627493460E+01 -0.23663241667E+02  0.80748906114E+02  0.67485207502E+02 0.  0.
         13    1    3    3    0    0  0.45733756857E+02  0.10448784282E+02  0.45406243063E+01  0.47131539783E+02  0.10566000000E+00 0. -1.
         22    1    1    0    0    0 -0.37069082409E+02  0.56627493460E+01  0.23663241667E+02  0.44341093886E+02  0.00000000000E+00 0. -1.
</event>
<event>
 5    1  0.1258624E-009  0.9118800E+02  0.7815553E-02  0.1125453E+00
         25   -1    0    0    0    0  0.00000000000E+00  0.00000000000E+00  0.99999998245E-14  0.12509000000E+03  0.12509000000E+03 0.  0.
        -13    1    3    3    0    0 -0.11547057889E+02 -0.53128242743E+01  0.32090090424E+02  0.34515876276E+02  0.10566000000E+00 0.  1.
         23    2    1    0    0    0 -0.83926172123E+01  0.25946419140E+01 -0.28276743525E+02  0.95480163548E+02  0.90772899130E+02 0.  0.
         13    1    3    3    0    0  0.31544406769E+01  0.79074661883E+01 -0.60366833949E+02  0.60964287272E+02  0.10566000000E+00 0. -1.
         22    1    1    0    0    0  0.83926172123E+01 -0.25946419140E+01  0.28276743525E+02  0.29609836452E+02  0.00000000000E+00 0. -1.
</event>
<event>
 5    1  0.1258624E-009  0.9118800E+02  0.7815553E-02  0.1125453E+00
         25   -1    0    0    0    0  0.00000000000E+00  0.00000000000E+00  0.99999998245E-14  0.12509000000E+03  0.12509000000E+03 0.  0.
        -13    1    3    3    0    0  0.37570623758E+02  0.57351239704E+01  0.37477376975E+02  0.53376102943E+02  0.10566000000E+00 0.  1.
         23    2    1    0    0    0  0.11290164286E+02  0.24862373163E+02  0.97637332868E+01  0.96091105252E+02  0.91610941551E+02 0.  0.
         13    1    3    3    0    0 -0.26280459472E+02  0.19127249193E+02 -0.27713643688E+02  0.42715002308E+02  0.10566000000E+00 0. -1.
         22    1    1    0    0    0 -0.11290164286E+02 -0.24862373163E+02 -0.97637332868E+01  0.28998894748E+02  0.00000000000E+00 0.  1.
</event>
<event>
 5    1  0.1258624E-009  0.9118800E+02  0.7815553E-02  0.1125453E+00
         25   -1    0    0    0    0  0.00000000000E+00  0.00000000000E+00  0.99999998245E-14  0.12509000000E+03  0.12509000000E+03 0.  0.
        -13    1    3    3    0    0 -0.13574745644E+02  0.29419571452E+02  0.20095664999E+01  0.32462816041E+02  0.10566000000E+00 0. -1.
         23    2    1    0    0    0  0.16386193889E+02 -0.25181146884E+02 -0.27251065804E+01  0.94923400682E+02  0.90002379316E+02 0.  0.
         13    1    3    3    0    0  0.29960939533E+02 -0.54600718336E+02 -0.47346730802E+01  0.62460584641E+02  0.10566000000E+00 0.  1.
         22    1    1    0    0    0 -0.16386193889E+02  0.25181146884E+02  0.27251065804E+01  0.30166599318E+02  0.00000000000E+00 0.  1.
</event>
<event>
 5    1  0.1258624E-009  0.9118800E+02  0.7815553E-02  0.1125453E+00
         25   -1    0    0    0    0  0.00000000000E+00  0.00000000000E+00  0.99999998245E-14  0.12509000000E+03  0.12509000000E+03 0.  0.
        -13    1    3    3    0    0  0.12497378461E+02 -0.51235944003E+02  0.26118307274E+02  0.58851368422E+02  0.10566000000E+00 0. -1.
         23    2    1    0    0    0 -0.77485075129E+01 -0.22866761460E+02  0.18862498898E+02  0.94451429325E+02  0.89344000853E+02 0.  0.
         13    1    3    3    0    0 -0.20245885974E+02  0.28369182543E+02 -0.72558083760E+01  0.35600060902E+02  0.10566000000E+00 0.  1.
         22    1    1    0    0    0  0.77485075129E+01  0.22866761460E+02 -0.18862498898E+02  0.30638570675E+02  0.00000000000E+00 0. -1.
</event>
<event>
 5    1  0.1258624E-009  0.9118800E+02  0.7815553E-02  0.1125453E+00
         25   -1    0    0    0    0  0.00000000000E+00  0.00000000000E+00  0.99999998245E-14  0.12509000000E+03  0.12509000000E+03 0.  0.
        -13    1    3    3    0    0 -0.35229774701E+02 -0.14803870510E+02 -0.28491554561E+02  0.47666250670E+02  0.10566000000E+00 0. -1.
         23    2    1    0    0    0  0.88910673452E+01 -0.23113005916E+02 -0.19770311090E+02  0.93402031911E+02  0.87862462084E+02 0.  0.
         13    1    3    3    0    0  0.44120842046E+02 -0.83091354059E+01  0.87212434710E+01  0.45735781241E+02  0.10566000000E+00 0.  1.
         22    1    1    0    0    0 -0.88910673452E+01  0.23113005916E+02  0.19770311090E+02  0.31687968089E+02  0.00000000000E+00 0. -1.
</event>
<event>
 5    1  0.1258624E-009  0.9118800E+02  0.7815553E-02  0.1125453E+00
         25   -1    0    0    0    0  0.00000000000E+00  0.00000000000E+00  0.99999998245E-14  0.12509000000E+03  0.12509000000E+03 0.  0.
        -13    1    3    3    0    0  0.14288504289E+02  0.59722674236E+02 -0.50584668857E+01  0.61616218839E+02  0.10566000000E+00 0. -1.
         23    2    1    0    0    0  0.46840133121E+00  0.25892192555E+02 -0.71624125802E+01  0.98221334438E+02  0.94474892695E+02 0.  0.
         13    1    3    3    0    0 -0.13820102958E+02 -0.33830481681E+02 -0.21039456945E+01  0.36605115599E+02  0.10566000000E+00 0.  1.
         22    1    1    0    0    0 -0.46840133121E+00 -0.25892192555E+02  0.71624125802E+01  0.26868665562E+02  0.00000000000E+00 0. -1.
</event>
<event>
 5    1  0.1258624E-009  0.9118800E+02  0.7815553E-02  0.1125453E+00
         25   -1    0    0    0    0  0.00000000000E+00  0.00000000000E+00  0.99999998245E-14  0.12509000000E+03  0.12509000000E+03 0.  0.
        -13    1    3    3    0    0  0.26823634272E+02 -0.28618720776E+02 -0.22882157933E+02  0.45410823051E+02  0.10566000000E+00 0. -1.
         23    2    1    0    0    0  0.21030050738E+02  0.18973309419E+02 -0.99682740305E+01  0.95063078888E+02  0.90196302453E+02 0.  0.
         13    1    3    3    0    0 -0.57935835348E+01  0.47592030195E+02  0.12913883903E+02  0.49652255837E+02  0.10566000000E+00 0.  1.
         22    1    1    0    0    0 -0.21030050738E+02 -0.18973309419E+02  0.99682740305E+01  0.30026921112E+02  0.00000000000E+00 0.  1.
</event>
<event>
 5    1  0.1258624E-009  0.9118800E+02  0.7815553E-02  0.1125453E+00
         25   -1    0    0    0    0  0.00000000000E+00  0.00000000000E+00  0.99999998245E-14  0.12509000000E+03  0.12509000000E+03 0.  0.
        -13    1    3    3    0    0  0.22230301360E+01 -0.14857462762E+02 -0.30742982458E+02  0.34217366894E+02  0.10566000000E+00 0. -1.
         23    2    1    0    0    0 -0.15095279378E+02  0.55844334812E+01  0.24593160959E+02  0.95698216748E+02  0.91072892597E+02 0.  0.
         13    1    3    3    0    0 -0.17318309514E+02  0.20441896243E+02  0.55336143417E+02  0.61480849854E+02  0.10566000000E+00 0.  1.
         22    1    1    0    0    0  0.15095279378E+02 -0.55844334812E+01 -0.24593160959E+02  0.29391783252E+02  0.00000000000E+00 0.  1.
</event>
<event>
 5    1  0.1258624E-009  0.9118800E+02  0.7815553E-02  0.1125453E+00
         25   -1    0    0    0    0  0.00000000000E+00  0.00000000000E+00  0.99999998245E-14  0.12509000000E+03  0.12509000000E+03 0.  0.
        -13    1    3    3    0    0  0.20442767186E+02 -0.17612722564E+02 -0.22642564664E+02  0.35225156138E+02  0.10566000000E+00 0. -1.
         23    2    1    0    0    0 -0.21706112723E+02  0.17436785562E+02  0.52902031311E+01  0.96749515363E+02  0.92505597958E+02 0.  0.
         13    1    3    3    0    0 -0.42148879909E+02  0.35049508125E+02  0.27932767795E+02  0.61524359226E+02  0.10566000000E+00 0.  1.
         22    1    1    0    0    0  0.21706112723E+02 -0.17436785562E+02 -0.52902031311E+01  0.28340484637E+02  0.00000000000E+00 0.  1.
</event>
<event>
 5    1  0.1258624E-009  0.9118800E+02  0.7815553E-02  0.1125453E+00
         25   -1    0    0    0    0  0.00000000000E+00  0.00000000000E+00  0.99999998245E-14  0.12509000000E+03  0.12509000000E+03 0.  0.
        -13    1    3    3    0    0  0.55520247524E+01 -0.29844539120E+02  0.19648696109E+02  0.36160806365E+02  0.10566000000E+00 0. -1.
         23    2    1    0    0    0 -0.23625249330E+02  0.13638348421E+02 -0.96369128056E+01  0.96158580367E+02  0.91703029047E+02 0.  0.
         13    1    3    3    0    0 -0.29177274082E+02  0.43482887541E+02 -0.29285608915E+02  0.59997774003E+02  0.10566000000E+00 0.  1.
         22    1    1    0    0    0  0.23625249330E+02 -0.13638348421E+02  0.96369128056E+01  0.28931419633E+02  0.00000000000E+00 0.  1.
</event>
<event>
 5    1  0.1258624E-009  0.9118800E+02  0.7815553E-02  0.1125453E+00
         25   -1    0    0    0    0  0.00000000000E+00  0.00000000000E+00  0.99999998245E-14  0.12509000000E+03  0.12509000000E+03 0.  0.
        -13    1    3    3    0    0 -0.25936842923E+02 -0.43549244067E+02 -0.87547032281E-01  0.50688019375E+02  0.10566000000E+00 0.  1.
         23    2    1    0    0    0 -0.28101410746E+02  0.74235831180E+00  0.82147457873E+01  0.95803101391E+02  0.91216839487E+02 0.  0.
         13    1    3    3    0    0 -0.21645678235E+01  0.44291602379E+02  0.83022928196E+01  0.45115082016E+02  0.10566000000E+00 0. -1.
         22    1    1    0    0    0  0.28101410746E+02 -0.74235831180E+00 -0.82147457873E+01  0.29286898609E+02  0.00000000000E+00 0.  1.
</event>
<event>
 5    1  0.1258624E-009  0.9118800E+02  0.7815553E-02  0.1125453E+00
         25   -1    0    0    0    0  0.00000000000E+00  0.00000000000E+00  0.99999998245E-14  0.12509000000E+03  0.12509000000E+03 0.  0.
        -13    1    3    3    0    0 -0.36161788438E+01  0.28924569014E+02 -0.35394442936E+02  0.45852864653E+02  0.10566000000E+00 0.  1.
         23    2    1    0    0    0  0.28047448832E+02  0.32828307065E+01 -0.56696840755E+01  0.96287540366E+02  0.91878772025E+02 0.  0.
         13    1    3    3    0    0  0.31663627676E+02 -0.25641738307E+02  0.29724758861E+02  0.50434675714E+02  0.10566000000E+00 0. -1.
         22    1    1    0    0    0 -0.28047448832E+02 -0.32828307065E+01  0.56696840755E+01  0.28802459634E+02  0.00000000000E+00 0. -1.
</event>
<event>
 5    1  0.1258624E-009  0.9118800E+02  0.7815553E-02  0.1125453E+00
         25   -1    0    0    0    0  0.00000000000E+00  0.00000000000E+00  0.99999998245E-14  0.12509000000E+03  0.12509000000E+03 0.  0.
        -13    1    3    3    0    0  0.38597538268E+02  0.77571401283E+01 -0.46879068808E+02  0.61217656274E+02  0.10566000000E+00 0. -1.
         23    2    1    0    0    0  0.23077875043E+02 -0.26308274225E+01 -0.17591820231E+02  0.95952709315E+02  0.91421773754E+02 0.  0.
         13    1    3    3    0    0 -0.15519663225E+02 -0.10387967551E+02  0.29287248577E+02  0.34735053040E+02  0.10566000000E+00 0.  1.
         22    1    1    0    0    0 -0.23077875043E+02  0.26308274225E+01  0.17591820231E+02  0.29137290685E+02  0.00000000000E+00 0. -1.
</event>
<event>
 5    1  0.1258624E-009  0.9118800E+02  0.7815553E-02  0.1125453E+00
         25   -1    0    0    0    0  0.00000000000E+00  0.00000000000E+00  0.99999998245E-14  0.12509000000E+03  0.12509000000E+03 0.  0.
        -13    1    3    3    0    0  0.22667628533E+02  0.26904244354E+02  0.25648658674E+02  0.43537622849E+02  0.10566000000E+00 0. -1.
         23    2    1    0    0    0 -0.16240410036E+02 -0.57579640223E+01  0.25470934003E+02  0.94338194414E+02  0.89185320421E+02 0.  0.
         13    1    3    3    0    0 -0.38908038569E+02 -0.32662208376E+02 -0.17772467131E+00  0.50800571565E+02  0.10566000000E+00 0.  1.
         22    1    1    0    0    0  0.16240410036E+02  0.57579640223E+01 -0.25470934003E+02  0.30751805586E+02  0.00000000000E+00 0. -1.
</event>
<event>
 5    1  0.1258624E-009  0.9118800E+02  0.7815553E-02  0.1125453E+00
         25   -1    0    0    0    0  0.00000000000E+00  0.00000000000E+00  0.99999998245E-14  0.12509000000E+03  0.12509000000E+03 0.  0.
        -13    1    3    3    0    0 -0.32863871631E+02  0.39742678324E+02 -0.11495740927E+02  0.52836329949E+02  0.10566000000E+00 0. -1.
         23    2    1    0    0    0  0.81474805032E+01  0.26836256715E+02 -0.77474043836E+01  0.95993808020E+02  0.91477990743E+02 0.  0.
         13    1    3    3    0    0  0.41011352134E+02 -0.12906421609E+02  0.37483365439E+01  0.43157478071E+02  0.10566000000E+00 0.  1.
         22    1    1    0    0    0 -0.81474805032E+01 -0.26836256715E+02  0.77474043836E+01  0.29096191980E+02  0.00000000000E+00 0. -1.
</event>
<event>
 5    1  0.1258624E-009  0.9118800E+02  0.7815553E-02  0.1125453E+00
         25   -1    0    0    0    0  0.00000000000E+00  0.00000000000E+00  0.99999998245E-14  0.12509000000E+03  0.12509000000E+03 0.  0.
        -13    1    3    3    0    0 -0.27234854388E+02  0.12754125258E+02 -0.16527106572E+02  0.34315614818E+02  0.10566000000E+00 0.  1.
         23    2    1    0    0    0  0.15412456262E+01 -0.17861840235E+02  0.25614474693E+02  0.93824650355E+02  0.88462098810E+02 0.  0.
         13    1    3    3    0    0  0.28776100014E+02 -0.30615965493E+02  0.42141581265E+02  0.59509035537E+02  0.10566000000E+00 0. -1.
         22    1    1    0    0    0 -0.15412456262E+01  0.17861840235E+02 -0.25614474693E+02  0.31265349645E+02  0.00000000000E+00 0. -1.
</event>
<event>
 5    1  0.1258624E-009  0.9118800E+02  0.7815553E-02  0.1125453E+00
         25   -1    0    0    0    0  0.00000000000E+00  0.00000000000E+00  0.99999998245E-14  0.12509000000E+03  0.12509000000E+03 0.  0.
        -13    1    3    3    0    0 -0.29039867548E+02  0.10330785215E+02  0.33651137219E+02  0.45633860570E+02  0.10566000000E+00 0.  1.
         23    2    1    0    0    0 -0.26692598662E+01  0.29317961983E+02 -0.40131235514E+01  0.95378503846E+02  0.90632698250E+02 0.  0.
         13    1    3    3    0    0  0.26370607682E+02  0.18987176768E+02 -0.37664260770E+02  0.49744643275E+02  0.10566000000E+00 0. -1.
         22    1    1    0    0    0  0.26692598662E+01 -0.29317961983E+02  0.40131235514E+01  0.29711496154E+02  0.00000000000E+00 0.  1.
</event>
<event>
 5    1  0.1258624E-009  0.9118800E+02  0.7815553E-02  0.1125453E+00
         25   -1    0    0    0    0  0.00000000000E+00  0.00000000000E+00  0.99999998245E-14  0.12509000000E+03  0.12509000000E+03 0.  0.
        -13    1    3    3    0    0 -0.21010530246E+02  0.15378765060E+01  0.44405976848E+02  0.49149866624E+02  0.10566000000E+00 0.  1.
         23    2    1    0    0    0  0.26898028140E+01  0.25425074987E+02  0.90262907713E+01  0.97976471968E+02  0.94150122978E+02 0.  0.
         13    1    3    3    0    0  0.23700333060E+02  0.23887198481E+02 -0.35379686076E+02  0.48826605343E+02  0.10566000000E+00 0. -1.
         22    1    1    0    0    0 -0.26898028140E+01 -0.25425074987E+02 -0.90262907713E+01  0.27113528032E+02  0.00000000000E+00 0.  1.
</event>
<event>
 5    1  0.1258624E-009  0.9118800E+02  0.7815553E-02  0.1125453E+00
         25   -1    0    0    0    0  0.00000000000E+00  0.00000000000E+00  0.99999998245E-14  0.12509000000E+03  0.12509000000E+03 0.  0.
        -13    1    3    3    0    0  0.38807081572E+02  0.28530425067E+02 -0.15577346623E+02  0.50622520941E+02  0.10566000000E+00 0.  1.
         23    2    1    0    0    0  0.11571132510E+02 -0.64837179273E+01 -0.25741717642E+02  0.96132000537E+02  0.91666764939E+02 0.  0.
         13    1    3    3    0    0 -0.27235949061E+02 -0.35014142994E+02 -0.10164371019E+02  0.45509479596E+02  0.10566000000E+00 0. -1.
         22    1    1    0    0    0 -0.11571132510E+02  0.64837179273E+01  0.25741717642E+02  0.28957999463E+02  0.00000000000E+00 0.  1.
</event>
<event>
 5    1  0.1258624E-009  0.9118800E+02  0.7815553E-02  0.1125453E+00
         25   -1    0    0    0    0  0.00000000000E+00  0.00000000000E+00  0.99999998245E-14  0.12509000000E+03  0.12509000000E+03 0.  0.
        -13    1    3    3    0    0  0.26630454177E+02  0.21375144443E+02  0.50692158995E+02  0.61121060504E+02  0.10566000000E+00 0.  1.
         23    2    1    0    0    0  0.12974694055E+02  0.14140889543E+01  0.27596966766E+02  0.94562391052E+02  0.89499222865E+02 0.  0.
         13    1    3    3    0    0 -0.13655760122E+02 -0.19961055488E+02 -0.23095192229E+02  0.33441330548E+02  0.10566000000E+00 0. -1.
         22    1    1    0    0    0 -0.12974694055E+02 -0.14140889543E+01 -0.27596966766E+02  0.30527608948E+02  0.00000000000E+00 0.  1.
</event>
<event>
 5    1  0.1258624E-009  0.9118800E+02  0.7815553E-02  0.1125453E+00
         25   -1    0    0    0    0  0.00000000000E+00  0.00000000000E+00  0.99999998245E-14  0.12509000000E+03  0.12509000000E+03 0.  0.
        -13    1    3    3    0    0 -0.48126946084E+02 -0.52999881747E+01  0.55137781125E+01  0.48730952455E+02  0.10566000000E+00 0.  1.
         23    2    1    0    0    0 -0.67106322779E+01 -0.51283026168E+00  0.28132616989E+02  0.96163546378E+02  0.91709802818E+02 0.  0.
         13    1    3    3    0    0  0.41416313806E+02  0.47871579130E+01  0.22618838877E+02  0.47432593924E+02  0.10566000000E+00 0. -1.
         22    1    1    0    0    0  0.67106322779E+01  0.51283026168E+00 -0.28132616989E+02  0.28926453622E+02  0.00000000000E+00 0.  1.
</event>
<event>
 5    1  0.1258624E-009  0.9118800E+02  0.7815553E-02  0.1125453E+00
         25   -1    0    0    0    0  0.00000000000E+00  0.00000000000E+00  0.99999998245E-14  0.12509000000E+03  0.12509000000E+03 0.  0.
        -13    1    3    3    0    0 -0.53142788462E+01 -0.74682821850E+01 -0.47739208198E+02  0.48611315163E+02  0.10566000000E+00 0. -1.
         23    2    1    0    0    0 -0.13290839944E+02 -0.27156928461E+02 -0.77738611257E+01  0.93871766440E+02  0.88528698329E+02 0.  0.
         13    1    3    3    0    0 -0.79765610979E+01 -0.19688646276E+02  0.39965347072E+02  0.45260451277E+02  0.10566000000E+00 0.  1.
         22    1    1    0    0    0  0.13290839944E+02  0.27156928461E+02  0.77738611257E+01  0.31218233560E+02  0.00000000000E+00 0.  1.
</event>
<event>
 5    1  0.1258624E-009  0.9118800E+02  0.7815553E-02  0.1125453E+00
         25   -1    0    0    0    0  0.00000000000E+00  0.00000000000E+00  0.99999998245E-14  0.12509000000E+03  0.12509000000E+03 0.  0.
        -13    1    3    3    0    0  0.41583554573E+02 -0.10375997160E+02 -0.10269892706E+02  0.44071931977E+02  0.10566000000E+00 0.  1.
         23    2    1    0    0    0  0.10143768188E+02  0.12862898226E+02  0.23980151263E+02  0.96048687384E+02  0.91553003827E+02 0.  0.
         13    1    3    3    0    0 -0.31439786385E+02  0.23238895387E+02  0.34250043969E+02  0.51976755407E+02  0.10566000000E+00 0. -1.
         22    1    1    0    0    0 -0.10143768188E+02 -0.12862898226E+02 -0.23980151263E+02  0.29041312616E+02  0.00000000000E+00 0. -1.
</event>
<event>
 5    1  0.1258624E-009  0.9118800E+02  0.7815553E-02  0.1125453E+00
         25   -1    0    0    0    0  0.00000000000E+00  0.00000000000E+00  0.99999998245E-14  0.12509000000E+03  0.12509000000E+03 0.  0.
        -13    1    3    3    0    0 -0.92734463283E+01 -0.35932569141E+01  0.38900480061E+02  0.40151797159E+02  0.10566000000E+00 0. -1.
         23    2    1    0    0    0  0.90657388680E+01  0.27680446923E+02 -0.32880175691E+01  0.95777787143E+02  0.91182118243E+02 0.  0.
         13    1    3    3    0    0  0.18339185196E+02  0.31273703837E+02 -0.42188497630E+02  0.55625989984E+02  0.10566000000E+00 0.  1.
         22    1    1    0    0    0 -0.90657388680E+01 -0.27680446923E+02  0.32880175691E+01  0.29312212857E+02  0.00000000000E+00 0.  1.
</event>
<event>
 5    1  0.1258624E-009  0.9118800E+02  0.7815553E-02  0.1125453E+00
         25   -1    0    0    0    0  0.00000000000E+00  0.00000000000E+00  0.99999998245E-14  0.12509000000E+03  0.12509000000E+03 0.  0.
        -13    1    3    3    0    0 -0.81988776897E+01  0.15661660698E+02 -0.50782714260E+02  0.53771781101E+02  0.10566000000E+00 0.  1.
         23    2    1    0    0    0  0.17321010023E+02  0.92875577958E+00 -0.31925802590E+02  0.88756312512E+02  0.80978677219E+02 0.  0.
         13    1    3    3    0    0  0.25519887713E+02 -0.14732904919E+02  0.18856911670E+02  0.34984531410E+02  0.10566000000E+00 0. -1.
         22    1    1    0    0    0 -0.17321010023E+02 -0.92875577958E+00  0.31925802590E+02  0.36333687488E+02  0.00000000000E+00 0.  1.
</event>
<event>
 5    1  0.1258624E-009  0.9118800E+02  0.7815553E-02  0.1125453E+00
         25   -1    0    0    0    0  0.00000000000E+00  0.00000000000E+00  0.99999998245E-14  0.12509000000E+03  0.12509000000E+03 0.  0.
        -13    1    3    3    0    0 -0.28351592680E+02 -0.11467461534E+02 -0.30788581581E+02  0.43396582830E+02  0.10566000000E+00 0. -1.
         23    2    1    0    0    0  0.22022555587E+02 -0.65339593482E+01 -0.18785027452E+02  0.95415720974E+02  0.90684050269E+02 0.  0.
         13    1    3    3    0    0  0.50374148267E+02  0.49335021860E+01  0.12003554129E+02  0.52019138144E+02  0.10566000000E+00 0.  1.
         22    1    1    0    0    0 -0.22022555587E+02  0.65339593482E+01  0.18785027452E+02  0.29674279026E+02  0.00000000000E+00 0. -1.
</event>
<event>
 5    1  0.1258624E-009  0.9118800E+02  0.7815553E-02  0.1125453E+00
         25   -1    0    0    0    0  0.00000000000E+00  0.00000000000E+00  0.99999998245E-14  0.12509000000E+03  0.12509000000E+03 0.  0.
        -13    1    3    3    0    0 -0.20394213176E+02 -0.96664795307E+01 -0.15410520783E+02  0.27328740777E+02  0.10566000000E+00 0.  1.
         23    2    1    0    0    0 -0.28217390396E+02 -0.35994394670E+01  0.35730296581E+02  0.79419099209E+02  0.64973549543E+02 0.  0.
         13    1    3    3    0    0 -0.78231772198E+01  0.60670400637E+01  0.51140817364E+02  0.52090358433E+02  0.10566000000E+00 0. -1.
         22    1    1    0    0    0  0.28217390396E+02  0.35994394670E+01 -0.35730296581E+02  0.45670900791E+02  0.00000000000E+00 0. -1.
</event>
<event>
 5    1  0.1258624E-009  0.9118800E+02  0.7815553E-02  0.1125453E+00
         25   -1    0    0    0    0  0.00000000000E+00  0.00000000000E+00  0.99999998245E-14  0.12509000000E+03  0.12509000000E+03 0.  0.
        -13    1    3    3    0    0 -0.21831897767E+02  0.31804441410E+01 -0.25312638507E+02  0.33578085372E+02  0.10566000000E+00 0.  1.
         23    2    1    0    0    0  0.20120693898E+02 -0.47081445066E+01  0.20350662628E+02  0.96087268801E+02  0.91605702926E+02 0.  0.
         13    1    3    3    0    0  0.41952591665E+02 -0.78885886477E+01  0.45663301135E+02  0.62509183428E+02  0.10566000000E+00 0. -1.
         22    1    1    0    0    0 -0.20120693898E+02  0.47081445066E+01 -0.20350662628E+02  0.29002731199E+02  0.00000000000E+00 0. -1.
</event>
<event>
 5    1  0.1258624E-009  0.9118800E+02  0.7815553E-02  0.1125453E+00
         25   -1    0    0    0    0  0.00000000000E+00  0.00000000000E+00  0.99999998245E-14  0.12509000000E+03  0.12509000000E+03 0.  0.
        -13    1    3    3    0    0 -0.19305083755E+02 -0.55046565115E+02  0.10306346646E+02  0.59237171903E+02  0.10566000000E+00 0. -1.
         23    2    1    0    0    0 -0.11446299285E+02 -0.19802197461E+02  0.17788878263E+02  0.96114338119E+02  0.91642659338E+02 0.  0.
         13    1    3    3    0    0  0.78587844704E+01  0.35244367654E+02  0.74825316165E+01  0.36877166216E+02  0.10566000000E+00 0.  1.
         22    1    1    0    0    0  0.11446299285E+02  0.19802197461E+02 -0.17788878263E+02  0.28975661881E+02  0.00000000000E+00 0. -1.
</event>
<event>
 5    1  0.1258624E-009  0.9118800E+02  0.7815553E-02  0.1125453E+00
         25   -1    0    0    0    0  0.00000000000E+00  0.00000000000E+00  0.99999998245E-14  0.12509000000E+03  0.12509000000E+03 0.  0.
        -13    1    3    3    0    0 -0.35880608526E+02  0.46777735407E+02  0.12046249264E+02  0.60172235154E+02  0.10566000000E+00 0. -1.
         23    2    1    0    0    0 -0.73096889322E+01  0.24571298573E+02  0.12949159635E+02  0.96369606529E+02  0.91990434620E+02 0.  0.
         13    1    3    3    0    0  0.28570919594E+02 -0.22206436834E+02  0.90291037162E+00  0.36197371376E+02  0.10566000000E+00 0.  1.
         22    1    1    0    0    0  0.73096889322E+01 -0.24571298573E+02 -0.12949159635E+02  0.28720393471E+02  0.00000000000E+00 0. -1.
</event>
<event>
 5    1  0.1258624E-009  0.9118800E+02  0.7815553E-02  0.1125453E+00
         25   -1    0    0    0    0  0.00000000000E+00  0.00000000000E+00  0.99999998245E-14  0.12509000000E+03  0.12509000000E+03 0.  0.
        -13    1    3    3    0    0 -0.12674813189E+02  0.20968392971E+02 -0.18825177968E+02  0.30898590303E+02  0.10566000000E+00 0.  1.
         23    2    1    0    0    0  0.10478468782E+02 -0.29903168543E+01  0.31783626094E+02  0.91490309665E+02  0.85097224232E+02 0.  0.
         13    1    3    3    0    0  0.23153281971E+02 -0.23958709825E+02  0.50608804063E+02  0.60591719362E+02  0.10566000000E+00 0. -1.
         22    1    1    0    0    0 -0.10478468782E+02  0.29903168543E+01 -0.31783626094E+02  0.33599690335E+02  0.00000000000E+00 0. -1.
</event>
<event>
 5    1  0.1258624E-009  0.9118800E+02  0.7815553E-02  0.1125453E+00
         25   -1    0    0    0    0  0.00000000000E+00  0.00000000000E+00  0.99999998245E-14  0.12509000000E+03  0.12509000000E+03 0.  0.
        -13    1    3    3    0    0 -0.14523592822E+01 -0.46486367926E+02  0.29711357605E+02  0.55189380185E+02  0.10566000000E+00 0.  1.
         23    2    1    0    0    0 -0.15360098932E+02 -0.89415441169E+01  0.23374547878E+02  0.95725849426E+02  0.91110838595E+02 0.  0.
         13    1    3    3    0    0 -0.13907739650E+02  0.37544823809E+02 -0.63368097265E+01  0.40536469242E+02  0.10566000000E+00 0. -1.
         22    1    1    0    0    0  0.15360098932E+02  0.89415441169E+01 -0.23374547878E+02  0.29364150574E+02  0.00000000000E+00 0. -1.
</event>
<event>
 5    1  0.1258624E-009  0.9118800E+02  0.7815553E-02  0.1125453E+00
         25   -1    0    0    0    0  0.00000000000E+00  0.00000000000E+00  0.99999998245E-14  0.12509000000E+03  0.12509000000E+03 0.  0.
        -13    1    3    3    0    0  0.20538226667E+02 -0.80563609961E+01  0.29479632511E+02  0.36820966909E+02  0.10566000000E+00 0.  1.
         23    2    1    0    0    0 -0.61620701799E+01 -0.26234966321E+02 -0.16855533455E+02  0.93303940559E+02  0.87722698026E+02 0.  0.
         13    1    3    3    0    0 -0.26700296847E+02 -0.18178605324E+02 -0.46335165966E+02  0.56482973650E+02  0.10566000000E+00 0. -1.
         22    1    1    0    0    0  0.61620701799E+01  0.26234966321E+02  0.16855533455E+02  0.31786059441E+02  0.00000000000E+00 0. -1.
</event>
<event>
 5    1  0.1258624E-009  0.9118800E+02  0.7815553E-02  0.1125453E+00
         25   -1    0    0    0    0  0.00000000000E+00  0.00000000000E+00  0.99999998245E-14  0.12509000000E+03  0.12509000000E+03 0.  0.
        -13    1    3    3    0    0  0.53970606068E+02 -0.27259084386E+02  0.11768504924E+02  0.61598643436E+02  0.10566000000E+00 0.  1.
         23    2    1    0    0    0  0.24516472026E+02 -0.14958456702E+02  0.13051248026E+02  0.93544035083E+02  0.88064400282E+02 0.  0.
         13    1    3    3    0    0 -0.29454134042E+02  0.12300627684E+02  0.12827431020E+01  0.31945391647E+02  0.10566000000E+00 0. -1.
         22    1    1    0    0    0 -0.24516472026E+02  0.14958456702E+02 -0.13051248026E+02  0.31545964917E+02  0.00000000000E+00 0.  1.
</event>
<event>
 5    1  0.1258624E-009  0.9118800E+02  0.7815553E-02  0.1125453E+00
         25   -1    0    0    0    0  0.00000000000E+00  0.00000000000E+00  0.99999998245E-14  0.12509000000E+03  0.12509000000E+03 0.  0.
        -13    1    3    3    0    0 -0.13326135807E+02 -0.46447548686E+02  0.39425672915E+02  0.62364697733E+02  0.10566000000E+00 0.  1.
         23    2    1    0    0    0 -0.96754642142E+01 -0.27652523458E+02  0.27417059997E+02  0.84965545609E+02  0.74894406336E+02 0.  0.
         13    1    3    3    0    0  0.36506715926E+01  0.18795025229E+02 -0.12008612919E+02  0.22600847875E+02  0.10566000000E+00 0. -1.
         22    1    1    0    0    0  0.96754642142E+01  0.27652523458E+02 -0.27417059997E+02  0.40124454391E+02  0.00000000000E+00 0.  1.
</event>
<event>
 5    1  0.1258624E-009  0.9118800E+02  0.7815553E-02  0.1125453E+00
         25   -1    0    0    0    0  0.00000000000E+00  0.00000000000E+00  0.99999998245E-14  0.12509000000E+03  0.12509000000E+03 0.  0.
        -13    1    3    3    0    0  0.57865343364E+02 -0.12265291211E+02  0.55208365408E+00  0.59153624500E+02  0.10566000000E+00 0. -1.
         23    2    1    0    0    0  0.27789984037E+02  0.71168236315E+01 -0.66293680834E+01  0.95647158551E+02  0.91002736368E+02 0.  0.
         13    1    3    3    0    0 -0.30075359327E+02  0.19382114843E+02 -0.71814517375E+01  0.36493534051E+02  0.10566000000E+00 0.  1.
         22    1    1    0    0    0 -0.27789984037E+02 -0.71168236315E+01  0.66293680834E+01  0.29442841449E+02  0.00000000000E+00 0. -1.
</event>
<event>
 5    1  0.1258624E-009  0.9118800E+02  0.7815553E-02  0.1125453E+00
         25   -1    0    0    0    0  0.00000000000E+00  0.00000000000E+00  0.99999998245E-14  0.12509000000E+03  0.12509000000E+03 0.  0.
        -13    1    3    3    0    0 -0.32147514311E+01 -0.49760769358E+02  0.35628948140E+02  0.61285413464E+02  0.10566000000E+00 0. -1.
         23    2    1    0    0    0  0.72001722856E+01 -0.21829354250E+02  0.17772073289E+02  0.96034711722E+02  0.91533906716E+02 0.  0.
         13    1    3    3    0    0  0.10414923717E+02  0.27931415108E+02 -0.17856874851E+02  0.34749298258E+02  0.10566000000E+00 0.  1.
         22    1    1    0    0    0 -0.72001722856E+01  0.21829354250E+02 -0.17772073289E+02  0.29055288278E+02  0.00000000000E+00 0. -1.
</event>
<event>
 5    1  0.1258624E-009  0.9118800E+02  0.7815553E-02  0.1125453E+00
         25   -1    0    0    0    0  0.00000000000E+00  0.00000000000E+00  0.99999998245E-14  0.12509000000E+03  0.12509000000E+03 0.  0.
        -13    1    3    3    0    0  0.55468781730E+02 -0.24048583852E+02 -0.13232867767E+02  0.61888933464E+02  0.10566000000E+00 0.  1.
         23    2    1    0    0    0  0.24257473678E+02 -0.17362227432E+02 -0.76610493613E+01  0.94291239506E+02  0.89119437833E+02 0.  0.
         13    1    3    3    0    0 -0.31211308052E+02  0.66863564202E+01  0.55718184052E+01  0.32402306043E+02  0.10566000000E+00 0. -1.
         22    1    1    0    0    0 -0.24257473678E+02  0.17362227432E+02  0.76610493613E+01  0.30798760494E+02  0.00000000000E+00 0.  1.
</event>
<event>
 5    1  0.1258624E-009  0.9118800E+02  0.7815553E-02  0.1125453E+00
         25   -1    0    0    0    0  0.00000000000E+00  0.00000000000E+00  0.99999998245E-14  0.12509000000E+03  0.12509000000E+03 0.  0.
        -13    1    3    3    0    0  0.34998686150E+02  0.12875187583E+02  0.28603091551E+02  0.46998154196E+02  0.10566000000E+00 0.  1.
         23    2    1    0    0    0  0.24851189784E+02 -0.73907788610E+00 -0.16539667103E+02  0.95228847014E+02  0.90425908046E+02 0.  0.
         13    1    3    3    0    0 -0.10147496366E+02 -0.13614265469E+02 -0.45142758654E+02  0.48230692818E+02  0.10566000000E+00 0. -1.
         22    1    1    0    0    0 -0.24851189784E+02  0.73907788610E+00  0.16539667103E+02  0.29861152986E+02  0.00000000000E+00 0. -1.
</event>
<event>
 5    1  0.1258624E-009  0.9118800E+02  0.7815553E-02  0.1125453E+00
         25   -1    0    0    0    0  0.00000000000E+00  0.00000000000E+00  0.99999998245E-14  0.12509000000E+03  0.12509000000E+03 0.  0.
        -13    1    3    3    0    0 -0.70782414518E+01  0.32252714385E+02  0.49015186870E+01  0.33382257814E+02  0.10566000000E+00 0. -1.
         23    2    1    0    0    0 -0.72431746043E+01 -0.21143071640E+02 -0.22480867425E+02  0.93390118977E+02  0.87845499974E+02 0.  0.
         13    1    3    3    0    0 -0.16493315250E+00 -0.53395786025E+02 -0.27382386111E+02  0.60007861163E+02  0.10566000000E+00 0.  1.
         22    1    1    0    0    0  0.72431746043E+01  0.21143071640E+02  0.22480867425E+02  0.31699881023E+02  0.00000000000E+00 0.  1.
</event>
<event>
 5    1  0.1258624E-009  0.9118800E+02  0.7815553E-02  0.1125453E+00
         25   -1    0    0    0    0  0.00000000000E+00  0.00000000000E+00  0.99999998245E-14  0.12509000000E+03  0.12509000000E+03 0.  0.
        -13    1    3    3    0    0  0.51765651885E+02 -0.17859591753E+01  0.15907561790E+02  0.54184260181E+02  0.10566000000E+00 0. -1.
         23    2    1    0    0    0  0.14940302355E+02  0.20017139529E+02  0.12616423146E+02  0.97106564858E+02  0.92987161996E+02 0.  0.
         13    1    3    3    0    0 -0.36825349530E+02  0.21803098704E+02 -0.32911386444E+01  0.42922304676E+02  0.10566000000E+00 0.  1.
         22    1    1    0    0    0 -0.14940302355E+02 -0.20017139529E+02 -0.12616423146E+02  0.27983435142E+02  0.00000000000E+00 0. -1.
</event>
<event>
 5    1  0.1258624E-009  0.9118800E+02  0.7815553E-02  0.1125453E+00
         25   -1    0    0    0    0  0.00000000000E+00  0.00000000000E+00  0.99999998245E-14  0.12509000000E+03  0.12509000000E+03 0.  0.
        -13    1    3    3    0    0  0.89017086319E+01 -0.20311356353E+02  0.29196481501E+02  0.36663841991E+02  0.10566000000E+00 0. -1.
         23    2    1    0    0    0  0.66028477255E+01  0.29849638388E+02  0.46738434452E+00  0.94515223499E+02  0.89433274092E+02 0.  0.
         13    1    3    3    0    0 -0.22988609064E+01  0.50160994741E+02 -0.28729097156E+02  0.57851381508E+02  0.10566000000E+00 0.  1.
         22    1    1    0    0    0 -0.66028477255E+01 -0.29849638388E+02 -0.46738434452E+00  0.30574776501E+02  0.00000000000E+00 0.  1.
</event>
<event>
 5    1  0.1258624E-009  0.9118800E+02  0.7815553E-02  0.1125453E+00
         25   -1    0    0    0    0  0.00000000000E+00  0.00000000000E+00  0.99999998245E-14  0.12509000000E+03  0.12509000000E+03 0.  0.
        -13    1    3    3    0    0 -0.98802142604E+01 -0.25350322542E+02  0.24360164211E+02  0.36519669374E+02  0.10566000000E+00 0. -1.
         23    2    1    0    0    0  0.58062139489E+01 -0.36759827978E+01 -0.28504215496E+02  0.95769098394E+02  0.91170197631E+02 0.  0.
         13    1    3    3    0    0  0.15686428209E+02  0.21674339744E+02 -0.52864379707E+02  0.59249429019E+02  0.10566000000E+00 0.  1.
         22    1    1    0    0    0 -0.58062139489E+01  0.36759827978E+01  0.28504215496E+02  0.29320901606E+02  0.00000000000E+00 0.  1.
</event>
<event>
 5    1  0.1258624E-009  0.9118800E+02  0.7815553E-02  0.1125453E+00
         25   -1    0    0    0    0  0.00000000000E+00  0.00000000000E+00  0.99999998245E-14  0.12509000000E+03  0.12509000000E+03 0.  0.
        -13    1    3    3    0    0 -0.44210200816E+02  0.50965882333E+01  0.42879228522E+02  0.61799324191E+02  0.10566000000E+00 0.  1.
         23    2    1    0    0    0 -0.22825072362E+02  0.70036444092E+01  0.15370933659E+02  0.96694567887E+02  0.92431265781E+02 0.  0.
         13    1    3    3    0    0  0.21385128454E+02  0.19070561759E+01 -0.27508294863E+02  0.34895243695E+02  0.10566000000E+00 0. -1.
         22    1    1    0    0    0  0.22825072362E+02 -0.70036444092E+01 -0.15370933659E+02  0.28395432113E+02  0.00000000000E+00 0.  1.
</event>
<event>
 5    1  0.1258624E-009  0.9118800E+02  0.7815553E-02  0.1125453E+00
         25   -1    0    0    0    0  0.00000000000E+00  0.00000000000E+00  0.99999998245E-14  0.12509000000E+03  0.12509000000E+03 0.  0.
        -13    1    3    3    0    0  0.39510632625E+02  0.25765709083E+02 -0.32789068133E+02  0.57446462102E+02  0.10566000000E+00 0. -1.
         23    2    1    0    0    0  0.33032625873E+02  0.20660521602E+02 -0.57615736024E+01  0.85704631457E+02  0.76118832084E+02 0.  0.
         13    1    3    3    0    0 -0.64780067520E+01 -0.51051874808E+01  0.27027494530E+02  0.28258169355E+02  0.10566000000E+00 0.  1.
         22    1    1    0    0    0 -0.33032625873E+02 -0.20660521602E+02  0.57615736024E+01  0.39385368543E+02  0.00000000000E+00 0. -1.
</event>
<event>
 5    1  0.1258624E-009  0.9118800E+02  0.7815553E-02  0.1125453E+00
         25   -1    0    0    0    0  0.00000000000E+00  0.00000000000E+00  0.99999998245E-14  0.12509000000E+03  0.12509000000E+03 0.  0.
        -13    1    3    3    0    0 -0.12565798929E+02 -0.33693651538E+02  0.25994187332E+02  0.44371955059E+02  0.10566000000E+00 0.  1.
         23    2    1    0    0    0 -0.25184856500E+02  0.12744335269E+02  0.79480907537E+01  0.95766507285E+02  0.91166642433E+02 0.  0.
         13    1    3    3    0    0 -0.12619057571E+02  0.46437986807E+02 -0.18046096578E+02  0.51394552225E+02  0.10566000000E+00 0. -1.
         22    1    1    0    0    0  0.25184856500E+02 -0.12744335269E+02 -0.79480907537E+01  0.29323492715E+02  0.00000000000E+00 0. -1.
</event>
<event>
 5    1  0.1258624E-009  0.9118800E+02  0.7815553E-02  0.1125453E+00
         25   -1    0    0    0    0  0.00000000000E+00  0.00000000000E+00  0.99999998245E-14  0.12509000000E+03  0.12509000000E+03 0.  0.
        -13    1    3    3    0    0  0.52442972631E+02 -0.26371312257E+02  0.25111639084E+01  0.58753966647E+02  0.10566000000E+00 0.  1.
         23    2    1    0    0    0  0.31897282562E+02 -0.29807969480E+00 -0.50347106560E+01  0.92796443402E+02  0.86996012036E+02 0.  0.
         13    1    3    3    0    0 -0.20545690068E+02  0.26073232563E+02 -0.75458745644E+01  0.34042476755E+02  0.10566000000E+00 0. -1.
         22    1    1    0    0    0 -0.31897282562E+02  0.29807969480E+00  0.50347106560E+01  0.32293556598E+02  0.00000000000E+00 0.  1.
</event>
<event>
 5    1  0.1258624E-009  0.9118800E+02  0.7815553E-02  0.1125453E+00
         25   -1    0    0    0    0  0.00000000000E+00  0.00000000000E+00  0.99999998245E-14  0.12509000000E+03  0.12509000000E+03 0.  0.
        -13    1    3    3    0    0 -0.58222763171E+02 -0.48887975631E+01 -0.20679587664E+02  0.61979407893E+02  0.10566000000E+00 0. -1.
         23    2    1    0    0    0 -0.23329989624E+02 -0.25678333592E+01 -0.14528736993E+02  0.97486261438E+02  0.93496549597E+02 0.  0.
         13    1    3    3    0    0  0.34892773546E+02  0.23209642039E+01  0.61508506713E+01  0.35506853544E+02  0.10566000000E+00 0.  1.
         22    1    1    0    0    0  0.23329989624E+02  0.25678333592E+01  0.14528736993E+02  0.27603738562E+02  0.00000000000E+00 0. -1.
</event>
<event>
 5    1  0.1258624E-009  0.9118800E+02  0.7815553E-02  0.1125453E+00
         25   -1    0    0    0    0  0.00000000000E+00  0.00000000000E+00  0.99999998245E-14  0.12509000000E+03  0.12509000000E+03 0.  0.
        -13    1    3    3    0    0  0.23986109376E+02 -0.24193403239E+02  0.32549653359E+02  0.47118417854E+02  0.10566000000E+00 0. -1.
         23    2    1    0    0    0 -0.76755853364E+01 -0.26161123934E+02 -0.61324756557E+01  0.97144941878E+02  0.93038773955E+02 0.  0.
         13    1    3    3    0    0 -0.31661694712E+02 -0.19677206948E+01 -0.38682129014E+02  0.50026524024E+02  0.10566000000E+00 0.  1.
         22    1    1    0    0    0  0.76755853364E+01  0.26161123934E+02  0.61324756557E+01  0.27945058122E+02  0.00000000000E+00 0. -1.
</event>
<event>
 5    1  0.1258624E-009  0.9118800E+02  0.7815553E-02  0.1125453E+00
         25   -1    0    0    0    0  0.00000000000E+00  0.00000000000E+00  0.99999998245E-14  0.12509000000E+03  0.12509000000E+03 0.  0.
        -13    1    3    3    0    0  0.28024862209E+02  0.11806046358E+02 -0.20469763188E-01  0.30410314295E+02  0.10566000000E+00 0.  1.
         23    2    1    0    0    0 -0.21222747916E+02 -0.14257888180E+01 -0.29047494844E+02  0.89087293718E+02  0.81488349121E+02 0.  0.
         13    1    3    3    0    0 -0.49247610126E+02 -0.13231835176E+02 -0.29027025081E+02  0.58676979424E+02  0.10566000000E+00 0. -1.
         22    1    1    0    0    0  0.21222747916E+02  0.14257888180E+01  0.29047494844E+02  0.36002706282E+02  0.00000000000E+00 0. -1.
</event>
<event>
 5    1  0.1258624E-009  0.9118800E+02  0.7815553E-02  0.1125453E+00
         25   -1    0    0    0    0  0.00000000000E+00  0.00000000000E+00  0.99999998245E-14  0.12509000000E+03  0.12509000000E+03 0.  0.
        -13    1    3    3    0    0 -0.18134476793E+02  0.42532490195E+02 -0.13382947685E+02  0.48135085161E+02  0.10566000000E+00 0. -1.
         23    2    1    0    0    0  0.67578980139E+01  0.59005053901E+01 -0.28717361159E+02  0.95003923795E+02  0.90114225043E+02 0.  0.
         13    1    3    3    0    0  0.24892374807E+02 -0.36631984805E+02 -0.15334413475E+02  0.46868838634E+02  0.10566000000E+00 0.  1.
         22    1    1    0    0    0 -0.67578980139E+01 -0.59005053901E+01  0.28717361159E+02  0.30086076205E+02  0.00000000000E+00 0.  1.
</event>
<event>
 5    1  0.1258624E-009  0.9118800E+02  0.7815553E-02  0.1125453E+00
         25   -1    0    0    0    0  0.00000000000E+00  0.00000000000E+00  0.99999998245E-14  0.12509000000E+03  0.12509000000E+03 0.  0.
        -13    1    3    3    0    0  0.12670068012E+02 -0.86575807840E+01 -0.31461071639E+02  0.35004207192E+02  0.10566000000E+00 0. -1.
         23    2    1    0    0    0  0.94023118298E+01 -0.45060649104E+01  0.28264845574E+02  0.94963440554E+02  0.90058011625E+02 0.  0.
         13    1    3    3    0    0 -0.32677561822E+01  0.41515158736E+01  0.59725917212E+02  0.59959233362E+02  0.10566000000E+00 0.  1.
         22    1    1    0    0    0 -0.94023118298E+01  0.45060649104E+01 -0.28264845574E+02  0.30126559446E+02  0.00000000000E+00 0.  1.
</event>
<event>
 5    1  0.1258624E-009  0.9118800E+02  0.7815553E-02  0.1125453E+00
         25   -1    0    0    0    0  0.00000000000E+00  0.00000000000E+00  0.99999998245E-14  0.12509000000E+03  0.12509000000E+03 0.  0.
        -13    1    3    3    0    0 -0.15439777449E+02 -0.14840736342E+02  0.50806426741E+02  0.55135635890E+02  0.10566000000E+00 0. -1.
         23    2    1    0    0    0 -0.26590480065E+02 -0.12111040783E+02  0.16019509939E+02  0.91768000696E+02  0.85504446166E+02 0.  0.
         13    1    3    3    0    0 -0.11150702616E+02  0.27296955591E+01 -0.34786916802E+02  0.36632364806E+02  0.10566000000E+00 0.  1.
         22    1    1    0    0    0  0.26590480065E+02  0.12111040783E+02 -0.16019509939E+02  0.33321999304E+02  0.00000000000E+00 0. -1.
</event>
<event>
 5    1  0.1258624E-009  0.9118800E+02  0.7815553E-02  0.1125453E+00
         25   -1    0    0    0    0  0.00000000000E+00  0.00000000000E+00  0.99999998245E-14  0.12509000000E+03  0.12509000000E+03 0.  0.
        -13    1    3    3    0    0  0.58170405966E+02 -0.21507706382E+02 -0.45944922095E+00  0.62020962760E+02  0.10566000000E+00 0. -1.
         23    2    1    0    0    0  0.24210063634E+02 -0.13965814834E+02 -0.34079101952E+01  0.96933561713E+02  0.92754139365E+02 0.  0.
         13    1    3    3    0    0 -0.33960342333E+02  0.75418915476E+01 -0.29484609742E+01  0.34912598952E+02  0.10566000000E+00 0.  1.
         22    1    1    0    0    0 -0.24210063634E+02  0.13965814834E+02  0.34079101952E+01  0.28156438287E+02  0.00000000000E+00 0. -1.
</event>
<event>
 5    1  0.1258624E-009  0.9118800E+02  0.7815553E-02  0.1125453E+00
         25   -1    0    0    0    0  0.00000000000E+00  0.00000000000E+00  0.99999998245E-14  0.12509000000E+03  0.12509000000E+03 0.  0.
        -13    1    3    3    0    0 -0.44548050252E+02 -0.92640939158E+00 -0.59942621798E+01  0.44959196598E+02  0.10566000000E+00 0.  1.
         23    2    1    0    0    0 -0.80499383243E+01 -0.21641223259E+02  0.20184185714E+02  0.94421687296E+02  0.89302349508E+02 0.  0.
         13    1    3    3    0    0  0.36498111928E+02 -0.20714813868E+02  0.26178447894E+02  0.49462490698E+02  0.10566000000E+00 0. -1.
         22    1    1    0    0    0  0.80499383243E+01  0.21641223259E+02 -0.20184185714E+02  0.30668312704E+02  0.00000000000E+00 0. -1.
</event>
<event>
 5    1  0.1258624E-009  0.9118800E+02  0.7815553E-02  0.1125453E+00
         25   -1    0    0    0    0  0.00000000000E+00  0.00000000000E+00  0.99999998245E-14  0.12509000000E+03  0.12509000000E+03 0.  0.
        -13    1    3    3    0    0  0.39586394777E+02  0.12716461866E+02  0.63125659376E+01  0.42055329110E+02  0.10566000000E+00 0.  1.
         23    2    1    0    0    0 -0.10101404753E+02  0.72887758385E+01  0.26380144676E+02  0.95916781729E+02  0.91372601763E+02 0.  0.
         13    1    3    3    0    0 -0.49687799530E+02 -0.54276860271E+01  0.20067578738E+02  0.53861452618E+02  0.10566000000E+00 0. -1.
         22    1    1    0    0    0  0.10101404753E+02 -0.72887758385E+01 -0.26380144676E+02  0.29173218271E+02  0.00000000000E+00 0. -1.
</event>
<event>
 5    1  0.1258624E-009  0.9118800E+02  0.7815553E-02  0.1125453E+00
         25   -1    0    0    0    0  0.00000000000E+00  0.00000000000E+00  0.99999998245E-14  0.12509000000E+03  0.12509000000E+03 0.  0.
        -13    1    3    3    0    0  0.14323287433E+02  0.29641588339E+01  0.60218956700E+02  0.61969966198E+02  0.10566000000E+00 0.  1.
         23    2    1    0    0    0  0.42017222626E+01 -0.42644158831E+01  0.26823588367E+02  0.97606466645E+02  0.93657235306E+02 0.  0.
         13    1    3    3    0    0 -0.10121565170E+02 -0.72285747171E+01 -0.33395368333E+02  0.35636500447E+02  0.10566000000E+00 0. -1.
         22    1    1    0    0    0 -0.42017222626E+01  0.42644158831E+01 -0.26823588367E+02  0.27483533355E+02  0.00000000000E+00 0.  1.
</event>
<event>
 5    1  0.1258624E-009  0.9118800E+02  0.7815553E-02  0.1125453E+00
         25   -1    0    0    0    0  0.00000000000E+00  0.00000000000E+00  0.99999998245E-14  0.12509000000E+03  0.12509000000E+03 0.  0.
        -13    1    3    3    0    0  0.43215266567E+02  0.26174425397E+02 -0.17453266133E+02  0.53453601114E+02  0.10566000000E+00 0. -1.
         23    2    1    0    0    0  0.23081147622E+02 -0.11073147223E+02 -0.13941218881E+02  0.95940187841E+02  0.91404639347E+02 0.  0.
         13    1    3    3    0    0 -0.20134118945E+02 -0.37247572620E+02  0.35120472520E+01  0.42486586727E+02  0.10566000000E+00 0.  1.
         22    1    1    0    0    0 -0.23081147622E+02  0.11073147223E+02  0.13941218881E+02  0.29149812159E+02  0.00000000000E+00 0. -1.
</event>
<event>
 5    1  0.1258624E-009  0.9118800E+02  0.7815553E-02  0.1125453E+00
         25   -1    0    0    0    0  0.00000000000E+00  0.00000000000E+00  0.99999998245E-14  0.12509000000E+03  0.12509000000E+03 0.  0.
        -13    1    3    3    0    0 -0.26482919148E+02  0.31865231902E+02  0.36783579771E+02  0.55405603648E+02  0.10566000000E+00 0. -1.
         23    2    1    0    0    0  0.68371630984E+01  0.19919750413E+02  0.24286707600E+02  0.92943656167E+02  0.87207429729E+02 0.  0.
         13    1    3    3    0    0  0.33320082246E+02 -0.11945481489E+02 -0.12496872171E+02  0.37538052520E+02  0.10566000000E+00 0.  1.
         22    1    1    0    0    0 -0.68371630984E+01 -0.19919750413E+02 -0.24286707600E+02  0.32146343833E+02  0.00000000000E+00 0. -1.
</event>
<event>
 5    1  0.1258624E-009  0.9118800E+02  0.7815553E-02  0.1125453E+00
         25   -1    0    0    0    0  0.00000000000E+00  0.00000000000E+00  0.99999998245E-14  0.12509000000E+03  0.12509000000E+03 0.  0.
        -13    1    3    3    0    0  0.12694167466E+02  0.82038012008E+01  0.31597631511E+02  0.35026643044E+02  0.10566000000E+00 0.  1.
         23    2    1    0    0    0  0.37317987195E+02  0.10817778407E+02 -0.11358961887E+02  0.84609356315E+02  0.74297110731E+02 0.  0.
         13    1    3    3    0    0  0.24623819729E+02  0.26139772066E+01 -0.42956593398E+02  0.49582713271E+02  0.10566000000E+00 0. -1.
         22    1    1    0    0    0 -0.37317987195E+02 -0.10817778407E+02  0.11358961887E+02  0.40480643685E+02  0.00000000000E+00 0.  1.
</event>
<event>
 5    1  0.1258624E-009  0.9118800E+02  0.7815553E-02  0.1125453E+00
         25   -1    0    0    0    0  0.00000000000E+00  0.00000000000E+00  0.99999998245E-14  0.12509000000E+03  0.12509000000E+03 0.  0.
        -13    1    3    3    0    0  0.36141450602E+02  0.26686158873E+01  0.10811077081E+02  0.37818203474E+02  0.10566000000E+00 0.  1.
         23    2    1    0    0    0 -0.21098297798E+02 -0.15717704241E+02  0.78452955475E+00  0.98768908016E+02  0.95197149681E+02 0.  0.
         13    1    3    3    0    0 -0.57239748400E+02 -0.18386320128E+02 -0.10026547526E+02  0.60950704542E+02  0.10566000000E+00 0. -1.
         22    1    1    0    0    0  0.21098297798E+02  0.15717704241E+02 -0.78452955475E+00  0.26321091984E+02  0.00000000000E+00 0. -1.
</event>
<event>
 5    1  0.1258624E-009  0.9118800E+02  0.7815553E-02  0.1125453E+00
         25   -1    0    0    0    0  0.00000000000E+00  0.00000000000E+00  0.99999998245E-14  0.12509000000E+03  0.12509000000E+03 0.  0.
        -13    1    3    3    0    0 -0.54179841238E+01  0.44626811925E+02  0.41985173572E+01  0.45150255887E+02  0.10566000000E+00 0.  1.
         23    2    1    0    0    0 -0.38425870277E+01 -0.35418859310E+01  0.26375008695E+02  0.98202242290E+02  0.94449610248E+02 0.  0.
         13    1    3    3    0    0  0.15753970960E+01 -0.48168697856E+02  0.22176491338E+02  0.53051986403E+02  0.10566000000E+00 0. -1.
         22    1    1    0    0    0  0.38425870277E+01  0.35418859310E+01 -0.26375008695E+02  0.26887757710E+02  0.00000000000E+00 0. -1.
</event>
<event>
 5    1  0.1258624E-009  0.9118800E+02  0.7815553E-02  0.1125453E+00
         25   -1    0    0    0    0  0.00000000000E+00  0.00000000000E+00  0.99999998245E-14  0.12509000000E+03  0.12509000000E+03 0.  0.
        -13    1    3    3    0    0  0.37001463590E+02  0.32018304851E+01 -0.18776893005E+02  0.41616618090E+02  0.10566000000E+00 0.  1.
         23    2    1    0    0    0 -0.17448576497E+02  0.11980232258E+02 -0.18816259813E+02  0.96769858403E+02  0.92533102591E+02 0.  0.
         13    1    3    3    0    0 -0.54450040088E+02  0.87784017729E+01 -0.39366808644E-01  0.55153240313E+02  0.10566000000E+00 0. -1.
         22    1    1    0    0    0  0.17448576497E+02 -0.11980232258E+02  0.18816259813E+02  0.28320141597E+02  0.00000000000E+00 0. -1.
</event>
<event>
 5    1  0.1258624E-009  0.9118800E+02  0.7815553E-02  0.1125453E+00
         25   -1    0    0    0    0  0.00000000000E+00  0.00000000000E+00  0.99999998245E-14  0.12509000000E+03  0.12509000000E+03 0.  0.
        -13    1    3    3    0    0 -0.20890686547E+02 -0.16143409152E+02  0.22453221039E+02  0.34658169924E+02  0.10566000000E+00 0. -1.
         23    2    1    0    0    0  0.18533189489E+02 -0.10176439658E+02 -0.22138613217E+02  0.94476976106E+02  0.89379761592E+02 0.  0.
         13    1    3    3    0    0  0.39423876035E+02  0.59669694938E+01 -0.44591834257E+02  0.59818806182E+02  0.10566000000E+00 0.  1.
         22    1    1    0    0    0 -0.18533189489E+02  0.10176439658E+02  0.22138613217E+02  0.30613023894E+02  0.00000000000E+00 0.  1.
</event>
<event>
 5    1  0.1258624E-009  0.9118800E+02  0.7815553E-02  0.1125453E+00
         25   -1    0    0    0    0  0.00000000000E+00  0.00000000000E+00  0.99999998245E-14  0.12509000000E+03  0.12509000000E+03 0.  0.
        -13    1    3    3    0    0 -0.81128274314E+01  0.20367346139E+02  0.58069397290E+02  0.62070224934E+02  0.10566000000E+00 0.  1.
         23    2    1    0    0    0 -0.83295689990E+01  0.65135195321E+01  0.27215522688E+02  0.95892528678E+02  0.91339393061E+02 0.  0.
         13    1    3    3    0    0 -0.21674156767E+00 -0.13853826607E+02 -0.30853874602E+02  0.33822303744E+02  0.10566000000E+00 0. -1.
         22    1    1    0    0    0  0.83295689990E+01 -0.65135195321E+01 -0.27215522688E+02  0.29197471322E+02  0.00000000000E+00 0.  1.
</event>
<event>
 5    1  0.1258624E-009  0.9118800E+02  0.7815553E-02  0.1125453E+00
         25   -1    0    0    0    0  0.00000000000E+00  0.00000000000E+00  0.99999998245E-14  0.12509000000E+03  0.12509000000E+03 0.  0.
        -13    1    3    3    0    0 -0.80714086776E+01  0.24974190331E+01 -0.38311349924E+02  0.39232071535E+02  0.10566000000E+00 0. -1.
         23    2    1    0    0    0  0.21067949269E+02  0.22712086531E+02  0.33341579333E+01  0.93932112232E+02  0.88613925194E+02 0.  0.
         13    1    3    3    0    0  0.29139357947E+02  0.20214667498E+02  0.41645507857E+02  0.54700040698E+02  0.10566000000E+00 0.  1.
         22    1    1    0    0    0 -0.21067949269E+02 -0.22712086531E+02 -0.33341579333E+01  0.31157887768E+02  0.00000000000E+00 0.  1.
</event>
<event>
 5    1  0.1258624E-009  0.9118800E+02  0.7815553E-02  0.1125453E+00
         25   -1    0    0    0    0  0.00000000000E+00  0.00000000000E+00  0.99999998245E-14  0.12509000000E+03  0.12509000000E+03 0.  0.
        -13    1    3    3    0    0 -0.24595812230E+02 -0.29841415154E+02  0.50391612969E+01  0.38998312121E+02  0.10566000000E+00 0.  1.
         23    2    1    0    0    0  0.93644433200E+01  0.96731327770E+01  0.26514266622E+02  0.95353345330E+02  0.90597968160E+02 0.  0.
         13    1    3    3    0    0  0.33960255550E+02  0.39514547931E+02  0.21475105326E+02  0.56355033209E+02  0.10566000000E+00 0. -1.
         22    1    1    0    0    0 -0.93644433200E+01 -0.96731327770E+01 -0.26514266622E+02  0.29736654670E+02  0.00000000000E+00 0. -1.
</event>
<event>
 5    1  0.1258624E-009  0.9118800E+02  0.7815553E-02  0.1125453E+00
         25   -1    0    0    0    0  0.00000000000E+00  0.00000000000E+00  0.99999998245E-14  0.12509000000E+03  0.12509000000E+03 0.  0.
        -13    1    3    3    0    0  0.19205005196E+02 -0.25882574472E+02  0.25629903045E+02  0.41178185730E+02  0.10566000000E+00 0.  1.
         23    2    1    0    0    0 -0.28139348706E+02 -0.92929805739E+01  0.74897650963E+01  0.94524021940E+02  0.89445579595E+02 0.  0.
         13    1    3    3    0    0 -0.47344353902E+02  0.16589593899E+02 -0.18140137949E+02  0.53345836210E+02  0.10566000000E+00 0. -1.
         22    1    1    0    0    0  0.28139348706E+02  0.92929805739E+01 -0.74897650963E+01  0.30565978060E+02  0.00000000000E+00 0. -1.
</event>
<event>
 5    1  0.1258624E-009  0.9118800E+02  0.7815553E-02  0.1125453E+00
         25   -1    0    0    0    0  0.00000000000E+00  0.00000000000E+00  0.99999998245E-14  0.12509000000E+03  0.12509000000E+03 0.  0.
        -13    1    3    3    0    0  0.10698524104E+02 -0.53632029547E+02 -0.32151918116E+01  0.54783224017E+02  0.10566000000E+00 0.  1.
         23    2    1    0    0    0  0.23285447876E+02 -0.12791623515E+02 -0.67893705770E+01  0.97668598362E+02  0.93740182623E+02 0.  0.
         13    1    3    3    0    0  0.12586923773E+02  0.40840406031E+02 -0.35741787654E+01  0.42885374345E+02  0.10566000000E+00 0. -1.
         22    1    1    0    0    0 -0.23285447876E+02  0.12791623515E+02  0.67893705770E+01  0.27421401638E+02  0.00000000000E+00 0.  1.
</event>
<event>
 5    1  0.1258624E-009  0.9118800E+02  0.7815553E-02  0.1125453E+00
         25   -1    0    0    0    0  0.00000000000E+00  0.00000000000E+00  0.99999998245E-14  0.12509000000E+03  0.12509000000E+03 0.  0.
        -13    1    3    3    0    0  0.61255844604E+01  0.13840482459E+02  0.36703086066E+02  0.39701504133E+02  0.10566000000E+00 0. -1.
         23    2    1    0    0    0 -0.24197191998E+02 -0.18273382894E+02  0.43352218014E+01  0.94459708277E+02  0.89355591413E+02 0.  0.
         13    1    3    3    0    0 -0.30322776458E+02 -0.32113865353E+02 -0.32367864264E+02  0.54758204144E+02  0.10566000000E+00 0.  1.
         22    1    1    0    0    0  0.24197191998E+02  0.18273382894E+02 -0.43352218014E+01  0.30630291723E+02  0.00000000000E+00 0.  1.
</event>
<event>
 5    1  0.1258624E-009  0.9118800E+02  0.7815553E-02  0.1125453E+00
         25   -1    0    0    0    0  0.00000000000E+00  0.00000000000E+00  0.99999998245E-14  0.12509000000E+03  0.12509000000E+03 0.  0.
        -13    1    3    3    0    0 -0.17284476336E+02  0.24392315051E+02 -0.15664643516E+02  0.33751005560E+02  0.10566000000E+00 0. -1.
         23    2    1    0    0    0  0.10202295155E+02 -0.23571749798E+02  0.13305043928E+02  0.96163569027E+02  0.91709833710E+02 0.  0.
         13    1    3    3    0    0  0.27486771491E+02 -0.47964064849E+02  0.28969687444E+02  0.62412563467E+02  0.10566000000E+00 0.  1.
         22    1    1    0    0    0 -0.10202295155E+02  0.23571749798E+02 -0.13305043928E+02  0.28926430973E+02  0.00000000000E+00 0.  1.
</event>
<event>
 5    1  0.1258624E-009  0.9118800E+02  0.7815553E-02  0.1125453E+00
         25   -1    0    0    0    0  0.00000000000E+00  0.00000000000E+00  0.99999998245E-14  0.12509000000E+03  0.12509000000E+03 0.  0.
        -13    1    3    3    0    0  0.99835763077E+01  0.32803525362E+02  0.14787834542E+02  0.37342124827E+02  0.10566000000E+00 0.  1.
         23    2    1    0    0    0 -0.95363830067E+01 -0.12930465349E+01 -0.28030005413E+02  0.95453944702E+02  0.90736760938E+02 0.  0.
         13    1    3    3    0    0 -0.19519959314E+02 -0.34096571897E+02 -0.42817839955E+02  0.58111819875E+02  0.10566000000E+00 0. -1.
         22    1    1    0    0    0  0.95363830067E+01  0.12930465349E+01  0.28030005413E+02  0.29636055298E+02  0.00000000000E+00 0. -1.
</event>
<event>
 5    1  0.1258624E-009  0.9118800E+02  0.7815553E-02  0.1125453E+00
         25   -1    0    0    0    0  0.00000000000E+00  0.00000000000E+00  0.99999998245E-14  0.12509000000E+03  0.12509000000E+03 0.  0.
        -13    1    3    3    0    0 -0.48085734876E+01 -0.23759180615E+02 -0.50582406996E+02  0.56091105391E+02  0.10566000000E+00 0.  1.
         23    2    1    0    0    0  0.63017090335E+01  0.70464254900E+01 -0.27100861873E+02  0.96387728954E+02  0.92015074470E+02 0.  0.
         13    1    3    3    0    0  0.11110282521E+02  0.30805606105E+02  0.23481545123E+02  0.40296623563E+02  0.10566000000E+00 0. -1.
         22    1    1    0    0    0 -0.63017090335E+01 -0.70464254900E+01  0.27100861873E+02  0.28702271046E+02  0.00000000000E+00 0.  1.
</event>
<event>
 5    1  0.1258624E-009  0.9118800E+02  0.7815553E-02  0.1125453E+00
         25   -1    0    0    0    0  0.00000000000E+00  0.00000000000E+00  0.99999998245E-14  0.12509000000E+03  0.12509000000E+03 0.  0.
        -13    1    3    3    0    0  0.62003740165E+00 -0.44484338628E+02 -0.15299674837E+02  0.47046062999E+02  0.10566000000E+00 0.  1.
         23    2    1    0    0    0 -0.19733248343E+02 -0.60206997364E+01 -0.26038819997E+02  0.91868469898E+02  0.85651302962E+02 0.  0.
         13    1    3    3    0    0 -0.20353285745E+02  0.38463638892E+02 -0.10739145159E+02  0.44822406899E+02  0.10566000000E+00 0. -1.
         22    1    1    0    0    0  0.19733248343E+02  0.60206997364E+01  0.26038819997E+02  0.33221530102E+02  0.00000000000E+00 0.  1.
</event>
<event>
 5    1  0.1258624E-009  0.9118800E+02  0.7815553E-02  0.1125453E+00
         25   -1    0    0    0    0  0.00000000000E+00  0.00000000000E+00  0.99999998245E-14  0.12509000000E+03  0.12509000000E+03 0.  0.
        -13    1    3    3    0    0 -0.16700691950E+02  0.36105887069E+02 -0.30321714810E+02  0.50019653594E+02  0.10566000000E+00 0.  1.
         23    2    1    0    0    0  0.60769970547E+01  0.28904715463E+02  0.73732191144E+01  0.94646990469E+02  0.89617386569E+02 0.  0.
         13    1    3    3    0    0  0.22777689005E+02 -0.72011716060E+01  0.37694933925E+02  0.44627336874E+02  0.10566000000E+00 0. -1.
         22    1    1    0    0    0 -0.60769970547E+01 -0.28904715463E+02 -0.73732191144E+01  0.30443009531E+02  0.00000000000E+00 0.  1.
</event>
<event>
 5    1  0.1258624E-009  0.9118800E+02  0.7815553E-02  0.1125453E+00
         25   -1    0    0    0    0  0.00000000000E+00  0.00000000000E+00  0.99999998245E-14  0.12509000000E+03  0.12509000000E+03 0.  0.
        -13    1    3    3    0    0  0.22298401027E+02 -0.72185359447E+01  0.27820323348E+02  0.36377293807E+02  0.10566000000E+00 0. -1.
         23    2    1    0    0    0  0.37031508273E+01 -0.25013223805E+02 -0.21428135151E+02  0.91945774753E+02  0.85764129027E+02 0.  0.
         13    1    3    3    0    0 -0.18595250199E+02 -0.17794687860E+02 -0.49248458499E+02  0.55568480946E+02  0.10566000000E+00 0.  1.
         22    1    1    0    0    0 -0.37031508273E+01  0.25013223805E+02  0.21428135151E+02  0.33144225247E+02  0.00000000000E+00 0.  1.
</event>
<event>
 5    1  0.1258624E-009  0.9118800E+02  0.7815553E-02  0.1125453E+00
         25   -1    0    0    0    0  0.00000000000E+00  0.00000000000E+00  0.99999998245E-14  0.12509000000E+03  0.12509000000E+03 0.  0.
        -13    1    3    3    0    0 -0.16553269160E+02 -0.56437348885E+01 -0.29450315564E+02  0.34251930080E+02  0.10566000000E+00 0. -1.
         23    2    1    0    0    0  0.12242137348E+02 -0.14497038492E+02  0.23325949124E+02  0.95021179697E+02  0.90138175246E+02 0.  0.
         13    1    3    3    0    0  0.28795406507E+02 -0.88533036034E+01  0.52776264688E+02  0.60769249617E+02  0.10566000000E+00 0.  1.
         22    1    1    0    0    0 -0.12242137348E+02  0.14497038492E+02 -0.23325949124E+02  0.30068820303E+02  0.00000000000E+00 0.  1.
</event>
<event>
 5    1  0.1258624E-009  0.9118800E+02  0.7815553E-02  0.1125453E+00
         25   -1    0    0    0    0  0.00000000000E+00  0.00000000000E+00  0.99999998245E-14  0.12509000000E+03  0.12509000000E+03 0.  0.
        -13    1    3    3    0    0 -0.41536447892E+02 -0.19030306038E+02 -0.14527248778E+02  0.47942477746E+02  0.10566000000E+00 0.  1.
         23    2    1    0    0    0  0.15530322594E+01 -0.26583417395E+02 -0.19661294019E+02  0.91989298011E+02  0.85827585755E+02 0.  0.
         13    1    3    3    0    0  0.43089480151E+02 -0.75531113577E+01 -0.51340452412E+01  0.44046820265E+02  0.10566000000E+00 0. -1.
         22    1    1    0    0    0 -0.15530322594E+01  0.26583417395E+02  0.19661294019E+02  0.33100701989E+02  0.00000000000E+00 0.  1.
</event>
<event>
 5    1  0.1258624E-009  0.9118800E+02  0.7815553E-02  0.1125453E+00
         25   -1    0    0    0    0  0.00000000000E+00  0.00000000000E+00  0.99999998245E-14  0.12509000000E+03  0.12509000000E+03 0.  0.
        -13    1    3    3    0    0 -0.31357205236E+02 -0.45426992982E+02  0.22870482835E+02  0.59749110125E+02  0.10566000000E+00 0.  1.
         23    2    1    0    0    0 -0.34850193073E+01 -0.22827456595E+02  0.17682520351E+02  0.96005473871E+02  0.91493941619E+02 0.  0.
         13    1    3    3    0    0  0.27872185928E+02  0.22599536387E+02 -0.51879624840E+01  0.36256363746E+02  0.10566000000E+00 0. -1.
         22    1    1    0    0    0  0.34850193073E+01  0.22827456595E+02 -0.17682520351E+02  0.29084526129E+02  0.00000000000E+00 0.  1.
</event>
<event>
 5    1  0.1258624E-009  0.9118800E+02  0.7815553E-02  0.1125453E+00
         25   -1    0    0    0    0  0.00000000000E+00  0.00000000000E+00  0.99999998245E-14  0.12509000000E+03  0.12509000000E+03 0.  0.
        -13    1    3    3    0    0  0.21160605033E+02 -0.24207064374E+02 -0.69745124245E+01  0.32899972014E+02  0.10566000000E+00 0. -1.
         23    2    1    0    0    0 -0.19719060309E+02  0.21872070720E+02 -0.82335409086E+01  0.94511903052E+02  0.89428629675E+02 0.  0.
         13    1    3    3    0    0 -0.40879665341E+02  0.46079135094E+02 -0.12590284842E+01  0.61611931038E+02  0.10566000000E+00 0.  1.
         22    1    1    0    0    0  0.19719060309E+02 -0.21872070720E+02  0.82335409086E+01  0.30578096948E+02  0.00000000000E+00 0.  1.
</event>
<event>
 5    1  0.1258624E-009  0.9118800E+02  0.7815553E-02  0.1125453E+00
         25   -1    0    0    0    0  0.00000000000E+00  0.00000000000E+00  0.99999998245E-14  0.12509000000E+03  0.12509000000E+03 0.  0.
        -13    1    3    3    0    0 -0.15367445645E+02  0.45668169554E+02 -0.31521558806E+02  0.57579162287E+02  0.10566000000E+00 0.  1.
         23    2    1    0    0    0  0.94660882313E+01  0.25902457860E+02 -0.10862949360E+02  0.95449692674E+02  0.90730898888E+02 0.  0.
         13    1    3    3    0    0  0.24833533877E+02 -0.19765711694E+02  0.20658609445E+02  0.37870530387E+02  0.10566000000E+00 0. -1.
         22    1    1    0    0    0 -0.94660882313E+01 -0.25902457860E+02  0.10862949360E+02  0.29640307326E+02  0.00000000000E+00 0.  1.
</event>
<event>
 5    1  0.1258624E-009  0.9118800E+02  0.7815553E-02  0.1125453E+00
         25   -1    0    0    0    0  0.00000000000E+00  0.00000000000E+00  0.99999998245E-14  0.12509000000E+03  0.12509000000E+03 0.  0.
        -13    1    3    3    0    0 -0.36624001101E+02 -0.96943645847E+01 -0.20615902806E+02  0.43131482398E+02  0.10566000000E+00 0. -1.
         23    2    1    0    0    0  0.33475147413E+00 -0.26326348757E+02  0.12944324034E+02  0.95751557265E+02  0.91146127161E+02 0.  0.
         13    1    3    3    0    0  0.36958752575E+02 -0.16631984173E+02  0.33560226839E+02  0.52620074866E+02  0.10566000000E+00 0.  1.
         22    1    1    0    0    0 -0.33475147413E+00  0.26326348757E+02 -0.12944324034E+02  0.29338442735E+02  0.00000000000E+00 0.  1.
</event>
<event>
 5    1  0.1258624E-009  0.9118800E+02  0.7815553E-02  0.1125453E+00
         25   -1    0    0    0    0  0.00000000000E+00  0.00000000000E+00  0.99999998245E-14  0.12509000000E+03  0.12509000000E+03 0.  0.
        -13    1    3    3    0    0 -0.23843635352E+02 -0.69384832322E+01 -0.54864215820E+02  0.60222544267E+02  0.10566000000E+00 0.  1.
         23    2    1    0    0    0 -0.17717275500E+02 -0.11721723310E+02 -0.20103096469E+02  0.95842177241E+02  0.91270410332E+02 0.  0.
         13    1    3    3    0    0  0.61263598517E+01 -0.47832400773E+01  0.34761119351E+02  0.35619632974E+02  0.10566000000E+00 0. -1.
         22    1    1    0    0    0  0.17717275500E+02  0.11721723310E+02  0.20103096469E+02  0.29247822759E+02  0.00000000000E+00 0.  1.
</event>
<event>
 5    1  0.1258624E-009  0.9118800E+02  0.7815553E-02  0.1125453E+00
         25   -1    0    0    0    0  0.00000000000E+00  0.00000000000E+00  0.99999998245E-14  0.12509000000E+03  0.12509000000E+03 0.  0.
        -13    1    3    3    0    0  0.35455104288E+02 -0.15569453320E+00 -0.14866268827E+01  0.35486756464E+02  0.10566000000E+00 0. -1.
         23    2    1    0    0    0 -0.97235477749E+01  0.39574355089E+01  0.31701092966E+02  0.91695869193E+02  0.85398855113E+02 0.  0.
         13    1    3    3    0    0 -0.45178652063E+02  0.41131300421E+01  0.33187719848E+02  0.56209112728E+02  0.10566000000E+00 0.  1.
         22    1    1    0    0    0  0.97235477749E+01 -0.39574355089E+01 -0.31701092966E+02  0.33394130807E+02  0.00000000000E+00 0.  1.
</event>
<event>
 5    1  0.1258624E-009  0.9118800E+02  0.7815553E-02  0.1125453E+00
         25   -1    0    0    0    0  0.00000000000E+00  0.00000000000E+00  0.99999998245E-14  0.12509000000E+03  0.12509000000E+03 0.  0.
        -13    1    3    3    0    0 -0.63581232577E+01 -0.42841971895E+02  0.24209868426E+02  0.49618435893E+02  0.10566000000E+00 0.  1.
         23    2    1    0    0    0  0.24759248798E+02 -0.17162700537E+02  0.41367083237E+01  0.94681266936E+02  0.89665217683E+02 0.  0.
         13    1    3    3    0    0  0.31117372056E+02  0.25679271358E+02 -0.20073160102E+02  0.45062831044E+02  0.10566000000E+00 0. -1.
         22    1    1    0    0    0 -0.24759248798E+02  0.17162700537E+02 -0.41367083237E+01  0.30408733064E+02  0.00000000000E+00 0.  1.
</event>
<event>
 5    1  0.1258624E-009  0.9118800E+02  0.7815553E-02  0.1125453E+00
         25   -1    0    0    0    0  0.00000000000E+00  0.00000000000E+00  0.99999998245E-14  0.12509000000E+03  0.12509000000E+03 0.  0.
        -13    1    3    3    0    0  0.21027563257E+02  0.20500918656E+02  0.21559142500E+02  0.36431495600E+02  0.10566000000E+00 0. -1.
         23    2    1    0    0    0 -0.28132134355E+02  0.43945288553E+01 -0.73378756599E+01  0.95686372904E+02  0.91056623444E+02 0.  0.
         13    1    3    3    0    0 -0.49159697612E+02 -0.16106389801E+02 -0.28897018160E+02  0.59254877304E+02  0.10566000000E+00 0.  1.
         22    1    1    0    0    0  0.28132134355E+02 -0.43945288553E+01  0.73378756599E+01  0.29403627096E+02  0.00000000000E+00 0.  1.
</event>
<event>
 5    1  0.1258624E-009  0.9118800E+02  0.7815553E-02  0.1125453E+00
         25   -1    0    0    0    0  0.00000000000E+00  0.00000000000E+00  0.99999998245E-14  0.12509000000E+03  0.12509000000E+03 0.  0.
        -13    1    3    3    0    0 -0.27961314692E+01 -0.45040892388E+01 -0.33263251463E+02  0.33683233707E+02  0.10566000000E+00 0.  1.
         23    2    1    0    0    0 -0.40379007741E+01 -0.28385669852E+01  0.28844719247E+02  0.95826030112E+02  0.91248277318E+02 0.  0.
         13    1    3    3    0    0 -0.12417693049E+01  0.16655222536E+01  0.62107970709E+02  0.62142796405E+02  0.10566000000E+00 0. -1.
         22    1    1    0    0    0  0.40379007741E+01  0.28385669852E+01 -0.28844719247E+02  0.29263969888E+02  0.00000000000E+00 0. -1.
</event>
<event>
 5    1  0.1258624E-009  0.9118800E+02  0.7815553E-02  0.1125453E+00
         25   -1    0    0    0    0  0.00000000000E+00  0.00000000000E+00  0.99999998245E-14  0.12509000000E+03  0.12509000000E+03 0.  0.
        -13    1    3    3    0    0 -0.16249078413E+02  0.45394496332E+02  0.68031352457E+01  0.48692778312E+02  0.10566000000E+00 0.  1.
         23    2    1    0    0    0  0.61345597657E+01  0.14939210888E+02 -0.23111588918E+02  0.96894993567E+02  0.92702111036E+02 0.  0.
         13    1    3    3    0    0  0.22383638178E+02 -0.30455285445E+02 -0.29914724164E+02  0.48202215255E+02  0.10566000000E+00 0. -1.
         22    1    1    0    0    0 -0.61345597657E+01 -0.14939210888E+02  0.23111588918E+02  0.28195006433E+02  0.00000000000E+00 0. -1.
</event>
<event>
 5    1  0.1258624E-009  0.9118800E+02  0.7815553E-02  0.1125453E+00
         25   -1    0    0    0    0  0.00000000000E+00  0.00000000000E+00  0.99999998245E-14  0.12509000000E+03  0.12509000000E+03 0.  0.
        -13    1    3    3    0    0 -0.41517053946E+02  0.19684020903E+02 -0.41527304963E+02  0.61932662374E+02  0.10566000000E+00 0.  1.
         23    2    1    0    0    0 -0.13439054138E+02  0.12297630871E+02 -0.19719627786E+02  0.98244076265E+02  0.94504999338E+02 0.  0.
         13    1    3    3    0    0  0.28077999807E+02 -0.73863900317E+01  0.21807677176E+02  0.36311413891E+02  0.10566000000E+00 0. -1.
         22    1    1    0    0    0  0.13439054138E+02 -0.12297630871E+02  0.19719627786E+02  0.26845923735E+02  0.00000000000E+00 0.  1.
</event>
<event>
 5    1  0.1258624E-009  0.9118800E+02  0.7815553E-02  0.1125453E+00
         25   -1    0    0    0    0  0.00000000000E+00  0.00000000000E+00  0.99999998245E-14  0.12509000000E+03  0.12509000000E+03 0.  0.
        -13    1    3    3    0    0  0.39603590529E+02 -0.10139032966E+02 -0.21862952011E+02  0.46359941835E+02  0.10566000000E+00 0.  1.
         23    2    1    0    0    0  0.64248469705E+01  0.25272323290E+02 -0.13916601869E+02  0.95532584845E+02  0.90845109810E+02 0.  0.
         13    1    3    3    0    0 -0.33178743558E+02  0.35411356256E+02  0.79463501413E+01  0.49172643010E+02  0.10566000000E+00 0. -1.
         22    1    1    0    0    0 -0.64248469705E+01 -0.25272323290E+02  0.13916601869E+02  0.29557415155E+02  0.00000000000E+00 0.  1.
</event>
<event>
 5    1  0.1258624E-009  0.9118800E+02  0.7815553E-02  0.1125453E+00
         25   -1    0    0    0    0  0.00000000000E+00  0.00000000000E+00  0.99999998245E-14  0.12509000000E+03  0.12509000000E+03 0.  0.
        -13    1    3    3    0    0 -0.48351078328E+02  0.17436168255E+02  0.35327408881E+02  0.62368932339E+02  0.10566000000E+00 0. -1.
         23    2    1    0    0    0 -0.32992598843E+02  0.88856962911E+01  0.24949015770E+02  0.82782547171E+02  0.71154968564E+02 0.  0.
         13    1    3    3    0    0  0.15358479485E+02 -0.85504719644E+01 -0.10378393111E+02  0.20413614832E+02  0.10566000000E+00 0.  1.
         22    1    1    0    0    0  0.32992598843E+02 -0.88856962911E+01 -0.24949015770E+02  0.42307452829E+02  0.00000000000E+00 0. -1.
</event>
<event>
 5    1  0.1258624E-009  0.9118800E+02  0.7815553E-02  0.1125453E+00
         25   -1    0    0    0    0  0.00000000000E+00  0.00000000000E+00  0.99999998245E-14  0.12509000000E+03  0.12509000000E+03 0.  0.
        -13    1    3    3    0    0 -0.11753771599E+02 -0.37927566582E+02  0.42556939531E+02  0.58204430415E+02  0.10566000000E+00 0. -1.
         23    2    1    0    0    0  0.67902587667E+00 -0.56303982676E+01  0.29270865345E+02  0.95274802217E+02  0.90489457500E+02 0.  0.
         13    1    3    3    0    0  0.12432797475E+02  0.32297168315E+02 -0.13286074186E+02  0.37070371802E+02  0.10566000000E+00 0.  1.
         22    1    1    0    0    0 -0.67902587667E+00  0.56303982676E+01 -0.29270865345E+02  0.29815197783E+02  0.00000000000E+00 0. -1.
</event>
<event>
 5    1  0.1258624E-009  0.9118800E+02  0.7815553E-02  0.1125453E+00
         25   -1    0    0    0    0  0.00000000000E+00  0.00000000000E+00  0.99999998245E-14  0.12509000000E+03  0.12509000000E+03 0.  0.
        -13    1    3    3    0    0 -0.43863057730E+02 -0.14914666861E+02 -0.25033237617E+02  0.52660129801E+02  0.10566000000E+00 0.  1.
         23    2    1    0    0    0 -0.14377984600E+01 -0.10361927813E+02 -0.27768151281E+02  0.95416661159E+02  0.90685347155E+02 0.  0.
         13    1    3    3    0    0  0.42425259270E+02  0.45527390476E+01 -0.27349136639E+01  0.42756531358E+02  0.10566000000E+00 0. -1.
         22    1    1    0    0    0  0.14377984600E+01  0.10361927813E+02  0.27768151281E+02  0.29673338841E+02  0.00000000000E+00 0.  1.
</event>
<event>
 5    1  0.1258624E-009  0.9118800E+02  0.7815553E-02  0.1125453E+00
         25   -1    0    0    0    0  0.00000000000E+00  0.00000000000E+00  0.99999998245E-14  0.12509000000E+03  0.12509000000E+03 0.  0.
        -13    1    3    3    0    0  0.28620768751E+02 -0.28028711285E+02 -0.30972889629E+02  0.50636825693E+02  0.10566000000E+00 0. -1.
         23    2    1    0    0    0  0.95045882460E+01 -0.25346445332E+02  0.10241170877E+02  0.96147625017E+02  0.91688083887E+02 0.  0.
         13    1    3    3    0    0 -0.19116180505E+02  0.26822659526E+01  0.41214060506E+02  0.45510799325E+02  0.10566000000E+00 0.  1.
         22    1    1    0    0    0 -0.95045882460E+01  0.25346445332E+02 -0.10241170877E+02  0.28942374983E+02  0.00000000000E+00 0. -1.
</event>
<event>
 5    1  0.1258624E-009  0.9118800E+02  0.7815553E-02  0.1125453E+00
         25   -1    0    0    0    0  0.00000000000E+00  0.00000000000E+00  0.99999998245E-14  0.12509000000E+03  0.12509000000E+03 0.  0.
        -13    1    3    3    0    0  0.35037406225E+02  0.26562651531E+02 -0.30236303210E+02  0.53361404472E+02  0.10566000000E+00 0.  1.
         23    2    1    0    0    0 -0.42383930346E+01  0.25344311610E+02 -0.13377868285E+02  0.96119921189E+02  0.91650279776E+02 0.  0.
         13    1    3    3    0    0 -0.39275799260E+02 -0.12183399211E+01  0.16858434926E+02  0.42758516717E+02  0.10566000000E+00 0. -1.
         22    1    1    0    0    0  0.42383930346E+01 -0.25344311610E+02  0.13377868285E+02  0.28970078811E+02  0.00000000000E+00 0.  1.
</event>
<event>
 5    1  0.1258624E-009  0.9118800E+02  0.7815553E-02  0.1125453E+00
         25   -1    0    0    0    0  0.00000000000E+00  0.00000000000E+00  0.99999998245E-14  0.12509000000E+03  0.12509000000E+03 0.  0.
        -13    1    3    3    0    0 -0.16737605120E+02  0.11872929066E+02 -0.38208185930E+02  0.43370387430E+02  0.10566000000E+00 0.  1.
         23    2    1    0    0    0 -0.24243342371E+02 -0.20916905259E+02 -0.16817139531E+01  0.93026239511E+02  0.87325806614E+02 0.  0.
         13    1    3    3    0    0 -0.75057372504E+01 -0.32789834325E+02  0.36526471977E+02  0.49655852080E+02  0.10566000000E+00 0. -1.
         22    1    1    0    0    0  0.24243342371E+02  0.20916905259E+02  0.16817139531E+01  0.32063760489E+02  0.00000000000E+00 0.  1.
</event>
<event>
 5    1  0.1258624E-009  0.9118800E+02  0.7815553E-02  0.1125453E+00
         25   -1    0    0    0    0  0.00000000000E+00  0.00000000000E+00  0.99999998245E-14  0.12509000000E+03  0.12509000000E+03 0.  0.
        -13    1    3    3    0    0  0.54874612943E+02 -0.28730488156E+01 -0.17980910606E+02  0.57816968663E+02  0.10566000000E+00 0. -1.
         23    2    1    0    0    0  0.21277732844E+02 -0.18071423537E+02 -0.88342584621E+01  0.95809248879E+02  0.91225269441E+02 0.  0.
         13    1    3    3    0    0 -0.33596880099E+02 -0.15198374721E+02  0.91466521443E+01  0.37992280216E+02  0.10566000000E+00 0.  1.
         22    1    1    0    0    0 -0.21277732844E+02  0.18071423537E+02  0.88342584621E+01  0.29280751121E+02  0.00000000000E+00 0. -1.
</event>
<event>
 5    1  0.1258624E-009  0.9118800E+02  0.7815553E-02  0.1125453E+00
         25   -1    0    0    0    0  0.00000000000E+00  0.00000000000E+00  0.99999998245E-14  0.12509000000E+03  0.12509000000E+03 0.  0.
        -13    1    3    3    0    0 -0.22656461017E+02  0.45017290186E+02  0.44646410811E+01  0.50594622496E+02  0.10566000000E+00 0.  1.
         23    2    1    0    0    0  0.16756557026E+02  0.21940675059E+02  0.78391935919E+01  0.96391073512E+02  0.92019621121E+02 0.  0.
         13    1    3    3    0    0  0.39413018043E+02 -0.23076615127E+02  0.33745525109E+01  0.45796451016E+02  0.10566000000E+00 0. -1.
         22    1    1    0    0    0 -0.16756557026E+02 -0.21940675059E+02 -0.78391935919E+01  0.28698926488E+02  0.00000000000E+00 0. -1.
</event>
<event>
 5    1  0.1258624E-009  0.9118800E+02  0.7815553E-02  0.1125453E+00
         25   -1    0    0    0    0  0.00000000000E+00  0.00000000000E+00  0.99999998245E-14  0.12509000000E+03  0.12509000000E+03 0.  0.
        -13    1    3    3    0    0 -0.35330848762E+02  0.46600848897E+02  0.21598609715E+02  0.62341150918E+02  0.10566000000E+00 0.  1.
         23    2    1    0    0    0 -0.14902063733E+02  0.21043476593E+02  0.13206425963E+02  0.96119168163E+02  0.91649251993E+02 0.  0.
         13    1    3    3    0    0  0.20428785029E+02 -0.25557372303E+02 -0.83921837525E+01  0.33778017244E+02  0.10566000000E+00 0. -1.
         22    1    1    0    0    0  0.14902063733E+02 -0.21043476593E+02 -0.13206425963E+02  0.28970831837E+02  0.00000000000E+00 0.  1.
</event>
<event>
 5    1  0.1258624E-009  0.9118800E+02  0.7815553E-02  0.1125453E+00
         25   -1    0    0    0    0  0.00000000000E+00  0.00000000000E+00  0.99999998245E-14  0.12509000000E+03  0.12509000000E+03 0.  0.
        -13    1    3    3    0    0 -0.29311313150E+02  0.50446411638E+02 -0.90735631907E+01  0.59045188109E+02  0.10566000000E+00 0.  1.
         23    2    1    0    0    0 -0.57690608466E+01  0.22445242104E+02 -0.16839272718E+02  0.96443323721E+02  0.92090621827E+02 0.  0.
         13    1    3    3    0    0  0.23542252303E+02 -0.28001169534E+02 -0.77657095271E+01  0.37398135613E+02  0.10566000000E+00 0. -1.
         22    1    1    0    0    0  0.57690608466E+01 -0.22445242104E+02  0.16839272718E+02  0.28646676279E+02  0.00000000000E+00 0.  1.
</event>
<event>
 5    1  0.1258624E-009  0.9118800E+02  0.7815553E-02  0.1125453E+00
         25   -1    0    0    0    0  0.00000000000E+00  0.00000000000E+00  0.99999998245E-14  0.12509000000E+03  0.12509000000E+03 0.  0.
        -13    1    3    3    0    0  0.91153254328E+01  0.36461551949E+02 -0.13469762015E+02  0.39924673838E+02  0.10566000000E+00 0.  1.
         23    2    1    0    0    0  0.23740670536E+02 -0.11070543394E+02  0.12541263592E+02  0.96047623014E+02  0.91551549553E+02 0.  0.
         13    1    3    3    0    0  0.14625345103E+02 -0.47532095343E+02  0.26011025607E+02  0.56122949176E+02  0.10566000000E+00 0. -1.
         22    1    1    0    0    0 -0.23740670536E+02  0.11070543394E+02 -0.12541263592E+02  0.29042376986E+02  0.00000000000E+00 0. -1.
</event>
<event>
 5    1  0.1258624E-009  0.9118800E+02  0.7815553E-02  0.1125453E+00
         25   -1    0    0    0    0  0.00000000000E+00  0.00000000000E+00  0.99999998245E-14  0.12509000000E+03  0.12509000000E+03 0.  0.
        -13    1    3    3    0    0 -0.42925826358E+02 -0.16523637169E+02  0.58929674649E+01  0.46372355810E+02  0.10566000000E+00 0. -1.
         23    2    1    0    0    0 -0.14482535862E+02 -0.86925888890E+01 -0.28670081951E+02  0.91814204808E+02  0.85572014460E+02 0.  0.
         13    1    3    3    0    0  0.28443290495E+02  0.78310482796E+01 -0.34563049416E+02  0.45441848998E+02  0.10566000000E+00 0.  1.
         22    1    1    0    0    0  0.14482535862E+02  0.86925888890E+01  0.28670081951E+02  0.33275795192E+02  0.00000000000E+00 0.  1.
</event>
<event>
 5    1  0.1258624E-009  0.9118800E+02  0.7815553E-02  0.1125453E+00
         25   -1    0    0    0    0  0.00000000000E+00  0.00000000000E+00  0.99999998245E-14  0.12509000000E+03  0.12509000000E+03 0.  0.
        -13    1    3    3    0    0  0.41532119466E+02 -0.17592886069E+02 -0.99057834679E+01  0.46179674076E+02  0.10566000000E+00 0.  1.
         23    2    1    0    0    0  0.16122590689E+02  0.15572115289E+02  0.17932383498E+02  0.96384615783E+02  0.92010842169E+02 0.  0.
         13    1    3    3    0    0 -0.25409528777E+02  0.33165001358E+02  0.27838166966E+02  0.50204941707E+02  0.10566000000E+00 0. -1.
         22    1    1    0    0    0 -0.16122590689E+02 -0.15572115289E+02 -0.17932383498E+02  0.28705384217E+02  0.00000000000E+00 0.  1.
</event>
<event>
 5    1  0.1258624E-009  0.9118800E+02  0.7815553E-02  0.1125453E+00
         25   -1    0    0    0    0  0.00000000000E+00  0.00000000000E+00  0.99999998245E-14  0.12509000000E+03  0.12509000000E+03 0.  0.
        -13    1    3    3    0    0  0.36411195652E+02 -0.15349323995E+02 -0.59809988375E+00  0.39518929685E+02  0.10566000000E+00 0.  1.
         23    2    1    0    0    0 -0.16565353233E+02 -0.17600350037E+02 -0.17587286713E+02  0.95198598175E+02  0.90384053855E+02 0.  0.
         13    1    3    3    0    0 -0.52976548885E+02 -0.22510260420E+01 -0.16989186830E+02  0.55679668490E+02  0.10566000000E+00 0. -1.
         22    1    1    0    0    0  0.16565353233E+02  0.17600350037E+02  0.17587286713E+02  0.29891401825E+02  0.00000000000E+00 0. -1.
</event>
<event>
 5    1  0.1258624E-009  0.9118800E+02  0.7815553E-02  0.1125453E+00
         25   -1    0    0    0    0  0.00000000000E+00  0.00000000000E+00  0.99999998245E-14  0.12509000000E+03  0.12509000000E+03 0.  0.
        -13    1    3    3    0    0 -0.53840368615E+02  0.21344218884E+02 -0.17103709800E+02  0.60389643361E+02  0.10566000000E+00 0.  1.
         23    2    1    0    0    0 -0.21975810275E+02  0.17083709843E+02  0.90866018177E+00  0.97240133886E+02  0.93166671055E+02 0.  0.
         13    1    3    3    0    0  0.31864558340E+02 -0.42605090404E+01  0.18012369982E+02  0.36850490524E+02  0.10566000000E+00 0. -1.
         22    1    1    0    0    0  0.21975810275E+02 -0.17083709843E+02 -0.90866018177E+00  0.27849866114E+02  0.00000000000E+00 0.  1.
</event>
<event>
 5    1  0.1258624E-009  0.9118800E+02  0.7815553E-02  0.1125453E+00
         25   -1    0    0    0    0  0.00000000000E+00  0.00000000000E+00  0.99999998245E-14  0.12509000000E+03  0.12509000000E+03 0.  0.
        -13    1    3    3    0    0  0.33205495187E+01 -0.94768348330E+01  0.56376535531E+02  0.57263962228E+02  0.10566000000E+00 0.  1.
         23    2    1    0    0    0 -0.64559884730E+01 -0.19602146393E+02  0.19656979262E+02  0.96588758552E+02  0.92287959748E+02 0.  0.
         13    1    3    3    0    0 -0.97765379916E+01 -0.10125311560E+02 -0.36719556269E+02  0.39324796324E+02  0.10566000000E+00 0. -1.
         22    1    1    0    0    0  0.64559884730E+01  0.19602146393E+02 -0.19656979262E+02  0.28501241448E+02  0.00000000000E+00 0.  1.
</event>
<event>
 5    1  0.1258624E-009  0.9118800E+02  0.7815553E-02  0.1125453E+00
         25   -1    0    0    0    0  0.00000000000E+00  0.00000000000E+00  0.99999998245E-14  0.12509000000E+03  0.12509000000E+03 0.  0.
        -13    1    3    3    0    0 -0.27657547253E+02 -0.53916303916E+01 -0.53917105613E+02  0.60836461436E+02  0.10566000000E+00 0. -1.
         23    2    1    0    0    0 -0.39713771441E+01  0.20731707151E+01 -0.28008331955E+02  0.96725646805E+02  0.92473316247E+02 0.  0.
         13    1    3    3    0    0  0.23686170109E+02  0.74648011066E+01  0.25908773658E+02  0.35889185369E+02  0.10566000000E+00 0.  1.
         22    1    1    0    0    0  0.39713771441E+01 -0.20731707151E+01  0.28008331955E+02  0.28364353195E+02  0.00000000000E+00 0. -1.
</event>
<event>
 5    1  0.1258624E-009  0.9118800E+02  0.7815553E-02  0.1125453E+00
         25   -1    0    0    0    0  0.00000000000E+00  0.00000000000E+00  0.99999998245E-14  0.12509000000E+03  0.12509000000E+03 0.  0.
        -13    1    3    3    0    0 -0.23160418765E+02 -0.49466194358E+02 -0.17530795303E+02  0.57364181591E+02  0.10566000000E+00 0. -1.
         23    2    1    0    0    0 -0.21982202985E+02 -0.20039024713E+02  0.56118330130E+01  0.94820007775E+02  0.89858563561E+02 0.  0.
         13    1    3    3    0    0  0.11782157800E+01  0.29427169645E+02  0.23142628316E+02  0.37455826184E+02  0.10566000000E+00 0.  1.
         22    1    1    0    0    0  0.21982202985E+02  0.20039024713E+02 -0.56118330130E+01  0.30269992225E+02  0.00000000000E+00 0. -1.
</event>
<event>
 5    1  0.1258624E-009  0.9118800E+02  0.7815553E-02  0.1125453E+00
         25   -1    0    0    0    0  0.00000000000E+00  0.00000000000E+00  0.99999998245E-14  0.12509000000E+03  0.12509000000E+03 0.  0.
        -13    1    3    3    0    0  0.29609771588E+02 -0.30949326748E+02 -0.97258495830E+01  0.43922690193E+02  0.10566000000E+00 0.  1.
         23    2    1    0    0    0  0.48436146422E+01  0.10341498041E+02  0.21102924863E+02  0.10109540431E+03  0.98206619687E+02 0.  0.
         13    1    3    3    0    0 -0.24766156945E+02  0.41290824789E+02  0.30828774446E+02  0.57172714117E+02  0.10566000000E+00 0. -1.
         22    1    1    0    0    0 -0.48436146422E+01 -0.10341498041E+02 -0.21102924863E+02  0.23994595690E+02  0.00000000000E+00 0. -1.
</event>
<event>
 5    1  0.1258624E-009  0.9118800E+02  0.7815553E-02  0.1125453E+00
         25   -1    0    0    0    0  0.00000000000E+00  0.00000000000E+00  0.99999998245E-14  0.12509000000E+03  0.12509000000E+03 0.  0.
        -13    1    3    3    0    0  0.45739633331E+02  0.11013391190E+02 -0.13551970490E+01  0.47066512149E+02  0.10566000000E+00 0. -1.
         23    2    1    0    0    0  0.18425951608E+00  0.28878894905E+02  0.21860297236E+01  0.96127899792E+02  0.91661168823E+02 0.  0.
         13    1    3    3    0    0 -0.45555373815E+02  0.17865503715E+02  0.35412267725E+01  0.49061387644E+02  0.10566000000E+00 0.  1.
         22    1    1    0    0    0 -0.18425951608E+00 -0.28878894905E+02 -0.21860297236E+01  0.28962100208E+02  0.00000000000E+00 0.  1.
</event>
<event>
 5    1  0.1258624E-009  0.9118800E+02  0.7815553E-02  0.1125453E+00
         25   -1    0    0    0    0  0.00000000000E+00  0.00000000000E+00  0.99999998245E-14  0.12509000000E+03  0.12509000000E+03 0.  0.
        -13    1    3    3    0    0  0.45587888576E+02  0.74403825585E+01 -0.11424476942E+02  0.47583029694E+02  0.10566000000E+00 0.  1.
         23    2    1    0    0    0  0.10522362993E+02 -0.10778487945E+01  0.24439813335E+02  0.98459446930E+02  0.94789642541E+02 0.  0.
         13    1    3    3    0    0 -0.35065525582E+02 -0.85182313531E+01  0.35864290276E+02  0.50876417236E+02  0.10566000000E+00 0. -1.
         22    1    1    0    0    0 -0.10522362993E+02  0.10778487945E+01 -0.24439813335E+02  0.26630553070E+02  0.00000000000E+00 0.  1.
</event>
<event>
 5    1  0.1258624E-009  0.9118800E+02  0.7815553E-02  0.1125453E+00
         25   -1    0    0    0    0  0.00000000000E+00  0.00000000000E+00  0.99999998245E-14  0.12509000000E+03  0.12509000000E+03 0.  0.
        -13    1    3    3    0    0 -0.70857803695E+01  0.18672025434E+02 -0.50025457711E+02  0.53864741719E+02  0.10566000000E+00 0.  1.
         23    2    1    0    0    0 -0.25018571115E+02  0.70069310759E+01 -0.14494427606E+02  0.95339127485E+02  0.90578335237E+02 0.  0.
         13    1    3    3    0    0 -0.17932790746E+02 -0.11665094358E+02  0.35531030105E+02  0.41474385766E+02  0.10566000000E+00 0. -1.
         22    1    1    0    0    0  0.25018571115E+02 -0.70069310759E+01  0.14494427606E+02  0.29750872515E+02  0.00000000000E+00 0.  1.
</event>
<event>
 5    1  0.1258624E-009  0.9118800E+02  0.7815553E-02  0.1125453E+00
         25   -1    0    0    0    0  0.00000000000E+00  0.00000000000E+00  0.99999998245E-14  0.12509000000E+03  0.12509000000E+03 0.  0.
        -13    1    3    3    0    0  0.12398001373E+02 -0.37666689182E+02 -0.29938790953E+02  0.49687345267E+02  0.10566000000E+00 0. -1.
         23    2    1    0    0    0  0.55071861721E+01 -0.24929499001E+02  0.14015097269E+02  0.95965577750E+02  0.91439379599E+02 0.  0.
         13    1    3    3    0    0 -0.68908152004E+01  0.12737190181E+02  0.43953888222E+02  0.46278232482E+02  0.10566000000E+00 0.  1.
         22    1    1    0    0    0 -0.55071861721E+01  0.24929499001E+02 -0.14015097269E+02  0.29124422250E+02  0.00000000000E+00 0. -1.
</event>
<event>
 5    1  0.1258624E-009  0.9118800E+02  0.7815553E-02  0.1125453E+00
         25   -1    0    0    0    0  0.00000000000E+00  0.00000000000E+00  0.99999998245E-14  0.12509000000E+03  0.12509000000E+03 0.  0.
        -13    1    3    3    0    0  0.11457859264E+02 -0.24411890107E+02 -0.34578724421E+02  0.43851137547E+02  0.10566000000E+00 0. -1.
         23    2    1    0    0    0 -0.11593193643E+01  0.23462631674E+02 -0.15687635176E+02  0.96842150456E+02  0.92630778368E+02 0.  0.
         13    1    3    3    0    0 -0.12617178628E+02  0.47874521781E+02  0.18891089245E+02  0.52991012909E+02  0.10566000000E+00 0.  1.
         22    1    1    0    0    0  0.11593193643E+01 -0.23462631674E+02  0.15687635176E+02  0.28247849544E+02  0.00000000000E+00 0.  1.
</event>
<event>
 5    1  0.1258624E-009  0.9118800E+02  0.7815553E-02  0.1125453E+00
         25   -1    0    0    0    0  0.00000000000E+00  0.00000000000E+00  0.99999998245E-14  0.12509000000E+03  0.12509000000E+03 0.  0.
        -13    1    3    3    0    0  0.28425396452E+02 -0.83493677783E+01 -0.17795924210E+02  0.34560399133E+02  0.10566000000E+00 0.  1.
         23    2    1    0    0    0 -0.15569372336E+02  0.21654451886E+02  0.12290335779E+02  0.95723812046E+02  0.91108041345E+02 0.  0.
         13    1    3    3    0    0 -0.43994768787E+02  0.30003819664E+02  0.30086259988E+02  0.61163412913E+02  0.10566000000E+00 0. -1.
         22    1    1    0    0    0  0.15569372336E+02 -0.21654451886E+02 -0.12290335779E+02  0.29366187954E+02  0.00000000000E+00 0. -1.
</event>
<event>
 5    1  0.1258624E-009  0.9118800E+02  0.7815553E-02  0.1125453E+00
         25   -1    0    0    0    0  0.00000000000E+00  0.00000000000E+00  0.99999998245E-14  0.12509000000E+03  0.12509000000E+03 0.  0.
        -13    1    3    3    0    0 -0.38452233783E+01 -0.32261369908E+02 -0.11823839844E+02  0.34574500486E+02  0.10566000000E+00 0. -1.
         23    2    1    0    0    0 -0.99472506133E+01  0.27026834162E+02  0.34032165340E+01  0.96090354444E+02  0.91609916357E+02 0.  0.
         13    1    3    3    0    0 -0.61020272350E+01  0.59288204070E+02  0.15227056378E+02  0.61515853958E+02  0.10566000000E+00 0.  1.
         22    1    1    0    0    0  0.99472506133E+01 -0.27026834162E+02 -0.34032165340E+01  0.28999645556E+02  0.00000000000E+00 0.  1.
</event>
<event>
 5    1  0.1258624E-009  0.9118800E+02  0.7815553E-02  0.1125453E+00
         25   -1    0    0    0    0  0.00000000000E+00  0.00000000000E+00  0.99999998245E-14  0.12509000000E+03  0.12509000000E+03 0.  0.
        -13    1    3    3    0    0  0.14024964698E+02  0.32986294387E+02 -0.37206048778E+01  0.36036777282E+02  0.10566000000E+00 0.  1.
         23    2    1    0    0    0  0.11511280152E+02 -0.23517495569E+02 -0.16657059056E+02  0.94057117682E+02  0.88790211181E+02 0.  0.
         13    1    3    3    0    0 -0.25136845461E+01 -0.56503789956E+02 -0.12936454178E+02  0.58020340400E+02  0.10566000000E+00 0. -1.
         22    1    1    0    0    0 -0.11511280152E+02  0.23517495569E+02  0.16657059056E+02  0.31032882318E+02  0.00000000000E+00 0. -1.
</event>
<event>
 5    1  0.1258624E-009  0.9118800E+02  0.7815553E-02  0.1125453E+00
         25   -1    0    0    0    0  0.00000000000E+00  0.00000000000E+00  0.99999998245E-14  0.12509000000E+03  0.12509000000E+03 0.  0.
        -13    1    3    3    0    0  0.31766310988E+02  0.51125735531E+02  0.61990558845E+01  0.60509328250E+02  0.10566000000E+00 0. -1.
         23    2    1    0    0    0  0.12766561191E+02  0.23936433570E+02 -0.83152792324E+01  0.96716036487E+02  0.92460315316E+02 0.  0.
         13    1    3    3    0    0 -0.18999749797E+02 -0.27189301961E+02 -0.14514335117E+02  0.36206708237E+02  0.10566000000E+00 0.  1.
         22    1    1    0    0    0 -0.12766561191E+02 -0.23936433570E+02  0.83152792324E+01  0.28373963513E+02  0.00000000000E+00 0. -1.
</event>
<event>
 5    1  0.1258624E-009  0.9118800E+02  0.7815553E-02  0.1125453E+00
         25   -1    0    0    0    0  0.00000000000E+00  0.00000000000E+00  0.99999998245E-14  0.12509000000E+03  0.12509000000E+03 0.  0.
        -13    1    3    3    0    0  0.13073414708E+02  0.13313413183E+02 -0.34446700193E+02  0.39175853034E+02  0.10566000000E+00 0.  1.
         23    2    1    0    0    0 -0.25297276981E+02 -0.15102369063E+02 -0.51885965554E+01  0.95174196347E+02  0.90350275827E+02 0.  0.
         13    1    3    3    0    0 -0.38370691689E+02 -0.28415782246E+02  0.29258103637E+02  0.55998343314E+02  0.10566000000E+00 0. -1.
         22    1    1    0    0    0  0.25297276981E+02  0.15102369063E+02  0.51885965554E+01  0.29915803653E+02  0.00000000000E+00 0. -1.
</event>
<event>
 5    1  0.1258624E-009  0.9118800E+02  0.7815553E-02  0.1125453E+00
         25   -1    0    0    0    0  0.00000000000E+00  0.00000000000E+00  0.99999998245E-14  0.12509000000E+03  0.12509000000E+03 0.  0.
        -13    1    3    3    0    0 -0.39182148196E+02 -0.27390160307E+02  0.31311001903E+02  0.57147630074E+02  0.10566000000E+00 0.  1.
         23    2    1    0    0    0 -0.26702461395E+02 -0.12077221883E+02 -0.18264029904E+01  0.95726477036E+02  0.91111700263E+02 0.  0.
         13    1    3    3    0    0  0.12479686801E+02  0.15312938424E+02 -0.33137404893E+02  0.38578846962E+02  0.10566000000E+00 0. -1.
         22    1    1    0    0    0  0.26702461395E+02  0.12077221883E+02  0.18264029904E+01  0.29363522964E+02  0.00000000000E+00 0.  1.
</event>
<event>
 5    1  0.1258624E-009  0.9118800E+02  0.7815553E-02  0.1125453E+00
         25   -1    0    0    0    0  0.00000000000E+00  0.00000000000E+00  0.99999998245E-14  0.12509000000E+03  0.12509000000E+03 0.  0.
        -13    1    3    3    0    0 -0.18668800837E+00 -0.12581127028E+02  0.52963501177E+02  0.54437700453E+02  0.10566000000E+00 0.  1.
         23    2    1    0    0    0  0.21679990160E+02 -0.58969980189E+01  0.17600459277E+02  0.96549279516E+02  0.92234433100E+02 0.  0.
         13    1    3    3    0    0  0.21866678168E+02  0.66841290087E+01 -0.35363041900E+02  0.42111579063E+02  0.10566000000E+00 0. -1.
         22    1    1    0    0    0 -0.21679990160E+02  0.58969980189E+01 -0.17600459277E+02  0.28540720484E+02  0.00000000000E+00 0.  1.
</event>
<event>
 5    1  0.1258624E-009  0.9118800E+02  0.7815553E-02  0.1125453E+00
         25   -1    0    0    0    0  0.00000000000E+00  0.00000000000E+00  0.99999998245E-14  0.12509000000E+03  0.12509000000E+03 0.  0.
        -13    1    3    3    0    0  0.19800128516E+02 -0.20508681966E+02  0.40193235845E+02  0.49276348251E+02  0.10566000000E+00 0. -1.
         23    2    1    0    0    0 -0.20553715480E+02 -0.75303183692E+01  0.13346228917E+02  0.99452473968E+02  0.96091164199E+02 0.  0.
         13    1    3    3    0    0 -0.40353843996E+02  0.12978363597E+02 -0.26847006928E+02  0.50176125716E+02  0.10566000000E+00 0.  1.
         22    1    1    0    0    0  0.20553715480E+02  0.75303183692E+01 -0.13346228917E+02  0.25637526032E+02  0.00000000000E+00 0. -1.
</event>
<event>
 5    1  0.1258624E-009  0.9118800E+02  0.7815553E-02  0.1125453E+00
         25   -1    0    0    0    0  0.00000000000E+00  0.00000000000E+00  0.99999998245E-14  0.12509000000E+03  0.12509000000E+03 0.  0.
        -13    1    3    3    0    0  0.11163588925E+02  0.33262844216E+02 -0.10643672771E+02  0.36665262267E+02  0.10566000000E+00 0.  1.
         23    2    1    0    0    0  0.12386899458E+02 -0.20665138179E+02  0.15328284756E+02  0.96534098198E+02  0.92213841625E+02 0.  0.
         13    1    3    3    0    0  0.12233105322E+01 -0.53927982395E+02  0.25971957527E+02  0.59868835931E+02  0.10566000000E+00 0. -1.
         22    1    1    0    0    0 -0.12386899458E+02  0.20665138179E+02 -0.15328284756E+02  0.28555901802E+02  0.00000000000E+00 0. -1.
</event>
<event>
 5    1  0.1258624E-009  0.9118800E+02  0.7815553E-02  0.1125453E+00
         25   -1    0    0    0    0  0.00000000000E+00  0.00000000000E+00  0.99999998245E-14  0.12509000000E+03  0.12509000000E+03 0.  0.
        -13    1    3    3    0    0  0.80210444005E+00 -0.13119670422E+02  0.40362601990E+02  0.42449027397E+02  0.10566000000E+00 0.  1.
         23    2    1    0    0    0  0.20353112869E+02 -0.19348008224E+02 -0.87505018728E+01  0.95676297263E+02  0.91042780873E+02 0.  0.
         13    1    3    3    0    0  0.19551008429E+02 -0.62283378026E+01 -0.49113103862E+02  0.53227269866E+02  0.10566000000E+00 0. -1.
         22    1    1    0    0    0 -0.20353112869E+02  0.19348008224E+02  0.87505018728E+01  0.29413702737E+02  0.00000000000E+00 0.  1.
</event>
<event>
 5    1  0.1258624E-009  0.9118800E+02  0.7815553E-02  0.1125453E+00
         25   -1    0    0    0    0  0.00000000000E+00  0.00000000000E+00  0.99999998245E-14  0.12509000000E+03  0.12509000000E+03 0.  0.
        -13    1    3    3    0    0  0.25189613594E+02  0.22685623733E+02 -0.26028955844E+02  0.42739581930E+02  0.10566000000E+00 0.  1.
         23    2    1    0    0    0  0.15273612033E+02 -0.24467200895E+02 -0.16512430173E+02  0.91854664972E+02  0.85631139096E+02 0.  0.
         13    1    3    3    0    0 -0.99160015607E+01 -0.47152824629E+02  0.95165256709E+01  0.49115083043E+02  0.10566000000E+00 0. -1.
         22    1    1    0    0    0 -0.15273612033E+02  0.24467200895E+02  0.16512430173E+02  0.33235335028E+02  0.00000000000E+00 0. -1.
</event>
<event>
 5    1  0.1258624E-009  0.9118800E+02  0.7815553E-02  0.1125453E+00
         25   -1    0    0    0    0  0.00000000000E+00  0.00000000000E+00  0.99999998245E-14  0.12509000000E+03  0.12509000000E+03 0.  0.
        -13    1    3    3    0    0  0.44204727606E+02  0.22313989101E+02  0.10660883555E+02  0.50652123890E+02  0.10566000000E+00 0.  1.
         23    2    1    0    0    0  0.18998483821E+02  0.10905949892E+01 -0.21279179609E+02  0.96542928876E+02  0.92225819846E+02 0.  0.
         13    1    3    3    0    0 -0.25206243785E+02 -0.21223394112E+02 -0.31940063164E+02  0.45890804986E+02  0.10566000000E+00 0. -1.
         22    1    1    0    0    0 -0.18998483821E+02 -0.10905949892E+01  0.21279179609E+02  0.28547071124E+02  0.00000000000E+00 0. -1.
</event>
<event>
 5    1  0.1258624E-009  0.9118800E+02  0.7815553E-02  0.1125453E+00
         25   -1    0    0    0    0  0.00000000000E+00  0.00000000000E+00  0.99999998245E-14  0.12509000000E+03  0.12509000000E+03 0.  0.
        -13    1    3    3    0    0  0.58871268727E+02  0.12374025755E+02 -0.21849127802E+01  0.60197406944E+02  0.10566000000E+00 0. -1.
         23    2    1    0    0    0  0.23704492861E+02  0.92037298289E+01 -0.12180767806E+02  0.96894561914E+02  0.92701528572E+02 0.  0.
         13    1    3    3    0    0 -0.35166775867E+02 -0.31702959258E+01 -0.99958550258E+01  0.36697154969E+02  0.10566000000E+00 0.  1.
         22    1    1    0    0    0 -0.23704492861E+02 -0.92037298289E+01  0.12180767806E+02  0.28195438086E+02  0.00000000000E+00 0. -1.
</event>
<event>
 5    1  0.1258624E-009  0.9118800E+02  0.7815553E-02  0.1125453E+00
         25   -1    0    0    0    0  0.00000000000E+00  0.00000000000E+00  0.99999998245E-14  0.12509000000E+03  0.12509000000E+03 0.  0.
        -13    1    3    3    0    0  0.21430395812E+02  0.50631686510E+02 -0.23288414350E+02  0.59709219980E+02  0.10566000000E+00 0.  1.
         23    2    1    0    0    0 -0.41287176808E+01  0.19891694874E+02 -0.12935109840E+02  0.10100592017E+03  0.98092573665E+02 0.  0.
         13    1    3    3    0    0 -0.25559113493E+02 -0.30739991636E+02  0.10353304511E+02  0.41296700191E+02  0.10566000000E+00 0. -1.
         22    1    1    0    0    0  0.41287176808E+01 -0.19891694874E+02  0.12935109840E+02  0.24084079830E+02  0.00000000000E+00 0.  1.
</event>
<event>
 5    1  0.1258624E-009  0.9118800E+02  0.7815553E-02  0.1125453E+00
         25   -1    0    0    0    0  0.00000000000E+00  0.00000000000E+00  0.99999998245E-14  0.12509000000E+03  0.12509000000E+03 0.  0.
        -13    1    3    3    0    0  0.20468032117E+02 -0.37102794469E+02 -0.94546243272E+01  0.43416112001E+02  0.10566000000E+00 0.  1.
         23    2    1    0    0    0  0.65385087524E+01  0.21995740156E+00  0.26934935399E+02  0.97371933276E+02  0.93343463440E+02 0.  0.
         13    1    3    3    0    0 -0.13929523365E+02  0.37322751870E+02  0.36389559726E+02  0.53955821275E+02  0.10566000000E+00 0. -1.
         22    1    1    0    0    0 -0.65385087524E+01 -0.21995740156E+00 -0.26934935399E+02  0.27718066724E+02  0.00000000000E+00 0. -1.
</event>
<event>
 5    1  0.1258624E-009  0.9118800E+02  0.7815553E-02  0.1125453E+00
         25   -1    0    0    0    0  0.00000000000E+00  0.00000000000E+00  0.99999998245E-14  0.12509000000E+03  0.12509000000E+03 0.  0.
        -13    1    3    3    0    0 -0.41084266777E+02 -0.18917241364E+02  0.42357716341E+01  0.45428316310E+02  0.10566000000E+00 0.  1.
         23    2    1    0    0    0  0.11966920276E+01 -0.15274501948E+02 -0.24154016730E+02  0.96486521090E+02  0.92149279684E+02 0.  0.
         13    1    3    3    0    0  0.42280958805E+02  0.36427394156E+01 -0.28389788364E+02  0.51058204779E+02  0.10566000000E+00 0. -1.
         22    1    1    0    0    0 -0.11966920276E+01  0.15274501948E+02  0.24154016730E+02  0.28603478910E+02  0.00000000000E+00 0.  1.
</event>
<event>
 5    1  0.1258624E-009  0.9118800E+02  0.7815553E-02  0.1125453E+00
         25   -1    0    0    0    0  0.00000000000E+00  0.00000000000E+00  0.99999998245E-14  0.12509000000E+03  0.12509000000E+03 0.  0.
        -13    1    3    3    0    0  0.48437538189E+02  0.56878957910E+01  0.34605138474E+02  0.59800284592E+02  0.10566000000E+00 0.  1.
         23    2    1    0    0    0  0.25628784197E+02 -0.92272923961E+01  0.11525713865E+02  0.95512650821E+02  0.90817657327E+02 0.  0.
         13    1    3    3    0    0 -0.22808753992E+02 -0.14915188187E+02 -0.23079424610E+02  0.35712366229E+02  0.10566000000E+00 0. -1.
         22    1    1    0    0    0 -0.25628784197E+02  0.92272923961E+01 -0.11525713865E+02  0.29577349179E+02  0.00000000000E+00 0.  1.
</event>
<event>
 5    1  0.1258624E-009  0.9118800E+02  0.7815553E-02  0.1125453E+00
         25   -1    0    0    0    0  0.00000000000E+00  0.00000000000E+00  0.99999998245E-14  0.12509000000E+03  0.12509000000E+03 0.  0.
        -13    1    3    3    0    0  0.23164485904E+02  0.50103373246E+02  0.19891006352E+02  0.58673714008E+02  0.10566000000E+00 0.  1.
         23    2    1    0    0    0 -0.30338726049E+01  0.27116802112E+02  0.23201097994E+01  0.97705547308E+02  0.93789475558E+02 0.  0.
         13    1    3    3    0    0 -0.26198358508E+02 -0.22986571134E+02 -0.17570896552E+02  0.39031833299E+02  0.10566000000E+00 0. -1.
         22    1    1    0    0    0  0.30338726049E+01 -0.27116802112E+02 -0.23201097994E+01  0.27384452692E+02  0.00000000000E+00 0.  1.
</event>
<event>
 5    1  0.1258624E-009  0.9118800E+02  0.7815553E-02  0.1125453E+00
         25   -1    0    0    0    0  0.00000000000E+00  0.00000000000E+00  0.99999998245E-14  0.12509000000E+03  0.12509000000E+03 0.  0.
        -13    1    3    3    0    0  0.20104028058E+02 -0.19325603347E+02 -0.28998709859E+02  0.40231669446E+02  0.10566000000E+00 0.  1.
         23    2    1    0    0    0 -0.15601138763E+02 -0.22695594370E+02  0.12298624905E+02  0.94928075176E+02  0.90008875938E+02 0.  0.
         13    1    3    3    0    0 -0.35705166820E+02 -0.33699910226E+01  0.41297334764E+02  0.54696405731E+02  0.10566000000E+00 0. -1.
         22    1    1    0    0    0  0.15601138763E+02  0.22695594370E+02 -0.12298624905E+02  0.30161924824E+02  0.00000000000E+00 0. -1.
</event>
<event>
 5    1  0.1258624E-009  0.9118800E+02  0.7815553E-02  0.1125453E+00
         25   -1    0    0    0    0  0.00000000000E+00  0.00000000000E+00  0.99999998245E-14  0.12509000000E+03  0.12509000000E+03 0.  0.
        -13    1    3    3    0    0  0.34179972374E+02  0.49569463258E+01 -0.48308198906E+01  0.34873913076E+02  0.10566000000E+00 0.  1.
         23    2    1    0    0    0 -0.22024139011E+02 -0.17664008856E+02  0.54794327698E+01  0.96330582559E+02  0.91937353914E+02 0.  0.
         13    1    3    3    0    0 -0.56204111386E+02 -0.22620955182E+02  0.10310252660E+02  0.61456669483E+02  0.10566000000E+00 0. -1.
         22    1    1    0    0    0  0.22024139011E+02  0.17664008856E+02 -0.54794327698E+01  0.28759417441E+02  0.00000000000E+00 0. -1.
</event>
<event>
 5    1  0.1258624E-009  0.9118800E+02  0.7815553E-02  0.1125453E+00
         25   -1    0    0    0    0  0.00000000000E+00  0.00000000000E+00  0.99999998245E-14  0.12509000000E+03  0.12509000000E+03 0.  0.
        -13    1    3    3    0    0  0.11760702664E+02  0.36543205553E+02 -0.22490334508E+02  0.44492092663E+02  0.10566000000E+00 0.  1.
         23    2    1    0    0    0 -0.16605119324E+02  0.19068156416E+02  0.15820652005E+02  0.95263541834E+02  0.90473890134E+02 0.  0.
         13    1    3    3    0    0 -0.28365821987E+02 -0.17475049136E+02  0.38310986513E+02  0.50771449171E+02  0.10566000000E+00 0. -1.
         22    1    1    0    0    0  0.16605119324E+02 -0.19068156416E+02 -0.15820652005E+02  0.29826458166E+02  0.00000000000E+00 0.  1.
</event>
<event>
 5    1  0.1258624E-009  0.9118800E+02  0.7815553E-02  0.1125453E+00
         25   -1    0    0    0    0  0.00000000000E+00  0.00000000000E+00  0.99999998245E-14  0.12509000000E+03  0.12509000000E+03 0.  0.
        -13    1    3    3    0    0  0.36054092161E+02  0.97438613880E+01  0.12348958425E+02  0.39336348769E+02  0.10566000000E+00 0.  1.
         23    2    1    0    0    0  0.15159458777E+01 -0.30926882941E+02  0.92071938479E+01  0.92786090037E+02  0.86981123846E+02 0.  0.
         13    1    3    3    0    0 -0.34538146283E+02 -0.40670744329E+02 -0.31417645766E+01  0.53449741268E+02  0.10566000000E+00 0. -1.
         22    1    1    0    0    0 -0.15159458777E+01  0.30926882941E+02 -0.92071938479E+01  0.32303909963E+02  0.00000000000E+00 0. -1.
</event>
<event>
 5    1  0.1258624E-009  0.9118800E+02  0.7815553E-02  0.1125453E+00
         25   -1    0    0    0    0  0.00000000000E+00  0.00000000000E+00  0.99999998245E-14  0.12509000000E+03  0.12509000000E+03 0.  0.
        -13    1    3    3    0    0 -0.18510951485E+02  0.34796251099E+02 -0.39919699349E+02  0.56098377656E+02  0.10566000000E+00 0.  1.
         23    2    1    0    0    0 -0.12041830771E+02 -0.16986643567E+01 -0.27218624362E+02  0.95278179172E+02  0.90494125584E+02 0.  0.
         13    1    3    3    0    0  0.64691207138E+01 -0.36494915456E+02  0.12701074987E+02  0.39179801516E+02  0.10566000000E+00 0. -1.
         22    1    1    0    0    0  0.12041830771E+02  0.16986643567E+01  0.27218624362E+02  0.29811820828E+02  0.00000000000E+00 0.  1.
</event>
<event>
 5    1  0.1258624E-009  0.9118800E+02  0.7815553E-02  0.1125453E+00
         25   -1    0    0    0    0  0.00000000000E+00  0.00000000000E+00  0.99999998245E-14  0.12509000000E+03  0.12509000000E+03 0.  0.
        -13    1    3    3    0    0  0.57943464283E+01  0.42073518212E+01 -0.46104965683E+02  0.46657853407E+02  0.10566000000E+00 0.  1.
         23    2    1    0    0    0  0.55085639121E+01  0.25194742612E+02  0.20803940479E+01  0.99216318950E+02  0.95783247883E+02 0.  0.
         13    1    3    3    0    0 -0.28578251614E+00  0.20987390791E+02  0.48185359731E+02  0.52558465543E+02  0.10566000000E+00 0. -1.
         22    1    1    0    0    0 -0.55085639121E+01 -0.25194742612E+02 -0.20803940479E+01  0.25873681050E+02  0.00000000000E+00 0. -1.
</event>
<event>
 5    1  0.1258624E-009  0.9118800E+02  0.7815553E-02  0.1125453E+00
         25   -1    0    0    0    0  0.00000000000E+00  0.00000000000E+00  0.99999998245E-14  0.12509000000E+03  0.12509000000E+03 0.  0.
        -13    1    3    3    0    0 -0.10416803327E+02  0.34619656106E+02  0.10129190675E+02  0.37545200069E+02  0.10566000000E+00 0.  1.
         23    2    1    0    0    0 -0.18633281821E+02 -0.12697715678E+02 -0.20590045064E+02  0.94555083420E+02  0.89489008654E+02 0.  0.
         13    1    3    3    0    0 -0.82164784940E+01 -0.47317371783E+02 -0.30719235738E+02  0.57009883351E+02  0.10566000000E+00 0. -1.
         22    1    1    0    0    0  0.18633281821E+02  0.12697715678E+02  0.20590045064E+02  0.30534916580E+02  0.00000000000E+00 0. -1.
</event>
<event>
 5    1  0.1258624E-009  0.9118800E+02  0.7815553E-02  0.1125453E+00
         25   -1    0    0    0    0  0.00000000000E+00  0.00000000000E+00  0.99999998245E-14  0.12509000000E+03  0.12509000000E+03 0.  0.
        -13    1    3    3    0    0  0.22569652454E+02 -0.47045089025E+01 -0.30887618704E+02  0.38543193551E+02  0.10566000000E+00 0. -1.
         23    2    1    0    0    0 -0.12753137547E+02  0.21041603029E+02  0.10126797471E+02  0.98482790407E+02  0.94820442965E+02 0.  0.
         13    1    3    3    0    0 -0.35322790000E+02  0.25746111931E+02  0.41014416175E+02  0.59939596856E+02  0.10566000000E+00 0.  1.
         22    1    1    0    0    0  0.12753137547E+02 -0.21041603029E+02 -0.10126797471E+02  0.26607209593E+02  0.00000000000E+00 0.  1.
</event>
<event>
 5    1  0.1258624E-009  0.9118800E+02  0.7815553E-02  0.1125453E+00
         25   -1    0    0    0    0  0.00000000000E+00  0.00000000000E+00  0.99999998245E-14  0.12509000000E+03  0.12509000000E+03 0.  0.
        -13    1    3    3    0    0 -0.18987231904E+02 -0.24106119598E+02  0.53891240873E+02  0.62015296374E+02  0.10566000000E+00 0.  1.
         23    2    1    0    0    0 -0.87637413696E+01 -0.14394494044E+02  0.18753740332E+02  0.99876761453E+02  0.96641916788E+02 0.  0.
         13    1    3    3    0    0  0.10223490534E+02  0.97116255539E+01 -0.35137500542E+02  0.37861465079E+02  0.10566000000E+00 0. -1.
         22    1    1    0    0    0  0.87637413696E+01  0.14394494044E+02 -0.18753740332E+02  0.25213238547E+02  0.00000000000E+00 0.  1.
</event>
<event>
 5    1  0.1258624E-009  0.9118800E+02  0.7815553E-02  0.1125453E+00
         25   -1    0    0    0    0  0.00000000000E+00  0.00000000000E+00  0.99999998245E-14  0.12509000000E+03  0.12509000000E+03 0.  0.
        -13    1    3    3    0    0 -0.54153508461E+01  0.29407861654E+02  0.15869569317E+02  0.33852662321E+02  0.10566000000E+00 0.  1.
         23    2    1    0    0    0  0.55188955620E+01 -0.21453451900E+02 -0.18520806605E+02  0.96215632753E+02  0.91780819903E+02 0.  0.
         13    1    3    3    0    0  0.10934246408E+02 -0.50861313554E+02 -0.34390375922E+02  0.62362970432E+02  0.10566000000E+00 0. -1.
         22    1    1    0    0    0 -0.55188955620E+01  0.21453451900E+02  0.18520806605E+02  0.28874367247E+02  0.00000000000E+00 0. -1.
</event>
<event>
 5    1  0.1258624E-009  0.9118800E+02  0.7815553E-02  0.1125453E+00
         25   -1    0    0    0    0  0.00000000000E+00  0.00000000000E+00  0.99999998245E-14  0.12509000000E+03  0.12509000000E+03 0.  0.
        -13    1    3    3    0    0  0.16818816541E+02  0.58430199285E+01 -0.45120757626E+02  0.48506776893E+02  0.10566000000E+00 0.  1.
         23    2    1    0    0    0 -0.22273340159E+02 -0.94097356879E-02 -0.18129151573E+02  0.96371227269E+02  0.91992638500E+02 0.  0.
         13    1    3    3    0    0 -0.39092156701E+02 -0.58524296642E+01  0.26991606053E+02  0.47864450376E+02  0.10566000000E+00 0. -1.
         22    1    1    0    0    0  0.22273340159E+02  0.94097356879E-02  0.18129151573E+02  0.28718772731E+02  0.00000000000E+00 0. -1.
</event>
<event>
 5    1  0.1258624E-009  0.9118800E+02  0.7815553E-02  0.1125453E+00
         25   -1    0    0    0    0  0.00000000000E+00  0.00000000000E+00  0.99999998245E-14  0.12509000000E+03  0.12509000000E+03 0.  0.
        -13    1    3    3    0    0  0.24174044912E+02 -0.20295523241E+02 -0.16364245941E+01  0.31606672722E+02  0.10566000000E+00 0.  1.
         23    2    1    0    0    0 -0.25628008556E+02  0.17348524629E+02 -0.25015470009E+01  0.94041266262E+02  0.88767876472E+02 0.  0.
         13    1    3    3    0    0 -0.49802053468E+02  0.37644047870E+02 -0.86512240676E+00  0.62434593540E+02  0.10566000000E+00 0. -1.
         22    1    1    0    0    0  0.25628008556E+02 -0.17348524629E+02  0.25015470009E+01  0.31048733738E+02  0.00000000000E+00 0. -1.
</event>
<event>
 5    1  0.1258624E-009  0.9118800E+02  0.7815553E-02  0.1125453E+00
         25   -1    0    0    0    0  0.00000000000E+00  0.00000000000E+00  0.99999998245E-14  0.12509000000E+03  0.12509000000E+03 0.  0.
        -13    1    3    3    0    0  0.22401252776E+01  0.26515528080E+02 -0.33827819190E+02  0.43039794444E+02  0.10566000000E+00 0.  1.
         23    2    1    0    0    0 -0.25551678890E+02 -0.92613842158E+01 -0.32018801094E+01  0.97723714759E+02  0.93813702935E+02 0.  0.
         13    1    3    3    0    0 -0.27791804167E+02 -0.35776912296E+02  0.30625939081E+02  0.54683920314E+02  0.10566000000E+00 0. -1.
         22    1    1    0    0    0  0.25551678890E+02  0.92613842158E+01  0.32018801094E+01  0.27366285241E+02  0.00000000000E+00 0. -1.
</event>
<event>
 5    1  0.1258624E-009  0.9118800E+02  0.7815553E-02  0.1125453E+00
         25   -1    0    0    0    0  0.00000000000E+00  0.00000000000E+00  0.99999998245E-14  0.12509000000E+03  0.12509000000E+03 0.  0.
        -13    1    3    3    0    0 -0.82432911463E+01 -0.82633660857E+01 -0.40173066539E+02  0.41834453590E+02  0.10566000000E+00 0. -1.
         23    2    1    0    0    0  0.28707374697E+02 -0.95660718467E+00 -0.75305909964E+00  0.96356821316E+02  0.91973047447E+02 0.  0.
         13    1    3    3    0    0  0.36950665843E+02  0.73067589011E+01  0.39420007439E+02  0.54522367726E+02  0.10566000000E+00 0.  1.
         22    1    1    0    0    0 -0.28707374697E+02  0.95660718467E+00  0.75305909964E+00  0.28733178684E+02  0.00000000000E+00 0.  1.
</event>
<event>
 5    1  0.1258624E-009  0.9118800E+02  0.7815553E-02  0.1125453E+00
         25   -1    0    0    0    0  0.00000000000E+00  0.00000000000E+00  0.99999998245E-14  0.12509000000E+03  0.12509000000E+03 0.  0.
        -13    1    3    3    0    0  0.23009584918E+02 -0.30817587069E+02 -0.86575316676E+01  0.39422438908E+02  0.10566000000E+00 0. -1.
         23    2    1    0    0    0 -0.18064060002E+02 -0.30329833389E+02 -0.23029351261E+02  0.82940740497E+02  0.71432530107E+02 0.  0.
         13    1    3    3    0    0 -0.41073644920E+02  0.48775368023E+00 -0.14371819594E+02  0.43518301589E+02  0.10566000000E+00 0.  1.
         22    1    1    0    0    0  0.18064060002E+02  0.30329833389E+02  0.23029351261E+02  0.42149259503E+02  0.00000000000E+00 0.  1.
</event>
<event>
 5    1  0.1258624E-009  0.9118800E+02  0.7815553E-02  0.1125453E+00
         25   -1    0    0    0    0  0.00000000000E+00  0.00000000000E+00  0.99999998245E-14  0.12509000000E+03  0.12509000000E+03 0.  0.
        -13    1    3    3    0    0 -0.14042340197E+02 -0.24297264748E+02 -0.21115372921E+02  0.35120001852E+02  0.10566000000E+00 0.  1.
         23    2    1    0    0    0 -0.60022623113E+01  0.18775803280E+02  0.21275389440E+02  0.96086549559E+02  0.91604720778E+02 0.  0.
         13    1    3    3    0    0  0.80400778860E+01  0.43073068028E+02  0.42390762361E+02  0.60966547707E+02  0.10566000000E+00 0. -1.
         22    1    1    0    0    0  0.60022623113E+01 -0.18775803280E+02 -0.21275389440E+02  0.29003450441E+02  0.00000000000E+00 0. -1.
</event>
<event>
 5    1  0.1258624E-009  0.9118800E+02  0.7815553E-02  0.1125453E+00
         25   -1    0    0    0    0  0.00000000000E+00  0.00000000000E+00  0.99999998245E-14  0.12509000000E+03  0.12509000000E+03 0.  0.
        -13    1    3    3    0    0 -0.15923986549E+02 -0.30075025755E+02  0.19941301140E+02  0.39442961057E+02  0.10566000000E+00 0.  1.
         23    2    1    0    0    0 -0.20279724705E+02  0.14789655949E+02 -0.14438801582E+02  0.96133478311E+02  0.91668781511E+02 0.  0.
         13    1    3    3    0    0 -0.43557381566E+01  0.44864681704E+02 -0.34380102722E+02  0.56690517254E+02  0.10566000000E+00 0. -1.
         22    1    1    0    0    0  0.20279724705E+02 -0.14789655949E+02  0.14438801582E+02  0.28956521689E+02  0.00000000000E+00 0. -1.
</event>
<event>
 5    1  0.1258624E-009  0.9118800E+02  0.7815553E-02  0.1125453E+00
         25   -1    0    0    0    0  0.00000000000E+00  0.00000000000E+00  0.99999998245E-14  0.12509000000E+03  0.12509000000E+03 0.  0.
        -13    1    3    3    0    0  0.20195470741E+02  0.24690871727E+02 -0.39911267809E+02  0.51092236663E+02  0.10566000000E+00 0.  1.
         23    2    1    0    0    0  0.93369301867E+01  0.25598169404E+02  0.50699097399E+01  0.97374507457E+02  0.93346913048E+02 0.  0.
         13    1    3    3    0    0 -0.10858540554E+02  0.90729767706E+00  0.44981177549E+02  0.46282270793E+02  0.10566000000E+00 0. -1.
         22    1    1    0    0    0 -0.93369301867E+01 -0.25598169404E+02 -0.50699097399E+01  0.27715492543E+02  0.00000000000E+00 0.  1.
</event>
<event>
 5    1  0.1258624E-009  0.9118800E+02  0.7815553E-02  0.1125453E+00
         25   -1    0    0    0    0  0.00000000000E+00  0.00000000000E+00  0.99999998245E-14  0.12509000000E+03  0.12509000000E+03 0.  0.
        -13    1    3    3    0    0 -0.99761708490E+01  0.31836171048E+02  0.24588292674E+01  0.33453292472E+02  0.10566000000E+00 0. -1.
         23    2    1    0    0    0  0.16564385298E+02 -0.23976630804E+02  0.59225939549E+01  0.95352232697E+02  0.90596431917E+02 0.  0.
         13    1    3    3    0    0  0.26540556147E+02 -0.55812801852E+02  0.34637646874E+01  0.61898940225E+02  0.10566000000E+00 0.  1.
         22    1    1    0    0    0 -0.16564385298E+02  0.23976630804E+02 -0.59225939549E+01  0.29737767303E+02  0.00000000000E+00 0.  1.
</event>
<event>
 5    1  0.1258624E-009  0.9118800E+02  0.7815553E-02  0.1125453E+00
         25   -1    0    0    0    0  0.00000000000E+00  0.00000000000E+00  0.99999998245E-14  0.12509000000E+03  0.12509000000E+03 0.  0.
        -13    1    3    3    0    0  0.33824582068E+02  0.32918086723E+02 -0.39344945314E+02  0.61447039566E+02  0.10566000000E+00 0.  1.
         23    2    1    0    0    0  0.20671960154E+02  0.17105265926E+02 -0.11914467945E+02  0.95732299044E+02  0.91119693123E+02 0.  0.
         13    1    3    3    0    0 -0.13152621914E+02 -0.15812820797E+02  0.27430477369E+02  0.34285259479E+02  0.10566000000E+00 0. -1.
         22    1    1    0    0    0 -0.20671960154E+02 -0.17105265926E+02  0.11914467945E+02  0.29357700956E+02  0.00000000000E+00 0.  1.
</event>
<event>
 5    1  0.1258624E-009  0.9118800E+02  0.7815553E-02  0.1125453E+00
         25   -1    0    0    0    0  0.00000000000E+00  0.00000000000E+00  0.99999998245E-14  0.12509000000E+03  0.12509000000E+03 0.  0.
        -13    1    3    3    0    0  0.10921121699E+02 -0.93737828925E+01 -0.58436796905E+02  0.60183129708E+02  0.10566000000E+00 0.  1.
         23    2    1    0    0    0  0.16149706866E+02  0.52102486202E+00 -0.26192641434E+02  0.94314377113E+02  0.89151908371E+02 0.  0.
         13    1    3    3    0    0  0.52285851671E+01  0.98948077546E+01  0.32244155471E+02  0.34131247405E+02  0.10566000000E+00 0. -1.
         22    1    1    0    0    0 -0.16149706866E+02 -0.52102486202E+00  0.26192641434E+02  0.30775622887E+02  0.00000000000E+00 0.  1.
</event>
<event>
 5    1  0.1258624E-009  0.9118800E+02  0.7815553E-02  0.1125453E+00
         25   -1    0    0    0    0  0.00000000000E+00  0.00000000000E+00  0.99999998245E-14  0.12509000000E+03  0.12509000000E+03 0.  0.
        -13    1    3    3    0    0  0.17089950087E+02 -0.23456152246E+02 -0.52924010796E+02  0.60359088420E+02  0.10566000000E+00 0. -1.
         23    2    1    0    0    0  0.10316313083E+02  0.75986926113E+00 -0.25528120377E+02  0.97545696652E+02  0.93576034797E+02 0.  0.
         13    1    3    3    0    0 -0.67736370034E+01  0.24216021507E+02  0.27395890419E+02  0.37186608232E+02  0.10566000000E+00 0.  1.
         22    1    1    0    0    0 -0.10316313083E+02 -0.75986926113E+00  0.25528120377E+02  0.27544303348E+02  0.00000000000E+00 0. -1.
</event>
<event>
 5    1  0.1258624E-009  0.9118800E+02  0.7815553E-02  0.1125453E+00
         25   -1    0    0    0    0  0.00000000000E+00  0.00000000000E+00  0.99999998245E-14  0.12509000000E+03  0.12509000000E+03 0.  0.
        -13    1    3    3    0    0 -0.50800379871E+02  0.34460389758E+02 -0.84161996327E+00  0.61391502226E+02  0.10566000000E+00 0. -1.
         23    2    1    0    0    0 -0.28047359175E+02  0.93882034767E+01  0.24680283961E+01  0.95410311906E+02  0.90676588669E+02 0.  0.
         13    1    3    3    0    0  0.22753020696E+02 -0.25072186282E+02  0.33096483594E+01  0.34018809680E+02  0.10566000000E+00 0.  1.
         22    1    1    0    0    0  0.28047359175E+02 -0.93882034767E+01 -0.24680283961E+01  0.29679688094E+02  0.00000000000E+00 0. -1.
</event>
<event>
 5    1  0.1258624E-009  0.9118800E+02  0.7815553E-02  0.1125453E+00
         25   -1    0    0    0    0  0.00000000000E+00  0.00000000000E+00  0.99999998245E-14  0.12509000000E+03  0.12509000000E+03 0.  0.
        -13    1    3    3    0    0 -0.74092656480E+01  0.43568919645E+02  0.37618293691E+02  0.58037015436E+02  0.10566000000E+00 0.  1.
         23    2    1    0    0    0 -0.60645107676E+01  0.76955227185E+01  0.28323709098E+02  0.95119483524E+02  0.90274494117E+02 0.  0.
         13    1    3    3    0    0  0.13447548804E+01 -0.35873396926E+02 -0.92945845935E+01  0.37082468088E+02  0.10566000000E+00 0. -1.
         22    1    1    0    0    0  0.60645107676E+01 -0.76955227185E+01 -0.28323709098E+02  0.29970516476E+02  0.00000000000E+00 0.  1.
</event>
<event>
 5    1  0.1258624E-009  0.9118800E+02  0.7815553E-02  0.1125453E+00
         25   -1    0    0    0    0  0.00000000000E+00  0.00000000000E+00  0.99999998245E-14  0.12509000000E+03  0.12509000000E+03 0.  0.
        -13    1    3    3    0    0  0.20101611873E+02 -0.22616855992E+02 -0.20763811783E+02  0.36698011100E+02  0.10566000000E+00 0. -1.
         23    2    1    0    0    0  0.13427685971E+02  0.18865157041E+01  0.29283106871E+02  0.92819858382E+02  0.87029673502E+02 0.  0.
         13    1    3    3    0    0 -0.66739259028E+01  0.24503371696E+02  0.50046918655E+02  0.56121847282E+02  0.10566000000E+00 0.  1.
         22    1    1    0    0    0 -0.13427685971E+02 -0.18865157041E+01 -0.29283106871E+02  0.32270141618E+02  0.00000000000E+00 0.  1.
</event>
<event>
 5    1  0.1258624E-009  0.9118800E+02  0.7815553E-02  0.1125453E+00
         25   -1    0    0    0    0  0.00000000000E+00  0.00000000000E+00  0.99999998245E-14  0.12509000000E+03  0.12509000000E+03 0.  0.
        -13    1    3    3    0    0 -0.43489060220E+02 -0.66958853226E+01 -0.85570481961E+01  0.44825968779E+02  0.10566000000E+00 0.  1.
         23    2    1    0    0    0  0.12728903090E+01 -0.25514298021E+02  0.11133300149E+02  0.97223352813E+02  0.93144137265E+02 0.  0.
         13    1    3    3    0    0  0.44761950529E+02 -0.18818412698E+02  0.19690348345E+02  0.52397384034E+02  0.10566000000E+00 0. -1.
         22    1    1    0    0    0 -0.12728903090E+01  0.25514298021E+02 -0.11133300149E+02  0.27866647187E+02  0.00000000000E+00 0.  1.
</event>
<event>
 5    1  0.1258624E-009  0.9118800E+02  0.7815553E-02  0.1125453E+00
         25   -1    0    0    0    0  0.00000000000E+00  0.00000000000E+00  0.99999998245E-14  0.12509000000E+03  0.12509000000E+03 0.  0.
        -13    1    3    3    0    0 -0.45035914541E+02  0.12818268086E+02 -0.14241003626E+02  0.48942404350E+02  0.10566000000E+00 0.  1.
         23    2    1    0    0    0 -0.79817625073E+01 -0.13922086554E+02 -0.24525400764E+02  0.95780815273E+02  0.91186272349E+02 0.  0.
         13    1    3    3    0    0  0.37054152034E+02 -0.26740354640E+02 -0.10284397138E+02  0.46838410922E+02  0.10566000000E+00 0. -1.
         22    1    1    0    0    0  0.79817625073E+01  0.13922086554E+02  0.24525400764E+02  0.29309184727E+02  0.00000000000E+00 0. -1.
</event>
<event>
 5    1  0.1258624E-009  0.9118800E+02  0.7815553E-02  0.1125453E+00
         25   -1    0    0    0    0  0.00000000000E+00  0.00000000000E+00  0.99999998245E-14  0.12509000000E+03  0.12509000000E+03 0.  0.
        -13    1    3    3    0    0 -0.90244118761E+01  0.50779671453E+02  0.10216922194E+02  0.52577673073E+02  0.10566000000E+00 0.  1.
         23    2    1    0    0    0 -0.77276050456E+01  0.59499410901E+01  0.23743315208E+02  0.99421679140E+02  0.96051067600E+02 0.  0.
         13    1    3    3    0    0  0.12968068306E+01 -0.44829730363E+02  0.13526393014E+02  0.46844006067E+02  0.10566000000E+00 0. -1.
         22    1    1    0    0    0  0.77276050456E+01 -0.59499410901E+01 -0.23743315208E+02  0.25668320860E+02  0.00000000000E+00 0.  1.
</event>
<event>
 5    1  0.1258624E-009  0.9118800E+02  0.7815553E-02  0.1125453E+00
         25   -1    0    0    0    0  0.00000000000E+00  0.00000000000E+00  0.99999998245E-14  0.12509000000E+03  0.12509000000E+03 0.  0.
        -13    1    3    3    0    0  0.28927982388E+02  0.21611510478E+02  0.31408256311E+02  0.47857865379E+02  0.10566000000E+00 0.  1.
         23    2    1    0    0    0 -0.15830417605E+02  0.11141306863E+02  0.23736856998E+02  0.94460451843E+02  0.89356632334E+02 0.  0.
         13    1    3    3    0    0 -0.44758399993E+02 -0.10470203615E+02 -0.76713993125E+01  0.46602586464E+02  0.10566000000E+00 0. -1.
         22    1    1    0    0    0  0.15830417605E+02 -0.11141306863E+02 -0.23736856998E+02  0.30629548157E+02  0.00000000000E+00 0. -1.
</event>
<event>
 5    1  0.1258624E-009  0.9118800E+02  0.7815553E-02  0.1125453E+00
         25   -1    0    0    0    0  0.00000000000E+00  0.00000000000E+00  0.99999998245E-14  0.12509000000E+03  0.12509000000E+03 0.  0.
        -13    1    3    3    0    0 -0.15416417990E+02  0.69609209058E+01  0.31248372161E+02  0.35532974689E+02  0.10566000000E+00 0.  1.
         23    2    1    0    0    0  0.23940827307E+02 -0.93219261912E+01 -0.12437598073E+02  0.96546080054E+02  0.92230093830E+02 0.  0.
         13    1    3    3    0    0  0.39357245297E+02 -0.16282847097E+02 -0.43685970234E+02  0.61013105365E+02  0.10566000000E+00 0. -1.
         22    1    1    0    0    0 -0.23940827307E+02  0.93219261912E+01  0.12437598073E+02  0.28543919946E+02  0.00000000000E+00 0. -1.
</event>
<event>
 5    1  0.1258624E-009  0.9118800E+02  0.7815553E-02  0.1125453E+00
         25   -1    0    0    0    0  0.00000000000E+00  0.00000000000E+00  0.99999998245E-14  0.12509000000E+03  0.12509000000E+03 0.  0.
        -13    1    3    3    0    0  0.30222686360E+01 -0.21552890673E+01 -0.60654082014E+02  0.60767657579E+02  0.10566000000E+00 0.  1.
         23    2    1    0    0    0  0.15186707701E+01  0.95185389102E+01 -0.27709733686E+02  0.95751658451E+02  0.91146266030E+02 0.  0.
         13    1    3    3    0    0 -0.15035978659E+01  0.11673827977E+02  0.32944348328E+02  0.34984000871E+02  0.10566000000E+00 0. -1.
         22    1    1    0    0    0 -0.15186707701E+01 -0.95185389102E+01  0.27709733686E+02  0.29338341549E+02  0.00000000000E+00 0.  1.
</event>
<event>
 5    1  0.1258624E-009  0.9118800E+02  0.7815553E-02  0.1125453E+00
         25   -1    0    0    0    0  0.00000000000E+00  0.00000000000E+00  0.99999998245E-14  0.12509000000E+03  0.12509000000E+03 0.  0.
        -13    1    3    3    0    0 -0.24316212697E+01 -0.15307640624E+02 -0.35114562003E+02  0.38383333260E+02  0.10566000000E+00 0.  1.
         23    2    1    0    0    0 -0.48306827134E+01  0.28353434497E+02  0.27109697302E+01  0.96200519213E+02  0.91760219032E+02 0.  0.
         13    1    3    3    0    0 -0.23990614437E+01  0.43661075121E+02  0.37825531733E+02  0.57817185953E+02  0.10566000000E+00 0. -1.
         22    1    1    0    0    0  0.48306827134E+01 -0.28353434497E+02 -0.27109697302E+01  0.28889480787E+02  0.00000000000E+00 0. -1.
</event>
<event>
 5    1  0.1258624E-009  0.9118800E+02  0.7815553E-02  0.1125453E+00
         25   -1    0    0    0    0  0.00000000000E+00  0.00000000000E+00  0.99999998245E-14  0.12509000000E+03  0.12509000000E+03 0.  0.
        -13    1    3    3    0    0 -0.38932862964E+02  0.19574570508E+02 -0.28749987432E+01  0.43671597302E+02  0.10566000000E+00 0. -1.
         23    2    1    0    0    0 -0.91855556322E+01 -0.22445327716E+02 -0.15013187854E+02  0.96566974598E+02  0.92258428368E+02 0.  0.
         13    1    3    3    0    0  0.29747307332E+02 -0.42019898225E+02 -0.12138189111E+02  0.52895377295E+02  0.10566000000E+00 0.  1.
         22    1    1    0    0    0  0.91855556322E+01  0.22445327716E+02  0.15013187854E+02  0.28523025402E+02  0.00000000000E+00 0. -1.
</event>
<event>
 5    1  0.1258624E-009  0.9118800E+02  0.7815553E-02  0.1125453E+00
         25   -1    0    0    0    0  0.00000000000E+00  0.00000000000E+00  0.99999998245E-14  0.12509000000E+03  0.12509000000E+03 0.  0.
        -13    1    3    3    0    0 -0.59826448404E+01 -0.36789797237E+02  0.16762089306E+02  0.40868814785E+02  0.10566000000E+00 0.  1.
         23    2    1    0    0    0  0.11870778439E+02  0.14800917752E+02  0.22380048287E+02  0.95749769797E+02  0.91143673986E+02 0.  0.
         13    1    3    3    0    0  0.17853423279E+02  0.51590714989E+02  0.56179589817E+01  0.54880955012E+02  0.10566000000E+00 0. -1.
         22    1    1    0    0    0 -0.11870778439E+02 -0.14800917752E+02 -0.22380048287E+02  0.29340230203E+02  0.00000000000E+00 0.  1.
</event>
<event>
 5    1  0.1258624E-009  0.9118800E+02  0.7815553E-02  0.1125453E+00
         25   -1    0    0    0    0  0.00000000000E+00  0.00000000000E+00  0.99999998245E-14  0.12509000000E+03  0.12509000000E+03 0.  0.
        -13    1    3    3    0    0 -0.14954166207E+02 -0.25986581044E+02 -0.41537062289E+02  0.51227611588E+02  0.10566000000E+00 0. -1.
         23    2    1    0    0    0 -0.27918418693E+02  0.32687067945E+01 -0.12930962610E+02  0.94149212349E+02  0.88919861929E+02 0.  0.
         13    1    3    3    0    0 -0.12964252486E+02  0.29255287839E+02  0.28606099679E+02  0.42921600762E+02  0.10566000000E+00 0.  1.
         22    1    1    0    0    0  0.27918418693E+02 -0.32687067945E+01  0.12930962610E+02  0.30940787651E+02  0.00000000000E+00 0.  1.
</event>
<event>
 5    1  0.1258624E-009  0.9118800E+02  0.7815553E-02  0.1125453E+00
         25   -1    0    0    0    0  0.00000000000E+00  0.00000000000E+00  0.99999998245E-14  0.12509000000E+03  0.12509000000E+03 0.  0.
        -13    1    3    3    0    0  0.14143897748E+02 -0.32459431901E+02  0.30167836857E+02  0.46516385366E+02  0.10566000000E+00 0. -1.
         23    2    1    0    0    0  0.83592418235E+01  0.15269183236E+02  0.24654380267E+02  0.94909487299E+02  0.89983039694E+02 0.  0.
         13    1    3    3    0    0 -0.57846559243E+01  0.47728615137E+02 -0.55134565903E+01  0.48393101933E+02  0.10566000000E+00 0.  1.
         22    1    1    0    0    0 -0.83592418235E+01 -0.15269183236E+02 -0.24654380267E+02  0.30180512701E+02  0.00000000000E+00 0.  1.
</event>
<event>
 5    1  0.1258624E-009  0.9118800E+02  0.7815553E-02  0.1125453E+00
         25   -1    0    0    0    0  0.00000000000E+00  0.00000000000E+00  0.99999998245E-14  0.12509000000E+03  0.12509000000E+03 0.  0.
        -13    1    3    3    0    0  0.21801422766E+01 -0.35171533290E+02 -0.96022006960E+01  0.36524008495E+02  0.10566000000E+00 0. -1.
         23    2    1    0    0    0 -0.14397482549E+01  0.49892524813E+01  0.30947189239E+02  0.93710165119E+02  0.88300062341E+02 0.  0.
         13    1    3    3    0    0 -0.36198905316E+01  0.40160785771E+02  0.40549389935E+02  0.57186156624E+02  0.10566000000E+00 0.  1.
         22    1    1    0    0    0  0.14397482549E+01 -0.49892524813E+01 -0.30947189239E+02  0.31379834881E+02  0.00000000000E+00 0.  1.
</event>
<event>
 5    1  0.1258624E-009  0.9118800E+02  0.7815553E-02  0.1125453E+00
         25   -1    0    0    0    0  0.00000000000E+00  0.00000000000E+00  0.99999998245E-14  0.12509000000E+03  0.12509000000E+03 0.  0.
        -13    1    3    3    0    0 -0.10720658141E+02  0.35257902473E+02  0.44834423976E+02  0.58036100275E+02  0.10566000000E+00 0.  1.
         23    2    1    0    0    0 -0.36657690020E+01  0.59059195769E+00  0.27332179307E+02  0.97506768012E+02  0.93523981530E+02 0.  0.
         13    1    3    3    0    0  0.70548891395E+01 -0.34667310515E+02 -0.17502244669E+02  0.39470667737E+02  0.10566000000E+00 0. -1.
         22    1    1    0    0    0  0.36657690020E+01 -0.59059195769E+00 -0.27332179307E+02  0.27583231988E+02  0.00000000000E+00 0.  1.
</event>
<event>
 5    1  0.1258624E-009  0.9118800E+02  0.7815553E-02  0.1125453E+00
         25   -1    0    0    0    0  0.00000000000E+00  0.00000000000E+00  0.99999998245E-14  0.12509000000E+03  0.12509000000E+03 0.  0.
        -13    1    3    3    0    0 -0.26142959352E+01 -0.26253762160E+02 -0.40512060151E+02  0.48345969351E+02  0.10566000000E+00 0. -1.
         23    2    1    0    0    0 -0.24638248245E+02 -0.16794197199E+02 -0.16981216092E+00  0.95271932117E+02  0.90485489869E+02 0.  0.
         13    1    3    3    0    0 -0.22023952309E+02  0.94595649610E+01  0.40342247990E+02  0.46925962766E+02  0.10566000000E+00 0.  1.
         22    1    1    0    0    0  0.24638248245E+02  0.16794197199E+02  0.16981216092E+00  0.29818067883E+02  0.00000000000E+00 0.  1.
</event>
<event>
 5    1  0.1258624E-009  0.9118800E+02  0.7815553E-02  0.1125453E+00
         25   -1    0    0    0    0  0.00000000000E+00  0.00000000000E+00  0.99999998245E-14  0.12509000000E+03  0.12509000000E+03 0.  0.
        -13    1    3    3    0    0 -0.54007828528E+00  0.27202675662E+02  0.93092030542E+01  0.28756732660E+02  0.10566000000E+00 0. -1.
         23    2    1    0    0    0 -0.23661508398E+02 -0.25720666509E+02  0.15532974183E+02  0.86844830994E+02  0.77970069374E+02 0.  0.
         13    1    3    3    0    0 -0.23121430113E+02 -0.52923342171E+02  0.62237711288E+01  0.58088098334E+02  0.10566000000E+00 0.  1.
         22    1    1    0    0    0  0.23661508398E+02  0.25720666509E+02 -0.15532974183E+02  0.38245169006E+02  0.00000000000E+00 0.  1.
</event>
<event>
 5    1  0.1258624E-009  0.9118800E+02  0.7815553E-02  0.1125453E+00
         25   -1    0    0    0    0  0.00000000000E+00  0.00000000000E+00  0.99999998245E-14  0.12509000000E+03  0.12509000000E+03 0.  0.
        -13    1    3    3    0    0 -0.11695431429E+02  0.35324866390E+02  0.33674936539E+02  0.50186071940E+02  0.10566000000E+00 0.  1.
         23    2    1    0    0    0  0.21382222561E+02  0.75601470194E+01  0.18024658871E+02  0.96120298724E+02  0.91650795059E+02 0.  0.
         13    1    3    3    0    0  0.33077653990E+02 -0.27764719370E+02 -0.15650277669E+02  0.45934226785E+02  0.10566000000E+00 0. -1.
         22    1    1    0    0    0 -0.21382222561E+02 -0.75601470194E+01 -0.18024658871E+02  0.28969701276E+02  0.00000000000E+00 0.  1.
</event>
<event>
 5    1  0.1258624E-009  0.9118800E+02  0.7815553E-02  0.1125453E+00
         25   -1    0    0    0    0  0.00000000000E+00  0.00000000000E+00  0.99999998245E-14  0.12509000000E+03  0.12509000000E+03 0.  0.
        -13    1    3    3    0    0  0.36256919359E+02  0.24213162380E+02  0.33849168214E+02  0.55196184530E+02  0.10566000000E+00 0.  1.
         23    2    1    0    0    0  0.71044945593E+00  0.91853120724E+01  0.29679510168E+02  0.94013513388E+02  0.88728759033E+02 0.  0.
         13    1    3    3    0    0 -0.35546469903E+02 -0.15027850308E+02 -0.41696580457E+01  0.38817328858E+02  0.10566000000E+00 0. -1.
         22    1    1    0    0    0 -0.71044945593E+00 -0.91853120724E+01 -0.29679510168E+02  0.31076486612E+02  0.00000000000E+00 0.  1.
</event>
<event>
 5    1  0.1258624E-009  0.9118800E+02  0.7815553E-02  0.1125453E+00
         25   -1    0    0    0    0  0.00000000000E+00  0.00000000000E+00  0.99999998245E-14  0.12509000000E+03  0.12509000000E+03 0.  0.
        -13    1    3    3    0    0 -0.46159332968E+02  0.38549150210E+02 -0.12360088104E+02  0.61396286076E+02  0.10566000000E+00 0. -1.
         23    2    1    0    0    0 -0.21445805838E+02  0.94120988073E+01 -0.98422467038E+01  0.99685669421E+02  0.96394256446E+02 0.  0.
         13    1    3    3    0    0  0.24713527130E+02 -0.29137051402E+02  0.25178413997E+01  0.38289383346E+02  0.10566000000E+00 0.  1.
         22    1    1    0    0    0  0.21445805838E+02 -0.94120988073E+01  0.98422467038E+01  0.25404330579E+02  0.00000000000E+00 0. -1.
</event>
<event>
 5    1  0.1258624E-009  0.9118800E+02  0.7815553E-02  0.1125453E+00
         25   -1    0    0    0    0  0.00000000000E+00  0.00000000000E+00  0.99999998245E-14  0.12509000000E+03  0.12509000000E+03 0.  0.
        -13    1    3    3    0    0 -0.15137448303E+02  0.90302283924E+01 -0.36264685319E+02  0.40321531857E+02  0.10566000000E+00 0. -1.
         23    2    1    0    0    0  0.22274342279E+02 -0.18876962591E+02 -0.82837127805E+01  0.94740272851E+02  0.89747497802E+02 0.  0.
         13    1    3    3    0    0  0.37411790581E+02 -0.27907190984E+02  0.27980972539E+02  0.54418740994E+02  0.10566000000E+00 0.  1.
         22    1    1    0    0    0 -0.22274342279E+02  0.18876962591E+02  0.82837127805E+01  0.30349727149E+02  0.00000000000E+00 0.  1.
</event>
<event>
 5    1  0.1258624E-009  0.9118800E+02  0.7815553E-02  0.1125453E+00
         25   -1    0    0    0    0  0.00000000000E+00  0.00000000000E+00  0.99999998245E-14  0.12509000000E+03  0.12509000000E+03 0.  0.
        -13    1    3    3    0    0  0.23891997586E+01 -0.20337972410E+02  0.29792965494E+02  0.36152086443E+02  0.10566000000E+00 0.  1.
         23    2    1    0    0    0  0.34930396082E+01  0.27402170040E+02 -0.71832884324E+01  0.96547402338E+02  0.92231887202E+02 0.  0.
         13    1    3    3    0    0  0.11038398496E+01  0.47740142450E+02 -0.36976253926E+02  0.60395315895E+02  0.10566000000E+00 0. -1.
         22    1    1    0    0    0 -0.34930396082E+01 -0.27402170040E+02  0.71832884324E+01  0.28542597662E+02  0.00000000000E+00 0. -1.
</event>
<event>
 5    1  0.1258624E-009  0.9118800E+02  0.7815553E-02  0.1125453E+00
         25   -1    0    0    0    0  0.00000000000E+00  0.00000000000E+00  0.99999998245E-14  0.12509000000E+03  0.12509000000E+03 0.  0.
        -13    1    3    3    0    0  0.12220086653E+02  0.35264822195E+02  0.92965570026E+01  0.38462648614E+02  0.10566000000E+00 0. -1.
         23    2    1    0    0    0  0.14481740903E+02 -0.18252592433E+02 -0.15103190135E+02  0.97323395916E+02  0.93278395624E+02 0.  0.
         13    1    3    3    0    0  0.22616542504E+01 -0.53517414628E+02 -0.24399747138E+02  0.58860747302E+02  0.10566000000E+00 0.  1.
         22    1    1    0    0    0 -0.14481740903E+02  0.18252592433E+02  0.15103190135E+02  0.27766604084E+02  0.00000000000E+00 0.  1.
</event>
<event>
 5    1  0.1258624E-009  0.9118800E+02  0.7815553E-02  0.1125453E+00
         25   -1    0    0    0    0  0.00000000000E+00  0.00000000000E+00  0.99999998245E-14  0.12509000000E+03  0.12509000000E+03 0.  0.
        -13    1    3    3    0    0  0.95414651490E+01  0.10923727567E+02  0.20264730081E+02  0.24920630619E+02  0.10566000000E+00 0.  1.
         23    2    1    0    0    0 -0.22104839907E+02  0.10090999126E+02 -0.31322654117E+02  0.85447082958E+02  0.75694406097E+02 0.  0.
         13    1    3    3    0    0 -0.31646305056E+02 -0.83272844053E+00 -0.51587384198E+02  0.60526452339E+02  0.10566000000E+00 0. -1.
         22    1    1    0    0    0  0.22104839907E+02 -0.10090999126E+02  0.31322654117E+02  0.39642917042E+02  0.00000000000E+00 0. -1.
</event>
<event>
 5    1  0.1258624E-009  0.9118800E+02  0.7815553E-02  0.1125453E+00
         25   -1    0    0    0    0  0.00000000000E+00  0.00000000000E+00  0.99999998245E-14  0.12509000000E+03  0.12509000000E+03 0.  0.
        -13    1    3    3    0    0 -0.34513710226E+02  0.48939833910E+02  0.11944087143E+02  0.61065341385E+02  0.10566000000E+00 0. -1.
         23    2    1    0    0    0 -0.13562707782E+02  0.25676027256E+02 -0.32602699496E+01  0.95869548632E+02  0.91307916287E+02 0.  0.
         13    1    3    3    0    0  0.20951002444E+02 -0.23263806654E+02 -0.15204357093E+02  0.34804207247E+02  0.10566000000E+00 0.  1.
         22    1    1    0    0    0  0.13562707782E+02 -0.25676027256E+02  0.32602699496E+01  0.29220451368E+02  0.00000000000E+00 0. -1.
</event>
<event>
 5    1  0.1258624E-009  0.9118800E+02  0.7815553E-02  0.1125453E+00
         25   -1    0    0    0    0  0.00000000000E+00  0.00000000000E+00  0.99999998245E-14  0.12509000000E+03  0.12509000000E+03 0.  0.
        -13    1    3    3    0    0  0.60377304462E+02 -0.52063815789E+01 -0.44732021912E+01  0.60766322952E+02  0.10566000000E+00 0.  1.
         23    2    1    0    0    0  0.26920610885E+02 -0.12353816946E+02  0.12025777642E+01  0.95445737877E+02  0.90725446276E+02 0.  0.
         13    1    3    3    0    0 -0.33456693577E+02 -0.71474353666E+01  0.56757799554E+01  0.34679414925E+02  0.10566000000E+00 0. -1.
         22    1    1    0    0    0 -0.26920610885E+02  0.12353816946E+02 -0.12025777642E+01  0.29644262123E+02  0.00000000000E+00 0.  1.
</event>
<event>
 5    1  0.1258624E-009  0.9118800E+02  0.7815553E-02  0.1125453E+00
         25   -1    0    0    0    0  0.00000000000E+00  0.00000000000E+00  0.99999998245E-14  0.12509000000E+03  0.12509000000E+03 0.  0.
        -13    1    3    3    0    0  0.75305128024E+01  0.59097953337E+02 -0.15825353531E+02  0.61641947488E+02  0.10566000000E+00 0. -1.
         23    2    1    0    0    0  0.87608073027E+01  0.27608228729E+02 -0.19970543405E+01  0.96056325341E+02  0.91563439068E+02 0.  0.
         13    1    3    3    0    0  0.12302945004E+01 -0.31489724608E+02  0.13828299190E+02  0.34414377853E+02  0.10566000000E+00 0.  1.
         22    1    1    0    0    0 -0.87608073027E+01 -0.27608228729E+02  0.19970543405E+01  0.29033674659E+02  0.00000000000E+00 0. -1.
</event>
<event>
 5    1  0.1258624E-009  0.9118800E+02  0.7815553E-02  0.1125453E+00
         25   -1    0    0    0    0  0.00000000000E+00  0.00000000000E+00  0.99999998245E-14  0.12509000000E+03  0.12509000000E+03 0.  0.
        -13    1    3    3    0    0  0.97416607758E+01  0.14358313544E+02 -0.43915682682E+02  0.47219270134E+02  0.10566000000E+00 0.  1.
         23    2    1    0    0    0 -0.90962191378E+01 -0.21718249412E+02 -0.17740231285E+02  0.95608830312E+02  0.90950036105E+02 0.  0.
         13    1    3    3    0    0 -0.18837879914E+02 -0.36076562956E+02  0.26175451398E+02  0.48389560178E+02  0.10566000000E+00 0. -1.
         22    1    1    0    0    0  0.90962191378E+01  0.21718249412E+02  0.17740231285E+02  0.29481169688E+02  0.00000000000E+00 0. -1.
</event>
<event>
 5    1  0.1258624E-009  0.9118800E+02  0.7815553E-02  0.1125453E+00
         25   -1    0    0    0    0  0.00000000000E+00  0.00000000000E+00  0.99999998245E-14  0.12509000000E+03  0.12509000000E+03 0.  0.
        -13    1    3    3    0    0  0.16614599690E+02  0.54984916960E+02  0.19010611076E+01  0.57471829737E+02  0.10566000000E+00 0. -1.
         23    2    1    0    0    0 -0.85062407759E+01  0.25578001769E+02  0.87509515623E+01  0.96749755472E+02  0.92505922643E+02 0.  0.
         13    1    3    3    0    0 -0.25120840466E+02 -0.29406915191E+02  0.68498904548E+01  0.39277925735E+02  0.10566000000E+00 0.  1.
         22    1    1    0    0    0  0.85062407759E+01 -0.25578001769E+02 -0.87509515623E+01  0.28340244528E+02  0.00000000000E+00 0. -1.
</event>
<event>
 5    1  0.1258624E-009  0.9118800E+02  0.7815553E-02  0.1125453E+00
         25   -1    0    0    0    0  0.00000000000E+00  0.00000000000E+00  0.99999998245E-14  0.12509000000E+03  0.12509000000E+03 0.  0.
        -13    1    3    3    0    0  0.16113962231E+01 -0.54927214205E+02 -0.21306878321E+02  0.58937167271E+02  0.10566000000E+00 0.  1.
         23    2    1    0    0    0  0.12960807408E+02 -0.33127110148E+02 -0.33813901602E+01  0.89357357292E+02  0.81901865348E+02 0.  0.
         13    1    3    3    0    0  0.11349411185E+02  0.21800104057E+02  0.17925488160E+02  0.30420190021E+02  0.10566000000E+00 0. -1.
         22    1    1    0    0    0 -0.12960807408E+02  0.33127110148E+02  0.33813901602E+01  0.35732642708E+02  0.00000000000E+00 0.  1.
</event>
<event>
 5    1  0.1258624E-009  0.9118800E+02  0.7815553E-02  0.1125453E+00
         25   -1    0    0    0    0  0.00000000000E+00  0.00000000000E+00  0.99999998245E-14  0.12509000000E+03  0.12509000000E+03 0.  0.
        -13    1    3    3    0    0 -0.17632639936E+02 -0.23230814596E+02 -0.31140829782E+02  0.42665479974E+02  0.10566000000E+00 0.  1.
         23    2    1    0    0    0 -0.23025680011E+02  0.44408461099E+01  0.15368683458E+02  0.97052534255E+02  0.92914449468E+02 0.  0.
         13    1    3    3    0    0 -0.53930400759E+01  0.27671660705E+02  0.46509513240E+02  0.54387054281E+02  0.10566000000E+00 0. -1.
         22    1    1    0    0    0  0.23025680011E+02 -0.44408461099E+01 -0.15368683458E+02  0.28037465745E+02  0.00000000000E+00 0. -1.
</event>
<event>
 5    1  0.1258624E-009  0.9118800E+02  0.7815553E-02  0.1125453E+00
         25   -1    0    0    0    0  0.00000000000E+00  0.00000000000E+00  0.99999998245E-14  0.12509000000E+03  0.12509000000E+03 0.  0.
        -13    1    3    3    0    0 -0.41332257856E+01  0.43708382021E+02 -0.17376958560E+02  0.47217328039E+02  0.10566000000E+00 0. -1.
         23    2    1    0    0    0 -0.27049133983E+02  0.82709074600E+01  0.69972251763E+01  0.95951971247E+02  0.91420763870E+02 0.  0.
         13    1    3    3    0    0 -0.22915908197E+02 -0.35437474561E+02  0.24374183736E+02  0.48734643208E+02  0.10566000000E+00 0.  1.
         22    1    1    0    0    0  0.27049133983E+02 -0.82709074600E+01 -0.69972251763E+01  0.29138028753E+02  0.00000000000E+00 0. -1.
</event>
<event>
 5    1  0.1258624E-009  0.9118800E+02  0.7815553E-02  0.1125453E+00
         25   -1    0    0    0    0  0.00000000000E+00  0.00000000000E+00  0.99999998245E-14  0.12509000000E+03  0.12509000000E+03 0.  0.
        -13    1    3    3    0    0 -0.27335764856E+02  0.35366309916E+02 -0.16926891113E+02  0.47796974005E+02  0.10566000000E+00 0.  1.
         23    2    1    0    0    0 -0.31376055565E+02 -0.73857278536E+01 -0.10318269560E+02  0.91245169886E+02  0.84736110969E+02 0.  0.
         13    1    3    3    0    0 -0.40402907089E+01 -0.42752037769E+02  0.66086215526E+01  0.43448195881E+02  0.10566000000E+00 0. -1.
         22    1    1    0    0    0  0.31376055565E+02  0.73857278536E+01  0.10318269560E+02  0.33844830114E+02  0.00000000000E+00 0.  1.
</event>
<event>
 5    1  0.1258624E-009  0.9118800E+02  0.7815553E-02  0.1125453E+00
         25   -1    0    0    0    0  0.00000000000E+00  0.00000000000E+00  0.99999998245E-14  0.12509000000E+03  0.12509000000E+03 0.  0.
        -13    1    3    3    0    0  0.29410302442E+02 -0.21408635291E+01  0.29058397002E+02  0.41399888729E+02  0.10566000000E+00 0.  1.
         23    2    1    0    0    0  0.22742775389E+02  0.68435352744E+01 -0.21422442048E+02  0.93105803421E+02  0.87439703796E+02 0.  0.
         13    1    3    3    0    0 -0.66675270529E+01  0.89843988035E+01 -0.50480839051E+02  0.51705914692E+02  0.10566000000E+00 0. -1.
         22    1    1    0    0    0 -0.22742775389E+02 -0.68435352744E+01  0.21422442048E+02  0.31984196579E+02  0.00000000000E+00 0. -1.
</event>
<event>
 5    1  0.1258624E-009  0.9118800E+02  0.7815553E-02  0.1125453E+00
         25   -1    0    0    0    0  0.00000000000E+00  0.00000000000E+00  0.99999998245E-14  0.12509000000E+03  0.12509000000E+03 0.  0.
        -13    1    3    3    0    0  0.34078811932E+02  0.46881814230E+02  0.10729059650E+02  0.58943988779E+02  0.10566000000E+00 0. -1.
         23    2    1    0    0    0  0.16642020952E+02  0.22836172525E+02 -0.99460410175E+01  0.95133842555E+02  0.90294388698E+02 0.  0.
         13    1    3    3    0    0 -0.17436790981E+02 -0.24045641705E+02 -0.20675100667E+02  0.36189853776E+02  0.10566000000E+00 0.  1.
         22    1    1    0    0    0 -0.16642020952E+02 -0.22836172525E+02  0.99460410175E+01  0.29956157445E+02  0.00000000000E+00 0. -1.
</event>
<event>
 5    1  0.1258624E-009  0.9118800E+02  0.7815553E-02  0.1125453E+00
         25   -1    0    0    0    0  0.00000000000E+00  0.00000000000E+00  0.99999998245E-14  0.12509000000E+03  0.12509000000E+03 0.  0.
        -13    1    3    3    0    0 -0.30592996901E+02  0.13054058813E+02  0.31518889649E+02  0.45823481750E+02  0.10566000000E+00 0.  1.
         23    2    1    0    0    0 -0.14434822781E+02  0.17582726691E+02 -0.16693690451E+02  0.96873060274E+02  0.92672510053E+02 0.  0.
         13    1    3    3    0    0  0.16158174120E+02  0.45286678777E+01 -0.48212580100E+02  0.51049578525E+02  0.10566000000E+00 0. -1.
         22    1    1    0    0    0  0.14434822781E+02 -0.17582726691E+02  0.16693690451E+02  0.28216939726E+02  0.00000000000E+00 0.  1.
</event>
<event>
 5    1  0.1258624E-009  0.9118800E+02  0.7815553E-02  0.1125453E+00
         25   -1    0    0    0    0  0.00000000000E+00  0.00000000000E+00  0.99999998245E-14  0.12509000000E+03  0.12509000000E+03 0.  0.
        -13    1    3    3    0    0  0.15565571237E+02 -0.53845197922E+02  0.24083806453E+02  0.61005190308E+02  0.10566000000E+00 0. -1.
         23    2    1    0    0    0  0.69244240306E+01 -0.42530589839E+02  0.10378497771E+02  0.80767184925E+02  0.67519080447E+02 0.  0.
         13    1    3    3    0    0 -0.86411472069E+01  0.11314608083E+02 -0.13705308682E+02  0.19761994617E+02  0.10566000000E+00 0.  1.
         22    1    1    0    0    0 -0.69244240306E+01  0.42530589839E+02 -0.10378497771E+02  0.44322815075E+02  0.00000000000E+00 0. -1.
</event>
<event>
 5    1  0.1258624E-009  0.9118800E+02  0.7815553E-02  0.1125453E+00
         25   -1    0    0    0    0  0.00000000000E+00  0.00000000000E+00  0.99999998245E-14  0.12509000000E+03  0.12509000000E+03 0.  0.
        -13    1    3    3    0    0 -0.28770762566E+02  0.27206718869E-01  0.31202017203E+02  0.42442131902E+02  0.10566000000E+00 0. -1.
         23    2    1    0    0    0  0.18508567497E+02  0.16348496195E+02  0.19014433510E+02  0.93922884633E+02  0.88600898288E+02 0.  0.
         13    1    3    3    0    0  0.47279330063E+02  0.16321289476E+02 -0.12187583693E+02  0.51480752731E+02  0.10566000000E+00 0.  1.
         22    1    1    0    0    0 -0.18508567497E+02 -0.16348496195E+02 -0.19014433510E+02  0.31167115367E+02  0.00000000000E+00 0.  1.
</event>
<event>
 5    1  0.1258624E-009  0.9118800E+02  0.7815553E-02  0.1125453E+00
         25   -1    0    0    0    0  0.00000000000E+00  0.00000000000E+00  0.99999998245E-14  0.12509000000E+03  0.12509000000E+03 0.  0.
        -13    1    3    3    0    0 -0.32305838035E+02 -0.12003257275E+02 -0.33711638131E+02  0.48210279670E+02  0.10566000000E+00 0.  1.
         23    2    1    0    0    0  0.11134455934E+02 -0.19899413292E+02 -0.20835652783E+02  0.94201698247E+02  0.88993667007E+02 0.  0.
         13    1    3    3    0    0  0.43440293969E+02 -0.78961560170E+01  0.12875985348E+02  0.45991418577E+02  0.10566000000E+00 0. -1.
         22    1    1    0    0    0 -0.11134455934E+02  0.19899413292E+02  0.20835652783E+02  0.30888301753E+02  0.00000000000E+00 0.  1.
</event>
<event>
 5    1  0.1258624E-009  0.9118800E+02  0.7815553E-02  0.1125453E+00
         25   -1    0    0    0    0  0.00000000000E+00  0.00000000000E+00  0.99999998245E-14  0.12509000000E+03  0.12509000000E+03 0.  0.
        -13    1    3    3    0    0 -0.24499660235E+02  0.94487218343E+01 -0.56577284956E+02  0.62373969194E+02  0.10566000000E+00 0.  1.
         23    2    1    0    0    0 -0.10823523547E+02  0.75586468147E+01 -0.29621191218E+02  0.92660125303E+02  0.86799781385E+02 0.  0.
         13    1    3    3    0    0  0.13676136688E+02 -0.18900750196E+01  0.26956093738E+02  0.30286156110E+02  0.10566000000E+00 0. -1.
         22    1    1    0    0    0  0.10823523547E+02 -0.75586468147E+01  0.29621191218E+02  0.32429874697E+02  0.00000000000E+00 0.  1.
</event>
<event>
 5    1  0.1258624E-009  0.9118800E+02  0.7815553E-02  0.1125453E+00
         25   -1    0    0    0    0  0.00000000000E+00  0.00000000000E+00  0.99999998245E-14  0.12509000000E+03  0.12509000000E+03 0.  0.
        -13    1    3    3    0    0  0.23967170932E+02 -0.18266623060E+02 -0.10489447649E+02  0.31908219576E+02  0.10566000000E+00 0.  1.
         23    2    1    0    0    0 -0.27482964216E+02  0.51383286703E+01  0.14366688950E+02  0.93655663758E+02  0.88222819377E+02 0.  0.
         13    1    3    3    0    0 -0.51450135148E+02  0.23404951730E+02  0.24856136599E+02  0.61747444181E+02  0.10566000000E+00 0. -1.
         22    1    1    0    0    0  0.27482964216E+02 -0.51383286703E+01 -0.14366688950E+02  0.31434336242E+02  0.00000000000E+00 0. -1.
</event>
<event>
 5    1  0.1258624E-009  0.9118800E+02  0.7815553E-02  0.1125453E+00
         25   -1    0    0    0    0  0.00000000000E+00  0.00000000000E+00  0.99999998245E-14  0.12509000000E+03  0.12509000000E+03 0.  0.
        -13    1    3    3    0    0  0.10814760722E+02 -0.32912051720E+01 -0.57176575770E+02  0.58283471600E+02  0.10566000000E+00 0. -1.
         23    2    1    0    0    0  0.17947906338E+02  0.80569415666E+01 -0.24055313618E+02  0.94014289829E+02  0.88729853654E+02 0.  0.
         13    1    3    3    0    0  0.71331456170E+01  0.11348146739E+02  0.33121262152E+02  0.35730818229E+02  0.10566000000E+00 0.  1.
         22    1    1    0    0    0 -0.17947906338E+02 -0.80569415666E+01  0.24055313618E+02  0.31075710171E+02  0.00000000000E+00 0. -1.
</event>
<event>
 5    1  0.1258624E-009  0.9118800E+02  0.7815553E-02  0.1125453E+00
         25   -1    0    0    0    0  0.00000000000E+00  0.00000000000E+00  0.99999998245E-14  0.12509000000E+03  0.12509000000E+03 0.  0.
        -13    1    3    3    0    0 -0.17709424149E+02 -0.11126238386E+02  0.10856384648E+02  0.23564573749E+02  0.10566000000E+00 0. -1.
         23    2    1    0    0    0  0.40888918763E+02 -0.38086948569E+01 -0.18997751055E+01  0.83980159578E+02  0.73230104623E+02 0.  0.
         13    1    3    3    0    0  0.58598342912E+02  0.73175435292E+01 -0.12756159754E+02  0.60415585828E+02  0.10566000000E+00 0.  1.
         22    1    1    0    0    0 -0.40888918763E+02  0.38086948569E+01  0.18997751055E+01  0.41109840422E+02  0.00000000000E+00 0.  1.
</event>
<event>
 5    1  0.1258624E-009  0.9118800E+02  0.7815553E-02  0.1125453E+00
         25   -1    0    0    0    0  0.00000000000E+00  0.00000000000E+00  0.99999998245E-14  0.12509000000E+03  0.12509000000E+03 0.  0.
        -13    1    3    3    0    0 -0.86673958004E+01 -0.25691507121E+02 -0.25809906739E+02  0.37434472589E+02  0.10566000000E+00 0. -1.
         23    2    1    0    0    0  0.15056538977E+02 -0.80514841265E+01  0.24166510088E+02  0.95500373905E+02  0.90800745831E+02 0.  0.
         13    1    3    3    0    0  0.23723934778E+02  0.17640022995E+02  0.49976416827E+02  0.58065901315E+02  0.10566000000E+00 0.  1.
         22    1    1    0    0    0 -0.15056538977E+02  0.80514841265E+01 -0.24166510088E+02  0.29589626095E+02  0.00000000000E+00 0.  1.
</event>
<event>
 5    1  0.1258624E-009  0.9118800E+02  0.7815553E-02  0.1125453E+00
         25   -1    0    0    0    0  0.00000000000E+00  0.00000000000E+00  0.99999998245E-14  0.12509000000E+03  0.12509000000E+03 0.  0.
        -13    1    3    3    0    0  0.33797935363E+02 -0.22050093509E+02  0.34489983758E+02  0.53085564913E+02  0.10566000000E+00 0. -1.
         23    2    1    0    0    0  0.28649005956E+02  0.19229930481E+01 -0.11590279690E+01  0.96353145782E+02  0.91968048319E+02 0.  0.
         13    1    3    3    0    0 -0.51489294066E+01  0.23973086557E+02 -0.35649011727E+02  0.43267580869E+02  0.10566000000E+00 0.  1.
         22    1    1    0    0    0 -0.28649005956E+02 -0.19229930481E+01  0.11590279690E+01  0.28736854218E+02  0.00000000000E+00 0. -1.
</event>
<event>
 5    1  0.1258624E-009  0.9118800E+02  0.7815553E-02  0.1125453E+00
         25   -1    0    0    0    0  0.00000000000E+00  0.00000000000E+00  0.99999998245E-14  0.12509000000E+03  0.12509000000E+03 0.  0.
        -13    1    3    3    0    0 -0.28065665159E+02  0.78917477800E+01  0.16968160590E+02  0.33732638226E+02  0.10566000000E+00 0.  1.
         23    2    1    0    0    0  0.22383847513E+02 -0.15240646072E+02 -0.10975513056E+02  0.95870557688E+02  0.91309298664E+02 0.  0.
         13    1    3    3    0    0  0.50449512672E+02 -0.23132393852E+02 -0.27943673647E+02  0.62137919462E+02  0.10566000000E+00 0. -1.
         22    1    1    0    0    0 -0.22383847513E+02  0.15240646072E+02  0.10975513056E+02  0.29219442312E+02  0.00000000000E+00 0. -1.
</event>
<event>
 5    1  0.1258624E-009  0.9118800E+02  0.7815553E-02  0.1125453E+00
         25   -1    0    0    0    0  0.00000000000E+00  0.00000000000E+00  0.99999998245E-14  0.12509000000E+03  0.12509000000E+03 0.  0.
        -13    1    3    3    0    0  0.12199026866E+02 -0.28127968848E+02 -0.44433960730E+02  0.53985061991E+02  0.10566000000E+00 0. -1.
         23    2    1    0    0    0  0.23828080121E+02  0.12523242433E+01 -0.20652438412E+02  0.93532608938E+02  0.88048168659E+02 0.  0.
         13    1    3    3    0    0  0.11629053255E+02  0.29380293091E+02  0.23781522318E+02  0.39547546947E+02  0.10566000000E+00 0.  1.
         22    1    1    0    0    0 -0.23828080121E+02 -0.12523242433E+01  0.20652438412E+02  0.31557391062E+02  0.00000000000E+00 0.  1.
</event>
<event>
 5    1  0.1258624E-009  0.9118800E+02  0.7815553E-02  0.1125453E+00
         25   -1    0    0    0    0  0.00000000000E+00  0.00000000000E+00  0.99999998245E-14  0.12509000000E+03  0.12509000000E+03 0.  0.
        -13    1    3    3    0    0  0.25944133896E+02 -0.19489664738E+02 -0.33312196281E+02  0.46504394420E+02  0.10566000000E+00 0. -1.
         23    2    1    0    0    0 -0.11500425286E+02 -0.27570067998E+02 -0.35637161003E+01  0.95005643540E+02  0.90116612236E+02 0.  0.
         13    1    3    3    0    0 -0.37444559182E+02 -0.80804032591E+01  0.29748480181E+02  0.48501249121E+02  0.10566000000E+00 0.  1.
         22    1    1    0    0    0  0.11500425286E+02  0.27570067998E+02  0.35637161003E+01  0.30084356460E+02  0.00000000000E+00 0. -1.
</event>
<event>
 5    1  0.1258624E-009  0.9118800E+02  0.7815553E-02  0.1125453E+00
         25   -1    0    0    0    0  0.00000000000E+00  0.00000000000E+00  0.99999998245E-14  0.12509000000E+03  0.12509000000E+03 0.  0.
        -13    1    3    3    0    0 -0.19422762258E+02 -0.27484780946E+02  0.19759231050E+01  0.33713088164E+02  0.10566000000E+00 0.  1.
         23    2    1    0    0    0  0.71883062368E+01  0.26129032134E+02 -0.12427527105E+02  0.95276555101E+02  0.90491880604E+02 0.  0.
         13    1    3    3    0    0  0.26611068495E+02  0.53613813080E+02 -0.14403450210E+02  0.61563466937E+02  0.10566000000E+00 0. -1.
         22    1    1    0    0    0 -0.71883062368E+01 -0.26129032134E+02  0.12427527105E+02  0.29813444899E+02  0.00000000000E+00 0. -1.
</event>
<event>
 5    1  0.1258624E-009  0.9118800E+02  0.7815553E-02  0.1125453E+00
         25   -1    0    0    0    0  0.00000000000E+00  0.00000000000E+00  0.99999998245E-14  0.12509000000E+03  0.12509000000E+03 0.  0.
        -13    1    3    3    0    0 -0.45496920679E+00 -0.12150006279E+02  0.51099408816E+02  0.52526092515E+02  0.10566000000E+00 0. -1.
         23    2    1    0    0    0 -0.13407030475E+02  0.14502455570E+02  0.31001722091E+02  0.88331647802E+02  0.80320007141E+02 0.  0.
         13    1    3    3    0    0 -0.12952061268E+02  0.26652461849E+02 -0.20097686725E+02  0.35805555287E+02  0.10566000000E+00 0.  1.
         22    1    1    0    0    0  0.13407030475E+02 -0.14502455570E+02 -0.31001722091E+02  0.36758352198E+02  0.00000000000E+00 0.  1.
</event>
<event>
 5    1  0.1258624E-009  0.9118800E+02  0.7815553E-02  0.1125453E+00
         25   -1    0    0    0    0  0.00000000000E+00  0.00000000000E+00  0.99999998245E-14  0.12509000000E+03  0.12509000000E+03 0.  0.
        -13    1    3    3    0    0  0.25294223213E+02 -0.40269035114E+02  0.28975146558E+02  0.55686292739E+02  0.10566000000E+00 0.  1.
         23    2    1    0    0    0  0.21910345736E+02 -0.14660247138E+01  0.19381596338E+02  0.95800774074E+02  0.91213647870E+02 0.  0.
         13    1    3    3    0    0 -0.33838774765E+01  0.38803010400E+02 -0.95935502198E+01  0.40114481335E+02  0.10566000000E+00 0. -1.
         22    1    1    0    0    0 -0.21910345736E+02  0.14660247138E+01 -0.19381596338E+02  0.29289225926E+02  0.00000000000E+00 0.  1.
</event>
<event>
 5    1  0.1258624E-009  0.9118800E+02  0.7815553E-02  0.1125453E+00
         25   -1    0    0    0    0  0.00000000000E+00  0.00000000000E+00  0.99999998245E-14  0.12509000000E+03  0.12509000000E+03 0.  0.
        -13    1    3    3    0    0 -0.99882562778E+01 -0.15079602958E+02 -0.27080757715E+02  0.32565906886E+02  0.10566000000E+00 0.  1.
         23    2    1    0    0    0  0.19698210122E+02  0.22272802818E+02  0.10766733536E+02  0.93466910675E+02  0.87954781637E+02 0.  0.
         13    1    3    3    0    0  0.29686466400E+02  0.37352405776E+02  0.37847491251E+02  0.60901003790E+02  0.10566000000E+00 0. -1.
         22    1    1    0    0    0 -0.19698210122E+02 -0.22272802818E+02 -0.10766733536E+02  0.31623089325E+02  0.00000000000E+00 0. -1.
</event>
<event>
 5    1  0.1258624E-009  0.9118800E+02  0.7815553E-02  0.1125453E+00
         25   -1    0    0    0    0  0.00000000000E+00  0.00000000000E+00  0.99999998245E-14  0.12509000000E+03  0.12509000000E+03 0.  0.
        -13    1    3    3    0    0 -0.19118323833E+02 -0.40905874010E+02 -0.35501799634E+02  0.57438573938E+02  0.10566000000E+00 0. -1.
         23    2    1    0    0    0  0.56244417348E+01 -0.26899080212E+02 -0.93698532057E+01  0.96055726974E+02  0.91562621600E+02 0.  0.
         13    1    3    3    0    0  0.24742765568E+02  0.14006793799E+02  0.26131946428E+02  0.38617153036E+02  0.10566000000E+00 0.  1.
         22    1    1    0    0    0 -0.56244417348E+01  0.26899080212E+02  0.93698532057E+01  0.29034273026E+02  0.00000000000E+00 0. -1.
</event>
<event>
 5    1  0.1258624E-009  0.9118800E+02  0.7815553E-02  0.1125453E+00
         25   -1    0    0    0    0  0.00000000000E+00  0.00000000000E+00  0.99999998245E-14  0.12509000000E+03  0.12509000000E+03 0.  0.
        -13    1    3    3    0    0 -0.16648678322E+02  0.31122680187E+02  0.21413855531E+02  0.41283944635E+02  0.10566000000E+00 0.  1.
         23    2    1    0    0    0  0.24968260509E+02  0.10921350286E+02 -0.86997798210E+01  0.96482726556E+02  0.92144128570E+02 0.  0.
         13    1    3    3    0    0  0.41616938831E+02 -0.20201329901E+02 -0.30113635352E+02  0.55198781921E+02  0.10566000000E+00 0. -1.
         22    1    1    0    0    0 -0.24968260509E+02 -0.10921350286E+02  0.86997798210E+01  0.28607273444E+02  0.00000000000E+00 0. -1.
</event>
<event>
 5    1  0.1258624E-009  0.9118800E+02  0.7815553E-02  0.1125453E+00
         25   -1    0    0    0    0  0.00000000000E+00  0.00000000000E+00  0.99999998245E-14  0.12509000000E+03  0.12509000000E+03 0.  0.
        -13    1    3    3    0    0  0.38005837726E+01  0.15530607686E+02  0.16329374094E+02  0.22853967586E+02  0.10566000000E+00 0. -1.
         23    2    1    0    0    0  0.87181958656E+01 -0.26478262562E+02 -0.29008842758E+02  0.84857944552E+02  0.74714472948E+02 0.  0.
         13    1    3    3    0    0  0.49176120930E+01 -0.42008870248E+02 -0.45338216851E+02  0.62003976965E+02  0.10566000000E+00 0.  1.
         22    1    1    0    0    0 -0.87181958656E+01  0.26478262562E+02  0.29008842758E+02  0.40232055448E+02  0.00000000000E+00 0.  1.
</event>
<event>
 5    1  0.1258624E-009  0.9118800E+02  0.7815553E-02  0.1125453E+00
         25   -1    0    0    0    0  0.00000000000E+00  0.00000000000E+00  0.99999998245E-14  0.12509000000E+03  0.12509000000E+03 0.  0.
        -13    1    3    3    0    0  0.44241293824E+02  0.14035380875E+02 -0.30578498047E+02  0.55581828887E+02  0.10566000000E+00 0. -1.
         23    2    1    0    0    0  0.88870471539E+01 -0.24604685301E+01 -0.29035081889E+02  0.94625766991E+02  0.89587757455E+02 0.  0.
         13    1    3    3    0    0 -0.35354246670E+02 -0.16495849405E+02  0.15434161579E+01  0.39043938104E+02  0.10566000000E+00 0.  1.
         22    1    1    0    0    0 -0.88870471539E+01  0.24604685301E+01  0.29035081889E+02  0.30464233009E+02  0.00000000000E+00 0. -1.
</event>
<event>
 5    1  0.1258624E-009  0.9118800E+02  0.7815553E-02  0.1125453E+00
         25   -1    0    0    0    0  0.00000000000E+00  0.00000000000E+00  0.99999998245E-14  0.12509000000E+03  0.12509000000E+03 0.  0.
        -13    1    3    3    0    0  0.33248757445E+01  0.29460227775E+02  0.19391417020E+02  0.35425951467E+02  0.10566000000E+00 0.  1.
         23    2    1    0    0    0 -0.92192527330E+01 -0.11921756724E+02 -0.24042265815E+02  0.96714774012E+02  0.92458607292E+02 0.  0.
         13    1    3    3    0    0 -0.12544128477E+02 -0.41381984499E+02 -0.43433682835E+02  0.61288822545E+02  0.10566000000E+00 0. -1.
         22    1    1    0    0    0  0.92192527330E+01  0.11921756724E+02  0.24042265815E+02  0.28375225988E+02  0.00000000000E+00 0. -1.
</event>
<event>
 5    1  0.1258624E-009  0.9118800E+02  0.7815553E-02  0.1125453E+00
         25   -1    0    0    0    0  0.00000000000E+00  0.00000000000E+00  0.99999998245E-14  0.12509000000E+03  0.12509000000E+03 0.  0.
        -13    1    3    3    0    0  0.30261890657E+02 -0.22064650182E+02  0.18102382829E+02  0.41597334553E+02  0.10566000000E+00 0.  1.
         23    2    1    0    0    0  0.71463606263E+01  0.25176356175E+02  0.16373734690E+02  0.94219001180E+02  0.89017984785E+02 0.  0.
         13    1    3    3    0    0 -0.23115530030E+02  0.47241006357E+02 -0.17286481393E+01  0.52621666627E+02  0.10566000000E+00 0. -1.
         22    1    1    0    0    0 -0.71463606263E+01 -0.25176356175E+02 -0.16373734690E+02  0.30870998820E+02  0.00000000000E+00 0. -1.
</event>
<event>
 5    1  0.1258624E-009  0.9118800E+02  0.7815553E-02  0.1125453E+00
         25   -1    0    0    0    0  0.00000000000E+00  0.00000000000E+00  0.99999998245E-14  0.12509000000E+03  0.12509000000E+03 0.  0.
        -13    1    3    3    0    0 -0.14840134473E+01  0.58677080004E+01  0.60049227337E+02  0.60353567922E+02  0.10566000000E+00 0. -1.
         23    2    1    0    0    0 -0.36477969654E+01  0.13544058192E+02  0.23850568132E+02  0.97420566771E+02  0.93408614671E+02 0.  0.
         13    1    3    3    0    0 -0.21637835181E+01  0.76763501914E+01 -0.36198659205E+02  0.37066998849E+02  0.10566000000E+00 0.  1.
         22    1    1    0    0    0  0.36477969654E+01 -0.13544058192E+02 -0.23850568132E+02  0.27669433229E+02  0.00000000000E+00 0. -1.
</event>
<event>
 5    1  0.1258624E-009  0.9118800E+02  0.7815553E-02  0.1125453E+00
         25   -1    0    0    0    0  0.00000000000E+00  0.00000000000E+00  0.99999998245E-14  0.12509000000E+03  0.12509000000E+03 0.  0.
        -13    1    3    3    0    0 -0.29889176976E+02 -0.23941653998E+02 -0.40525588546E+02  0.55757512386E+02  0.10566000000E+00 0. -1.
         23    2    1    0    0    0 -0.26743872039E+02  0.34218852270E+01 -0.11481773748E+02  0.95785134899E+02  0.91192197852E+02 0.  0.
         13    1    3    3    0    0  0.31453049363E+01  0.27363539225E+02  0.29043814798E+02  0.40027622514E+02  0.10566000000E+00 0.  1.
         22    1    1    0    0    0  0.26743872039E+02 -0.34218852270E+01  0.11481773748E+02  0.29304865101E+02  0.00000000000E+00 0. -1.
</event>
<event>
 5    1  0.1258624E-009  0.9118800E+02  0.7815553E-02  0.1125453E+00
         25   -1    0    0    0    0  0.00000000000E+00  0.00000000000E+00  0.99999998245E-14  0.12509000000E+03  0.12509000000E+03 0.  0.
        -13    1    3    3    0    0 -0.39054532499E+02  0.22917890495E+02  0.10868452736E+02  0.46568451149E+02  0.10566000000E+00 0. -1.
         23    2    1    0    0    0 -0.52352687189E+01 -0.53560009941E+01  0.29668019954E+02  0.94491206017E+02  0.89399674615E+02 0.  0.
         13    1    3    3    0    0  0.33819263780E+02 -0.28273891489E+02  0.18799567218E+02  0.47922754869E+02  0.10566000000E+00 0.  1.
         22    1    1    0    0    0  0.52352687189E+01  0.53560009941E+01 -0.29668019954E+02  0.30598793983E+02  0.00000000000E+00 0.  1.
</event>
<event>
 5    1  0.1258624E-009  0.9118800E+02  0.7815553E-02  0.1125453E+00
         25   -1    0    0    0    0  0.00000000000E+00  0.00000000000E+00  0.99999998245E-14  0.12509000000E+03  0.12509000000E+03 0.  0.
        -13    1    3    3    0    0  0.13950099886E+02  0.40291217436E+02  0.10096114795E+02  0.43817007968E+02  0.10566000000E+00 0.  1.
         23    2    1    0    0    0 -0.92476633129E+01 -0.25068690782E+01  0.27852852648E+02  0.95635202938E+02  0.90986301008E+02 0.  0.
         13    1    3    3    0    0 -0.23197763199E+02 -0.42798086514E+02  0.17756737853E+02  0.51818194970E+02  0.10566000000E+00 0. -1.
         22    1    1    0    0    0  0.92476633129E+01  0.25068690782E+01 -0.27852852648E+02  0.29454797062E+02  0.00000000000E+00 0. -1.
</event>
<event>
 5    1  0.1258624E-009  0.9118800E+02  0.7815553E-02  0.1125453E+00
         25   -1    0    0    0    0  0.00000000000E+00  0.00000000000E+00  0.99999998245E-14  0.12509000000E+03  0.12509000000E+03 0.  0.
        -13    1    3    3    0    0  0.63234018560E+01 -0.26325737527E+02 -0.21651826674E+02  0.34667602019E+02  0.10566000000E+00 0.  1.
         23    2    1    0    0    0 -0.19502169330E+02  0.18802521151E+02  0.10763705847E+02  0.95939926694E+02  0.91404281958E+02 0.  0.
         13    1    3    3    0    0 -0.25825571186E+02  0.45128258678E+02  0.32415532521E+02  0.61272324675E+02  0.10566000000E+00 0. -1.
         22    1    1    0    0    0  0.19502169330E+02 -0.18802521151E+02 -0.10763705847E+02  0.29150073306E+02  0.00000000000E+00 0. -1.
</event>
<event>
 5    1  0.1258624E-009  0.9118800E+02  0.7815553E-02  0.1125453E+00
         25   -1    0    0    0    0  0.00000000000E+00  0.00000000000E+00  0.99999998245E-14  0.12509000000E+03  0.12509000000E+03 0.  0.
        -13    1    3    3    0    0  0.33093225307E+02  0.30841641787E+01  0.25707191833E+02  0.42018382952E+02  0.10566000000E+00 0.  1.
         23    2    1    0    0    0 -0.81474449282E+01 -0.26487008324E+02  0.45141297711E+01  0.97012966033E+02  0.92861163799E+02 0.  0.
         13    1    3    3    0    0 -0.41240670236E+02 -0.29571172502E+02 -0.21193062062E+02  0.54994583081E+02  0.10566000000E+00 0. -1.
         22    1    1    0    0    0  0.81474449282E+01  0.26487008324E+02 -0.45141297711E+01  0.28077033967E+02  0.00000000000E+00 0. -1.
</event>
<event>
 5    1  0.1258624E-009  0.9118800E+02  0.7815553E-02  0.1125453E+00
         25   -1    0    0    0    0  0.00000000000E+00  0.00000000000E+00  0.99999998245E-14  0.12509000000E+03  0.12509000000E+03 0.  0.
        -13    1    3    3    0    0  0.21688149250E+02 -0.14303716715E+02  0.50751399900E+02  0.57014804091E+02  0.10566000000E+00 0.  1.
         23    2    1    0    0    0 -0.53187030278E+01 -0.17378646388E+02  0.21201270242E+02  0.97165104082E+02  0.93065877953E+02 0.  0.
         13    1    3    3    0    0 -0.27006852278E+02 -0.30749296731E+01 -0.29550129658E+02  0.40150299990E+02  0.10566000000E+00 0. -1.
         22    1    1    0    0    0  0.53187030278E+01  0.17378646388E+02 -0.21201270242E+02  0.27924895918E+02  0.00000000000E+00 0.  1.
</event>
<event>
 5    1  0.1258624E-009  0.9118800E+02  0.7815553E-02  0.1125453E+00
         25   -1    0    0    0    0  0.00000000000E+00  0.00000000000E+00  0.99999998245E-14  0.12509000000E+03  0.12509000000E+03 0.  0.
        -13    1    3    3    0    0 -0.13322432608E+02 -0.51118194533E+02  0.10155402188E+02  0.53793125774E+02  0.10566000000E+00 0. -1.
         23    2    1    0    0    0 -0.16736125456E+02 -0.16251076023E+02 -0.15382349507E+02  0.97146985783E+02  0.93041521931E+02 0.  0.
         13    1    3    3    0    0 -0.34136928479E+01  0.34867118509E+02 -0.25537751695E+02  0.43353860009E+02  0.10566000000E+00 0.  1.
         22    1    1    0    0    0  0.16736125456E+02  0.16251076023E+02  0.15382349507E+02  0.27943014217E+02  0.00000000000E+00 0. -1.
</event>
<event>
 5    1  0.1258624E-009  0.9118800E+02  0.7815553E-02  0.1125453E+00
         25   -1    0    0    0    0  0.00000000000E+00  0.00000000000E+00  0.99999998245E-14  0.12509000000E+03  0.12509000000E+03 0.  0.
        -13    1    3    3    0    0  0.61845182522E+01 -0.53010088969E+02 -0.64282890633E+01  0.53755482165E+02  0.10566000000E+00 0.  1.
         23    2    1    0    0    0 -0.16080628212E+02 -0.24527399941E+02  0.10841981201E+02  0.93821349439E+02  0.88457431019E+02 0.  0.
         13    1    3    3    0    0 -0.22265146464E+02  0.28482689028E+02  0.17270270265E+02  0.40065867274E+02  0.10566000000E+00 0. -1.
         22    1    1    0    0    0  0.16080628212E+02  0.24527399941E+02 -0.10841981201E+02  0.31268650561E+02  0.00000000000E+00 0. -1.
</event>
<event>
 5    1  0.1258624E-009  0.9118800E+02  0.7815553E-02  0.1125453E+00
         25   -1    0    0    0    0  0.00000000000E+00  0.00000000000E+00  0.99999998245E-14  0.12509000000E+03  0.12509000000E+03 0.  0.
        -13    1    3    3    0    0  0.24714541118E+02 -0.22630452563E+02  0.65764038259E+01  0.34149761012E+02  0.10566000000E+00 0. -1.
         23    2    1    0    0    0 -0.30323067374E+02  0.12198034775E+00 -0.35494444914E+01  0.94559656891E+02  0.89495401340E+02 0.  0.
         13    1    3    3    0    0 -0.55037608492E+02  0.22752432911E+02 -0.10125848317E+02  0.60409895878E+02  0.10566000000E+00 0.  1.
         22    1    1    0    0    0  0.30323067374E+02 -0.12198034775E+00  0.35494444914E+01  0.30530343109E+02  0.00000000000E+00 0.  1.
</event>
<event>
 5    1  0.1258624E-009  0.9118800E+02  0.7815553E-02  0.1125453E+00
         25   -1    0    0    0    0  0.00000000000E+00  0.00000000000E+00  0.99999998245E-14  0.12509000000E+03  0.12509000000E+03 0.  0.
        -13    1    3    3    0    0 -0.22765668076E+02 -0.85865185188E+01 -0.25590790212E+02  0.35311522920E+02  0.10566000000E+00 0.  1.
         23    2    1    0    0    0 -0.29162728701E+01  0.16718907631E+02  0.24768684322E+02  0.95064773226E+02  0.90198652238E+02 0.  0.
         13    1    3    3    0    0  0.19849395206E+02  0.25305426150E+02  0.50359474534E+02  0.59753250305E+02  0.10566000000E+00 0. -1.
         22    1    1    0    0    0  0.29162728701E+01 -0.16718907631E+02 -0.24768684322E+02  0.30025226774E+02  0.00000000000E+00 0. -1.
</event>
<event>
 5    1  0.1258624E-009  0.9118800E+02  0.7815553E-02  0.1125453E+00
         25   -1    0    0    0    0  0.00000000000E+00  0.00000000000E+00  0.99999998245E-14  0.12509000000E+03  0.12509000000E+03 0.  0.
        -13    1    3    3    0    0 -0.65097965628E+01  0.37468604063E+02  0.50933132636E+01  0.38369607057E+02  0.10566000000E+00 0. -1.
         23    2    1    0    0    0  0.24322920152E+02 -0.88853090260E+01 -0.11920155022E+02  0.96583101590E+02  0.92280291806E+02 0.  0.
         13    1    3    3    0    0  0.30832716714E+02 -0.46353913089E+02 -0.17013468286E+02  0.58213494533E+02  0.10566000000E+00 0.  1.
         22    1    1    0    0    0 -0.24322920152E+02  0.88853090260E+01  0.11920155022E+02  0.28506898410E+02  0.00000000000E+00 0.  1.
</event>
<event>
 5    1  0.1258624E-009  0.9118800E+02  0.7815553E-02  0.1125453E+00
         25   -1    0    0    0    0  0.00000000000E+00  0.00000000000E+00  0.99999998245E-14  0.12509000000E+03  0.12509000000E+03 0.  0.
        -13    1    3    3    0    0  0.25378692382E+02 -0.22255152015E+02 -0.15822266592E+02  0.37279016918E+02  0.10566000000E+00 0.  1.
         23    2    1    0    0    0 -0.13028292137E+02  0.22199507520E+02 -0.13385447522E+02  0.96077507251E+02  0.91592372303E+02 0.  0.
         13    1    3    3    0    0 -0.38406984519E+02  0.44454659535E+02  0.24368190706E+01  0.58798490333E+02  0.10566000000E+00 0. -1.
         22    1    1    0    0    0  0.13028292137E+02 -0.22199507520E+02  0.13385447522E+02  0.29012492749E+02  0.00000000000E+00 0. -1.
</event>
<event>
 5    1  0.1258624E-009  0.9118800E+02  0.7815553E-02  0.1125453E+00
         25   -1    0    0    0    0  0.00000000000E+00  0.00000000000E+00  0.99999998245E-14  0.12509000000E+03  0.12509000000E+03 0.  0.
        -13    1    3    3    0    0  0.34763391762E+02 -0.44013238501E+02  0.84646093717E+01  0.56721418759E+02  0.10566000000E+00 0.  1.
         23    2    1    0    0    0  0.25792881655E+02 -0.57130888545E+01  0.11712364685E+02  0.96192048258E+02  0.91748670472E+02 0.  0.
         13    1    3    3    0    0 -0.89705101067E+01  0.38300149646E+02  0.32477553131E+01  0.39470629500E+02  0.10566000000E+00 0. -1.
         22    1    1    0    0    0 -0.25792881655E+02  0.57130888545E+01 -0.11712364685E+02  0.28897951742E+02  0.00000000000E+00 0.  1.
</event>
<event>
 5    1  0.1258624E-009  0.9118800E+02  0.7815553E-02  0.1125453E+00
         25   -1    0    0    0    0  0.00000000000E+00  0.00000000000E+00  0.99999998245E-14  0.12509000000E+03  0.12509000000E+03 0.  0.
        -13    1    3    3    0    0  0.41833476159E+01 -0.15585799753E+02 -0.32148883825E+02  0.35971925809E+02  0.10566000000E+00 0.  1.
         23    2    1    0    0    0 -0.16410342293E+02  0.27269457323E+02 -0.18666073723E+00  0.93263007068E+02  0.87664308635E+02 0.  0.
         13    1    3    3    0    0 -0.20593689909E+02  0.42855257075E+02  0.31962223088E+02  0.57291081259E+02  0.10566000000E+00 0. -1.
         22    1    1    0    0    0  0.16410342293E+02 -0.27269457323E+02  0.18666073723E+00  0.31826992932E+02  0.00000000000E+00 0. -1.
</event>
<event>
 5    1  0.1258624E-009  0.9118800E+02  0.7815553E-02  0.1125453E+00
         25   -1    0    0    0    0  0.00000000000E+00  0.00000000000E+00  0.99999998245E-14  0.12509000000E+03  0.12509000000E+03 0.  0.
        -13    1    3    3    0    0 -0.96024608349E+01  0.28085336684E+02 -0.26089031233E+02  0.39517617659E+02  0.10566000000E+00 0. -1.
         23    2    1    0    0    0 -0.23245957535E+02 -0.23760973005E+01  0.18549783535E+02  0.95255207403E+02  0.90462366143E+02 0.  0.
         13    1    3    3    0    0 -0.13643496700E+02 -0.30461433984E+02  0.44638814768E+02  0.55737589744E+02  0.10566000000E+00 0.  1.
         22    1    1    0    0    0  0.23245957535E+02  0.23760973005E+01 -0.18549783535E+02  0.29834792597E+02  0.00000000000E+00 0.  1.
</event>
<event>
 5    1  0.1258624E-009  0.9118800E+02  0.7815553E-02  0.1125453E+00
         25   -1    0    0    0    0  0.00000000000E+00  0.00000000000E+00  0.99999998245E-14  0.12509000000E+03  0.12509000000E+03 0.  0.
        -13    1    3    3    0    0 -0.13447587257E+02 -0.16545904452E+02  0.31112935667E+02  0.37717774153E+02  0.10566000000E+00 0.  1.
         23    2    1    0    0    0  0.29246920813E+02 -0.43813753676E+01 -0.51896311430E+01  0.95064825587E+02  0.90198724854E+02 0.  0.
         13    1    3    3    0    0  0.42694508069E+02  0.12164529084E+02 -0.36302566811E+02  0.57347051434E+02  0.10566000000E+00 0. -1.
         22    1    1    0    0    0 -0.29246920813E+02  0.43813753676E+01  0.51896311430E+01  0.30025174413E+02  0.00000000000E+00 0. -1.
</event>
<event>
 5    1  0.1258624E-009  0.9118800E+02  0.7815553E-02  0.1125453E+00
         25   -1    0    0    0    0  0.00000000000E+00  0.00000000000E+00  0.99999998245E-14  0.12509000000E+03  0.12509000000E+03 0.  0.
        -13    1    3    3    0    0  0.20788125819E+01 -0.18911998259E+01  0.33722287703E+02  0.33839355055E+02  0.10566000000E+00 0.  1.
         23    2    1    0    0    0 -0.21983506187E+02 -0.10145545000E+02 -0.20262892142E+02  0.93517996174E+02  0.88027405862E+02 0.  0.
         13    1    3    3    0    0 -0.24062318769E+02 -0.82543451737E+01 -0.53985179846E+02  0.59678641119E+02  0.10566000000E+00 0. -1.
         22    1    1    0    0    0  0.21983506187E+02  0.10145545000E+02  0.20262892142E+02  0.31572003826E+02  0.00000000000E+00 0. -1.
</event>
<event>
 5    1  0.1258624E-009  0.9118800E+02  0.7815553E-02  0.1125453E+00
         25   -1    0    0    0    0  0.00000000000E+00  0.00000000000E+00  0.99999998245E-14  0.12509000000E+03  0.12509000000E+03 0.  0.
        -13    1    3    3    0    0 -0.28775070180E+02  0.50542071468E+02  0.14473577966E+02  0.59933306895E+02  0.10566000000E+00 0.  1.
         23    2    1    0    0    0 -0.86289429260E+01  0.34478430808E+02 -0.12469916769E+00  0.89547962961E+02  0.82192464822E+02 0.  0.
         13    1    3    3    0    0  0.20146127254E+02 -0.16063640660E+02 -0.14598277133E+02  0.29614656066E+02  0.10566000000E+00 0. -1.
         22    1    1    0    0    0  0.86289429260E+01 -0.34478430808E+02  0.12469916769E+00  0.35542037039E+02  0.00000000000E+00 0.  1.
</event>
<event>
 5    1  0.1258624E-009  0.9118800E+02  0.7815553E-02  0.1125453E+00
         25   -1    0    0    0    0  0.00000000000E+00  0.00000000000E+00  0.99999998245E-14  0.12509000000E+03  0.12509000000E+03 0.  0.
        -13    1    3    3    0    0 -0.20154805862E+02 -0.14573607640E+02  0.37331417989E+02  0.44858133845E+02  0.10566000000E+00 0. -1.
         23    2    1    0    0    0 -0.29953307198E+02 -0.14989281862E+01 -0.88303324206E+01  0.93826248330E+02  0.88464358400E+02 0.  0.
         13    1    3    3    0    0 -0.97985013362E+01  0.13074679454E+02 -0.46161750410E+02  0.48968114484E+02  0.10566000000E+00 0.  1.
         22    1    1    0    0    0  0.29953307198E+02  0.14989281862E+01  0.88303324206E+01  0.31263751670E+02  0.00000000000E+00 0.  1.
</event>
<event>
 5    1  0.1258624E-009  0.9118800E+02  0.7815553E-02  0.1125453E+00
         25   -1    0    0    0    0  0.00000000000E+00  0.00000000000E+00  0.99999998245E-14  0.12509000000E+03  0.12509000000E+03 0.  0.
        -13    1    3    3    0    0  0.34337916577E+02 -0.32624929899E+02 -0.37278958854E+02  0.60276118845E+02  0.10566000000E+00 0. -1.
         23    2    1    0    0    0  0.18599918922E+02 -0.20718282507E+02 -0.70633815097E+01  0.96365523116E+02  0.91984881764E+02 0.  0.
         13    1    3    3    0    0 -0.15737997655E+02  0.11906647392E+02  0.30215577345E+02  0.36089404271E+02  0.10566000000E+00 0.  1.
         22    1    1    0    0    0 -0.18599918922E+02  0.20718282507E+02  0.70633815097E+01  0.28724476884E+02  0.00000000000E+00 0. -1.
</event>
<event>
 5    1  0.1258624E-009  0.9118800E+02  0.7815553E-02  0.1125453E+00
         25   -1    0    0    0    0  0.00000000000E+00  0.00000000000E+00  0.99999998245E-14  0.12509000000E+03  0.12509000000E+03 0.  0.
        -13    1    3    3    0    0 -0.29132118958E+01  0.33956919792E+02  0.23969690029E+02  0.41666730246E+02  0.10566000000E+00 0. -1.
         23    2    1    0    0    0 -0.27453675593E+02  0.38640775244E+01 -0.12261487620E+02  0.94775325709E+02  0.89796341161E+02 0.  0.
         13    1    3    3    0    0 -0.24540463697E+02 -0.30092842267E+02 -0.36231177649E+02  0.53108595463E+02  0.10566000000E+00 0.  1.
         22    1    1    0    0    0  0.27453675593E+02 -0.38640775244E+01  0.12261487620E+02  0.30314674291E+02  0.00000000000E+00 0.  1.
</event>
<event>
 5    1  0.1258624E-009  0.9118800E+02  0.7815553E-02  0.1125453E+00
         25   -1    0    0    0    0  0.00000000000E+00  0.00000000000E+00  0.99999998245E-14  0.12509000000E+03  0.12509000000E+03 0.  0.
        -13    1    3    3    0    0  0.23604223194E+02 -0.41765171033E+02  0.31095745175E+02  0.57170319188E+02  0.10566000000E+00 0.  1.
         23    2    1    0    0    0  0.15909808446E+02 -0.46786626962E+01  0.24329264689E+02  0.95646409700E+02  0.91001707010E+02 0.  0.
         13    1    3    3    0    0 -0.76944147475E+01  0.37086508337E+02 -0.67664804854E+01  0.38476090513E+02  0.10566000000E+00 0. -1.
         22    1    1    0    0    0 -0.15909808446E+02  0.46786626962E+01 -0.24329264689E+02  0.29443590300E+02  0.00000000000E+00 0.  1.
</event>
<event>
 5    1  0.1258624E-009  0.9118800E+02  0.7815553E-02  0.1125453E+00
         25   -1    0    0    0    0  0.00000000000E+00  0.00000000000E+00  0.99999998245E-14  0.12509000000E+03  0.12509000000E+03 0.  0.
        -13    1    3    3    0    0 -0.10696892244E+01 -0.36791813516E+02 -0.25850703456E+02  0.44978348236E+02  0.10566000000E+00 0.  1.
         23    2    1    0    0    0 -0.28551576749E+02  0.53203697661E+00 -0.38833973348E+01  0.96270625041E+02  0.91855739465E+02 0.  0.
         13    1    3    3    0    0 -0.27481887524E+02  0.37323850493E+02  0.21967306121E+02  0.51292276804E+02  0.10566000000E+00 0. -1.
         22    1    1    0    0    0  0.28551576749E+02 -0.53203697661E+00  0.38833973348E+01  0.28819374959E+02  0.00000000000E+00 0. -1.
</event>
<event>
 5    1  0.1258624E-009  0.9118800E+02  0.7815553E-02  0.1125453E+00
         25   -1    0    0    0    0  0.00000000000E+00  0.00000000000E+00  0.99999998245E-14  0.12509000000E+03  0.12509000000E+03 0.  0.
        -13    1    3    3    0    0 -0.16839610886E+02  0.48360189462E+01 -0.41420469545E+02  0.44973614880E+02  0.10566000000E+00 0.  1.
         23    2    1    0    0    0  0.22589165775E+02  0.15839226965E+02 -0.18239827866E+02  0.92016705004E+02  0.85867520973E+02 0.  0.
         13    1    3    3    0    0  0.39428776662E+02  0.11003208019E+02  0.23180641678E+02  0.47043090124E+02  0.10566000000E+00 0. -1.
         22    1    1    0    0    0 -0.22589165775E+02 -0.15839226965E+02  0.18239827866E+02  0.33073294996E+02  0.00000000000E+00 0.  1.
</event>
<event>
 5    1  0.1258624E-009  0.9118800E+02  0.7815553E-02  0.1125453E+00
         25   -1    0    0    0    0  0.00000000000E+00  0.00000000000E+00  0.99999998245E-14  0.12509000000E+03  0.12509000000E+03 0.  0.
        -13    1    3    3    0    0 -0.39892876331E+02  0.14627312680E+02 -0.43252156948E+02  0.60631345877E+02  0.10566000000E+00 0.  1.
         23    2    1    0    0    0 -0.16162337527E+02 -0.33254514218E+01 -0.23606729336E+02  0.96287960985E+02  0.91879344682E+02 0.  0.
         13    1    3    3    0    0  0.23730538804E+02 -0.17952764102E+02  0.19645427612E+02  0.35656615108E+02  0.10566000000E+00 0. -1.
         22    1    1    0    0    0  0.16162337527E+02  0.33254514218E+01  0.23606729336E+02  0.28802039015E+02  0.00000000000E+00 0.  1.
</event>
<event>
 5    1  0.1258624E-009  0.9118800E+02  0.7815553E-02  0.1125453E+00
         25   -1    0    0    0    0  0.00000000000E+00  0.00000000000E+00  0.99999998245E-14  0.12509000000E+03  0.12509000000E+03 0.  0.
        -13    1    3    3    0    0 -0.31841534251E+02 -0.42982665902E+02 -0.14718628412E+02  0.55480105064E+02  0.10566000000E+00 0. -1.
         23    2    1    0    0    0 -0.27599727108E+02 -0.41137027414E+01 -0.21127330661E+00  0.97184586133E+02  0.93092060128E+02 0.  0.
         13    1    3    3    0    0  0.42418071438E+01  0.38868963161E+02  0.14507355105E+02  0.41704481069E+02  0.10566000000E+00 0.  1.
         22    1    1    0    0    0  0.27599727108E+02  0.41137027414E+01  0.21127330661E+00  0.27905413867E+02  0.00000000000E+00 0. -1.
</event>
<event>
 5    1  0.1258624E-009  0.9118800E+02  0.7815553E-02  0.1125453E+00
         25   -1    0    0    0    0  0.00000000000E+00  0.00000000000E+00  0.99999998245E-14  0.12509000000E+03  0.12509000000E+03 0.  0.
        -13    1    3    3    0    0  0.70002914989E+01  0.21249073320E+02 -0.27603177582E+02  0.35531306966E+02  0.10566000000E+00 0.  1.
         23    2    1    0    0    0  0.39244771208E+01 -0.92765077897E+01  0.25951946393E+02  0.97251921060E+02  0.93182495732E+02 0.  0.
         13    1    3    3    0    0 -0.30758143781E+01 -0.30525581109E+02  0.53555123976E+02  0.61720614095E+02  0.10566000000E+00 0. -1.
         22    1    1    0    0    0 -0.39244771208E+01  0.92765077897E+01 -0.25951946393E+02  0.27838078940E+02  0.00000000000E+00 0. -1.
</event>
<event>
 5    1  0.1258624E-009  0.9118800E+02  0.7815553E-02  0.1125453E+00
         25   -1    0    0    0    0  0.00000000000E+00  0.00000000000E+00  0.99999998245E-14  0.12509000000E+03  0.12509000000E+03 0.  0.
        -13    1    3    3    0    0  0.15565871908E+02  0.38057379802E+02 -0.49616375519E+01  0.41416054096E+02  0.10566000000E+00 0.  1.
         23    2    1    0    0    0 -0.82174144943E+01 -0.61235916200E+01 -0.26994063614E+02  0.96216071523E+02  0.91781417910E+02 0.  0.
         13    1    3    3    0    0 -0.23783286402E+02 -0.44180971422E+02 -0.22032426062E+02  0.54800017427E+02  0.10566000000E+00 0. -1.
         22    1    1    0    0    0  0.82174144943E+01  0.61235916200E+01  0.26994063614E+02  0.28873928477E+02  0.00000000000E+00 0. -1.
</event>
<event>
 5    1  0.1258624E-009  0.9118800E+02  0.7815553E-02  0.1125453E+00
         25   -1    0    0    0    0  0.00000000000E+00  0.00000000000E+00  0.99999998245E-14  0.12509000000E+03  0.12509000000E+03 0.  0.
        -13    1    3    3    0    0 -0.28733627791E+01  0.59739863138E+01 -0.39660407478E+02  0.40210742489E+02  0.10566000000E+00 0. -1.
         23    2    1    0    0    0  0.16335942661E+02 -0.21768113280E+02  0.62282446412E+01  0.97170386648E+02  0.93072977988E+02 0.  0.
         13    1    3    3    0    0  0.19209305440E+02 -0.27742099594E+02  0.45888652119E+02  0.56959644159E+02  0.10566000000E+00 0.  1.
         22    1    1    0    0    0 -0.16335942661E+02  0.21768113280E+02 -0.62282446412E+01  0.27919613352E+02  0.00000000000E+00 0.  1.
</event>
<event>
 5    1  0.1258624E-009  0.9118800E+02  0.7815553E-02  0.1125453E+00
         25   -1    0    0    0    0  0.00000000000E+00  0.00000000000E+00  0.99999998245E-14  0.12509000000E+03  0.12509000000E+03 0.  0.
        -13    1    3    3    0    0 -0.33143132376E+02  0.75119966793E+00 -0.38518132453E+02  0.50820165450E+02  0.10566000000E+00 0.  1.
         23    2    1    0    0    0 -0.20116549049E+02 -0.21591421789E+02 -0.20766488167E+01  0.95506600756E+02  0.90809323735E+02 0.  0.
         13    1    3    3    0    0  0.13026583327E+02 -0.22342621456E+02  0.36441483637E+02  0.44686435306E+02  0.10566000000E+00 0. -1.
         22    1    1    0    0    0  0.20116549049E+02  0.21591421789E+02  0.20766488167E+01  0.29583399244E+02  0.00000000000E+00 0.  1.
</event>
<event>
 5    1  0.1258624E-009  0.9118800E+02  0.7815553E-02  0.1125453E+00
         25   -1    0    0    0    0  0.00000000000E+00  0.00000000000E+00  0.99999998245E-14  0.12509000000E+03  0.12509000000E+03 0.  0.
        -13    1    3    3    0    0  0.42107885529E+02  0.44440959390E+01 -0.29268494528E+01  0.42442921956E+02  0.10566000000E+00 0.  1.
         23    2    1    0    0    0 -0.15030746693E+02  0.11860269258E+02 -0.14325321235E+02  0.10117757307E+03  0.98311225867E+02 0.  0.
         13    1    3    3    0    0 -0.57138632222E+02  0.74161733190E+01 -0.11398471782E+02  0.58734651117E+02  0.10566000000E+00 0. -1.
         22    1    1    0    0    0  0.15030746693E+02 -0.11860269258E+02  0.14325321235E+02  0.23912426927E+02  0.00000000000E+00 0. -1.
</event>
<event>
 5    1  0.1258624E-009  0.9118800E+02  0.7815553E-02  0.1125453E+00
         25   -1    0    0    0    0  0.00000000000E+00  0.00000000000E+00  0.99999998245E-14  0.12509000000E+03  0.12509000000E+03 0.  0.
        -13    1    3    3    0    0  0.20695062098E+02 -0.26166277291E+02 -0.41254224855E+02  0.53055460557E+02  0.10566000000E+00 0.  1.
         23    2    1    0    0    0  0.26973801036E+02 -0.19671528545E+02 -0.39100390125E+01  0.91476856994E+02  0.85077446969E+02 0.  0.
         13    1    3    3    0    0  0.62787389377E+01  0.64947487460E+01  0.37344185842E+02  0.38421396437E+02  0.10566000000E+00 0. -1.
         22    1    1    0    0    0 -0.26973801036E+02  0.19671528545E+02  0.39100390125E+01  0.33613143006E+02  0.00000000000E+00 0.  1.
</event>
<event>
 5    1  0.1258624E-009  0.9118800E+02  0.7815553E-02  0.1125453E+00
         25   -1    0    0    0    0  0.00000000000E+00  0.00000000000E+00  0.99999998245E-14  0.12509000000E+03  0.12509000000E+03 0.  0.
        -13    1    3    3    0    0  0.14620690433E+01 -0.49849651169E+02 -0.33429014329E+02  0.60038616995E+02  0.10566000000E+00 0. -1.
         23    2    1    0    0    0  0.11934489289E+01 -0.29460997118E+02 -0.47544884950E+01  0.95223968587E+02  0.90419159259E+02 0.  0.
         13    1    3    3    0    0 -0.26862011438E+00  0.20388654051E+02  0.28674525834E+02  0.35185351592E+02  0.10566000000E+00 0.  1.
         22    1    1    0    0    0 -0.11934489289E+01  0.29460997118E+02  0.47544884950E+01  0.29866031413E+02  0.00000000000E+00 0. -1.
</event>
<event>
 5    1  0.1258624E-009  0.9118800E+02  0.7815553E-02  0.1125453E+00
         25   -1    0    0    0    0  0.00000000000E+00  0.00000000000E+00  0.99999998245E-14  0.12509000000E+03  0.12509000000E+03 0.  0.
        -13    1    3    3    0    0 -0.45806638922E+02 -0.32172624706E+02 -0.64662890836E+01  0.56348469441E+02  0.10566000000E+00 0. -1.
         23    2    1    0    0    0 -0.83325380196E+01 -0.28935602018E+02  0.20309630094E+01  0.94910121525E+02  0.89983921359E+02 0.  0.
         13    1    3    3    0    0  0.37474100902E+02  0.32370226875E+01  0.84972520931E+01  0.38561652084E+02  0.10566000000E+00 0.  1.
         22    1    1    0    0    0  0.83325380196E+01  0.28935602018E+02 -0.20309630094E+01  0.30179878475E+02  0.00000000000E+00 0. -1.
</event>
<event>
 5    1  0.1258624E-009  0.9118800E+02  0.7815553E-02  0.1125453E+00
         25   -1    0    0    0    0  0.00000000000E+00  0.00000000000E+00  0.99999998245E-14  0.12509000000E+03  0.12509000000E+03 0.  0.
        -13    1    3    3    0    0 -0.22195744901E+02  0.29306500712E+02 -0.16411686619E+02  0.40260112983E+02  0.10566000000E+00 0.  1.
         23    2    1    0    0    0  0.12455745781E+02  0.11172010573E+02  0.23566791227E+02  0.96187524813E+02  0.91742503005E+02 0.  0.
         13    1    3    3    0    0  0.34651490682E+02 -0.18134490139E+02  0.39978477846E+02  0.55927411830E+02  0.10566000000E+00 0. -1.
         22    1    1    0    0    0 -0.12455745781E+02 -0.11172010573E+02 -0.23566791227E+02  0.28902475187E+02  0.00000000000E+00 0. -1.
</event>
<event>
 5    1  0.1258624E-009  0.9118800E+02  0.7815553E-02  0.1125453E+00
         25   -1    0    0    0    0  0.00000000000E+00  0.00000000000E+00  0.99999998245E-14  0.12509000000E+03  0.12509000000E+03 0.  0.
        -13    1    3    3    0    0  0.96385594080E+01  0.15270337753E+02 -0.52472556399E+02  0.55492930916E+02  0.10566000000E+00 0.  1.
         23    2    1    0    0    0 -0.89478720938E+01 -0.93485101323E+01 -0.25606396358E+02  0.96399468615E+02  0.92031032582E+02 0.  0.
         13    1    3    3    0    0 -0.18586431502E+02 -0.24618847885E+02  0.26866160041E+02  0.40906537699E+02  0.10566000000E+00 0. -1.
         22    1    1    0    0    0  0.89478720938E+01  0.93485101323E+01  0.25606396358E+02  0.28690531385E+02  0.00000000000E+00 0.  1.
</event>
<event>
 5    1  0.1258624E-009  0.9118800E+02  0.7815553E-02  0.1125453E+00
         25   -1    0    0    0    0  0.00000000000E+00  0.00000000000E+00  0.99999998245E-14  0.12509000000E+03  0.12509000000E+03 0.  0.
        -13    1    3    3    0    0  0.15976958442E+02  0.37325538770E+02  0.43116037763E+02  0.59223837448E+02  0.10566000000E+00 0. -1.
         23    2    1    0    0    0 -0.66643905804E+01  0.20579233053E+02  0.18771052736E+02  0.96449620189E+02  0.92099174149E+02 0.  0.
         13    1    3    3    0    0 -0.22641349022E+02 -0.16746305717E+02 -0.24344985028E+02  0.37225782742E+02  0.10566000000E+00 0.  1.
         22    1    1    0    0    0  0.66643905804E+01 -0.20579233053E+02 -0.18771052736E+02  0.28640379811E+02  0.00000000000E+00 0. -1.
</event>
<event>
 5    1  0.1258624E-009  0.9118800E+02  0.7815553E-02  0.1125453E+00
         25   -1    0    0    0    0  0.00000000000E+00  0.00000000000E+00  0.99999998245E-14  0.12509000000E+03  0.12509000000E+03 0.  0.
        -13    1    3    3    0    0 -0.44517798668E+02 -0.20596674519E+02 -0.37501863734E+01  0.49194841817E+02  0.10566000000E+00 0. -1.
         23    2    1    0    0    0 -0.21096375712E+01 -0.22985718580E+02  0.16956515880E+02  0.96448818807E+02  0.92098085698E+02 0.  0.
         13    1    3    3    0    0  0.42408161097E+02 -0.23890440613E+01  0.20706702253E+02  0.47253976990E+02  0.10566000000E+00 0.  1.
         22    1    1    0    0    0  0.21096375712E+01  0.22985718580E+02 -0.16956515880E+02  0.28641181193E+02  0.00000000000E+00 0. -1.
</event>
<event>
 5    1  0.1258624E-009  0.9118800E+02  0.7815553E-02  0.1125453E+00
         25   -1    0    0    0    0  0.00000000000E+00  0.00000000000E+00  0.99999998245E-14  0.12509000000E+03  0.12509000000E+03 0.  0.
        -13    1    3    3    0    0 -0.48528376808E+02  0.87922985334E+01 -0.32979070970E+02  0.59329066698E+02  0.10566000000E+00 0.  1.
         23    2    1    0    0    0 -0.30334470544E+02  0.10502678858E+02 -0.52144181710E+01  0.92568060893E+02  0.86667002800E+02 0.  0.
         13    1    3    3    0    0  0.18193906264E+02  0.17103803245E+01  0.27764652799E+02  0.33238994195E+02  0.10566000000E+00 0. -1.
         22    1    1    0    0    0  0.30334470544E+02 -0.10502678858E+02  0.52144181710E+01  0.32521939107E+02  0.00000000000E+00 0.  1.
</event>
<event>
 5    1  0.1258624E-009  0.9118800E+02  0.7815553E-02  0.1125453E+00
         25   -1    0    0    0    0  0.00000000000E+00  0.00000000000E+00  0.99999998245E-14  0.12509000000E+03  0.12509000000E+03 0.  0.
        -13    1    3    3    0    0  0.44076104201E+02  0.13798921963E+02 -0.41586997110E+02  0.62149840720E+02  0.10566000000E+00 0.  1.
         23    2    1    0    0    0  0.17100215058E+02  0.47899874622E+01 -0.22607276084E+02  0.96341951947E+02  0.91952821806E+02 0.  0.
         13    1    3    3    0    0 -0.26975889143E+02 -0.90089345008E+01  0.18979721026E+02  0.34192111227E+02  0.10566000000E+00 0. -1.
         22    1    1    0    0    0 -0.17100215058E+02 -0.47899874622E+01  0.22607276084E+02  0.28748048053E+02  0.00000000000E+00 0.  1.
</event>
<event>
 5    1  0.1258624E-009  0.9118800E+02  0.7815553E-02  0.1125453E+00
         25   -1    0    0    0    0  0.00000000000E+00  0.00000000000E+00  0.99999998245E-14  0.12509000000E+03  0.12509000000E+03 0.  0.
        -13    1    3    3    0    0  0.30347757205E+02 -0.98898549803E+01  0.37661476860E+02  0.49367941037E+02  0.10566000000E+00 0. -1.
         23    2    1    0    0    0  0.20946526707E+02 -0.19948531033E+02 -0.63436743821E+01  0.95476775317E+02  0.90768229843E+02 0.  0.
         13    1    3    3    0    0 -0.94012304984E+01 -0.10058676052E+02 -0.44005151242E+02  0.46108834280E+02  0.10566000000E+00 0.  1.
         22    1    1    0    0    0 -0.20946526707E+02  0.19948531033E+02  0.63436743821E+01  0.29613224683E+02  0.00000000000E+00 0. -1.
</event>
<event>
 5    1  0.1258624E-009  0.9118800E+02  0.7815553E-02  0.1125453E+00
         25   -1    0    0    0    0  0.00000000000E+00  0.00000000000E+00  0.99999998245E-14  0.12509000000E+03  0.12509000000E+03 0.  0.
        -13    1    3    3    0    0 -0.34387788173E+02 -0.16398098080E+02  0.45832310324E+02  0.59598904602E+02  0.10566000000E+00 0. -1.
         23    2    1    0    0    0 -0.13508434746E+02  0.53000434294E+01  0.24893380772E+02  0.96275963908E+02  0.91863009697E+02 0.  0.
         13    1    3    3    0    0  0.20879353428E+02  0.21698141509E+02 -0.20938929552E+02  0.36677059306E+02  0.10566000000E+00 0.  1.
         22    1    1    0    0    0  0.13508434746E+02 -0.53000434294E+01 -0.24893380772E+02  0.28814036092E+02  0.00000000000E+00 0. -1.
</event>
<event>
 5    1  0.1258624E-009  0.9118800E+02  0.7815553E-02  0.1125453E+00
         25   -1    0    0    0    0  0.00000000000E+00  0.00000000000E+00  0.99999998245E-14  0.12509000000E+03  0.12509000000E+03 0.  0.
        -13    1    3    3    0    0  0.27424222234E+02  0.22083807463E+02 -0.38073664134E+02  0.51859402058E+02  0.10566000000E+00 0. -1.
         23    2    1    0    0    0 -0.11973887461E+02  0.10567503742E+02 -0.25879935953E+02  0.94679192691E+02  0.89662323902E+02 0.  0.
         13    1    3    3    0    0 -0.39398109695E+02 -0.11516303721E+02  0.12193728181E+02  0.42819790633E+02  0.10566000000E+00 0.  1.
         22    1    1    0    0    0  0.11973887461E+02 -0.10567503742E+02  0.25879935953E+02  0.30410807309E+02  0.00000000000E+00 0. -1.
</event>
<event>
 5    1  0.1258624E-009  0.9118800E+02  0.7815553E-02  0.1125453E+00
         25   -1    0    0    0    0  0.00000000000E+00  0.00000000000E+00  0.99999998245E-14  0.12509000000E+03  0.12509000000E+03 0.  0.
        -13    1    3    3    0    0 -0.32724112199E+02 -0.73918171831E+01  0.15020920593E+01  0.33582345438E+02  0.10566000000E+00 0. -1.
         23    2    1    0    0    0  0.26519543095E+02  0.48409797752E+01  0.13004112063E+02  0.95159611066E+02  0.90330080242E+02 0.  0.
         13    1    3    3    0    0  0.59243655295E+02  0.12232796958E+02  0.11502020004E+02  0.61577265629E+02  0.10566000000E+00 0.  1.
         22    1    1    0    0    0 -0.26519543095E+02 -0.48409797752E+01 -0.13004112063E+02  0.29930388934E+02  0.00000000000E+00 0.  1.
</event>
<event>
 5    1  0.1258624E-009  0.9118800E+02  0.7815553E-02  0.1125453E+00
         25   -1    0    0    0    0  0.00000000000E+00  0.00000000000E+00  0.99999998245E-14  0.12509000000E+03  0.12509000000E+03 0.  0.
        -13    1    3    3    0    0  0.10853319326E+01  0.35101800709E+02 -0.19642719345E+02  0.40238811435E+02  0.10566000000E+00 0.  1.
         23    2    1    0    0    0  0.16793193232E+02 -0.18592596693E+02 -0.13797096240E+02  0.96488324255E+02  0.92151727397E+02 0.  0.
         13    1    3    3    0    0  0.15707861300E+02 -0.53694397402E+02  0.58456231052E+01  0.56249512820E+02  0.10566000000E+00 0. -1.
         22    1    1    0    0    0 -0.16793193232E+02  0.18592596693E+02  0.13797096240E+02  0.28601675745E+02  0.00000000000E+00 0. -1.
</event>
<event>
 5    1  0.1258624E-009  0.9118800E+02  0.7815553E-02  0.1125453E+00
         25   -1    0    0    0    0  0.00000000000E+00  0.00000000000E+00  0.99999998245E-14  0.12509000000E+03  0.12509000000E+03 0.  0.
        -13    1    3    3    0    0  0.55673085471E+02 -0.16828793910E+02  0.20621596767E+02  0.61708687942E+02  0.10566000000E+00 0.  1.
         23    2    1    0    0    0  0.29616289160E+02 -0.19996783529E+01  0.13252926363E+02  0.92582103201E+02  0.86687268263E+02 0.  0.
         13    1    3    3    0    0 -0.26056796311E+02  0.14829115557E+02 -0.73686704038E+01  0.30873415259E+02  0.10566000000E+00 0. -1.
         22    1    1    0    0    0 -0.29616289160E+02  0.19996783529E+01 -0.13252926363E+02  0.32507896799E+02  0.00000000000E+00 0.  1.
</event>
<event>
 5    1  0.1258624E-009  0.9118800E+02  0.7815553E-02  0.1125453E+00
         25   -1    0    0    0    0  0.00000000000E+00  0.00000000000E+00  0.99999998245E-14  0.12509000000E+03  0.12509000000E+03 0.  0.
        -13    1    3    3    0    0 -0.29668654180E+02 -0.14676760215E+02  0.88124526111E+01  0.34253566476E+02  0.10566000000E+00 0.  1.
         23    2    1    0    0    0  0.14619341788E+02  0.24891702004E+02 -0.63165736343E+01  0.95539685527E+02  0.90854886634E+02 0.  0.
         13    1    3    3    0    0  0.44287995968E+02  0.39568462219E+02 -0.15129026245E+02  0.61286119051E+02  0.10566000000E+00 0. -1.
         22    1    1    0    0    0 -0.14619341788E+02 -0.24891702004E+02  0.63165736343E+01  0.29550314473E+02  0.00000000000E+00 0. -1.
</event>
<event>
 5    1  0.1258624E-009  0.9118800E+02  0.7815553E-02  0.1125453E+00
         25   -1    0    0    0    0  0.00000000000E+00  0.00000000000E+00  0.99999998245E-14  0.12509000000E+03  0.12509000000E+03 0.  0.
        -13    1    3    3    0    0 -0.10623636894E+01  0.39956406281E+02 -0.28762608914E+02  0.49243698633E+02  0.10566000000E+00 0.  1.
         23    2    1    0    0    0  0.12233999188E+02  0.22781053528E+02  0.12873107052E+02  0.96204640020E+02  0.91765836455E+02 0.  0.
         13    1    3    3    0    0  0.13296362878E+02 -0.17175352753E+02  0.41635715966E+02  0.46960941387E+02  0.10566000000E+00 0. -1.
         22    1    1    0    0    0 -0.12233999188E+02 -0.22781053528E+02 -0.12873107052E+02  0.28885359980E+02  0.00000000000E+00 0. -1.
</event>
<event>
 5    1  0.1258624E-009  0.9118800E+02  0.7815553E-02  0.1125453E+00
         25   -1    0    0    0    0  0.00000000000E+00  0.00000000000E+00  0.99999998245E-14  0.12509000000E+03  0.12509000000E+03 0.  0.
        -13    1    3    3    0    0  0.44715569895E+02 -0.19449001635E+02 -0.27145799692E+02  0.55809062531E+02  0.10566000000E+00 0. -1.
         23    2    1    0    0    0  0.54528258894E+01 -0.11586137155E+02 -0.26274752754E+02  0.95860998707E+02  0.91296202311E+02 0.  0.
         13    1    3    3    0    0 -0.39262744005E+02  0.78628644803E+01  0.87104693823E+00  0.40051936176E+02  0.10566000000E+00 0.  1.
         22    1    1    0    0    0 -0.54528258894E+01  0.11586137155E+02  0.26274752754E+02  0.29229001293E+02  0.00000000000E+00 0. -1.
</event>
<event>
 5    1  0.1258624E-009  0.9118800E+02  0.7815553E-02  0.1125453E+00
         25   -1    0    0    0    0  0.00000000000E+00  0.00000000000E+00  0.99999998245E-14  0.12509000000E+03  0.12509000000E+03 0.  0.
        -13    1    3    3    0    0 -0.16280452968E+02 -0.34724069060E+02  0.20591564085E+02  0.43529734624E+02  0.10566000000E+00 0. -1.
         23    2    1    0    0    0 -0.24264238796E+02  0.14276955177E+02  0.14112451189E+02  0.93598000825E+02  0.88141021928E+02 0.  0.
         13    1    3    3    0    0 -0.79837858276E+01  0.49001024237E+02 -0.64791128959E+01  0.50068266201E+02  0.10566000000E+00 0.  1.
         22    1    1    0    0    0  0.24264238796E+02 -0.14276955177E+02 -0.14112451189E+02  0.31491999175E+02  0.00000000000E+00 0.  1.
</event>
<event>
 5    1  0.1258624E-009  0.9118800E+02  0.7815553E-02  0.1125453E+00
         25   -1    0    0    0    0  0.00000000000E+00  0.00000000000E+00  0.99999998245E-14  0.12509000000E+03  0.12509000000E+03 0.  0.
        -13    1    3    3    0    0 -0.15893715317E+02 -0.15728262608E+02 -0.48293509635E+02  0.53219006643E+02  0.10566000000E+00 0. -1.
         23    2    1    0    0    0 -0.26402753141E+02 -0.44104486544E+01 -0.68326848302E+01  0.97463146890E+02  0.93465619288E+02 0.  0.
         13    1    3    3    0    0 -0.10509037824E+02  0.11317813954E+02  0.41460824804E+02  0.44244140247E+02  0.10566000000E+00 0.  1.
         22    1    1    0    0    0  0.26402753141E+02  0.44104486544E+01  0.68326848302E+01  0.27626853110E+02  0.00000000000E+00 0. -1.
</event>
<event>
 5    1  0.1258624E-009  0.9118800E+02  0.7815553E-02  0.1125453E+00
         25   -1    0    0    0    0  0.00000000000E+00  0.00000000000E+00  0.99999998245E-14  0.12509000000E+03  0.12509000000E+03 0.  0.
        -13    1    3    3    0    0  0.10554216894E+02 -0.40259703313E+02 -0.40892421705E+02  0.58347549409E+02  0.10566000000E+00 0. -1.
         23    2    1    0    0    0  0.80046180081E+01 -0.43847915500E+01 -0.26458830331E+02  0.97101252102E+02  0.92980014793E+02 0.  0.
         13    1    3    3    0    0 -0.25495988857E+01  0.35874911763E+02  0.14433591374E+02  0.38753702693E+02  0.10566000000E+00 0.  1.
         22    1    1    0    0    0 -0.80046180081E+01  0.43847915500E+01  0.26458830331E+02  0.27988747898E+02  0.00000000000E+00 0. -1.
</event>
<event>
 5    1  0.1258624E-009  0.9118800E+02  0.7815553E-02  0.1125453E+00
         25   -1    0    0    0    0  0.00000000000E+00  0.00000000000E+00  0.99999998245E-14  0.12509000000E+03  0.12509000000E+03 0.  0.
        -13    1    3    3    0    0 -0.20509310809E+01 -0.39393062368E+02 -0.10823317039E+02  0.40904462310E+02  0.10566000000E+00 0.  1.
         23    2    1    0    0    0 -0.28113234167E+02  0.78206432049E+01 -0.31169700013E-03  0.95909246145E+02  0.91362284891E+02 0.  0.
         13    1    3    3    0    0 -0.26062303086E+02  0.47213705573E+02  0.10823005342E+02  0.55004783835E+02  0.10566000000E+00 0. -1.
         22    1    1    0    0    0  0.28113234167E+02 -0.78206432049E+01  0.31169700013E-03  0.29180753855E+02  0.00000000000E+00 0. -1.
</event>
<event>
 5    1  0.1258624E-009  0.9118800E+02  0.7815553E-02  0.1125453E+00
         25   -1    0    0    0    0  0.00000000000E+00  0.00000000000E+00  0.99999998245E-14  0.12509000000E+03  0.12509000000E+03 0.  0.
        -13    1    3    3    0    0  0.20996115465E+01 -0.27942707898E+02 -0.42900604113E+02  0.51241353325E+02  0.10566000000E+00 0.  1.
         23    2    1    0    0    0 -0.59850681495E+00  0.12786248344E+02 -0.27297683400E+02  0.94940209352E+02  0.90025737851E+02 0.  0.
         13    1    3    3    0    0 -0.26981183615E+01  0.40728956242E+02  0.15602920713E+02  0.43698856027E+02  0.10566000000E+00 0. -1.
         22    1    1    0    0    0  0.59850681495E+00 -0.12786248344E+02  0.27297683400E+02  0.30149790648E+02  0.00000000000E+00 0.  1.
</event>
<event>
 5    1  0.1258624E-009  0.9118800E+02  0.7815553E-02  0.1125453E+00
         25   -1    0    0    0    0  0.00000000000E+00  0.00000000000E+00  0.99999998245E-14  0.12509000000E+03  0.12509000000E+03 0.  0.
        -13    1    3    3    0    0  0.14642657554E+02  0.39694181985E+02  0.58747555856E+01  0.42714861827E+02  0.10566000000E+00 0. -1.
         23    2    1    0    0    0 -0.19589980240E+02  0.92704937295E+01 -0.20240318647E+02  0.95435660035E+02  0.90711550133E+02 0.  0.
         13    1    3    3    0    0 -0.34232637795E+02 -0.30423688255E+02 -0.26115074233E+02  0.52720798208E+02  0.10566000000E+00 0.  1.
         22    1    1    0    0    0  0.19589980240E+02 -0.92704937295E+01  0.20240318647E+02  0.29654339965E+02  0.00000000000E+00 0.  1.
</event>
<event>
 5    1  0.1258624E-009  0.9118800E+02  0.7815553E-02  0.1125453E+00
         25   -1    0    0    0    0  0.00000000000E+00  0.00000000000E+00  0.99999998245E-14  0.12509000000E+03  0.12509000000E+03 0.  0.
        -13    1    3    3    0    0 -0.35274440289E+02 -0.25404836591E+02  0.28287687731E+02  0.51864210214E+02  0.10566000000E+00 0. -1.
         23    2    1    0    0    0 -0.19993117116E+02  0.14001017429E+02  0.16095022613E+02  0.95852986234E+02  0.91285223316E+02 0.  0.
         13    1    3    3    0    0  0.15281323173E+02  0.39405854020E+02 -0.12192665118E+02  0.43988776020E+02  0.10566000000E+00 0.  1.
         22    1    1    0    0    0  0.19993117116E+02 -0.14001017429E+02 -0.16095022613E+02  0.29237013766E+02  0.00000000000E+00 0. -1.
</event>
<event>
 5    1  0.1258624E-009  0.9118800E+02  0.7815553E-02  0.1125453E+00
         25   -1    0    0    0    0  0.00000000000E+00  0.00000000000E+00  0.99999998245E-14  0.12509000000E+03  0.12509000000E+03 0.  0.
        -13    1    3    3    0    0  0.40449476933E+02  0.39358067881E+02  0.42082429473E+01  0.56594506484E+02  0.10566000000E+00 0.  1.
         23    2    1    0    0    0  0.25242259208E+02  0.54167442828E+01 -0.11322401358E+02  0.96899406869E+02  0.92708066049E+02 0.  0.
         13    1    3    3    0    0 -0.15207217725E+02 -0.33941323598E+02 -0.15530644305E+02  0.40304900385E+02  0.10566000000E+00 0. -1.
         22    1    1    0    0    0 -0.25242259208E+02 -0.54167442828E+01  0.11322401358E+02  0.28190593131E+02  0.00000000000E+00 0.  1.
</event>
<event>
 5    1  0.1258624E-009  0.9118800E+02  0.7815553E-02  0.1125453E+00
         25   -1    0    0    0    0  0.00000000000E+00  0.00000000000E+00  0.99999998245E-14  0.12509000000E+03  0.12509000000E+03 0.  0.
        -13    1    3    3    0    0 -0.20705277452E+02  0.44856244585E+02  0.21166911764E+02  0.53747934940E+02  0.10566000000E+00 0.  1.
         23    2    1    0    0    0 -0.24792672207E+02  0.19106303574E+02 -0.79131202785E+01  0.92804633284E+02  0.87007787324E+02 0.  0.
         13    1    3    3    0    0 -0.40873947547E+01 -0.25749941011E+02 -0.29080032042E+02  0.39056698344E+02  0.10566000000E+00 0. -1.
         22    1    1    0    0    0  0.24792672207E+02 -0.19106303574E+02  0.79131202785E+01  0.32285366716E+02  0.00000000000E+00 0.  1.
</event>
<event>
 5    1  0.1258624E-009  0.9118800E+02  0.7815553E-02  0.1125453E+00
         25   -1    0    0    0    0  0.00000000000E+00  0.00000000000E+00  0.99999998245E-14  0.12509000000E+03  0.12509000000E+03 0.  0.
        -13    1    3    3    0    0  0.27750491333E+02  0.19768666407E+02  0.27701033618E+02  0.43911824925E+02  0.10566000000E+00 0.  1.
         23    2    1    0    0    0 -0.21348722969E+02  0.15753384872E+02  0.14226817776E+02  0.94984527884E+02  0.90087297029E+02 0.  0.
         13    1    3    3    0    0 -0.49099214302E+02 -0.40152815359E+01 -0.13474215842E+02  0.51072702958E+02  0.10566000000E+00 0. -1.
         22    1    1    0    0    0  0.21348722969E+02 -0.15753384872E+02 -0.14226817776E+02  0.30105472116E+02  0.00000000000E+00 0. -1.
</event>
<event>
 5    1  0.1258624E-009  0.9118800E+02  0.7815553E-02  0.1125453E+00
         25   -1    0    0    0    0  0.00000000000E+00  0.00000000000E+00  0.99999998245E-14  0.12509000000E+03  0.12509000000E+03 0.  0.
        -13    1    3    3    0    0  0.33741106339E+02 -0.13825330584E+02  0.35794404522E+02  0.51096502638E+02  0.10566000000E+00 0. -1.
         23    2    1    0    0    0 -0.67758942198E+01  0.59404796719E+01  0.26464828811E+02  0.97133083053E+02  0.93022828478E+02 0.  0.
         13    1    3    3    0    0 -0.40517000558E+02  0.19765810256E+02 -0.93295757107E+01  0.46036580415E+02  0.10566000000E+00 0.  1.
         22    1    1    0    0    0  0.67758942198E+01 -0.59404796719E+01 -0.26464828811E+02  0.27956916947E+02  0.00000000000E+00 0. -1.
</event>
<event>
 5    1  0.1258624E-009  0.9118800E+02  0.7815553E-02  0.1125453E+00
         25   -1    0    0    0    0  0.00000000000E+00  0.00000000000E+00  0.99999998245E-14  0.12509000000E+03  0.12509000000E+03 0.  0.
        -13    1    3    3    0    0  0.89940652841E+01 -0.48381404165E+02 -0.24698976196E+02  0.55060912347E+02  0.10566000000E+00 0.  1.
         23    2    1    0    0    0  0.68249158739E+01 -0.11687436484E+02 -0.29980078286E+02  0.92196524321E+02  0.86129079610E+02 0.  0.
         13    1    3    3    0    0 -0.21691494102E+01  0.36693967681E+02 -0.52811020902E+01  0.37135611974E+02  0.10566000000E+00 0. -1.
         22    1    1    0    0    0 -0.68249158739E+01  0.11687436484E+02  0.29980078286E+02  0.32893475679E+02  0.00000000000E+00 0.  1.
</event>
<event>
 5    1  0.1258624E-009  0.9118800E+02  0.7815553E-02  0.1125453E+00
         25   -1    0    0    0    0  0.00000000000E+00  0.00000000000E+00  0.99999998245E-14  0.12509000000E+03  0.12509000000E+03 0.  0.
        -13    1    3    3    0    0 -0.91419338352E+01 -0.24041461135E+01 -0.57094148280E+02  0.57871476607E+02  0.10566000000E+00 0.  1.
         23    2    1    0    0    0 -0.20196892525E+02  0.87399205425E+00 -0.20256528400E+02  0.96471731838E+02  0.92129201512E+02 0.  0.
         13    1    3    3    0    0 -0.11054958690E+02  0.32781381678E+01  0.36837619880E+02  0.38600255231E+02  0.10566000000E+00 0. -1.
         22    1    1    0    0    0  0.20196892525E+02 -0.87399205425E+00  0.20256528400E+02  0.28618268162E+02  0.00000000000E+00 0.  1.
</event>
<event>
 5    1  0.1258624E-009  0.9118800E+02  0.7815553E-02  0.1125453E+00
         25   -1    0    0    0    0  0.00000000000E+00  0.00000000000E+00  0.99999998245E-14  0.12509000000E+03  0.12509000000E+03 0.  0.
        -13    1    3    3    0    0  0.14664528616E+02 -0.16630431535E+02  0.45608208940E+02  0.50712321375E+02  0.10566000000E+00 0. -1.
         23    2    1    0    0    0  0.17822773477E+01 -0.28658361218E+02  0.37466337371E+01  0.96132868847E+02  0.91667949842E+02 0.  0.
         13    1    3    3    0    0 -0.12882251268E+02 -0.12027929683E+02 -0.41861575202E+02  0.45420547472E+02  0.10566000000E+00 0.  1.
         22    1    1    0    0    0 -0.17822773477E+01  0.28658361218E+02 -0.37466337371E+01  0.28957131153E+02  0.00000000000E+00 0. -1.
</event>
<event>
 5    1  0.1258624E-009  0.9118800E+02  0.7815553E-02  0.1125453E+00
         25   -1    0    0    0    0  0.00000000000E+00  0.00000000000E+00  0.99999998245E-14  0.12509000000E+03  0.12509000000E+03 0.  0.
        -13    1    3    3    0    0  0.18406894164E+02  0.91316360042E+01  0.36207433554E+02  0.41631597826E+02  0.10566000000E+00 0.  1.
         23    2    1    0    0    0  0.26208000085E+02 -0.10608058938E+02 -0.12053879288E+02  0.94354252266E+02  0.89207840082E+02 0.  0.
         13    1    3    3    0    0  0.78011059208E+01 -0.19739694942E+02 -0.48261312842E+02  0.52722654441E+02  0.10566000000E+00 0. -1.
         22    1    1    0    0    0 -0.26208000085E+02  0.10608058938E+02  0.12053879288E+02  0.30735747734E+02  0.00000000000E+00 0. -1.
</event>
<event>
 5    1  0.1258624E-009  0.9118800E+02  0.7815553E-02  0.1125453E+00
         25   -1    0    0    0    0  0.00000000000E+00  0.00000000000E+00  0.99999998245E-14  0.12509000000E+03  0.12509000000E+03 0.  0.
        -13    1    3    3    0    0  0.66759780127E+01 -0.11786240848E+02 -0.55881920421E+02  0.57500298692E+02  0.10566000000E+00 0. -1.
         23    2    1    0    0    0  0.10482556768E+02 -0.20571976866E+02 -0.20306301588E+02  0.94342055146E+02  0.89190735261E+02 0.  0.
         13    1    3    3    0    0  0.38065787548E+01 -0.87857360182E+01  0.35575618833E+02  0.36841756453E+02  0.10566000000E+00 0.  1.
         22    1    1    0    0    0 -0.10482556768E+02  0.20571976866E+02  0.20306301588E+02  0.30747944854E+02  0.00000000000E+00 0. -1.
</event>
<event>
 5    1  0.1258624E-009  0.9118800E+02  0.7815553E-02  0.1125453E+00
         25   -1    0    0    0    0  0.00000000000E+00  0.00000000000E+00  0.99999998245E-14  0.12509000000E+03  0.12509000000E+03 0.  0.
        -13    1    3    3    0    0  0.24707971954E+02 -0.40896840209E+02 -0.10364092503E+02  0.48892340858E+02  0.10566000000E+00 0.  1.
         23    2    1    0    0    0  0.12903126173E+02 -0.66144238678E+01  0.22826341462E+02  0.98047752817E+02  0.94244780756E+02 0.  0.
         13    1    3    3    0    0 -0.11804845781E+02  0.34282416341E+02  0.33190433965E+02  0.49155411959E+02  0.10566000000E+00 0. -1.
         22    1    1    0    0    0 -0.12903126173E+02  0.66144238678E+01 -0.22826341462E+02  0.27042247183E+02  0.00000000000E+00 0. -1.
</event>
<event>
 5    1  0.1258624E-009  0.9118800E+02  0.7815553E-02  0.1125453E+00
         25   -1    0    0    0    0  0.00000000000E+00  0.00000000000E+00  0.99999998245E-14  0.12509000000E+03  0.12509000000E+03 0.  0.
        -13    1    3    3    0    0  0.42411671948E+02  0.11151153739E+02 -0.27522718804E+02  0.51774601510E+02  0.10566000000E+00 0. -1.
         23    2    1    0    0    0  0.22275430312E+02 -0.85237532516E+01  0.10454468091E+02  0.99048781362E+02  0.95564198428E+02 0.  0.
         13    1    3    3    0    0 -0.20136241636E+02 -0.19674906991E+02  0.37977186895E+02  0.47274179853E+02  0.10566000000E+00 0.  1.
         22    1    1    0    0    0 -0.22275430312E+02  0.85237532516E+01 -0.10454468091E+02  0.26041218638E+02  0.00000000000E+00 0. -1.
</event>
<event>
 5    1  0.1258624E-009  0.9118800E+02  0.7815553E-02  0.1125453E+00
         25   -1    0    0    0    0  0.00000000000E+00  0.00000000000E+00  0.99999998245E-14  0.12509000000E+03  0.12509000000E+03 0.  0.
        -13    1    3    3    0    0 -0.15802393426E+02 -0.15751683269E+02 -0.30775316540E+02  0.38012661522E+02  0.10566000000E+00 0. -1.
         23    2    1    0    0    0  0.20352888709E+02  0.14102706281E-01  0.16001814765E+02  0.99199879230E+02  0.95761775703E+02 0.  0.
         13    1    3    3    0    0  0.36155282135E+02  0.15765785976E+02  0.46777131305E+02  0.61187217708E+02  0.10566000000E+00 0.  1.
         22    1    1    0    0    0 -0.20352888709E+02 -0.14102706281E-01 -0.16001814765E+02  0.25890120770E+02  0.00000000000E+00 0.  1.
</event>
<event>
 5    1  0.1258624E-009  0.9118800E+02  0.7815553E-02  0.1125453E+00
         25   -1    0    0    0    0  0.00000000000E+00  0.00000000000E+00  0.99999998245E-14  0.12509000000E+03  0.12509000000E+03 0.  0.
        -13    1    3    3    0    0 -0.12810870529E+02  0.55554292747E+02 -0.11095494910E+02  0.58082002528E+02  0.10566000000E+00 0. -1.
         23    2    1    0    0    0 -0.12805833702E+02  0.14646466617E+02 -0.16798970074E+02  0.99385647125E+02  0.96004130629E+02 0.  0.
         13    1    3    3    0    0  0.50368274229E-02 -0.40907826130E+02 -0.57034751643E+01  0.41303644597E+02  0.10566000000E+00 0.  1.
         22    1    1    0    0    0  0.12805833702E+02 -0.14646466617E+02  0.16798970074E+02  0.25704352875E+02  0.00000000000E+00 0. -1.
</event>
<event>
 5    1  0.1258624E-009  0.9118800E+02  0.7815553E-02  0.1125453E+00
         25   -1    0    0    0    0  0.00000000000E+00  0.00000000000E+00  0.99999998245E-14  0.12509000000E+03  0.12509000000E+03 0.  0.
        -13    1    3    3    0    0  0.29930486071E+02 -0.31038274810E+02  0.35310508353E+02  0.55731962677E+02  0.10566000000E+00 0.  1.
         23    2    1    0    0    0 -0.54895367566E+01 -0.16761630554E+02  0.23503362769E+02  0.95704708882E+02  0.91081809205E+02 0.  0.
         13    1    3    3    0    0 -0.35420022827E+02  0.14276644256E+02 -0.11807145584E+02  0.39972746205E+02  0.10566000000E+00 0. -1.
         22    1    1    0    0    0  0.54895367566E+01  0.16761630554E+02 -0.23503362769E+02  0.29385291118E+02  0.00000000000E+00 0.  1.
</event>
<event>
 5    1  0.1258624E-009  0.9118800E+02  0.7815553E-02  0.1125453E+00
         25   -1    0    0    0    0  0.00000000000E+00  0.00000000000E+00  0.99999998245E-14  0.12509000000E+03  0.12509000000E+03 0.  0.
        -13    1    3    3    0    0  0.38693884444E+01 -0.47574413931E+02  0.38492828647E+02  0.61318888192E+02  0.10566000000E+00 0. -1.
         23    2    1    0    0    0  0.64530585013E+01 -0.26876999685E+02  0.12210540855E+02  0.94872250513E+02  0.89931260045E+02 0.  0.
         13    1    3    3    0    0  0.25836700569E+01  0.20697414246E+02 -0.26282287792E+02  0.33553362321E+02  0.10566000000E+00 0.  1.
         22    1    1    0    0    0 -0.64530585013E+01  0.26876999685E+02 -0.12210540855E+02  0.30217749487E+02  0.00000000000E+00 0. -1.
</event>
<event>
 5    1  0.1258624E-009  0.9118800E+02  0.7815553E-02  0.1125453E+00
         25   -1    0    0    0    0  0.00000000000E+00  0.00000000000E+00  0.99999998245E-14  0.12509000000E+03  0.12509000000E+03 0.  0.
        -13    1    3    3    0    0  0.27156640795E+02  0.24091949787E+02 -0.11180817668E+02  0.37985879371E+02  0.10566000000E+00 0. -1.
         23    2    1    0    0    0 -0.27614005906E+02  0.48116785598E+01 -0.31975668446E+00  0.97058092875E+02  0.92921932694E+02 0.  0.
         13    1    3    3    0    0 -0.54770646701E+02 -0.19280271227E+02  0.10861060984E+02  0.59072213505E+02  0.10566000000E+00 0.  1.
         22    1    1    0    0    0  0.27614005906E+02 -0.48116785598E+01  0.31975668446E+00  0.28031907125E+02  0.00000000000E+00 0.  1.
</event>
<event>
 5    1  0.1258624E-009  0.9118800E+02  0.7815553E-02  0.1125453E+00
         25   -1    0    0    0    0  0.00000000000E+00  0.00000000000E+00  0.99999998245E-14  0.12509000000E+03  0.12509000000E+03 0.  0.
        -13    1    3    3    0    0 -0.56934532422E+02  0.20264796161E+02  0.88523107347E+01  0.61078453770E+02  0.10566000000E+00 0. -1.
         23    2    1    0    0    0 -0.24106462072E+02  0.18667904834E+02  0.53946546444E+01  0.94126885117E+02  0.88888447048E+02 0.  0.
         13    1    3    3    0    0  0.32828070350E+02 -0.15968913275E+01 -0.34576560903E+01  0.33048431347E+02  0.10566000000E+00 0.  1.
         22    1    1    0    0    0  0.24106462072E+02 -0.18667904834E+02 -0.53946546444E+01  0.30963114883E+02  0.00000000000E+00 0. -1.
</event>
<event>
 5    1  0.1258624E-009  0.9118800E+02  0.7815553E-02  0.1125453E+00
         25   -1    0    0    0    0  0.00000000000E+00  0.00000000000E+00  0.99999998245E-14  0.12509000000E+03  0.12509000000E+03 0.  0.
        -13    1    3    3    0    0 -0.47611220281E+02  0.48565537966E+01  0.24804821559E+02  0.53904589304E+02  0.10566000000E+00 0. -1.
         23    2    1    0    0    0 -0.16434812855E+02 -0.20509601793E+02  0.68185252588E+01  0.97937852277E+02  0.94098797987E+02 0.  0.
         13    1    3    3    0    0  0.31176407426E+02 -0.25366155589E+02 -0.17986296300E+02  0.44033262973E+02  0.10566000000E+00 0.  1.
         22    1    1    0    0    0  0.16434812855E+02  0.20509601793E+02 -0.68185252588E+01  0.27152147723E+02  0.00000000000E+00 0.  1.
</event>
<event>
 5    1  0.1258624E-009  0.9118800E+02  0.7815553E-02  0.1125453E+00
         25   -1    0    0    0    0  0.00000000000E+00  0.00000000000E+00  0.99999998245E-14  0.12509000000E+03  0.12509000000E+03 0.  0.
        -13    1    3    3    0    0 -0.28650455407E+02  0.33386473606E+02 -0.13729330088E+02  0.46086992563E+02  0.10566000000E+00 0.  1.
         23    2    1    0    0    0  0.18597135342E+02  0.22427849947E+02 -0.26786685893E+01  0.95831887252E+02  0.91256306372E+02 0.  0.
         13    1    3    3    0    0  0.47247590748E+02 -0.10958623659E+02  0.11050661499E+02  0.49744894689E+02  0.10566000000E+00 0. -1.
         22    1    1    0    0    0 -0.18597135342E+02 -0.22427849947E+02  0.26786685893E+01  0.29258112748E+02  0.00000000000E+00 0. -1.
</event>
<event>
 5    1  0.1258624E-009  0.9118800E+02  0.7815553E-02  0.1125453E+00
         25   -1    0    0    0    0  0.00000000000E+00  0.00000000000E+00  0.99999998245E-14  0.12509000000E+03  0.12509000000E+03 0.  0.
        -13    1    3    3    0    0 -0.22148996849E+02 -0.32027231384E+02 -0.45479293142E+02  0.59872354892E+02  0.10566000000E+00 0. -1.
         23    2    1    0    0    0 -0.13625105676E+02 -0.21911666704E+02 -0.10565492820E+02  0.97208208792E+02  0.93123797042E+02 0.  0.
         13    1    3    3    0    0  0.85238911727E+01  0.10115564679E+02  0.34913800322E+02  0.37335853900E+02  0.10566000000E+00 0.  1.
         22    1    1    0    0    0  0.13625105676E+02  0.21911666704E+02  0.10565492820E+02  0.27881791208E+02  0.00000000000E+00 0. -1.
</event>
<event>
 5    1  0.1258624E-009  0.9118800E+02  0.7815553E-02  0.1125453E+00
         25   -1    0    0    0    0  0.00000000000E+00  0.00000000000E+00  0.99999998245E-14  0.12509000000E+03  0.12509000000E+03 0.  0.
        -13    1    3    3    0    0 -0.23698652859E+02  0.18566629077E+02 -0.40066274969E+02  0.50116498446E+02  0.10566000000E+00 0. -1.
         23    2    1    0    0    0 -0.30664529557E+01  0.23994050758E+02  0.53697067581E+01  0.10031195819E+03  0.97203588405E+02 0.  0.
         13    1    3    3    0    0  0.20632199903E+02  0.54274216808E+01  0.45435981727E+02  0.50195459739E+02  0.10566000000E+00 0.  1.
         22    1    1    0    0    0  0.30664529557E+01 -0.23994050758E+02 -0.53697067581E+01  0.24778041815E+02  0.00000000000E+00 0. -1.
</event>
<event>
 5    1  0.1258624E-009  0.9118800E+02  0.7815553E-02  0.1125453E+00
         25   -1    0    0    0    0  0.00000000000E+00  0.00000000000E+00  0.99999998245E-14  0.12509000000E+03  0.12509000000E+03 0.  0.
        -13    1    3    3    0    0  0.17814525000E+02 -0.18616749599E+01 -0.37298965047E+02  0.41376890799E+02  0.10566000000E+00 0.  1.
         23    2    1    0    0    0 -0.25059398625E+02  0.68978445669E+01  0.33911134504E+00  0.99096371634E+02  0.95626472043E+02 0.  0.
         13    1    3    3    0    0 -0.42873923625E+02  0.87595195268E+01  0.37638076392E+02  0.57719480835E+02  0.10566000000E+00 0. -1.
         22    1    1    0    0    0  0.25059398625E+02 -0.68978445669E+01 -0.33911134504E+00  0.25993628366E+02  0.00000000000E+00 0. -1.
</event>
<event>
 5    1  0.1258624E-009  0.9118800E+02  0.7815553E-02  0.1125453E+00
         25   -1    0    0    0    0  0.00000000000E+00  0.00000000000E+00  0.99999998245E-14  0.12509000000E+03  0.12509000000E+03 0.  0.
        -13    1    3    3    0    0  0.23017385462E+02  0.28612482737E+02  0.59019307430E+01  0.37192985259E+02  0.10566000000E+00 0.  1.
         23    2    1    0    0    0 -0.23461614337E+01 -0.26136527106E+02  0.82635743143E+01  0.97578017464E+02  0.93619230445E+02 0.  0.
         13    1    3    3    0    0 -0.25363546896E+02 -0.54749009844E+02  0.23616435712E+01  0.60385032205E+02  0.10566000000E+00 0. -1.
         22    1    1    0    0    0  0.23461614337E+01  0.26136527106E+02 -0.82635743143E+01  0.27511982536E+02  0.00000000000E+00 0. -1.
</event>
<event>
 5    1  0.1258624E-009  0.9118800E+02  0.7815553E-02  0.1125453E+00
         25   -1    0    0    0    0  0.00000000000E+00  0.00000000000E+00  0.99999998245E-14  0.12509000000E+03  0.12509000000E+03 0.  0.
        -13    1    3    3    0    0 -0.18065264292E+02  0.22505074549E+02  0.17608007566E+02  0.33806585880E+02  0.10566000000E+00 0.  1.
         23    2    1    0    0    0  0.22372417825E+02 -0.16381659784E+02 -0.90527191191E+01  0.95920913966E+02  0.91378258662E+02 0.  0.
         13    1    3    3    0    0  0.40437682117E+02 -0.38886734333E+02 -0.26660726685E+02  0.62114328086E+02  0.10566000000E+00 0. -1.
         22    1    1    0    0    0 -0.22372417825E+02  0.16381659784E+02  0.90527191191E+01  0.29169086034E+02  0.00000000000E+00 0. -1.
</event>
<event>
 5    1  0.1258624E-009  0.9118800E+02  0.7815553E-02  0.1125453E+00
         25   -1    0    0    0    0  0.00000000000E+00  0.00000000000E+00  0.99999998245E-14  0.12509000000E+03  0.12509000000E+03 0.  0.
        -13    1    3    3    0    0  0.29357319767E+02 -0.50040869352E+01 -0.22133252130E+02  0.37105055233E+02  0.10566000000E+00 0. -1.
         23    2    1    0    0    0  0.68870995811E+01  0.21260298601E+02  0.22379973209E+02  0.93462549295E+02  0.87948578628E+02 0.  0.
         13    1    3    3    0    0 -0.22470220186E+02  0.26264385536E+02  0.44513225340E+02  0.56357494062E+02  0.10566000000E+00 0.  1.
         22    1    1    0    0    0 -0.68870995811E+01 -0.21260298601E+02 -0.22379973209E+02  0.31627450705E+02  0.00000000000E+00 0.  1.
</event>
<event>
 5    1  0.1258624E-009  0.9118800E+02  0.7815553E-02  0.1125453E+00
         25   -1    0    0    0    0  0.00000000000E+00  0.00000000000E+00  0.99999998245E-14  0.12509000000E+03  0.12509000000E+03 0.  0.
        -13    1    3    3    0    0  0.96734124102E+01 -0.60204659579E+02  0.35747674511E+01  0.61081634466E+02  0.10566000000E+00 0.  1.
         23    2    1    0    0    0 -0.47268267586E+01 -0.30827638145E+02  0.13970185971E+01  0.93870809975E+02  0.88527346846E+02 0.  0.
         13    1    3    3    0    0 -0.14400239169E+02  0.29377021434E+02 -0.21777488540E+01  0.32789175509E+02  0.10566000000E+00 0. -1.
         22    1    1    0    0    0  0.47268267586E+01  0.30827638145E+02 -0.13970185971E+01  0.31219190025E+02  0.00000000000E+00 0.  1.
</event>
<event>
 5    1  0.1258624E-009  0.9118800E+02  0.7815553E-02  0.1125453E+00
         25   -1    0    0    0    0  0.00000000000E+00  0.00000000000E+00  0.99999998245E-14  0.12509000000E+03  0.12509000000E+03 0.  0.
        -13    1    3    3    0    0 -0.21232019716E+02 -0.41115095381E+02 -0.35007720400E+02  0.58024144811E+02  0.10566000000E+00 0.  1.
         23    2    1    0    0    0  0.90766985111E+00 -0.32096402121E+02 -0.13232525272E+02  0.90361011839E+02  0.83420679941E+02 0.  0.
         13    1    3    3    0    0  0.22139689567E+02  0.90186932605E+01  0.21775195128E+02  0.32336867028E+02  0.10566000000E+00 0. -1.
         22    1    1    0    0    0 -0.90766985111E+00  0.32096402121E+02  0.13232525272E+02  0.34728988161E+02  0.00000000000E+00 0.  1.
</event>
<event>
 5    1  0.1258624E-009  0.9118800E+02  0.7815553E-02  0.1125453E+00
         25   -1    0    0    0    0  0.00000000000E+00  0.00000000000E+00  0.99999998245E-14  0.12509000000E+03  0.12509000000E+03 0.  0.
        -13    1    3    3    0    0  0.63572752659E+01  0.49201559034E+02  0.32758513314E+02  0.59450313025E+02  0.10566000000E+00 0.  1.
         23    2    1    0    0    0 -0.47882498436E+01  0.16370008990E+02  0.24745183438E+02  0.95036237602E+02  0.90159069557E+02 0.  0.
         13    1    3    3    0    0 -0.11145525109E+02 -0.32831550044E+02 -0.80133298760E+01  0.35585924577E+02  0.10566000000E+00 0. -1.
         22    1    1    0    0    0  0.47882498436E+01 -0.16370008990E+02 -0.24745183438E+02  0.30053762398E+02  0.00000000000E+00 0.  1.
</event>
<event>
 5    1  0.1258624E-009  0.9118800E+02  0.7815553E-02  0.1125453E+00
         25   -1    0    0    0    0  0.00000000000E+00  0.00000000000E+00  0.99999998245E-14  0.12509000000E+03  0.12509000000E+03 0.  0.
        -13    1    3    3    0    0 -0.35133324844E+02 -0.66104783179E+01  0.17298465632E+02  0.39715198796E+02  0.10566000000E+00 0. -1.
         23    2    1    0    0    0 -0.87440881605E-01 -0.15676699062E+02 -0.25119504093E+02  0.95479933718E+02  0.90772582411E+02 0.  0.
         13    1    3    3    0    0  0.35045883962E+02 -0.90662207440E+01 -0.42417969725E+02  0.55764734922E+02  0.10566000000E+00 0.  1.
         22    1    1    0    0    0  0.87440881605E-01  0.15676699062E+02  0.25119504093E+02  0.29610066282E+02  0.00000000000E+00 0.  1.
</event>
<event>
 5    1  0.1258624E-009  0.9118800E+02  0.7815553E-02  0.1125453E+00
         25   -1    0    0    0    0  0.00000000000E+00  0.00000000000E+00  0.99999998245E-14  0.12509000000E+03  0.12509000000E+03 0.  0.
        -13    1    3    3    0    0  0.31458003632E+02 -0.26334215475E+02 -0.22686802321E+02  0.46880689636E+02  0.10566000000E+00 0. -1.
         23    2    1    0    0    0 -0.16360155666E+02 -0.13063763070E+02 -0.19289642216E+02  0.96622353526E+02  0.92333484203E+02 0.  0.
         13    1    3    3    0    0 -0.47818159298E+02  0.13270452405E+02  0.33971601054E+01  0.49741663890E+02  0.10566000000E+00 0.  1.
         22    1    1    0    0    0  0.16360155666E+02  0.13063763070E+02  0.19289642216E+02  0.28467646474E+02  0.00000000000E+00 0. -1.
</event>
<event>
 5    1  0.1258624E-009  0.9118800E+02  0.7815553E-02  0.1125453E+00
         25   -1    0    0    0    0  0.00000000000E+00  0.00000000000E+00  0.99999998245E-14  0.12509000000E+03  0.12509000000E+03 0.  0.
        -13    1    3    3    0    0  0.95327256532E+01  0.54438435639E+02  0.17892870411E+02  0.58091153446E+02  0.10566000000E+00 0.  1.
         23    2    1    0    0    0  0.10422209174E+01  0.32564941766E+02 -0.64224177110E+01  0.91881430233E+02  0.85670228877E+02 0.  0.
         13    1    3    3    0    0 -0.84905047359E+01 -0.21873493872E+02 -0.24315288122E+02  0.33790276787E+02  0.10566000000E+00 0. -1.
         22    1    1    0    0    0 -0.10422209174E+01 -0.32564941766E+02  0.64224177110E+01  0.33208569767E+02  0.00000000000E+00 0.  1.
</event>
<event>
 5    1  0.1258624E-009  0.9118800E+02  0.7815553E-02  0.1125453E+00
         25   -1    0    0    0    0  0.00000000000E+00  0.00000000000E+00  0.99999998245E-14  0.12509000000E+03  0.12509000000E+03 0.  0.
        -13    1    3    3    0    0 -0.30850584296E+02  0.23316312832E+02  0.23530613101E+02  0.45267095251E+02  0.10566000000E+00 0.  1.
         23    2    1    0    0    0  0.16118273809E+02  0.16404311951E+02  0.22739179729E+02  0.92748532873E+02  0.86927095052E+02 0.  0.
         13    1    3    3    0    0  0.46968858105E+02 -0.69120008806E+01 -0.79143337192E+00  0.47481437622E+02  0.10566000000E+00 0. -1.
         22    1    1    0    0    0 -0.16118273809E+02 -0.16404311951E+02 -0.22739179729E+02  0.32341467127E+02  0.00000000000E+00 0. -1.
</event>
<event>
 5    1  0.1258624E-009  0.9118800E+02  0.7815553E-02  0.1125453E+00
         25   -1    0    0    0    0  0.00000000000E+00  0.00000000000E+00  0.99999998245E-14  0.12509000000E+03  0.12509000000E+03 0.  0.
        -13    1    3    3    0    0 -0.80248138320E+00 -0.31115097913E+02  0.13358495702E+02  0.33871136177E+02  0.10566000000E+00 0. -1.
         23    2    1    0    0    0 -0.11935743688E+02  0.21555558743E+02 -0.16504332613E+02  0.95433683892E+02  0.90708825018E+02 0.  0.
         13    1    3    3    0    0 -0.11133262305E+02  0.52670656656E+02 -0.29862828315E+02  0.61562547715E+02  0.10566000000E+00 0.  1.
         22    1    1    0    0    0  0.11935743688E+02 -0.21555558743E+02  0.16504332613E+02  0.29656316108E+02  0.00000000000E+00 0.  1.
</event>
<event>
 5    1  0.1258624E-009  0.9118800E+02  0.7815553E-02  0.1125453E+00
         25   -1    0    0    0    0  0.00000000000E+00  0.00000000000E+00  0.99999998245E-14  0.12509000000E+03  0.12509000000E+03 0.  0.
        -13    1    3    3    0    0 -0.21794365204E+02 -0.44637346860E+02 -0.16679946971E+02  0.52399607674E+02  0.10566000000E+00 0. -1.
         23    2    1    0    0    0  0.15736566978E+02 -0.19344863959E+02 -0.10317527886E+02  0.98102694030E+02  0.94317675397E+02 0.  0.
         13    1    3    3    0    0  0.37530932183E+02  0.25292482901E+02  0.63624190847E+01  0.45703086356E+02  0.10566000000E+00 0.  1.
         22    1    1    0    0    0 -0.15736566978E+02  0.19344863959E+02  0.10317527886E+02  0.26987305970E+02  0.00000000000E+00 0. -1.
</event>
<event>
 5    1  0.1258624E-009  0.9118800E+02  0.7815553E-02  0.1125453E+00
         25   -1    0    0    0    0  0.00000000000E+00  0.00000000000E+00  0.99999998245E-14  0.12509000000E+03  0.12509000000E+03 0.  0.
        -13    1    3    3    0    0 -0.19009679696E+02 -0.40306798499E+02  0.55180983314E+01  0.44905083238E+02  0.10566000000E+00 0.  1.
         23    2    1    0    0    0 -0.14564041181E+02  0.63662680337E+01  0.24827730196E+02  0.95610229803E+02  0.90951960903E+02 0.  0.
         13    1    3    3    0    0  0.44456385155E+01  0.46673066533E+02  0.19309631864E+02  0.50705146565E+02  0.10566000000E+00 0. -1.
         22    1    1    0    0    0  0.14564041181E+02 -0.63662680337E+01 -0.24827730196E+02  0.29479770197E+02  0.00000000000E+00 0. -1.
</event>
<event>
 5    1  0.1258624E-009  0.9118800E+02  0.7815553E-02  0.1125453E+00
         25   -1    0    0    0    0  0.00000000000E+00  0.00000000000E+00  0.99999998245E-14  0.12509000000E+03  0.12509000000E+03 0.  0.
        -13    1    3    3    0    0 -0.30655674592E+00  0.34432658842E+02 -0.53491609015E+01  0.34847190107E+02  0.10566000000E+00 0. -1.
         23    2    1    0    0    0  0.10928574678E+02 -0.19695475384E+02  0.19349575341E+02  0.95395698173E+02  0.90656426518E+02 0.  0.
         13    1    3    3    0    0  0.11235131424E+02 -0.54128134226E+02  0.24698736243E+02  0.60548508066E+02  0.10566000000E+00 0.  1.
         22    1    1    0    0    0 -0.10928574678E+02  0.19695475384E+02 -0.19349575341E+02  0.29694301827E+02  0.00000000000E+00 0.  1.
</event>
<event>
 5    1  0.1258624E-009  0.9118800E+02  0.7815553E-02  0.1125453E+00
         25   -1    0    0    0    0  0.00000000000E+00  0.00000000000E+00  0.99999998245E-14  0.12509000000E+03  0.12509000000E+03 0.  0.
        -13    1    3    3    0    0  0.13757230661E+02  0.16189680207E+02  0.24216012795E+02  0.32214803746E+02  0.10566000000E+00 0.  1.
         23    2    1    0    0    0 -0.13703465756E+02 -0.19004557328E+02 -0.19434015537E+02  0.94649252097E+02  0.89620543346E+02 0.  0.
         13    1    3    3    0    0 -0.27460696417E+02 -0.35194237536E+02 -0.43650028333E+02  0.62434448351E+02  0.10566000000E+00 0. -1.
         22    1    1    0    0    0  0.13703465756E+02  0.19004557328E+02  0.19434015537E+02  0.30440747903E+02  0.00000000000E+00 0. -1.
</event>
<event>
 5    1  0.1258624E-009  0.9118800E+02  0.7815553E-02  0.1125453E+00
         25   -1    0    0    0    0  0.00000000000E+00  0.00000000000E+00  0.99999998245E-14  0.12509000000E+03  0.12509000000E+03 0.  0.
        -13    1    3    3    0    0 -0.14821758382E+02 -0.22729530085E+02  0.46345433596E+02  0.53704994541E+02  0.10566000000E+00 0. -1.
         23    2    1    0    0    0 -0.19747607882E+02  0.92551363134E+01  0.21043762298E+02  0.94783804315E+02  0.89808151431E+02 0.  0.
         13    1    3    3    0    0 -0.49258495007E+01  0.31984666399E+02 -0.25301671298E+02  0.41078809774E+02  0.10566000000E+00 0.  1.
         22    1    1    0    0    0  0.19747607882E+02 -0.92551363134E+01 -0.21043762298E+02  0.30306195685E+02  0.00000000000E+00 0. -1.
</event>
<event>
 5    1  0.1258624E-009  0.9118800E+02  0.7815553E-02  0.1125453E+00
         25   -1    0    0    0    0  0.00000000000E+00  0.00000000000E+00  0.99999998245E-14  0.12509000000E+03  0.12509000000E+03 0.  0.
        -13    1    3    3    0    0 -0.34780485969E+02 -0.71754053420E+01 -0.12474379138E+01  0.35534995588E+02  0.10566000000E+00 0.  1.
         23    2    1    0    0    0  0.21334384211E+02 -0.17809060845E+02  0.13015357234E+02  0.94402573881E+02  0.89275572435E+02 0.  0.
         13    1    3    3    0    0  0.56114870180E+02 -0.10633655503E+02  0.14262795148E+02  0.58867578294E+02  0.10566000000E+00 0. -1.
         22    1    1    0    0    0 -0.21334384211E+02  0.17809060845E+02 -0.13015357234E+02  0.30687426119E+02  0.00000000000E+00 0. -1.
</event>
<event>
 5    1  0.1258624E-009  0.9118800E+02  0.7815553E-02  0.1125453E+00
         25   -1    0    0    0    0  0.00000000000E+00  0.00000000000E+00  0.99999998245E-14  0.12509000000E+03  0.12509000000E+03 0.  0.
        -13    1    3    3    0    0  0.23247099927E+02  0.29958403956E+02  0.22130057379E+02  0.43905400877E+02  0.10566000000E+00 0.  1.
         23    2    1    0    0    0  0.14065577514E+02  0.30282199591E+02 -0.19423082038E+02  0.86462183614E+02  0.77353739383E+02 0.  0.
         13    1    3    3    0    0 -0.91815224121E+01  0.32379563566E+00 -0.41553139417E+02  0.42556782737E+02  0.10566000000E+00 0. -1.
         22    1    1    0    0    0 -0.14065577514E+02 -0.30282199591E+02  0.19423082038E+02  0.38627816386E+02  0.00000000000E+00 0.  1.
</event>
<event>
 5    1  0.1258624E-009  0.9118800E+02  0.7815553E-02  0.1125453E+00
         25   -1    0    0    0    0  0.00000000000E+00  0.00000000000E+00  0.99999998245E-14  0.12509000000E+03  0.12509000000E+03 0.  0.
        -13    1    3    3    0    0 -0.46136921853E+02 -0.29749043819E+02  0.14423168089E+02  0.56759669731E+02  0.10566000000E+00 0.  1.
         23    2    1    0    0    0 -0.75825635429E+01 -0.24448779680E+02 -0.28428744694E+01  0.99334999846E+02  0.95938116311E+02 0.  0.
         13    1    3    3    0    0  0.38554358310E+02  0.53002641398E+01 -0.17266042558E+02  0.42575330114E+02  0.10566000000E+00 0. -1.
         22    1    1    0    0    0  0.75825635429E+01  0.24448779680E+02  0.28428744694E+01  0.25755000154E+02  0.00000000000E+00 0.  1.
</event>
<event>
 5    1  0.1258624E-009  0.9118800E+02  0.7815553E-02  0.1125453E+00
         25   -1    0    0    0    0  0.00000000000E+00  0.00000000000E+00  0.99999998245E-14  0.12509000000E+03  0.12509000000E+03 0.  0.
        -13    1    3    3    0    0 -0.32153997904E+02 -0.19892664461E+02 -0.11173937811E+02  0.39426713416E+02  0.10566000000E+00 0.  1.
         23    2    1    0    0    0  0.22176548800E+01  0.24731750117E+02  0.81173550294E+01  0.98965894088E+02  0.95455640394E+02 0.  0.
         13    1    3    3    0    0  0.34371652784E+02  0.44624414578E+02  0.19291292840E+02  0.59539180672E+02  0.10566000000E+00 0. -1.
         22    1    1    0    0    0 -0.22176548800E+01 -0.24731750117E+02 -0.81173550294E+01  0.26124105912E+02  0.00000000000E+00 0. -1.
</event>
<event>
 5    1  0.1258624E-009  0.9118800E+02  0.7815553E-02  0.1125453E+00
         25   -1    0    0    0    0  0.00000000000E+00  0.00000000000E+00  0.99999998245E-14  0.12509000000E+03  0.12509000000E+03 0.  0.
        -13    1    3    3    0    0  0.37004463383E+02 -0.10726708054E+02 -0.17414418254E+01  0.38567296503E+02  0.10566000000E+00 0.  1.
         23    2    1    0    0    0 -0.14176341323E+02 -0.74848335314E+01  0.24218094968E+02  0.96046799243E+02  0.91550424001E+02 0.  0.
         13    1    3    3    0    0 -0.51180804705E+02  0.32418745224E+01  0.25959536794E+02  0.57479502740E+02  0.10566000000E+00 0. -1.
         22    1    1    0    0    0  0.14176341323E+02  0.74848335314E+01 -0.24218094968E+02  0.29043200757E+02  0.00000000000E+00 0. -1.
</event>
<event>
 5    1  0.1258624E-009  0.9118800E+02  0.7815553E-02  0.1125453E+00
         25   -1    0    0    0    0  0.00000000000E+00  0.00000000000E+00  0.99999998245E-14  0.12509000000E+03  0.12509000000E+03 0.  0.
        -13    1    3    3    0    0  0.16230321616E+02  0.31091332896E+02  0.28193850386E+01  0.35185997457E+02  0.10566000000E+00 0. -1.
         23    2    1    0    0    0 -0.22486638815E+02 -0.15090727500E+02  0.10716766591E+02  0.95965644765E+02  0.91439471277E+02 0.  0.
         13    1    3    3    0    0 -0.38716960431E+02 -0.46182060396E+02  0.78973815525E+01  0.60779647308E+02  0.10566000000E+00 0.  1.
         22    1    1    0    0    0  0.22486638815E+02  0.15090727500E+02 -0.10716766591E+02  0.29124355235E+02  0.00000000000E+00 0.  1.
</event>
<event>
 5    1  0.1258624E-009  0.9118800E+02  0.7815553E-02  0.1125453E+00
         25   -1    0    0    0    0  0.00000000000E+00  0.00000000000E+00  0.99999998245E-14  0.12509000000E+03  0.12509000000E+03 0.  0.
        -13    1    3    3    0    0 -0.11021754805E+02  0.35072202895E+01  0.51005778794E+02  0.52300863354E+02  0.10566000000E+00 0. -1.
         23    2    1    0    0    0 -0.21645002442E+02 -0.13701930126E+02  0.10834838253E+02  0.97275565980E+02  0.93214231730E+02 0.  0.
         13    1    3    3    0    0 -0.10623247637E+02 -0.17209150415E+02 -0.40170940541E+02  0.44974702627E+02  0.10566000000E+00 0.  1.
         22    1    1    0    0    0  0.21645002442E+02  0.13701930126E+02 -0.10834838253E+02  0.27814434020E+02  0.00000000000E+00 0.  1.
</event>
<event>
 5    1  0.1258624E-009  0.9118800E+02  0.7815553E-02  0.1125453E+00
         25   -1    0    0    0    0  0.00000000000E+00  0.00000000000E+00  0.99999998245E-14  0.12509000000E+03  0.12509000000E+03 0.  0.
        -13    1    3    3    0    0 -0.27691333639E+02 -0.28109334314E+02  0.12984790459E+02  0.41539867376E+02  0.10566000000E+00 0. -1.
         23    2    1    0    0    0  0.22499280193E+02 -0.20196074910E+02 -0.27499330167E+01  0.94731126790E+02  0.89734749124E+02 0.  0.
         13    1    3    3    0    0  0.50190613832E+02  0.79132594045E+01 -0.15734723476E+02  0.53191259415E+02  0.10566000000E+00 0.  1.
         22    1    1    0    0    0 -0.22499280193E+02  0.20196074910E+02  0.27499330167E+01  0.30358873210E+02  0.00000000000E+00 0.  1.
</event>
<event>
 5    1  0.1258624E-009  0.9118800E+02  0.7815553E-02  0.1125453E+00
         25   -1    0    0    0    0  0.00000000000E+00  0.00000000000E+00  0.99999998245E-14  0.12509000000E+03  0.12509000000E+03 0.  0.
        -13    1    3    3    0    0 -0.29261807611E+02 -0.23720525572E+02 -0.20547722977E+02  0.42908470046E+02  0.10566000000E+00 0. -1.
         23    2    1    0    0    0  0.22111305665E+02 -0.14163651754E+02 -0.13274141383E+02  0.95666850973E+02  0.91029801035E+02 0.  0.
         13    1    3    3    0    0  0.51373113276E+02  0.95568738179E+01  0.72735815937E+01  0.52758380927E+02  0.10566000000E+00 0.  1.
         22    1    1    0    0    0 -0.22111305665E+02  0.14163651754E+02  0.13274141383E+02  0.29423149027E+02  0.00000000000E+00 0.  1.
</event>
<event>
 5    1  0.1258624E-009  0.9118800E+02  0.7815553E-02  0.1125453E+00
         25   -1    0    0    0    0  0.00000000000E+00  0.00000000000E+00  0.99999998245E-14  0.12509000000E+03  0.12509000000E+03 0.  0.
        -13    1    3    3    0    0 -0.47959100133E+02 -0.21146175087E+02 -0.70682196205E+01  0.52888627313E+02  0.10566000000E+00 0.  1.
         23    2    1    0    0    0 -0.25237757435E+02  0.14836564886E+02 -0.19901086609E+01  0.95746711322E+02  0.91139476290E+02 0.  0.
         13    1    3    3    0    0  0.22721342698E+02  0.35982739973E+02  0.50781109596E+01  0.42858084009E+02  0.10566000000E+00 0. -1.
         22    1    1    0    0    0  0.25237757435E+02 -0.14836564886E+02  0.19901086609E+01  0.29343288678E+02  0.00000000000E+00 0.  1.
</event>
<event>
 5    1  0.1258624E-009  0.9118800E+02  0.7815553E-02  0.1125453E+00
         25   -1    0    0    0    0  0.00000000000E+00  0.00000000000E+00  0.99999998245E-14  0.12509000000E+03  0.12509000000E+03 0.  0.
        -13    1    3    3    0    0  0.37407931371E+02  0.17807929891E+01 -0.71264485788E+01  0.38122460394E+02  0.10566000000E+00 0.  1.
         23    2    1    0    0    0 -0.19540949296E+02 -0.14565494929E+02 -0.12654679762E+02  0.97628331045E+02  0.93686433174E+02 0.  0.
         13    1    3    3    0    0 -0.56948880666E+02 -0.16346287919E+02 -0.55282311833E+01  0.59505870651E+02  0.10566000000E+00 0. -1.
         22    1    1    0    0    0  0.19540949296E+02  0.14565494929E+02  0.12654679762E+02  0.27461668955E+02  0.00000000000E+00 0. -1.
</event>
<event>
 5    1  0.1258624E-009  0.9118800E+02  0.7815553E-02  0.1125453E+00
         25   -1    0    0    0    0  0.00000000000E+00  0.00000000000E+00  0.99999998245E-14  0.12509000000E+03  0.12509000000E+03 0.  0.
        -13    1    3    3    0    0  0.38850598279E+02 -0.37289653507E+02  0.18291690719E+02  0.56872527275E+02  0.10566000000E+00 0.  1.
         23    2    1    0    0    0  0.58312098296E+01 -0.21627758191E+02  0.22108555625E+02  0.93616977198E+02  0.88167949139E+02 0.  0.
         13    1    3    3    0    0 -0.33019388449E+02  0.15661895315E+02  0.38168649058E+01  0.36744449923E+02  0.10566000000E+00 0. -1.
         22    1    1    0    0    0 -0.58312098296E+01  0.21627758191E+02 -0.22108555625E+02  0.31473022802E+02  0.00000000000E+00 0.  1.
</event>
<event>
 5    1  0.1258624E-009  0.9118800E+02  0.7815553E-02  0.1125453E+00
         25   -1    0    0    0    0  0.00000000000E+00  0.00000000000E+00  0.99999998245E-14  0.12509000000E+03  0.12509000000E+03 0.  0.
        -13    1    3    3    0    0  0.94562489095E+01 -0.44774616743E+01 -0.37317312561E+02  0.38756435431E+02  0.10566000000E+00 0. -1.
         23    2    1    0    0    0 -0.33858955228E+01  0.28302694087E+02  0.73720244864E+01  0.95647623634E+02  0.91003375656E+02 0.  0.
         13    1    3    3    0    0 -0.12842144432E+02  0.32780155761E+02  0.44689337048E+02  0.56891188203E+02  0.10566000000E+00 0.  1.
         22    1    1    0    0    0  0.33858955228E+01 -0.28302694087E+02 -0.73720244864E+01  0.29442376366E+02  0.00000000000E+00 0.  1.
</event>
<event>
 5    1  0.1258624E-009  0.9118800E+02  0.7815553E-02  0.1125453E+00
         25   -1    0    0    0    0  0.00000000000E+00  0.00000000000E+00  0.99999998245E-14  0.12509000000E+03  0.12509000000E+03 0.  0.
        -13    1    3    3    0    0 -0.13762486506E+02 -0.50166067975E+02  0.54970454609E+01  0.52309359427E+02  0.10566000000E+00 0.  1.
         23    2    1    0    0    0  0.15167977815E+02 -0.21499119772E+02 -0.11415168140E+02  0.96409243985E+02  0.92044318457E+02 0.  0.
         13    1    3    3    0    0  0.28930464321E+02  0.28666948203E+02 -0.16912213601E+02  0.44099884558E+02  0.10566000000E+00 0. -1.
         22    1    1    0    0    0 -0.15167977815E+02  0.21499119772E+02  0.11415168140E+02  0.28680756015E+02  0.00000000000E+00 0.  1.
</event>
<event>
 5    1  0.1258624E-009  0.9118800E+02  0.7815553E-02  0.1125453E+00
         25   -1    0    0    0    0  0.00000000000E+00  0.00000000000E+00  0.99999998245E-14  0.12509000000E+03  0.12509000000E+03 0.  0.
        -13    1    3    3    0    0  0.12464324539E+00 -0.60541110192E+02 -0.82773379954E+00  0.60546988914E+02  0.10566000000E+00 0. -1.
         23    2    1    0    0    0  0.34026576589E+01 -0.27377233975E+02 -0.10999133262E+02  0.95390303844E+02  0.90648982982E+02 0.  0.
         13    1    3    3    0    0  0.32780144135E+01  0.33163876218E+02 -0.10171399462E+02  0.34843314930E+02  0.10566000000E+00 0.  1.
         22    1    1    0    0    0 -0.34026576589E+01  0.27377233975E+02  0.10999133262E+02  0.29699696156E+02  0.00000000000E+00 0. -1.
</event>
<event>
 5    1  0.1258624E-009  0.9118800E+02  0.7815553E-02  0.1125453E+00
         25   -1    0    0    0    0  0.00000000000E+00  0.00000000000E+00  0.99999998245E-14  0.12509000000E+03  0.12509000000E+03 0.  0.
        -13    1    3    3    0    0  0.35401033044E+02 -0.19789391064E+02  0.33913946745E+02  0.52867949526E+02  0.10566000000E+00 0.  1.
         23    2    1    0    0    0  0.14433206089E+02 -0.24952776710E+02 -0.34851266899E+01  0.96053736266E+02  0.91559901917E+02 0.  0.
         13    1    3    3    0    0 -0.20967826955E+02 -0.51633856465E+01 -0.37399073435E+02  0.43185786740E+02  0.10566000000E+00 0. -1.
         22    1    1    0    0    0 -0.14433206089E+02  0.24952776710E+02  0.34851266899E+01  0.29036263734E+02  0.00000000000E+00 0. -1.
</event>
<event>
 5    1  0.1258624E-009  0.9118800E+02  0.7815553E-02  0.1125453E+00
         25   -1    0    0    0    0  0.00000000000E+00  0.00000000000E+00  0.99999998245E-14  0.12509000000E+03  0.12509000000E+03 0.  0.
        -13    1    3    3    0    0  0.15629757419E+02  0.47469799857E+02 -0.16917076776E+02  0.52762390641E+02  0.10566000000E+00 0.  1.
         23    2    1    0    0    0 -0.15985365717E+02  0.24754093812E+02  0.97507930861E+00  0.95606990364E+02  0.90947505459E+02 0.  0.
         13    1    3    3    0    0 -0.31615123136E+02 -0.22715706045E+02  0.17892156084E+02  0.42844599723E+02  0.10566000000E+00 0. -1.
         22    1    1    0    0    0  0.15985365717E+02 -0.24754093812E+02 -0.97507930861E+00  0.29483009636E+02  0.00000000000E+00 0. -1.
</event>
<event>
 5    1  0.1258624E-009  0.9118800E+02  0.7815553E-02  0.1125453E+00
         25   -1    0    0    0    0  0.00000000000E+00  0.00000000000E+00  0.99999998245E-14  0.12509000000E+03  0.12509000000E+03 0.  0.
        -13    1    3    3    0    0  0.25326458164E+02 -0.26810665512E+01  0.26220468093E+02  0.36553272247E+02  0.10566000000E+00 0.  1.
         23    2    1    0    0    0 -0.27545414546E+02  0.96692071306E+01  0.25444358955E+01  0.95786116587E+02  0.91193544441E+02 0.  0.
         13    1    3    3    0    0 -0.52871872710E+02  0.12350273682E+02 -0.23676032197E+02  0.59232844339E+02  0.10566000000E+00 0. -1.
         22    1    1    0    0    0  0.27545414546E+02 -0.96692071306E+01 -0.25444358955E+01  0.29303883413E+02  0.00000000000E+00 0. -1.
</event>
<event>
 5    1  0.1258624E-009  0.9118800E+02  0.7815553E-02  0.1125453E+00
         25   -1    0    0    0    0  0.00000000000E+00  0.00000000000E+00  0.99999998245E-14  0.12509000000E+03  0.12509000000E+03 0.  0.
        -13    1    3    3    0    0 -0.25374900820E+02  0.12132425705E+02  0.20120511087E+02  0.34582184366E+02  0.10566000000E+00 0.  1.
         23    2    1    0    0    0  0.97721577371E+01  0.13156209726E+02 -0.27078131833E+02  0.93438678625E+02  0.87914620618E+02 0.  0.
         13    1    3    3    0    0  0.35147058557E+02  0.10237840214E+01 -0.47198642920E+02  0.58856494259E+02  0.10566000000E+00 0. -1.
         22    1    1    0    0    0 -0.97721577371E+01 -0.13156209726E+02  0.27078131833E+02  0.31651321375E+02  0.00000000000E+00 0. -1.
</event>
<event>
 5    1  0.1258624E-009  0.9118800E+02  0.7815553E-02  0.1125453E+00
         25   -1    0    0    0    0  0.00000000000E+00  0.00000000000E+00  0.99999998245E-14  0.12509000000E+03  0.12509000000E+03 0.  0.
        -13    1    3    3    0    0  0.32069697435E+02  0.21556699094E+02  0.47621369092E+02  0.61326688543E+02  0.10566000000E+00 0.  1.
         23    2    1    0    0    0  0.13351249281E+02  0.43678474104E+01  0.29111184058E+02  0.92766711404E+02  0.86953250423E+02 0.  0.
         13    1    3    3    0    0 -0.18718448154E+02 -0.17188851684E+02 -0.18510185034E+02  0.31440022861E+02  0.10566000000E+00 0. -1.
         22    1    1    0    0    0 -0.13351249281E+02 -0.43678474104E+01 -0.29111184058E+02  0.32323288596E+02  0.00000000000E+00 0.  1.
</event>
<event>
 5    1  0.1258624E-009  0.9118800E+02  0.7815553E-02  0.1125453E+00
         25   -1    0    0    0    0  0.00000000000E+00  0.00000000000E+00  0.99999998245E-14  0.12509000000E+03  0.12509000000E+03 0.  0.
        -13    1    3    3    0    0  0.34571163379E+02 -0.17291809876E+01 -0.47938196242E+02  0.59128988045E+02  0.10566000000E+00 0.  1.
         23    2    1    0    0    0  0.25176100377E+02  0.38048198006E+01 -0.11522590925E+02  0.97142141665E+02  0.93035009011E+02 0.  0.
         13    1    3    3    0    0 -0.93950630019E+01  0.55340007882E+01  0.36415605316E+02  0.38013153620E+02  0.10566000000E+00 0. -1.
         22    1    1    0    0    0 -0.25176100377E+02 -0.38048198006E+01  0.11522590925E+02  0.27947858335E+02  0.00000000000E+00 0.  1.
</event>
<event>
 5    1  0.1258624E-009  0.9118800E+02  0.7815553E-02  0.1125453E+00
         25   -1    0    0    0    0  0.00000000000E+00  0.00000000000E+00  0.99999998245E-14  0.12509000000E+03  0.12509000000E+03 0.  0.
        -13    1    3    3    0    0  0.43402247650E+01  0.17174247634E+00  0.52742381256E+02  0.52921044878E+02  0.10566000000E+00 0. -1.
         23    2    1    0    0    0  0.17817954676E+02 -0.17052133755E+02  0.15962519025E+02  0.95712171829E+02  0.91092058096E+02 0.  0.
         13    1    3    3    0    0  0.13477729911E+02 -0.17223876231E+02 -0.36779862231E+02  0.42791126951E+02  0.10566000000E+00 0.  1.
         22    1    1    0    0    0 -0.17817954676E+02  0.17052133755E+02 -0.15962519025E+02  0.29377828171E+02  0.00000000000E+00 0. -1.
</event>
<event>
 5    1  0.1258624E-009  0.9118800E+02  0.7815553E-02  0.1125453E+00
         25   -1    0    0    0    0  0.00000000000E+00  0.00000000000E+00  0.99999998245E-14  0.12509000000E+03  0.12509000000E+03 0.  0.
        -13    1    3    3    0    0 -0.17581875432E+02 -0.29492089973E+02 -0.97045473809E+00  0.34349070745E+02  0.10566000000E+00 0.  1.
         23    2    1    0    0    0 -0.23063430018E+01  0.26872332033E+02  0.14093724004E+02  0.94658527751E+02  0.89633489125E+02 0.  0.
         13    1    3    3    0    0  0.15275532430E+02  0.56364422006E+02  0.15064178742E+02  0.60309457005E+02  0.10566000000E+00 0. -1.
         22    1    1    0    0    0  0.23063430018E+01 -0.26872332033E+02 -0.14093724004E+02  0.30431472249E+02  0.00000000000E+00 0. -1.
</event>
<event>
 5    1  0.1258624E-009  0.9118800E+02  0.7815553E-02  0.1125453E+00
         25   -1    0    0    0    0  0.00000000000E+00  0.00000000000E+00  0.99999998245E-14  0.12509000000E+03  0.12509000000E+03 0.  0.
        -13    1    3    3    0    0 -0.34841409828E+01 -0.81864440876E+00 -0.48077542224E+02  0.48210690177E+02  0.10566000000E+00 0.  1.
         23    2    1    0    0    0  0.27962263046E+02 -0.24881347892E+00 -0.17347760464E+02  0.92182632194E+02  0.86108900946E+02 0.  0.
         13    1    3    3    0    0  0.31446404029E+02  0.56983092985E+00  0.30729781759E+02  0.43971942016E+02  0.10566000000E+00 0. -1.
         22    1    1    0    0    0 -0.27962263046E+02  0.24881347892E+00  0.17347760464E+02  0.32907367806E+02  0.00000000000E+00 0. -1.
</event>
<event>
 5    1  0.1258624E-009  0.9118800E+02  0.7815553E-02  0.1125453E+00
         25   -1    0    0    0    0  0.00000000000E+00  0.00000000000E+00  0.99999998245E-14  0.12509000000E+03  0.12509000000E+03 0.  0.
        -13    1    3    3    0    0  0.49738109577E+02 -0.89786119945E+01 -0.22400729487E+02  0.55283802901E+02  0.10566000000E+00 0. -1.
         23    2    1    0    0    0  0.18271983376E+02  0.13784277567E+02 -0.20814488584E+02  0.94152730896E+02  0.88924811586E+02 0.  0.
         13    1    3    3    0    0 -0.31466126201E+02  0.22762889562E+02  0.15862409025E+01  0.38868927995E+02  0.10566000000E+00 0.  1.
         22    1    1    0    0    0 -0.18271983376E+02 -0.13784277567E+02  0.20814488584E+02  0.30937269104E+02  0.00000000000E+00 0. -1.
</event>
<event>
 5    1  0.1258624E-009  0.9118800E+02  0.7815553E-02  0.1125453E+00
         25   -1    0    0    0    0  0.00000000000E+00  0.00000000000E+00  0.99999998245E-14  0.12509000000E+03  0.12509000000E+03 0.  0.
        -13    1    3    3    0    0 -0.19577667373E+02 -0.47248147576E+02  0.22294879703E+02  0.55791982705E+02  0.10566000000E+00 0.  1.
         23    2    1    0    0    0 -0.74037136725E+01 -0.27570608298E+02 -0.94001543376E+01  0.95034778829E+02  0.90157045578E+02 0.  0.
         13    1    3    3    0    0  0.12173953700E+02  0.19677539278E+02 -0.31695034040E+02  0.39242796124E+02  0.10566000000E+00 0. -1.
         22    1    1    0    0    0  0.74037136725E+01  0.27570608298E+02  0.94001543376E+01  0.30055221171E+02  0.00000000000E+00 0.  1.
</event>
<event>
 5    1  0.1258624E-009  0.9118800E+02  0.7815553E-02  0.1125453E+00
         25   -1    0    0    0    0  0.00000000000E+00  0.00000000000E+00  0.99999998245E-14  0.12509000000E+03  0.12509000000E+03 0.  0.
        -13    1    3    3    0    0  0.32210135496E+02 -0.28303920778E+02 -0.20722500896E+01  0.42929129324E+02  0.10566000000E+00 0. -1.
         23    2    1    0    0    0 -0.20898224805E+02 -0.14323545145E+02  0.74837482839E+01  0.98672084983E+02  0.95069838124E+02 0.  0.
         13    1    3    3    0    0 -0.53108360300E+02  0.13980375633E+02  0.95559983735E+01  0.55742955659E+02  0.10566000000E+00 0.  1.
         22    1    1    0    0    0  0.20898224805E+02  0.14323545145E+02 -0.74837482839E+01  0.26417915017E+02  0.00000000000E+00 0.  1.
</event>
<event>
 5    1  0.1258624E-009  0.9118800E+02  0.7815553E-02  0.1125453E+00
         25   -1    0    0    0    0  0.00000000000E+00  0.00000000000E+00  0.99999998245E-14  0.12509000000E+03  0.12509000000E+03 0.  0.
        -13    1    3    3    0    0  0.16920591523E+01  0.31836868658E+02 -0.33474326353E+02  0.46227599537E+02  0.10566000000E+00 0.  1.
         23    2    1    0    0    0 -0.26201726104E+02 -0.33753333291E+01 -0.10774146843E+02  0.96559217219E+02  0.92247909807E+02 0.  0.
         13    1    3    3    0    0 -0.27893785256E+02 -0.35212201987E+02  0.22700179510E+02  0.50331617682E+02  0.10566000000E+00 0. -1.
         22    1    1    0    0    0  0.26201726104E+02  0.33753333291E+01  0.10774146843E+02  0.28530782781E+02  0.00000000000E+00 0. -1.
</event>
<event>
 5    1  0.1258624E-009  0.9118800E+02  0.7815553E-02  0.1125453E+00
         25   -1    0    0    0    0  0.00000000000E+00  0.00000000000E+00  0.99999998245E-14  0.12509000000E+03  0.12509000000E+03 0.  0.
        -13    1    3    3    0    0 -0.74656544424E+01 -0.31181654946E+02 -0.42742822717E+02  0.53432121980E+02  0.10566000000E+00 0. -1.
         23    2    1    0    0    0  0.16787485351E+02 -0.10982373011E+01 -0.22321382640E+02  0.97138794077E+02  0.93030507912E+02 0.  0.
         13    1    3    3    0    0  0.24253139793E+02  0.30083417645E+02  0.20421440076E+02  0.43706672098E+02  0.10566000000E+00 0.  1.
         22    1    1    0    0    0 -0.16787485351E+02  0.10982373011E+01  0.22321382640E+02  0.27951205923E+02  0.00000000000E+00 0. -1.
</event>
<event>
 5    1  0.1258624E-009  0.9118800E+02  0.7815553E-02  0.1125453E+00
         25   -1    0    0    0    0  0.00000000000E+00  0.00000000000E+00  0.99999998245E-14  0.12509000000E+03  0.12509000000E+03 0.  0.
        -13    1    3    3    0    0  0.13632013981E+02 -0.57142075616E+02 -0.10767665887E+02  0.59724387009E+02  0.10566000000E+00 0.  1.
         23    2    1    0    0    0  0.11429950987E+02 -0.26189768098E+02  0.72534802416E+01  0.95608468354E+02  0.90949538277E+02 0.  0.
         13    1    3    3    0    0 -0.22020629941E+01  0.30952307518E+02  0.18021146129E+02  0.35884081345E+02  0.10566000000E+00 0. -1.
         22    1    1    0    0    0 -0.11429950987E+02  0.26189768098E+02 -0.72534802416E+01  0.29481531646E+02  0.00000000000E+00 0.  1.
</event>
<event>
 5    1  0.1258624E-009  0.9118800E+02  0.7815553E-02  0.1125453E+00
         25   -1    0    0    0    0  0.00000000000E+00  0.00000000000E+00  0.99999998245E-14  0.12509000000E+03  0.12509000000E+03 0.  0.
        -13    1    3    3    0    0  0.46677668548E+02 -0.22457068520E+02 -0.23638298705E+02  0.56937729119E+02  0.10566000000E+00 0. -1.
         23    2    1    0    0    0  0.31204222382E+02 -0.11846974306E+00  0.13522345929E+01  0.93856267147E+02  0.88506795303E+02 0.  0.
         13    1    3    3    0    0 -0.15473446166E+02  0.22338598777E+02  0.24990533298E+02  0.36918538028E+02  0.10566000000E+00 0.  1.
         22    1    1    0    0    0 -0.31204222382E+02  0.11846974306E+00 -0.13522345929E+01  0.31233732853E+02  0.00000000000E+00 0. -1.
</event>
<event>
 5    1  0.1258624E-009  0.9118800E+02  0.7815553E-02  0.1125453E+00
         25   -1    0    0    0    0  0.00000000000E+00  0.00000000000E+00  0.99999998245E-14  0.12509000000E+03  0.12509000000E+03 0.  0.
        -13    1    3    3    0    0 -0.70218148579E+01  0.38851644395E+02  0.12508369723E+02  0.41415294678E+02  0.10566000000E+00 0.  1.
         23    2    1    0    0    0  0.17699146996E+01 -0.17792970508E+02 -0.11786421036E+02  0.10367406858E+03  0.10143801249E+03 0.  0.
         13    1    3    3    0    0  0.87917295575E+01 -0.56644614904E+02 -0.24294790759E+02  0.62258773906E+02  0.10566000000E+00 0. -1.
         22    1    1    0    0    0 -0.17699146996E+01  0.17792970508E+02  0.11786421036E+02  0.21415931416E+02  0.00000000000E+00 0. -1.
</event>
<event>
 5    1  0.1258624E-009  0.9118800E+02  0.7815553E-02  0.1125453E+00
         25   -1    0    0    0    0  0.00000000000E+00  0.00000000000E+00  0.99999998245E-14  0.12509000000E+03  0.12509000000E+03 0.  0.
        -13    1    3    3    0    0 -0.34612983690E+02 -0.17029755693E+02  0.47743809603E+01  0.38870002528E+02  0.10566000000E+00 0.  1.
         23    2    1    0    0    0 -0.23428994614E+00  0.17398754393E+02  0.27482226300E+02  0.92562406965E+02  0.86658841872E+02 0.  0.
         13    1    3    3    0    0  0.34378693744E+02  0.34428510086E+02  0.22707845340E+02  0.53692404438E+02  0.10566000000E+00 0. -1.
         22    1    1    0    0    0  0.23428994614E+00 -0.17398754393E+02 -0.27482226300E+02  0.32527593035E+02  0.00000000000E+00 0. -1.
</event>
<event>
 5    1  0.1258624E-009  0.9118800E+02  0.7815553E-02  0.1125453E+00
         25   -1    0    0    0    0  0.00000000000E+00  0.00000000000E+00  0.99999998245E-14  0.12509000000E+03  0.12509000000E+03 0.  0.
        -13    1    3    3    0    0  0.34785822158E+01 -0.25214462481E+02 -0.21667803578E+02  0.33427152561E+02  0.10566000000E+00 0. -1.
         23    2    1    0    0    0 -0.65494127753E+01  0.25138111341E+02  0.13651445222E+02  0.95744107508E+02  0.91135902455E+02 0.  0.
         13    1    3    3    0    0 -0.10027994991E+02  0.50352573822E+02  0.35319248800E+02  0.62316954947E+02  0.10566000000E+00 0.  1.
         22    1    1    0    0    0  0.65494127753E+01 -0.25138111341E+02 -0.13651445222E+02  0.29345892492E+02  0.00000000000E+00 0.  1.
</event>
<event>
 5    1  0.1258624E-009  0.9118800E+02  0.7815553E-02  0.1125453E+00
         25   -1    0    0    0    0  0.00000000000E+00  0.00000000000E+00  0.99999998245E-14  0.12509000000E+03  0.12509000000E+03 0.  0.
        -13    1    3    3    0    0  0.32767395568E+01  0.57385916054E+02 -0.38867617062E+01  0.57610749553E+02  0.10566000000E+00 0. -1.
         23    2    1    0    0    0  0.50344083423E+01  0.45235249117E+02 -0.17846694770E+02  0.76201580673E+02  0.58451718134E+02 0.  0.
         13    1    3    3    0    0  0.17576687855E+01 -0.12150666937E+02 -0.13959933064E+02  0.18590831120E+02  0.10566000000E+00 0.  1.
         22    1    1    0    0    0 -0.50344083423E+01 -0.45235249117E+02  0.17846694770E+02  0.48888419327E+02  0.00000000000E+00 0. -1.
</event>
<event>
 5    1  0.1258624E-009  0.9118800E+02  0.7815553E-02  0.1125453E+00
         25   -1    0    0    0    0  0.00000000000E+00  0.00000000000E+00  0.99999998245E-14  0.12509000000E+03  0.12509000000E+03 0.  0.
        -13    1    3    3    0    0 -0.70550214172E+00  0.34258843180E+02  0.35661869669E+02  0.49456507980E+02  0.10566000000E+00 0. -1.
         23    2    1    0    0    0 -0.10228760260E+02 -0.10651423858E+02  0.24143247490E+02  0.96788467072E+02  0.92558255127E+02 0.  0.
         13    1    3    3    0    0 -0.95232581187E+01 -0.44910267038E+02 -0.11518622178E+02  0.47331959092E+02  0.10566000000E+00 0.  1.
         22    1    1    0    0    0  0.10228760260E+02  0.10651423858E+02 -0.24143247490E+02  0.28301532928E+02  0.00000000000E+00 0. -1.
</event>
<event>
 5    1  0.1258624E-009  0.9118800E+02  0.7815553E-02  0.1125453E+00
         25   -1    0    0    0    0  0.00000000000E+00  0.00000000000E+00  0.99999998245E-14  0.12509000000E+03  0.12509000000E+03 0.  0.
        -13    1    3    3    0    0 -0.19429187124E+02 -0.18164745363E+02 -0.22716477480E+02  0.34978576294E+02  0.10566000000E+00 0. -1.
         23    2    1    0    0    0  0.21965882523E+02 -0.31673452647E+01  0.19181588103E+02  0.95756309588E+02  0.91152649072E+02 0.  0.
         13    1    3    3    0    0  0.41395069646E+02  0.14997400099E+02  0.41898065583E+02  0.60777733294E+02  0.10566000000E+00 0.  1.
         22    1    1    0    0    0 -0.21965882523E+02  0.31673452647E+01 -0.19181588103E+02  0.29333690412E+02  0.00000000000E+00 0.  1.
</event>
<event>
 5    1  0.1258624E-009  0.9118800E+02  0.7815553E-02  0.1125453E+00
         25   -1    0    0    0    0  0.00000000000E+00  0.00000000000E+00  0.99999998245E-14  0.12509000000E+03  0.12509000000E+03 0.  0.
        -13    1    3    3    0    0  0.21612105413E+02  0.23216588996E+02  0.23318127390E+02  0.39367998857E+02  0.10566000000E+00 0.  1.
         23    2    1    0    0    0  0.15271046837E+02  0.26110205996E+02 -0.23552240665E+02  0.86753910359E+02  0.77824065645E+02 0.  0.
         13    1    3    3    0    0 -0.63410585767E+01  0.28936170001E+01 -0.46870368055E+02  0.47385911502E+02  0.10566000000E+00 0. -1.
         22    1    1    0    0    0 -0.15271046837E+02 -0.26110205996E+02  0.23552240665E+02  0.38336089641E+02  0.00000000000E+00 0.  1.
</event>
<event>
 5    1  0.1258624E-009  0.9118800E+02  0.7815553E-02  0.1125453E+00
         25   -1    0    0    0    0  0.00000000000E+00  0.00000000000E+00  0.99999998245E-14  0.12509000000E+03  0.12509000000E+03 0.  0.
        -13    1    3    3    0    0  0.27627414715E+01 -0.34414451297E+02  0.45396860003E+02  0.57033965851E+02  0.10566000000E+00 0. -1.
         23    2    1    0    0    0  0.11888897031E+02 -0.24410945921E+02  0.80352687040E+01  0.96773826238E+02  0.92538466317E+02 0.  0.
         13    1    3    3    0    0  0.91261555596E+01  0.10003505376E+02 -0.37361591299E+02  0.39739860387E+02  0.10566000000E+00 0.  1.
         22    1    1    0    0    0 -0.11888897031E+02  0.24410945921E+02 -0.80352687040E+01  0.28316173762E+02  0.00000000000E+00 0. -1.
</event>
<event>
 5    1  0.1258624E-009  0.9118800E+02  0.7815553E-02  0.1125453E+00
         25   -1    0    0    0    0  0.00000000000E+00  0.00000000000E+00  0.99999998245E-14  0.12509000000E+03  0.12509000000E+03 0.  0.
        -13    1    3    3    0    0  0.17960442313E+02 -0.28615831853E+02  0.10377000800E+02  0.35343127060E+02  0.10566000000E+00 0. -1.
         23    2    1    0    0    0  0.55987489210E+00  0.18221207272E+02 -0.23231660081E+02  0.95559746285E+02  0.90882502307E+02 0.  0.
         13    1    3    3    0    0 -0.17400567421E+02  0.46837039126E+02 -0.33608660881E+02  0.60216619225E+02  0.10566000000E+00 0.  1.
         22    1    1    0    0    0 -0.55987489210E+00 -0.18221207272E+02  0.23231660081E+02  0.29530253715E+02  0.00000000000E+00 0.  1.
</event>
<event>
 5    1  0.1258624E-009  0.9118800E+02  0.7815553E-02  0.1125453E+00
         25   -1    0    0    0    0  0.00000000000E+00  0.00000000000E+00  0.99999998245E-14  0.12509000000E+03  0.12509000000E+03 0.  0.
        -13    1    3    3    0    0  0.32711677940E+02  0.15605990293E+02 -0.41281933494E+02  0.54934597511E+02  0.10566000000E+00 0. -1.
         23    2    1    0    0    0  0.26734328957E+02 -0.84168530475E+01 -0.89250380892E+01  0.95675308689E+02  0.91041422594E+02 0.  0.
         13    1    3    3    0    0 -0.59773489825E+01 -0.24022843341E+02  0.32356895405E+02  0.40740711178E+02  0.10566000000E+00 0.  1.
         22    1    1    0    0    0 -0.26734328957E+02  0.84168530475E+01  0.89250380892E+01  0.29414691311E+02  0.00000000000E+00 0. -1.
</event>
<event>
 5    1  0.1258624E-009  0.9118800E+02  0.7815553E-02  0.1125453E+00
         25   -1    0    0    0    0  0.00000000000E+00  0.00000000000E+00  0.99999998245E-14  0.12509000000E+03  0.12509000000E+03 0.  0.
        -13    1    3    3    0    0  0.15522633797E+00  0.33525519891E+02  0.13612942069E+02  0.36184360364E+02  0.10566000000E+00 0.  1.
         23    2    1    0    0    0  0.16056522038E+02 -0.17330425030E+02 -0.15432732360E+02  0.96870773225E+02  0.92669422926E+02 0.  0.
         13    1    3    3    0    0  0.15901295700E+02 -0.50855944921E+02 -0.29045674429E+02  0.60686412860E+02  0.10566000000E+00 0. -1.
         22    1    1    0    0    0 -0.16056522038E+02  0.17330425030E+02  0.15432732360E+02  0.28219226775E+02  0.00000000000E+00 0. -1.
</event>
<event>
 5    1  0.1258624E-009  0.9118800E+02  0.7815553E-02  0.1125453E+00
         25   -1    0    0    0    0  0.00000000000E+00  0.00000000000E+00  0.99999998245E-14  0.12509000000E+03  0.12509000000E+03 0.  0.
        -13    1    3    3    0    0 -0.15610954223E+02  0.32758885022E+02 -0.10225043828E+02  0.37701579874E+02  0.10566000000E+00 0.  1.
         23    2    1    0    0    0  0.30069746838E+01 -0.25467871148E+02 -0.23475114769E+01  0.99338006529E+02  0.95942036530E+02 0.  0.
         13    1    3    3    0    0  0.18617928907E+02 -0.58226756171E+02  0.78775323507E+01  0.61636426656E+02  0.10566000000E+00 0. -1.
         22    1    1    0    0    0 -0.30069746838E+01  0.25467871148E+02  0.23475114769E+01  0.25751993471E+02  0.00000000000E+00 0. -1.
</event>
<event>
 5    1  0.1258624E-009  0.9118800E+02  0.7815553E-02  0.1125453E+00
         25   -1    0    0    0    0  0.00000000000E+00  0.00000000000E+00  0.99999998245E-14  0.12509000000E+03  0.12509000000E+03 0.  0.
        -13    1    3    3    0    0 -0.78500511902E+01 -0.12933737121E+02 -0.33765251909E+02  0.37000111623E+02  0.10566000000E+00 0. -1.
         23    2    1    0    0    0 -0.45092353101E+01 -0.10829252687E+02  0.25827370549E+02  0.96723488295E+02  0.92470396352E+02 0.  0.
         13    1    3    3    0    0  0.33408158801E+01  0.21044844337E+01  0.59592622459E+02  0.59723376671E+02  0.10566000000E+00 0.  1.
         22    1    1    0    0    0  0.45092353101E+01  0.10829252687E+02 -0.25827370549E+02  0.28366511705E+02  0.00000000000E+00 0.  1.
</event>
<event>
 5    1  0.1258624E-009  0.9118800E+02  0.7815553E-02  0.1125453E+00
         25   -1    0    0    0    0  0.00000000000E+00  0.00000000000E+00  0.99999998245E-14  0.12509000000E+03  0.12509000000E+03 0.  0.
        -13    1    3    3    0    0  0.39132064222E+02 -0.25819300444E+02  0.11609326162E+02  0.48298471442E+02  0.10566000000E+00 0.  1.
         23    2    1    0    0    0  0.34628514128E+01  0.84273889736E+00  0.28826798615E+02  0.96043728860E+02  0.91546228684E+02 0.  0.
         13    1    3    3    0    0 -0.35669212809E+02  0.26662039342E+02  0.17217472452E+02  0.47745257418E+02  0.10566000000E+00 0. -1.
         22    1    1    0    0    0 -0.34628514128E+01 -0.84273889736E+00 -0.28826798615E+02  0.29046271140E+02  0.00000000000E+00 0. -1.
</event>
<event>
 5    1  0.1258624E-009  0.9118800E+02  0.7815553E-02  0.1125453E+00
         25   -1    0    0    0    0  0.00000000000E+00  0.00000000000E+00  0.99999998245E-14  0.12509000000E+03  0.12509000000E+03 0.  0.
        -13    1    3    3    0    0  0.10926925853E+02 -0.69474359022E+01  0.46023212400E+02  0.47810164378E+02  0.10566000000E+00 0. -1.
         23    2    1    0    0    0 -0.23840421222E+02 -0.94003699530E+01  0.11059932674E+02  0.97178447731E+02  0.93083811447E+02 0.  0.
         13    1    3    3    0    0 -0.34767347075E+02 -0.24529340507E+01 -0.34963279726E+02  0.49368283353E+02  0.10566000000E+00 0.  1.
         22    1    1    0    0    0  0.23840421222E+02  0.94003699530E+01 -0.11059932674E+02  0.27911552269E+02  0.00000000000E+00 0. -1.
</event>
<event>
 5    1  0.1258624E-009  0.9118800E+02  0.7815553E-02  0.1125453E+00
         25   -1    0    0    0    0  0.00000000000E+00  0.00000000000E+00  0.99999998245E-14  0.12509000000E+03  0.12509000000E+03 0.  0.
        -13    1    3    3    0    0 -0.46756236884E+02  0.10077005961E+01 -0.65384428759E-01  0.46767259779E+02  0.10566000000E+00 0. -1.
         23    2    1    0    0    0 -0.27898243092E+01  0.27006753246E+02 -0.18471657698E+01  0.97876770461E+02  0.94017563965E+02 0.  0.
         13    1    3    3    0    0  0.43966412575E+02  0.25999052650E+02 -0.17817813411E+01  0.51109510682E+02  0.10566000000E+00 0.  1.
         22    1    1    0    0    0  0.27898243092E+01 -0.27006753246E+02  0.18471657698E+01  0.27213229539E+02  0.00000000000E+00 0. -1.
</event>
<event>
 5    1  0.1258624E-009  0.9118800E+02  0.7815553E-02  0.1125453E+00
         25   -1    0    0    0    0  0.00000000000E+00  0.00000000000E+00  0.99999998245E-14  0.12509000000E+03  0.12509000000E+03 0.  0.
        -13    1    3    3    0    0 -0.29030633677E+02  0.16525443547E+02 -0.30705713369E+02  0.45373119506E+02  0.10566000000E+00 0. -1.
         23    2    1    0    0    0  0.17153293351E+01  0.31553045347E+02  0.29264232657E+01  0.93355145683E+02  0.87795684672E+02 0.  0.
         13    1    3    3    0    0  0.30745963012E+02  0.15027601800E+02  0.33632136635E+02  0.47982026177E+02  0.10566000000E+00 0.  1.
         22    1    1    0    0    0 -0.17153293351E+01 -0.31553045347E+02 -0.29264232657E+01  0.31734854317E+02  0.00000000000E+00 0. -1.
</event>
<event>
 5    1  0.1258624E-009  0.9118800E+02  0.7815553E-02  0.1125453E+00
         25   -1    0    0    0    0  0.00000000000E+00  0.00000000000E+00  0.99999998245E-14  0.12509000000E+03  0.12509000000E+03 0.  0.
        -13    1    3    3    0    0  0.76338924360E+01 -0.59350276534E+02 -0.15850059259E+02  0.61902885078E+02  0.10566000000E+00 0.  1.
         23    2    1    0    0    0  0.83638398677E+01 -0.19825219185E+02 -0.74673058486E+01  0.10231383286E+03  0.99746511740E+02 0.  0.
         13    1    3    3    0    0  0.72994743175E+00  0.39525057349E+02  0.83827534103E+01  0.40410947780E+02  0.10566000000E+00 0. -1.
         22    1    1    0    0    0 -0.83638398677E+01  0.19825219185E+02  0.74673058486E+01  0.22776167143E+02  0.00000000000E+00 0.  1.
</event>
<event>
 5    1  0.1258624E-009  0.9118800E+02  0.7815553E-02  0.1125453E+00
         25   -1    0    0    0    0  0.00000000000E+00  0.00000000000E+00  0.99999998245E-14  0.12509000000E+03  0.12509000000E+03 0.  0.
        -13    1    3    3    0    0  0.13322517674E+02 -0.37206196073E+02 -0.39053804677E+02  0.55560789476E+02  0.10566000000E+00 0. -1.
         23    2    1    0    0    0  0.21057004260E+02 -0.27677074337E+01 -0.21064920074E+02  0.95176984596E+02  0.90354136078E+02 0.  0.
         13    1    3    3    0    0  0.77344865852E+01  0.34438488639E+02  0.17988884604E+02  0.39616195120E+02  0.10566000000E+00 0.  1.
         22    1    1    0    0    0 -0.21057004260E+02  0.27677074337E+01  0.21064920074E+02  0.29913015404E+02  0.00000000000E+00 0. -1.
</event>
<event>
 5    1  0.1258624E-009  0.9118800E+02  0.7815553E-02  0.1125453E+00
         25   -1    0    0    0    0  0.00000000000E+00  0.00000000000E+00  0.99999998245E-14  0.12509000000E+03  0.12509000000E+03 0.  0.
        -13    1    3    3    0    0  0.14884745575E+02 -0.36640605799E+02  0.96725025024E+01  0.40714347752E+02  0.10566000000E+00 0.  1.
         23    2    1    0    0    0  0.11581833143E+02  0.15100251340E+02 -0.17488423537E+02  0.99244276809E+02  0.95819753037E+02 0.  0.
         13    1    3    3    0    0 -0.33029124326E+01  0.51740857139E+02 -0.27160926039E+02  0.58529929057E+02  0.10566000000E+00 0. -1.
         22    1    1    0    0    0 -0.11581833143E+02 -0.15100251340E+02  0.17488423537E+02  0.25845723191E+02  0.00000000000E+00 0. -1.
</event>
<event>
 5    1  0.1258624E-009  0.9118800E+02  0.7815553E-02  0.1125453E+00
         25   -1    0    0    0    0  0.00000000000E+00  0.00000000000E+00  0.99999998245E-14  0.12509000000E+03  0.12509000000E+03 0.  0.
        -13    1    3    3    0    0  0.32939665390E+02 -0.11935000692E+02 -0.13956398493E+02  0.37712836282E+02  0.10566000000E+00 0.  1.
         23    2    1    0    0    0 -0.85210445335E+01  0.27637525113E+02 -0.38096066994E+01  0.95918882478E+02  0.91375477664E+02 0.  0.
         13    1    3    3    0    0 -0.41460709924E+02  0.39572525805E+02  0.10146791794E+02  0.58206046195E+02  0.10566000000E+00 0. -1.
         22    1    1    0    0    0  0.85210445335E+01 -0.27637525113E+02  0.38096066994E+01  0.29171117522E+02  0.00000000000E+00 0. -1.
</event>
<event>
 5    1  0.1258624E-009  0.9118800E+02  0.7815553E-02  0.1125453E+00
         25   -1    0    0    0    0  0.00000000000E+00  0.00000000000E+00  0.99999998245E-14  0.12509000000E+03  0.12509000000E+03 0.  0.
        -13    1    3    3    0    0  0.51312805417E+02 -0.14088743436E+02 -0.83052350399E+01  0.53856148995E+02  0.10566000000E+00 0.  1.
         23    2    1    0    0    0  0.18255739917E+02  0.45436940857E+01 -0.23720959059E+02  0.94814579367E+02  0.89851006482E+02 0.  0.
         13    1    3    3    0    0 -0.33057065500E+02  0.18632437522E+02 -0.15415724019E+02  0.40958430372E+02  0.10566000000E+00 0. -1.
         22    1    1    0    0    0 -0.18255739917E+02 -0.45436940857E+01  0.23720959059E+02  0.30275420633E+02  0.00000000000E+00 0. -1.
</event>
<event>
 5    1  0.1258624E-009  0.9118800E+02  0.7815553E-02  0.1125453E+00
         25   -1    0    0    0    0  0.00000000000E+00  0.00000000000E+00  0.99999998245E-14  0.12509000000E+03  0.12509000000E+03 0.  0.
        -13    1    3    3    0    0  0.43779336616E+02  0.28480011895E+02  0.10921600265E+02  0.53357604036E+02  0.10566000000E+00 0.  1.
         23    2    1    0    0    0  0.82716281452E+01  0.26403978800E+02 -0.11195255671E+02  0.95241655353E+02  0.90443624630E+02 0.  0.
         13    1    3    3    0    0 -0.35507708471E+02 -0.20760330950E+01 -0.22116855935E+02  0.41884051317E+02  0.10566000000E+00 0. -1.
         22    1    1    0    0    0 -0.82716281452E+01 -0.26403978800E+02  0.11195255671E+02  0.29848344647E+02  0.00000000000E+00 0.  1.
</event>
<event>
 5    1  0.1258624E-009  0.9118800E+02  0.7815553E-02  0.1125453E+00
         25   -1    0    0    0    0  0.00000000000E+00  0.00000000000E+00  0.99999998245E-14  0.12509000000E+03  0.12509000000E+03 0.  0.
        -13    1    3    3    0    0  0.16469344280E+02 -0.42575228648E+01  0.32607979882E+02  0.36778489881E+02  0.10566000000E+00 0. -1.
         23    2    1    0    0    0  0.26632712975E+00 -0.18987482418E+02 -0.22245744192E+02  0.95841605969E+02  0.91269627376E+02 0.  0.
         13    1    3    3    0    0 -0.16203017150E+02 -0.14729959553E+02 -0.54853724074E+02  0.59063116088E+02  0.10566000000E+00 0.  1.
         22    1    1    0    0    0 -0.26632712975E+00  0.18987482418E+02  0.22245744192E+02  0.29248394031E+02  0.00000000000E+00 0.  1.
</event>
<event>
 5    1  0.1258624E-009  0.9118800E+02  0.7815553E-02  0.1125453E+00
         25   -1    0    0    0    0  0.00000000000E+00  0.00000000000E+00  0.99999998245E-14  0.12509000000E+03  0.12509000000E+03 0.  0.
        -13    1    3    3    0    0  0.15351478867E+02  0.72220496333E+01  0.31324682087E+02  0.35624047723E+02  0.10566000000E+00 0.  1.
         23    2    1    0    0    0  0.10318227411E+02 -0.24776788476E+02 -0.16646353438E+02  0.93507470860E+02  0.88012447754E+02 0.  0.
         13    1    3    3    0    0 -0.50332514554E+01 -0.31998838109E+02 -0.47971035526E+02  0.57883423136E+02  0.10566000000E+00 0. -1.
         22    1    1    0    0    0 -0.10318227411E+02  0.24776788476E+02  0.16646353438E+02  0.31582529140E+02  0.00000000000E+00 0. -1.
</event>
<event>
 5    1  0.1258624E-009  0.9118800E+02  0.7815553E-02  0.1125453E+00
         25   -1    0    0    0    0  0.00000000000E+00  0.00000000000E+00  0.99999998245E-14  0.12509000000E+03  0.12509000000E+03 0.  0.
        -13    1    3    3    0    0  0.38820074654E+02  0.48725014018E+01 -0.10008662292E+02  0.40384699466E+02  0.10566000000E+00 0. -1.
         23    2    1    0    0    0  0.14319782511E+02  0.84802004239E+01 -0.41459316163E+02  0.80415120402E+02  0.66863642752E+02 0.  0.
         13    1    3    3    0    0 -0.24500292143E+02  0.36076990220E+01 -0.31450653871E+02  0.40030420936E+02  0.10566000000E+00 0.  1.
         22    1    1    0    0    0 -0.14319782511E+02 -0.84802004239E+01  0.41459316163E+02  0.44674879598E+02  0.00000000000E+00 0.  1.
</event>
<event>
 5    1  0.1258624E-009  0.9118800E+02  0.7815553E-02  0.1125453E+00
         25   -1    0    0    0    0  0.00000000000E+00  0.00000000000E+00  0.99999998245E-14  0.12509000000E+03  0.12509000000E+03 0.  0.
        -13    1    3    3    0    0 -0.23895825190E+02 -0.27453350346E+02 -0.38232567037E+01  0.36596794431E+02  0.10566000000E+00 0.  1.
         23    2    1    0    0    0 -0.20407692715E+01  0.26742727280E+02  0.96846302841E+01  0.96574560930E+02  0.92268713839E+02 0.  0.
         13    1    3    3    0    0  0.21855055919E+02  0.54196077627E+02  0.13507886988E+02  0.59977766499E+02  0.10566000000E+00 0. -1.
         22    1    1    0    0    0  0.20407692715E+01 -0.26742727280E+02 -0.96846302841E+01  0.28515439070E+02  0.00000000000E+00 0. -1.
</event>
<event>
 5    1  0.1258624E-009  0.9118800E+02  0.7815553E-02  0.1125453E+00
         25   -1    0    0    0    0  0.00000000000E+00  0.00000000000E+00  0.99999998245E-14  0.12509000000E+03  0.12509000000E+03 0.  0.
        -13    1    3    3    0    0 -0.22173921947E+02 -0.26989250498E+02  0.12066576954E+02  0.36955593627E+02  0.10566000000E+00 0. -1.
         23    2    1    0    0    0  0.51827960363E+01  0.97560793973E+01 -0.26206474889E+02  0.96650207700E+02  0.92371212303E+02 0.  0.
         13    1    3    3    0    0  0.27356717983E+02  0.36745329895E+02 -0.38273051843E+02  0.59694614073E+02  0.10566000000E+00 0.  1.
         22    1    1    0    0    0 -0.51827960363E+01 -0.97560793973E+01  0.26206474889E+02  0.28439792300E+02  0.00000000000E+00 0.  1.
</event>
<event>
 5    1  0.1258624E-009  0.9118800E+02  0.7815553E-02  0.1125453E+00
         25   -1    0    0    0    0  0.00000000000E+00  0.00000000000E+00  0.99999998245E-14  0.12509000000E+03  0.12509000000E+03 0.  0.
        -13    1    3    3    0    0  0.54753236431E+02  0.12439680137E+02  0.14166988525E+02  0.57908352329E+02  0.10566000000E+00 0.  1.
         23    2    1    0    0    0  0.24535315273E+02  0.12730007572E+02 -0.90372740185E+01  0.96008956174E+02  0.91498702480E+02 0.  0.
         13    1    3    3    0    0 -0.30217921158E+02  0.29032743470E+00 -0.23204262543E+02  0.38100603845E+02  0.10566000000E+00 0. -1.
         22    1    1    0    0    0 -0.24535315273E+02 -0.12730007572E+02  0.90372740185E+01  0.29081043826E+02  0.00000000000E+00 0.  1.
</event>
<event>
 5    1  0.1258624E-009  0.9118800E+02  0.7815553E-02  0.1125453E+00
         25   -1    0    0    0    0  0.00000000000E+00  0.00000000000E+00  0.99999998245E-14  0.12509000000E+03  0.12509000000E+03 0.  0.
        -13    1    3    3    0    0  0.55878192312E+02 -0.11702231938E+02  0.20916074659E+02  0.60801381165E+02  0.10566000000E+00 0.  1.
         23    2    1    0    0    0  0.29469798004E+02 -0.66609422990E+01 -0.19660926136E-01  0.94876798692E+02  0.89937586118E+02 0.  0.
         13    1    3    3    0    0 -0.26408394308E+02  0.50412896386E+01 -0.20935735585E+02  0.34075417527E+02  0.10566000000E+00 0. -1.
         22    1    1    0    0    0 -0.29469798004E+02  0.66609422990E+01  0.19660926136E-01  0.30213201308E+02  0.00000000000E+00 0.  1.
</event>
<event>
 5    1  0.1258624E-009  0.9118800E+02  0.7815553E-02  0.1125453E+00
         25   -1    0    0    0    0  0.00000000000E+00  0.00000000000E+00  0.99999998245E-14  0.12509000000E+03  0.12509000000E+03 0.  0.
        -13    1    3    3    0    0 -0.27464057952E+02  0.14952515185E+02  0.47158753852E+02  0.56584551058E+02  0.10566000000E+00 0. -1.
         23    2    1    0    0    0 -0.23902523059E+02 -0.72097429704E+01  0.14484422383E+02  0.96226363811E+02  0.91795444322E+02 0.  0.
         13    1    3    3    0    0  0.35615348932E+01 -0.22162258155E+02 -0.32674331469E+02  0.39641812753E+02  0.10566000000E+00 0.  1.
         22    1    1    0    0    0  0.23902523059E+02  0.72097429704E+01 -0.14484422383E+02  0.28863636189E+02  0.00000000000E+00 0. -1.
</event>
<event>
 5    1  0.1258624E-009  0.9118800E+02  0.7815553E-02  0.1125453E+00
         25   -1    0    0    0    0  0.00000000000E+00  0.00000000000E+00  0.99999998245E-14  0.12509000000E+03  0.12509000000E+03 0.  0.
        -13    1    3    3    0    0 -0.27593540217E+02 -0.26291680828E+00  0.52021271306E+02  0.58887149866E+02  0.10566000000E+00 0.  1.
         23    2    1    0    0    0 -0.20221206590E+02  0.11010233223E+02  0.16824195356E+02  0.96573759347E+02  0.92267627115E+02 0.  0.
         13    1    3    3    0    0  0.73723336273E+01  0.11273150031E+02 -0.35197075950E+02  0.37686609481E+02  0.10566000000E+00 0. -1.
         22    1    1    0    0    0  0.20221206590E+02 -0.11010233223E+02 -0.16824195356E+02  0.28516240653E+02  0.00000000000E+00 0.  1.
</event>
<event>
 5    1  0.1258624E-009  0.9118800E+02  0.7815553E-02  0.1125453E+00
         25   -1    0    0    0    0  0.00000000000E+00  0.00000000000E+00  0.99999998245E-14  0.12509000000E+03  0.12509000000E+03 0.  0.
        -13    1    3    3    0    0 -0.13630669752E+02  0.27943139253E+02 -0.28697777556E+02  0.42310610842E+02  0.10566000000E+00 0. -1.
         23    2    1    0    0    0 -0.25032474841E+02 -0.15899164440E+02 -0.97874448774E+00  0.95419034944E+02  0.90688621460E+02 0.  0.
         13    1    3    3    0    0 -0.11401805090E+02 -0.43842303692E+02  0.27719033068E+02  0.53108424102E+02  0.10566000000E+00 0.  1.
         22    1    1    0    0    0  0.25032474841E+02  0.15899164440E+02  0.97874448774E+00  0.29670965056E+02  0.00000000000E+00 0. -1.
</event>
<event>
 5    1  0.1258624E-009  0.9118800E+02  0.7815553E-02  0.1125453E+00
         25   -1    0    0    0    0  0.00000000000E+00  0.00000000000E+00  0.99999998245E-14  0.12509000000E+03  0.12509000000E+03 0.  0.
        -13    1    3    3    0    0 -0.37492363696E+02  0.87821968193E+01  0.29654922940E+02  0.48602777031E+02  0.10566000000E+00 0.  1.
         23    2    1    0    0    0 -0.15285032590E+01  0.29042099369E+02  0.14675480255E+02  0.92514709077E+02  0.86589963720E+02 0.  0.
         13    1    3    3    0    0  0.35963860437E+02  0.20259902550E+02 -0.14979442685E+02  0.43911932047E+02  0.10566000000E+00 0. -1.
         22    1    1    0    0    0  0.15285032590E+01 -0.29042099369E+02 -0.14675480255E+02  0.32575290923E+02  0.00000000000E+00 0. -1.
</event>
<event>
 5    1  0.1258624E-009  0.9118800E+02  0.7815553E-02  0.1125453E+00
         25   -1    0    0    0    0  0.00000000000E+00  0.00000000000E+00  0.99999998245E-14  0.12509000000E+03  0.12509000000E+03 0.  0.
        -13    1    3    3    0    0  0.34139082854E+02 -0.34760404504E+02  0.38293365129E+02  0.61968989635E+02  0.10566000000E+00 0.  1.
         23    2    1    0    0    0  0.18057471754E+02 -0.19636801134E+02  0.13415604840E+02  0.95229412294E+02  0.90426690018E+02 0.  0.
         13    1    3    3    0    0 -0.16081611100E+02  0.15123603370E+02 -0.24877760289E+02  0.33260422659E+02  0.10566000000E+00 0. -1.
         22    1    1    0    0    0 -0.18057471754E+02  0.19636801134E+02 -0.13415604840E+02  0.29860587706E+02  0.00000000000E+00 0.  1.
</event>
<event>
 5    1  0.1258624E-009  0.9118800E+02  0.7815553E-02  0.1125453E+00
         25   -1    0    0    0    0  0.00000000000E+00  0.00000000000E+00  0.99999998245E-14  0.12509000000E+03  0.12509000000E+03 0.  0.
        -13    1    3    3    0    0  0.17353792805E+02 -0.24832699128E+02 -0.34761086434E+02  0.46110317336E+02  0.10566000000E+00 0. -1.
         23    2    1    0    0    0  0.29270867868E+02  0.89266092804E+01 -0.23584295419E+01  0.94397488717E+02  0.89268446985E+02 0.  0.
         13    1    3    3    0    0  0.11917075063E+02  0.33759308408E+02  0.32402656892E+02  0.48287171381E+02  0.10566000000E+00 0.  1.
         22    1    1    0    0    0 -0.29270867868E+02 -0.89266092804E+01  0.23584295419E+01  0.30692511283E+02  0.00000000000E+00 0.  1.
</event>
<event>
 5    1  0.1258624E-009  0.9118800E+02  0.7815553E-02  0.1125453E+00
         25   -1    0    0    0    0  0.00000000000E+00  0.00000000000E+00  0.99999998245E-14  0.12509000000E+03  0.12509000000E+03 0.  0.
        -13    1    3    3    0    0 -0.12460619568E+02  0.40214010057E+02  0.80554077951E+01  0.42864138900E+02  0.10566000000E+00 0.  1.
         23    2    1    0    0    0 -0.42745212286E+01 -0.11013774089E+01 -0.27042413360E+02  0.97689695544E+02  0.93768331175E+02 0.  0.
         13    1    3    3    0    0  0.81860983394E+01 -0.41315387466E+02 -0.35097821155E+02  0.54825556644E+02  0.10566000000E+00 0. -1.
         22    1    1    0    0    0  0.42745212286E+01  0.11013774089E+01  0.27042413360E+02  0.27400304456E+02  0.00000000000E+00 0. -1.
</event>
<event>
 5    1  0.1258624E-009  0.9118800E+02  0.7815553E-02  0.1125453E+00
         25   -1    0    0    0    0  0.00000000000E+00  0.00000000000E+00  0.99999998245E-14  0.12509000000E+03  0.12509000000E+03 0.  0.
        -13    1    3    3    0    0 -0.47378307170E+00 -0.78656455483E+01  0.29654132808E+02  0.30683409311E+02  0.10566000000E+00 0.  1.
         23    2    1    0    0    0 -0.11062232630E+02 -0.27363433281E+01 -0.30788329218E+02  0.92260413015E+02  0.86221818747E+02 0.  0.
         13    1    3    3    0    0 -0.10588449559E+02  0.51293022201E+01 -0.60442462026E+02  0.61577003704E+02  0.10566000000E+00 0. -1.
         22    1    1    0    0    0  0.11062232630E+02  0.27363433281E+01  0.30788329218E+02  0.32829586985E+02  0.00000000000E+00 0. -1.
</event>
<event>
 5    1  0.1258624E-009  0.9118800E+02  0.7815553E-02  0.1125453E+00
         25   -1    0    0    0    0  0.00000000000E+00  0.00000000000E+00  0.99999998245E-14  0.12509000000E+03  0.12509000000E+03 0.  0.
        -13    1    3    3    0    0  0.22785540687E+02 -0.22109345531E+02  0.16902781853E+02  0.35968308587E+02  0.10566000000E+00 0. -1.
         23    2    1    0    0    0 -0.19928389523E+02  0.19392342818E+02  0.77536704954E+01  0.96222664218E+02  0.91790402735E+02 0.  0.
         13    1    3    3    0    0 -0.42713930210E+02  0.41501688350E+02 -0.91491113574E+01  0.60254355631E+02  0.10566000000E+00 0.  1.
         22    1    1    0    0    0  0.19928389523E+02 -0.19392342818E+02 -0.77536704954E+01  0.28867335782E+02  0.00000000000E+00 0.  1.
</event>
<event>
 5    1  0.1258624E-009  0.9118800E+02  0.7815553E-02  0.1125453E+00
         25   -1    0    0    0    0  0.00000000000E+00  0.00000000000E+00  0.99999998245E-14  0.12509000000E+03  0.12509000000E+03 0.  0.
        -13    1    3    3    0    0 -0.27972052102E+02 -0.51789357216E+02  0.38739936383E+01  0.58988068373E+02  0.10566000000E+00 0.  1.
         23    2    1    0    0    0  0.40968828460E+00 -0.29985147483E+02 -0.85661633371E+00  0.95089821573E+02  0.90233383297E+02 0.  0.
         13    1    3    3    0    0  0.28381740387E+02  0.21804209732E+02 -0.47306099720E+01  0.36101753201E+02  0.10566000000E+00 0. -1.
         22    1    1    0    0    0 -0.40968828460E+00  0.29985147483E+02  0.85661633371E+00  0.30000178427E+02  0.00000000000E+00 0.  1.
</event>
<event>
 5    1  0.1258624E-009  0.9118800E+02  0.7815553E-02  0.1125453E+00
         25   -1    0    0    0    0  0.00000000000E+00  0.00000000000E+00  0.99999998245E-14  0.12509000000E+03  0.12509000000E+03 0.  0.
        -13    1    3    3    0    0 -0.51071960689E+01  0.14058702166E+02 -0.28642897020E+02  0.32313422474E+02  0.10566000000E+00 0. -1.
         23    2    1    0    0    0  0.35234843702E+01 -0.16183692626E+02  0.25356304860E+02  0.94803550137E+02  0.89835650348E+02 0.  0.
         13    1    3    3    0    0  0.86306804390E+01 -0.30242394792E+02  0.53999201880E+02  0.62490127663E+02  0.10566000000E+00 0.  1.
         22    1    1    0    0    0 -0.35234843702E+01  0.16183692626E+02 -0.25356304860E+02  0.30286449863E+02  0.00000000000E+00 0.  1.
</event>
<event>
 5    1  0.1258624E-009  0.9118800E+02  0.7815553E-02  0.1125453E+00
         25   -1    0    0    0    0  0.00000000000E+00  0.00000000000E+00  0.99999998245E-14  0.12509000000E+03  0.12509000000E+03 0.  0.
        -13    1    3    3    0    0 -0.51092816181E+01 -0.37081795783E+02  0.12651476727E+02  0.39512471000E+02  0.10566000000E+00 0. -1.
         23    2    1    0    0    0  0.25031860958E+02  0.70678663582E+01 -0.95291878197E+01  0.97388840848E+02  0.93366118604E+02 0.  0.
         13    1    3    3    0    0  0.30141142576E+02  0.44149662141E+02 -0.22180664547E+02  0.57876369848E+02  0.10566000000E+00 0.  1.
         22    1    1    0    0    0 -0.25031860958E+02 -0.70678663582E+01  0.95291878197E+01  0.27701159152E+02  0.00000000000E+00 0.  1.
</event>
<event>
 5    1  0.1258624E-009  0.9118800E+02  0.7815553E-02  0.1125453E+00
         25   -1    0    0    0    0  0.00000000000E+00  0.00000000000E+00  0.99999998245E-14  0.12509000000E+03  0.12509000000E+03 0.  0.
        -13    1    3    3    0    0  0.37975952883E+02  0.45536662891E+02  0.75656722986E+00  0.59298770835E+02  0.10566000000E+00 0.  1.
         23    2    1    0    0    0  0.21066739633E+02  0.17683508909E+02 -0.12999824648E+02  0.94667813245E+02  0.89646446765E+02 0.  0.
         13    1    3    3    0    0 -0.16909213250E+02 -0.27853153982E+02 -0.13756391878E+02  0.35369042410E+02  0.10566000000E+00 0. -1.
         22    1    1    0    0    0 -0.21066739633E+02 -0.17683508909E+02  0.12999824648E+02  0.30422186755E+02  0.00000000000E+00 0.  1.
</event>
<event>
 5    1  0.1258624E-009  0.9118800E+02  0.7815553E-02  0.1125453E+00
         25   -1    0    0    0    0  0.00000000000E+00  0.00000000000E+00  0.99999998245E-14  0.12509000000E+03  0.12509000000E+03 0.  0.
        -13    1    3    3    0    0 -0.64591928743E+01  0.22967635000E+02  0.42152819841E+02  0.48436606143E+02  0.10566000000E+00 0.  1.
         23    2    1    0    0    0  0.13043968834E+02  0.27760858011E+02  0.80179150733E+00  0.94406890150E+02  0.89281620045E+02 0.  0.
         13    1    3    3    0    0  0.19503161708E+02  0.47932230107E+01 -0.41351028333E+02  0.45970284007E+02  0.10566000000E+00 0. -1.
         22    1    1    0    0    0 -0.13043968834E+02 -0.27760858011E+02 -0.80179150733E+00  0.30683109850E+02  0.00000000000E+00 0.  1.
</event>
<event>
 5    1  0.1258624E-009  0.9118800E+02  0.7815553E-02  0.1125453E+00
         25   -1    0    0    0    0  0.00000000000E+00  0.00000000000E+00  0.99999998245E-14  0.12509000000E+03  0.12509000000E+03 0.  0.
        -13    1    3    3    0    0 -0.49313098456E+01  0.11999284729E+02  0.48900627390E+02  0.50592323271E+02  0.10566000000E+00 0.  1.
         23    2    1    0    0    0 -0.23564441908E+02  0.19735445046E+02  0.13118510171E+02  0.91670454481E+02  0.85361620193E+02 0.  0.
         13    1    3    3    0    0 -0.18633132062E+02  0.77361603176E+01 -0.35782117220E+02  0.41078131209E+02  0.10566000000E+00 0. -1.
         22    1    1    0    0    0  0.23564441908E+02 -0.19735445046E+02 -0.13118510171E+02  0.33419545519E+02  0.00000000000E+00 0. -1.
</event>
<event>
 5    1  0.1258624E-009  0.9118800E+02  0.7815553E-02  0.1125453E+00
         25   -1    0    0    0    0  0.00000000000E+00  0.00000000000E+00  0.99999998245E-14  0.12509000000E+03  0.12509000000E+03 0.  0.
        -13    1    3    3    0    0 -0.72921898262E+01 -0.40088451492E+02 -0.28767560307E+02  0.49878288518E+02  0.10566000000E+00 0. -1.
         23    2    1    0    0    0  0.12807038956E+02  0.81125422770E+00 -0.26664223491E+02  0.95498460760E+02  0.90798110183E+02 0.  0.
         13    1    3    3    0    0  0.20099228782E+02  0.40899705719E+02  0.21033368156E+01  0.45620172242E+02  0.10566000000E+00 0.  1.
         22    1    1    0    0    0 -0.12807038956E+02 -0.81125422770E+00  0.26664223491E+02  0.29591539240E+02  0.00000000000E+00 0. -1.
</event>
<event>
 5    1  0.1258624E-009  0.9118800E+02  0.7815553E-02  0.1125453E+00
         25   -1    0    0    0    0  0.00000000000E+00  0.00000000000E+00  0.99999998245E-14  0.12509000000E+03  0.12509000000E+03 0.  0.
        -13    1    3    3    0    0 -0.79399419598E+01  0.35961035060E+02  0.27574541154E+02  0.46006577843E+02  0.10566000000E+00 0. -1.
         23    2    1    0    0    0 -0.27353909876E+02  0.20508485142E+00 -0.39164267330E+01  0.97456382002E+02  0.93456565041E+02 0.  0.
         13    1    3    3    0    0 -0.19413967916E+02 -0.35755950208E+02 -0.31490967887E+02  0.51449804160E+02  0.10566000000E+00 0.  1.
         22    1    1    0    0    0  0.27353909876E+02 -0.20508485142E+00  0.39164267330E+01  0.27633617998E+02  0.00000000000E+00 0.  1.
</event>
<event>
 5    1  0.1258624E-009  0.9118800E+02  0.7815553E-02  0.1125453E+00
         25   -1    0    0    0    0  0.00000000000E+00  0.00000000000E+00  0.99999998245E-14  0.12509000000E+03  0.12509000000E+03 0.  0.
        -13    1    3    3    0    0  0.72049075100E+01 -0.14227531445E+02 -0.59867273866E+02  0.61955104612E+02  0.10566000000E+00 0. -1.
         23    2    1    0    0    0  0.12274637567E+01 -0.16888609498E+01 -0.31298164949E+02  0.93722276975E+02  0.88317218897E+02 0.  0.
         13    1    3    3    0    0 -0.59774437532E+01  0.12538670495E+02  0.28569108917E+02  0.31767172364E+02  0.10566000000E+00 0.  1.
         22    1    1    0    0    0 -0.12274637567E+01  0.16888609498E+01  0.31298164949E+02  0.31367723025E+02  0.00000000000E+00 0. -1.
</event>
<event>
 5    1  0.1258624E-009  0.9118800E+02  0.7815553E-02  0.1125453E+00
         25   -1    0    0    0    0  0.00000000000E+00  0.00000000000E+00  0.99999998245E-14  0.12509000000E+03  0.12509000000E+03 0.  0.
        -13    1    3    3    0    0  0.23750421923E+02 -0.31921166104E+02 -0.83853326263E+01  0.40661632459E+02  0.10566000000E+00 0. -1.
         23    2    1    0    0    0  0.18387007257E+02  0.15958724488E+02  0.17264347211E+02  0.95243381971E+02  0.90446012635E+02 0.  0.
         13    1    3    3    0    0 -0.53634146657E+01  0.47879890592E+02  0.25649679837E+02  0.54581749512E+02  0.10566000000E+00 0.  1.
         22    1    1    0    0    0 -0.18387007257E+02 -0.15958724488E+02 -0.17264347211E+02  0.29846618029E+02  0.00000000000E+00 0.  1.
</event>
<event>
 5    1  0.1258624E-009  0.9118800E+02  0.7815553E-02  0.1125453E+00
         25   -1    0    0    0    0  0.00000000000E+00  0.00000000000E+00  0.99999998245E-14  0.12509000000E+03  0.12509000000E+03 0.  0.
        -13    1    3    3    0    0 -0.88025665389E+00 -0.48742513837E+02  0.89895360218E+01  0.49572476525E+02  0.10566000000E+00 0. -1.
         23    2    1    0    0    0  0.86381802763E+01 -0.74597522845E+01  0.27128567738E+02  0.95658295154E+02  0.91018043165E+02 0.  0.
         13    1    3    3    0    0  0.95184369302E+01  0.41282761552E+02  0.18139031716E+02  0.46085818628E+02  0.10566000000E+00 0.  1.
         22    1    1    0    0    0 -0.86381802763E+01  0.74597522845E+01 -0.27128567738E+02  0.29431704846E+02  0.00000000000E+00 0. -1.
</event>
<event>
 5    1  0.1258624E-009  0.9118800E+02  0.7815553E-02  0.1125453E+00
         25   -1    0    0    0    0  0.00000000000E+00  0.00000000000E+00  0.99999998245E-14  0.12509000000E+03  0.12509000000E+03 0.  0.
        -13    1    3    3    0    0 -0.14446772452E+02  0.35915015151E+02 -0.48481831708E+02  0.62041088945E+02  0.10566000000E+00 0. -1.
         23    2    1    0    0    0 -0.29780339040E+01  0.20712788393E+02 -0.21293313680E+02  0.95235461042E+02  0.90435057049E+02 0.  0.
         13    1    3    3    0    0  0.11468738548E+02 -0.15202226759E+02  0.27188518028E+02  0.33194372097E+02  0.10566000000E+00 0.  1.
         22    1    1    0    0    0  0.29780339040E+01 -0.20712788393E+02  0.21293313680E+02  0.29854538958E+02  0.00000000000E+00 0. -1.
</event>
<event>
 5    1  0.1258624E-009  0.9118800E+02  0.7815553E-02  0.1125453E+00
         25   -1    0    0    0    0  0.00000000000E+00  0.00000000000E+00  0.99999998245E-14  0.12509000000E+03  0.12509000000E+03 0.  0.
        -13    1    3    3    0    0  0.13299774091E+02  0.16858200838E+02  0.25542568667E+02  0.33369400722E+02  0.10566000000E+00 0.  1.
         23    2    1    0    0    0 -0.38567608987E+01 -0.19295139512E+02 -0.22041149135E+02  0.95543608197E+02  0.90860287248E+02 0.  0.
         13    1    3    3    0    0 -0.17156534990E+02 -0.36153340350E+02 -0.47583717802E+02  0.62174207475E+02  0.10566000000E+00 0. -1.
         22    1    1    0    0    0  0.38567608987E+01  0.19295139512E+02  0.22041149135E+02  0.29546391803E+02  0.00000000000E+00 0. -1.
</event>
<event>
 5    1  0.1258624E-009  0.9118800E+02  0.7815553E-02  0.1125453E+00
         25   -1    0    0    0    0  0.00000000000E+00  0.00000000000E+00  0.99999998245E-14  0.12509000000E+03  0.12509000000E+03 0.  0.
        -13    1    3    3    0    0  0.10314231736E+02  0.92958476096E+01  0.29169082681E+02  0.32305459408E+02  0.10566000000E+00 0. -1.
         23    2    1    0    0    0 -0.13037858247E+02 -0.21016612488E+02 -0.19056630199E+02  0.93867589736E+02  0.88522796500E+02 0.  0.
         13    1    3    3    0    0 -0.23352089983E+02 -0.30312460098E+02 -0.48225712880E+02  0.61562130328E+02  0.10566000000E+00 0.  1.
         22    1    1    0    0    0  0.13037858247E+02  0.21016612488E+02  0.19056630199E+02  0.31222410264E+02  0.00000000000E+00 0.  1.
</event>
<event>
 5    1  0.1258624E-009  0.9118800E+02  0.7815553E-02  0.1125453E+00
         25   -1    0    0    0    0  0.00000000000E+00  0.00000000000E+00  0.99999998245E-14  0.12509000000E+03  0.12509000000E+03 0.  0.
        -13    1    3    3    0    0  0.26684882842E+02 -0.40662305205E+02  0.37733476783E+02  0.61557554135E+02  0.10566000000E+00 0.  1.
         23    2    1    0    0    0  0.84387877294E+01 -0.24899242603E+02  0.14386462805E+02  0.95120753553E+02  0.90276253931E+02 0.  0.
         13    1    3    3    0    0 -0.18246095113E+02  0.15763062602E+02 -0.23347013978E+02  0.33563199418E+02  0.10566000000E+00 0. -1.
         22    1    1    0    0    0 -0.84387877294E+01  0.24899242603E+02 -0.14386462805E+02  0.29969246447E+02  0.00000000000E+00 0.  1.
</event>
<event>
 5    1  0.1258624E-009  0.9118800E+02  0.7815553E-02  0.1125453E+00
         25   -1    0    0    0    0  0.00000000000E+00  0.00000000000E+00  0.99999998245E-14  0.12509000000E+03  0.12509000000E+03 0.  0.
        -13    1    3    3    0    0  0.58233563682E+02  0.12909036733E+01 -0.70686463525E+01  0.58675303976E+02  0.10566000000E+00 0. -1.
         23    2    1    0    0    0  0.27694203046E+02  0.29098401392E+01  0.12056430482E+02  0.94745419463E+02  0.89754670861E+02 0.  0.
         13    1    3    3    0    0 -0.30539360636E+02  0.16189364659E+01  0.19125076834E+02  0.36070115487E+02  0.10566000000E+00 0.  1.
         22    1    1    0    0    0 -0.27694203046E+02 -0.29098401392E+01 -0.12056430482E+02  0.30344580537E+02  0.00000000000E+00 0. -1.
</event>
<event>
 5    1  0.1258624E-009  0.9118800E+02  0.7815553E-02  0.1125453E+00
         25   -1    0    0    0    0  0.00000000000E+00  0.00000000000E+00  0.99999998245E-14  0.12509000000E+03  0.12509000000E+03 0.  0.
        -13    1    3    3    0    0  0.15697629833E+02  0.77683155236E+01  0.24947341592E+02  0.30481852388E+02  0.10566000000E+00 0. -1.
         23    2    1    0    0    0 -0.21636851648E+02 -0.14812716305E+02 -0.19229264882E+02  0.92573319028E+02  0.86674591746E+02 0.  0.
         13    1    3    3    0    0 -0.37334481480E+02 -0.22581031828E+02 -0.44176606475E+02  0.62091466640E+02  0.10566000000E+00 0.  1.
         22    1    1    0    0    0  0.21636851648E+02  0.14812716305E+02  0.19229264882E+02  0.32516680972E+02  0.00000000000E+00 0.  1.
</event>
<event>
 5    1  0.1258624E-009  0.9118800E+02  0.7815553E-02  0.1125453E+00
         25   -1    0    0    0    0  0.00000000000E+00  0.00000000000E+00  0.99999998245E-14  0.12509000000E+03  0.12509000000E+03 0.  0.
        -13    1    3    3    0    0 -0.25362482040E+01 -0.26555283204E+02  0.19363779445E+02  0.32963354493E+02  0.10566000000E+00 0. -1.
         23    2    1    0    0    0  0.14714366585E+02  0.19273800090E+02 -0.18275380376E+02  0.94725852032E+02  0.89727395824E+02 0.  0.
         13    1    3    3    0    0  0.17250614789E+02  0.45829083294E+02 -0.37639159821E+02  0.61762497539E+02  0.10566000000E+00 0.  1.
         22    1    1    0    0    0 -0.14714366585E+02 -0.19273800090E+02  0.18275380376E+02  0.30364147968E+02  0.00000000000E+00 0.  1.
</event>
<event>
 5    1  0.1258624E-009  0.9118800E+02  0.7815553E-02  0.1125453E+00
         25   -1    0    0    0    0  0.00000000000E+00  0.00000000000E+00  0.99999998245E-14  0.12509000000E+03  0.12509000000E+03 0.  0.
        -13    1    3    3    0    0 -0.33851602433E+02  0.29962099440E+02 -0.33302667623E+01  0.45329463166E+02  0.10566000000E+00 0.  1.
         23    2    1    0    0    0  0.15491712004E+02  0.25813046387E+02  0.34351636893E+00  0.94983115271E+02  0.90085335535E+02 0.  0.
         13    1    3    3    0    0  0.49343314437E+02 -0.41490530534E+01  0.36737831313E+01  0.49653652106E+02  0.10566000000E+00 0. -1.
         22    1    1    0    0    0 -0.15491712004E+02 -0.25813046387E+02 -0.34351636893E+00  0.30106884729E+02  0.00000000000E+00 0. -1.
</event>
<event>
 5    1  0.1258624E-009  0.9118800E+02  0.7815553E-02  0.1125453E+00
         25   -1    0    0    0    0  0.00000000000E+00  0.00000000000E+00  0.99999998245E-14  0.12509000000E+03  0.12509000000E+03 0.  0.
        -13    1    3    3    0    0  0.20834726970E+02 -0.49313889402E+01 -0.51786616375E+02  0.56038105290E+02  0.10566000000E+00 0.  1.
         23    2    1    0    0    0  0.23283244383E+02  0.10811989546E+02 -0.16999164878E+02  0.94300713008E+02  0.89132734057E+02 0.  0.
         13    1    3    3    0    0  0.24485174129E+01  0.15743378486E+02  0.34787451498E+02  0.38262607719E+02  0.10566000000E+00 0. -1.
         22    1    1    0    0    0 -0.23283244383E+02 -0.10811989546E+02  0.16999164878E+02  0.30789286992E+02  0.00000000000E+00 0.  1.
</event>
<event>
 5    1  0.1258624E-009  0.9118800E+02  0.7815553E-02  0.1125453E+00
         25   -1    0    0    0    0  0.00000000000E+00  0.00000000000E+00  0.99999998245E-14  0.12509000000E+03  0.12509000000E+03 0.  0.
        -13    1    3    3    0    0  0.35837570172E+02  0.16002725465E+02 -0.42769979504E+02  0.58049125479E+02  0.10566000000E+00 0. -1.
         23    2    1    0    0    0  0.27082605445E+02 -0.47529307788E+01 -0.15131700920E+02  0.93704872289E+02  0.88292563952E+02 0.  0.
         13    1    3    3    0    0 -0.87549647267E+01 -0.20755656243E+02  0.27638278584E+02  0.35655746810E+02  0.10566000000E+00 0.  1.
         22    1    1    0    0    0 -0.27082605445E+02  0.47529307788E+01  0.15131700920E+02  0.31385127711E+02  0.00000000000E+00 0. -1.
</event>
<event>
 5    1  0.1258624E-009  0.9118800E+02  0.7815553E-02  0.1125453E+00
         25   -1    0    0    0    0  0.00000000000E+00  0.00000000000E+00  0.99999998245E-14  0.12509000000E+03  0.12509000000E+03 0.  0.
        -13    1    3    3    0    0  0.35780842501E+02 -0.28614855179E+02 -0.61985570352E+01  0.46233233722E+02  0.10566000000E+00 0.  1.
         23    2    1    0    0    0 -0.76968101180E+01 -0.33519842190E+02 -0.69932754975E+01  0.89994037146E+02  0.82868571324E+02 0.  0.
         13    1    3    3    0    0 -0.43477652620E+02 -0.49049870114E+01 -0.79471846222E+00  0.43760803424E+02  0.10566000000E+00 0. -1.
         22    1    1    0    0    0  0.76968101180E+01  0.33519842190E+02  0.69932754975E+01  0.35095962854E+02  0.00000000000E+00 0.  1.
</event>
<event>
 5    1  0.1258624E-009  0.9118800E+02  0.7815553E-02  0.1125453E+00
         25   -1    0    0    0    0  0.00000000000E+00  0.00000000000E+00  0.99999998245E-14  0.12509000000E+03  0.12509000000E+03 0.  0.
        -13    1    3    3    0    0  0.25307354492E+02 -0.10737195535E+02  0.33447319454E+02  0.43295310393E+02  0.10566000000E+00 0.  1.
         23    2    1    0    0    0  0.10959984212E+02 -0.15159728760E+02 -0.19344150527E+02  0.98180247314E+02  0.94420475391E+02 0.  0.
         13    1    3    3    0    0 -0.14347370280E+02 -0.44225332256E+01 -0.52791469981E+02  0.54884936921E+02  0.10566000000E+00 0. -1.
         22    1    1    0    0    0 -0.10959984212E+02  0.15159728760E+02  0.19344150527E+02  0.26909752686E+02  0.00000000000E+00 0.  1.
</event>
<event>
 5    1  0.1258624E-009  0.9118800E+02  0.7815553E-02  0.1125453E+00
         25   -1    0    0    0    0  0.00000000000E+00  0.00000000000E+00  0.99999998245E-14  0.12509000000E+03  0.12509000000E+03 0.  0.
        -13    1    3    3    0    0 -0.26002856516E+02  0.47832702260E+02  0.86022153245E+01  0.55119191077E+02  0.10566000000E+00 0. -1.
         23    2    1    0    0    0 -0.53145741675E+01  0.15371739109E+02  0.23597711840E+02  0.96430148886E+02  0.92072724236E+02 0.  0.
         13    1    3    3    0    0  0.20688282348E+02 -0.32460963152E+02  0.14995496516E+02  0.41310957808E+02  0.10566000000E+00 0.  1.
         22    1    1    0    0    0  0.53145741675E+01 -0.15371739109E+02 -0.23597711840E+02  0.28659851114E+02  0.00000000000E+00 0. -1.
</event>
<event>
 5    1  0.1258624E-009  0.9118800E+02  0.7815553E-02  0.1125453E+00
         25   -1    0    0    0    0  0.00000000000E+00  0.00000000000E+00  0.99999998245E-14  0.12509000000E+03  0.12509000000E+03 0.  0.
        -13    1    3    3    0    0 -0.44371453273E+02  0.17730746898E+02  0.16791598427E+02  0.50647548735E+02  0.10566000000E+00 0. -1.
         23    2    1    0    0    0 -0.21202773294E+02 -0.19255449178E+02  0.37121693120E+01  0.96209035346E+02  0.91771827718E+02 0.  0.
         13    1    3    3    0    0  0.23168679979E+02 -0.36986196076E+02 -0.13079429115E+02  0.45561486610E+02  0.10566000000E+00 0.  1.
         22    1    1    0    0    0  0.21202773294E+02  0.19255449178E+02 -0.37121693120E+01  0.28880964654E+02  0.00000000000E+00 0. -1.
</event>
<event>
 5    1  0.1258624E-009  0.9118800E+02  0.7815553E-02  0.1125453E+00
         25   -1    0    0    0    0  0.00000000000E+00  0.00000000000E+00  0.99999998245E-14  0.12509000000E+03  0.12509000000E+03 0.  0.
        -13    1    3    3    0    0 -0.23923088155E+01 -0.39726690047E+02 -0.11443099690E+02  0.41411215124E+02  0.10566000000E+00 0.  1.
         23    2    1    0    0    0 -0.26657406324E+01  0.12478682151E+02 -0.26442693773E+02  0.95729486801E+02  0.91115832367E+02 0.  0.
         13    1    3    3    0    0 -0.27343181688E+00  0.52205372198E+02 -0.14999594083E+02  0.54318271677E+02  0.10566000000E+00 0. -1.
         22    1    1    0    0    0  0.26657406324E+01 -0.12478682151E+02  0.26442693773E+02  0.29360513199E+02  0.00000000000E+00 0. -1.
</event>
<event>
 5    1  0.1258624E-009  0.9118800E+02  0.7815553E-02  0.1125453E+00
         25   -1    0    0    0    0  0.00000000000E+00  0.00000000000E+00  0.99999998245E-14  0.12509000000E+03  0.12509000000E+03 0.  0.
        -13    1    3    3    0    0  0.25742546567E+02 -0.35016329085E+01 -0.29841960878E+02  0.39566323178E+02  0.10566000000E+00 0. -1.
         23    2    1    0    0    0 -0.25341070962E+02 -0.12332475738E+02 -0.12798090634E+02  0.94137601721E+02  0.88903526919E+02 0.  0.
         13    1    3    3    0    0 -0.51083617529E+02 -0.88308428298E+01  0.17043870244E+02  0.54571278543E+02  0.10566000000E+00 0.  1.
         22    1    1    0    0    0  0.25341070962E+02  0.12332475738E+02  0.12798090634E+02  0.30952398279E+02  0.00000000000E+00 0.  1.
</event>
<event>
 5    1  0.1258624E-009  0.9118800E+02  0.7815553E-02  0.1125453E+00
         25   -1    0    0    0    0  0.00000000000E+00  0.00000000000E+00  0.99999998245E-14  0.12509000000E+03  0.12509000000E+03 0.  0.
        -13    1    3    3    0    0  0.20536370432E+01 -0.21453322592E+02  0.55530374218E+02  0.59565897124E+02  0.10566000000E+00 0. -1.
         23    2    1    0    0    0 -0.12647942167E+02 -0.10687889921E+02  0.26199673002E+02  0.94096060312E+02  0.88845057650E+02 0.  0.
         13    1    3    3    0    0 -0.14701579210E+02  0.10765432672E+02 -0.29330701216E+02  0.34530163188E+02  0.10566000000E+00 0.  1.
         22    1    1    0    0    0  0.12647942167E+02  0.10687889921E+02 -0.26199673002E+02  0.30993939688E+02  0.00000000000E+00 0. -1.
</event>
<event>
 5    1  0.1258624E-009  0.9118800E+02  0.7815553E-02  0.1125453E+00
         25   -1    0    0    0    0  0.00000000000E+00  0.00000000000E+00  0.99999998245E-14  0.12509000000E+03  0.12509000000E+03 0.  0.
        -13    1    3    3    0    0  0.19715789171E+02  0.45012131500E+02 -0.57969667867E+01  0.49481514859E+02  0.10566000000E+00 0.  1.
         23    2    1    0    0    0 -0.97940269598E+01  0.20207029119E+02  0.19299027307E+02  0.95480889157E+02  0.90773899053E+02 0.  0.
         13    1    3    3    0    0 -0.29509816131E+02 -0.24805102381E+02  0.25095994094E+02  0.45999374298E+02  0.10566000000E+00 0. -1.
         22    1    1    0    0    0  0.97940269598E+01 -0.20207029119E+02 -0.19299027307E+02  0.29609110843E+02  0.00000000000E+00 0.  1.
</event>
<event>
 5    1  0.1258624E-009  0.9118800E+02  0.7815553E-02  0.1125453E+00
         25   -1    0    0    0    0  0.00000000000E+00  0.00000000000E+00  0.99999998245E-14  0.12509000000E+03  0.12509000000E+03 0.  0.
        -13    1    3    3    0    0  0.96452541375E+01 -0.26254458503E+02 -0.43494044956E+02  0.51711416818E+02  0.10566000000E+00 0.  1.
         23    2    1    0    0    0 -0.15809612143E+02  0.57675848136E+01 -0.20246386617E+02  0.98762731974E+02  0.95189033954E+02 0.  0.
         13    1    3    3    0    0 -0.25454866280E+02  0.32022043317E+02  0.23247658339E+02  0.47051315155E+02  0.10566000000E+00 0. -1.
         22    1    1    0    0    0  0.15809612143E+02 -0.57675848136E+01  0.20246386617E+02  0.26327268026E+02  0.00000000000E+00 0.  1.
</event>
<event>
 5    1  0.1258624E-009  0.9118800E+02  0.7815553E-02  0.1125453E+00
         25   -1    0    0    0    0  0.00000000000E+00  0.00000000000E+00  0.99999998245E-14  0.12509000000E+03  0.12509000000E+03 0.  0.
        -13    1    3    3    0    0 -0.39341693988E+02 -0.35169374113E+02 -0.33493163149E+02  0.62501655203E+02  0.10566000000E+00 0.  1.
         23    2    1    0    0    0 -0.28782682356E+02 -0.26800987737E+02 -0.26334689415E+02  0.77758703653E+02  0.61694119492E+02 0.  0.
         13    1    3    3    0    0  0.10559011632E+02  0.83683863756E+01  0.71584737340E+01  0.15257048450E+02  0.10566000000E+00 0. -1.
         22    1    1    0    0    0  0.28782682356E+02  0.26800987737E+02  0.26334689415E+02  0.47331296347E+02  0.00000000000E+00 0.  1.
</event>
<event>
 5    1  0.1258624E-009  0.9118800E+02  0.7815553E-02  0.1125453E+00
         25   -1    0    0    0    0  0.00000000000E+00  0.00000000000E+00  0.99999998245E-14  0.12509000000E+03  0.12509000000E+03 0.  0.
        -13    1    3    3    0    0 -0.18182183461E+02  0.58020145284E+02  0.76649209179E+01  0.61283694658E+02  0.10566000000E+00 0.  1.
         23    2    1    0    0    0 -0.97274205195E+01  0.24619250864E+02  0.12029510404E+02  0.96013560334E+02  0.91504996719E+02 0.  0.
         13    1    3    3    0    0  0.84547629416E+01 -0.33400894420E+02  0.43645894859E+01  0.34729865676E+02  0.10566000000E+00 0. -1.
         22    1    1    0    0    0  0.97274205195E+01 -0.24619250864E+02 -0.12029510404E+02  0.29076439666E+02  0.00000000000E+00 0.  1.
</event>
<event>
 5    1  0.1258624E-009  0.9118800E+02  0.7815553E-02  0.1125453E+00
         25   -1    0    0    0    0  0.00000000000E+00  0.00000000000E+00  0.99999998245E-14  0.12509000000E+03  0.12509000000E+03 0.  0.
        -13    1    3    3    0    0  0.20873455477E+02  0.51180122711E+02 -0.27314323305E+02  0.61653787604E+02  0.10566000000E+00 0.  1.
         23    2    1    0    0    0  0.15268363593E+02  0.23338923726E+02 -0.77389884759E+01  0.96146602996E+02  0.91686689533E+02 0.  0.
         13    1    3    3    0    0 -0.56050918834E+01 -0.27841198985E+02  0.19575334829E+02  0.34492815392E+02  0.10566000000E+00 0. -1.
         22    1    1    0    0    0 -0.15268363593E+02 -0.23338923726E+02  0.77389884759E+01  0.28943397004E+02  0.00000000000E+00 0.  1.
</event>
<event>
 5    1  0.1258624E-009  0.9118800E+02  0.7815553E-02  0.1125453E+00
         25   -1    0    0    0    0  0.00000000000E+00  0.00000000000E+00  0.99999998245E-14  0.12509000000E+03  0.12509000000E+03 0.  0.
        -13    1    3    3    0    0 -0.11876283581E+02  0.18526415466E+02 -0.37389412026E+02  0.43384945285E+02  0.10566000000E+00 0. -1.
         23    2    1    0    0    0 -0.13386635991E+02 -0.24753210971E+02 -0.76225233032E+01  0.95934788835E+02  0.91397250346E+02 0.  0.
         13    1    3    3    0    0 -0.15103524102E+01 -0.43279626437E+02  0.29766888723E+02  0.52549843551E+02  0.10566000000E+00 0.  1.
         22    1    1    0    0    0  0.13386635991E+02  0.24753210971E+02  0.76225233032E+01  0.29155211165E+02  0.00000000000E+00 0.  1.
</event>
<event>
 5    1  0.1258624E-009  0.9118800E+02  0.7815553E-02  0.1125453E+00
         25   -1    0    0    0    0  0.00000000000E+00  0.00000000000E+00  0.99999998245E-14  0.12509000000E+03  0.12509000000E+03 0.  0.
        -13    1    3    3    0    0  0.74311375763E+00 -0.99936954491E+01  0.50483633216E+02  0.51468772606E+02  0.10566000000E+00 0.  1.
         23    2    1    0    0    0 -0.23595558289E+02  0.47829843680E+01  0.16026298926E+02  0.96168216381E+02  0.91716172370E+02 0.  0.
         13    1    3    3    0    0 -0.24338672047E+02  0.14776679817E+02 -0.34457334290E+02  0.44699443776E+02  0.10566000000E+00 0. -1.
         22    1    1    0    0    0  0.23595558289E+02 -0.47829843680E+01 -0.16026298926E+02  0.28921783619E+02  0.00000000000E+00 0.  1.
</event>
<event>
 5    1  0.1258624E-009  0.9118800E+02  0.7815553E-02  0.1125453E+00
         25   -1    0    0    0    0  0.00000000000E+00  0.00000000000E+00  0.99999998245E-14  0.12509000000E+03  0.12509000000E+03 0.  0.
        -13    1    3    3    0    0 -0.43336357076E+02 -0.31214147635E+02 -0.18107058228E+01  0.53438307204E+02  0.10566000000E+00 0.  1.
         23    2    1    0    0    0 -0.25945354214E+02  0.44995898809E+01  0.12861163605E+02  0.95784416169E+02  0.91191211952E+02 0.  0.
         13    1    3    3    0    0  0.17391002862E+02  0.35713737516E+02  0.14671869428E+02  0.42346108965E+02  0.10566000000E+00 0. -1.
         22    1    1    0    0    0  0.25945354214E+02 -0.44995898809E+01 -0.12861163605E+02  0.29305583831E+02  0.00000000000E+00 0. -1.
</event>
<event>
 5    1  0.1258624E-009  0.9118800E+02  0.7815553E-02  0.1125453E+00
         25   -1    0    0    0    0  0.00000000000E+00  0.00000000000E+00  0.99999998245E-14  0.12509000000E+03  0.12509000000E+03 0.  0.
        -13    1    3    3    0    0 -0.11455228106E+02  0.39250096136E+02  0.13362923868E+02  0.43015941184E+02  0.10566000000E+00 0. -1.
         23    2    1    0    0    0  0.18897269225E+02 -0.12867725178E+01  0.23750634319E+02  0.94711468136E+02  0.89707340827E+02 0.  0.
         13    1    3    3    0    0  0.30352497331E+02 -0.40536868653E+02  0.10387710451E+02  0.51695526952E+02  0.10566000000E+00 0.  1.
         22    1    1    0    0    0 -0.18897269225E+02  0.12867725178E+01 -0.23750634319E+02  0.30378531864E+02  0.00000000000E+00 0. -1.
</event>
<event>
 5    1  0.1258624E-009  0.9118800E+02  0.7815553E-02  0.1125453E+00
         25   -1    0    0    0    0  0.00000000000E+00  0.00000000000E+00  0.99999998245E-14  0.12509000000E+03  0.12509000000E+03 0.  0.
        -13    1    3    3    0    0  0.53703134628E+02  0.22027092764E+02  0.17649405861E+02  0.60669038032E+02  0.10566000000E+00 0.  1.
         23    2    1    0    0    0  0.20497015369E+02  0.89772477708E+01  0.18035790749E+02  0.96349638755E+02  0.91963278126E+02 0.  0.
         13    1    3    3    0    0 -0.33206119259E+02 -0.13049844993E+02  0.38638488751E+00  0.35680600723E+02  0.10566000000E+00 0. -1.
         22    1    1    0    0    0 -0.20497015369E+02 -0.89772477708E+01 -0.18035790749E+02  0.28740361245E+02  0.00000000000E+00 0.  1.
</event>
<event>
 5    1  0.1258624E-009  0.9118800E+02  0.7815553E-02  0.1125453E+00
         25   -1    0    0    0    0  0.00000000000E+00  0.00000000000E+00  0.99999998245E-14  0.12509000000E+03  0.12509000000E+03 0.  0.
        -13    1    3    3    0    0 -0.15583047059E+02 -0.34989839936E+02  0.29465766660E+01  0.38416321173E+02  0.10566000000E+00 0.  1.
         23    2    1    0    0    0  0.21384635944E+02  0.11249760372E+02 -0.98704175852E+01  0.98988565055E+02  0.95485344977E+02 0.  0.
         13    1    3    3    0    0  0.36967683003E+02  0.46239600308E+02 -0.12816994251E+02  0.60572243882E+02  0.10566000000E+00 0. -1.
         22    1    1    0    0    0 -0.21384635944E+02 -0.11249760372E+02  0.98704175852E+01  0.26101434945E+02  0.00000000000E+00 0. -1.
</event>
<event>
 5    1  0.1258624E-009  0.9118800E+02  0.7815553E-02  0.1125453E+00
         25   -1    0    0    0    0  0.00000000000E+00  0.00000000000E+00  0.99999998245E-14  0.12509000000E+03  0.12509000000E+03 0.  0.
        -13    1    3    3    0    0  0.24082964970E+02 -0.28837044379E+02 -0.39251832210E+01  0.37775422667E+02  0.10566000000E+00 0. -1.
         23    2    1    0    0    0  0.35881660850E+01  0.20389818896E+02  0.20076385930E+02  0.96251121338E+02  0.91829175300E+02 0.  0.
         13    1    3    3    0    0 -0.20494798885E+02  0.49226863276E+02  0.24001569151E+02  0.58475698671E+02  0.10566000000E+00 0.  1.
         22    1    1    0    0    0 -0.35881660850E+01 -0.20389818896E+02 -0.20076385930E+02  0.28838878662E+02  0.00000000000E+00 0.  1.
</event>
<event>
 5    1  0.1258624E-009  0.9118800E+02  0.7815553E-02  0.1125453E+00
         25   -1    0    0    0    0  0.00000000000E+00  0.00000000000E+00  0.99999998245E-14  0.12509000000E+03  0.12509000000E+03 0.  0.
        -13    1    3    3    0    0  0.10571867653E+02  0.10241392627E+02 -0.34242741601E+02  0.37272335921E+02  0.10566000000E+00 0.  1.
         23    2    1    0    0    0 -0.23089889928E+02  0.12114704536E+02  0.13506680726E+02  0.95724382229E+02  0.91108824194E+02 0.  0.
         13    1    3    3    0    0 -0.33661757581E+02  0.18733119089E+01  0.47749422327E+02  0.58452046307E+02  0.10566000000E+00 0. -1.
         22    1    1    0    0    0  0.23089889928E+02 -0.12114704536E+02 -0.13506680726E+02  0.29365617771E+02  0.00000000000E+00 0. -1.
</event>
<event>
 5    1  0.1258624E-009  0.9118800E+02  0.7815553E-02  0.1125453E+00
         25   -1    0    0    0    0  0.00000000000E+00  0.00000000000E+00  0.99999998245E-14  0.12509000000E+03  0.12509000000E+03 0.  0.
        -13    1    3    3    0    0  0.31639234471E+02 -0.43208009958E+02  0.33982912727E+01  0.53661278685E+02  0.10566000000E+00 0.  1.
         23    2    1    0    0    0  0.19612987061E+02 -0.83287426087E+01  0.21554298734E+02  0.94781172758E+02  0.89804485971E+02 0.  0.
         13    1    3    3    0    0 -0.12026247410E+02  0.34879267350E+02  0.18156007461E+02  0.41119894073E+02  0.10566000000E+00 0. -1.
         22    1    1    0    0    0 -0.19612987061E+02  0.83287426087E+01 -0.21554298734E+02  0.30308827242E+02  0.00000000000E+00 0. -1.
</event>
<event>
 5    1  0.1258624E-009  0.9118800E+02  0.7815553E-02  0.1125453E+00
         25   -1    0    0    0    0  0.00000000000E+00  0.00000000000E+00  0.99999998245E-14  0.12509000000E+03  0.12509000000E+03 0.  0.
        -13    1    3    3    0    0 -0.41815155350E+02  0.23911952286E+02 -0.15107030344E+02  0.50482890259E+02  0.10566000000E+00 0. -1.
         23    2    1    0    0    0 -0.23719553076E+02 -0.22854245182E+01  0.17091100800E+02  0.95765162577E+02  0.91164797337E+02 0.  0.
         13    1    3    3    0    0  0.18095602275E+02 -0.26197376804E+02  0.32198131143E+02  0.45282272318E+02  0.10566000000E+00 0.  1.
         22    1    1    0    0    0  0.23719553076E+02  0.22854245182E+01 -0.17091100800E+02  0.29324837423E+02  0.00000000000E+00 0. -1.
</event>
<event>
 5    1  0.1258624E-009  0.9118800E+02  0.7815553E-02  0.1125453E+00
         25   -1    0    0    0    0  0.00000000000E+00  0.00000000000E+00  0.99999998245E-14  0.12509000000E+03  0.12509000000E+03 0.  0.
        -13    1    3    3    0    0 -0.22421570367E+02 -0.18398092400E+02  0.27936275213E+02  0.40269880290E+02  0.10566000000E+00 0. -1.
         23    2    1    0    0    0 -0.17799306498E+02  0.22200847533E+02 -0.88911664853E+01  0.95278160331E+02  0.90494099540E+02 0.  0.
         13    1    3    3    0    0  0.46222638697E+01  0.40598939934E+02 -0.36827441698E+02  0.55008280041E+02  0.10566000000E+00 0.  1.
         22    1    1    0    0    0  0.17799306498E+02 -0.22200847533E+02  0.88911664853E+01  0.29811839669E+02  0.00000000000E+00 0.  1.
</event>
<event>
 5    1  0.1258624E-009  0.9118800E+02  0.7815553E-02  0.1125453E+00
         25   -1    0    0    0    0  0.00000000000E+00  0.00000000000E+00  0.99999998245E-14  0.12509000000E+03  0.12509000000E+03 0.  0.
        -13    1    3    3    0    0 -0.36313623597E+02  0.10999469177E+02 -0.23802252819E+01  0.38017682956E+02  0.10566000000E+00 0. -1.
         23    2    1    0    0    0  0.60954954217E+01 -0.12673663113E+02 -0.28605203259E+02  0.93214704635E+02  0.87595357785E+02 0.  0.
         13    1    3    3    0    0  0.42409119018E+02 -0.23673132290E+02 -0.26224977977E+02  0.55197021679E+02  0.10566000000E+00 0.  1.
         22    1    1    0    0    0 -0.60954954217E+01  0.12673663113E+02  0.28605203259E+02  0.31875295365E+02  0.00000000000E+00 0. -1.
</event>
<event>
 5    1  0.1258624E-009  0.9118800E+02  0.7815553E-02  0.1125453E+00
         25   -1    0    0    0    0  0.00000000000E+00  0.00000000000E+00  0.99999998245E-14  0.12509000000E+03  0.12509000000E+03 0.  0.
        -13    1    3    3    0    0  0.44350926367E+02 -0.34667217193E+02 -0.21868172184E+02  0.60390800096E+02  0.10566000000E+00 0. -1.
         23    2    1    0    0    0  0.17726785365E+02 -0.11009315827E+02 -0.20200952156E+02  0.96046542520E+02  0.91550073226E+02 0.  0.
         13    1    3    3    0    0 -0.26624141002E+02  0.23657901366E+02  0.16672200277E+01  0.35655742424E+02  0.10566000000E+00 0.  1.
         22    1    1    0    0    0 -0.17726785365E+02  0.11009315827E+02  0.20200952156E+02  0.29043457480E+02  0.00000000000E+00 0. -1.
</event>
<event>
 5    1  0.1258624E-009  0.9118800E+02  0.7815553E-02  0.1125453E+00
         25   -1    0    0    0    0  0.00000000000E+00  0.00000000000E+00  0.99999998245E-14  0.12509000000E+03  0.12509000000E+03 0.  0.
        -13    1    3    3    0    0 -0.80330554547E+01 -0.41831674295E+02 -0.10419244727E+02  0.43851918761E+02  0.10566000000E+00 0.  1.
         23    2    1    0    0    0  0.19691345405E+02  0.66845733469E+01 -0.14279551834E+02  0.99864255110E+02  0.96625727647E+02 0.  0.
         13    1    3    3    0    0  0.27724400860E+02  0.48516247642E+02 -0.38603071070E+01  0.56012336349E+02  0.10566000000E+00 0. -1.
         22    1    1    0    0    0 -0.19691345405E+02 -0.66845733469E+01  0.14279551834E+02  0.25225744890E+02  0.00000000000E+00 0. -1.
</event>
<event>
 5    1  0.1258624E-009  0.9118800E+02  0.7815553E-02  0.1125453E+00
         25   -1    0    0    0    0  0.00000000000E+00  0.00000000000E+00  0.99999998245E-14  0.12509000000E+03  0.12509000000E+03 0.  0.
        -13    1    3    3    0    0  0.38076709108E+02  0.11017749087E+02 -0.94328019926E+01  0.40745741973E+02  0.10566000000E+00 0. -1.
         23    2    1    0    0    0 -0.24049101679E+01 -0.25448871432E+02 -0.14896836933E+02  0.95503780223E+02  0.90805438363E+02 0.  0.
         13    1    3    3    0    0 -0.40481619276E+02 -0.36466620519E+02 -0.54640349404E+01  0.54758038251E+02  0.10566000000E+00 0.  1.
         22    1    1    0    0    0  0.24049101679E+01  0.25448871432E+02  0.14896836933E+02  0.29586219777E+02  0.00000000000E+00 0.  1.
</event>
<event>
 5    1  0.1258624E-009  0.9118800E+02  0.7815553E-02  0.1125453E+00
         25   -1    0    0    0    0  0.00000000000E+00  0.00000000000E+00  0.99999998245E-14  0.12509000000E+03  0.12509000000E+03 0.  0.
        -13    1    3    3    0    0  0.22360067425E+02  0.22048516612E+02 -0.50109882085E+02  0.59136462074E+02  0.10566000000E+00 0.  1.
         23    2    1    0    0    0  0.22786981284E+02  0.56306323503E+01 -0.16960822606E+02  0.96131062862E+02  0.91665485362E+02 0.  0.
         13    1    3    3    0    0  0.42691385872E+00 -0.16417884262E+02  0.33149059479E+02  0.36994600787E+02  0.10566000000E+00 0. -1.
         22    1    1    0    0    0 -0.22786981284E+02 -0.56306323503E+01  0.16960822606E+02  0.28958937138E+02  0.00000000000E+00 0.  1.
</event>
<event>
 5    1  0.1258624E-009  0.9118800E+02  0.7815553E-02  0.1125453E+00
         25   -1    0    0    0    0  0.00000000000E+00  0.00000000000E+00  0.99999998245E-14  0.12509000000E+03  0.12509000000E+03 0.  0.
        -13    1    3    3    0    0 -0.20222046656E+02 -0.51129685547E+02  0.13358056594E+02  0.56582901615E+02  0.10566000000E+00 0. -1.
         23    2    1    0    0    0  0.88465723245E+01 -0.26210675502E+02  0.12112969192E+02  0.94890904404E+02  0.89957202957E+02 0.  0.
         13    1    3    3    0    0  0.29068618981E+02  0.24919010045E+02 -0.12450874028E+01  0.38308002790E+02  0.10566000000E+00 0.  1.
         22    1    1    0    0    0 -0.88465723245E+01  0.26210675502E+02 -0.12112969192E+02  0.30199095596E+02  0.00000000000E+00 0. -1.
</event>
<event>
 5    1  0.1258624E-009  0.9118800E+02  0.7815553E-02  0.1125453E+00
         25   -1    0    0    0    0  0.00000000000E+00  0.00000000000E+00  0.99999998245E-14  0.12509000000E+03  0.12509000000E+03 0.  0.
        -13    1    3    3    0    0  0.42972570939E+02 -0.25052024500E+02  0.11951466877E+02  0.51157545966E+02  0.10566000000E+00 0.  1.
         23    2    1    0    0    0  0.26364196471E+02  0.13538940747E+02 -0.18907979796E+01  0.95392375699E+02  0.90651841969E+02 0.  0.
         13    1    3    3    0    0 -0.16608374468E+02  0.38590965247E+02 -0.13842264857E+02  0.44234829733E+02  0.10566000000E+00 0. -1.
         22    1    1    0    0    0 -0.26364196471E+02 -0.13538940747E+02  0.18907979796E+01  0.29697624301E+02  0.00000000000E+00 0.  1.
</event>
<event>
 5    1  0.1258624E-009  0.9118800E+02  0.7815553E-02  0.1125453E+00
         25   -1    0    0    0    0  0.00000000000E+00  0.00000000000E+00  0.99999998245E-14  0.12509000000E+03  0.12509000000E+03 0.  0.
        -13    1    3    3    0    0 -0.44213772928E+02 -0.13250541782E+02 -0.35783142819E+02  0.58402731513E+02  0.10566000000E+00 0.  1.
         23    2    1    0    0    0 -0.19895445553E+02  0.10309999361E+02 -0.13776737107E+02  0.98785564521E+02  0.95219033978E+02 0.  0.
         13    1    3    3    0    0  0.24318327376E+02  0.23560541144E+02  0.22006405712E+02  0.40382833008E+02  0.10566000000E+00 0. -1.
         22    1    1    0    0    0  0.19895445553E+02 -0.10309999361E+02  0.13776737107E+02  0.26304435479E+02  0.00000000000E+00 0.  1.
</event>
<event>
 5    1  0.1258624E-009  0.9118800E+02  0.7815553E-02  0.1125453E+00
         25   -1    0    0    0    0  0.00000000000E+00  0.00000000000E+00  0.99999998245E-14  0.12509000000E+03  0.12509000000E+03 0.  0.
        -13    1    3    3    0    0  0.47715355874E+01 -0.51386594453E+02 -0.86617835422E+01  0.52329602516E+02  0.10566000000E+00 0.  1.
         23    2    1    0    0    0  0.18881427409E+02 -0.10528988550E+02 -0.18472054220E+02  0.96654376427E+02  0.92376857461E+02 0.  0.
         13    1    3    3    0    0  0.14109891822E+02  0.40857605904E+02 -0.98102706781E+01  0.44324773910E+02  0.10566000000E+00 0. -1.
         22    1    1    0    0    0 -0.18881427409E+02  0.10528988550E+02  0.18472054220E+02  0.28435623573E+02  0.00000000000E+00 0.  1.
</event>
<event>
 5    1  0.1258624E-009  0.9118800E+02  0.7815553E-02  0.1125453E+00
         25   -1    0    0    0    0  0.00000000000E+00  0.00000000000E+00  0.99999998245E-14  0.12509000000E+03  0.12509000000E+03 0.  0.
        -13    1    3    3    0    0 -0.18288088489E+02 -0.27094365717E+01 -0.31918717505E+02  0.36886459824E+02  0.10566000000E+00 0.  1.
         23    2    1    0    0    0 -0.10790659096E+02 -0.13336954224E+02  0.24720504760E+02  0.94999868274E+02  0.90108595288E+02 0.  0.
         13    1    3    3    0    0  0.74974293930E+01 -0.10627517652E+02  0.56639222265E+02  0.58113408450E+02  0.10566000000E+00 0. -1.
         22    1    1    0    0    0  0.10790659096E+02  0.13336954224E+02 -0.24720504760E+02  0.30090131726E+02  0.00000000000E+00 0. -1.
</event>
<event>
 5    1  0.1258624E-009  0.9118800E+02  0.7815553E-02  0.1125453E+00
         25   -1    0    0    0    0  0.00000000000E+00  0.00000000000E+00  0.99999998245E-14  0.12509000000E+03  0.12509000000E+03 0.  0.
        -13    1    3    3    0    0  0.43465118224E+02  0.42248589280E+02  0.13506497940E+02  0.62101501181E+02  0.10566000000E+00 0. -1.
         23    2    1    0    0    0  0.16948756007E+02  0.23334725784E+02  0.82410577437E+01  0.95095253954E+02  0.90240913860E+02 0.  0.
         13    1    3    3    0    0 -0.26516362217E+02 -0.18913863495E+02 -0.52654401963E+01  0.32993752773E+02  0.10566000000E+00 0.  1.
         22    1    1    0    0    0 -0.16948756007E+02 -0.23334725784E+02 -0.82410577437E+01  0.29994746046E+02  0.00000000000E+00 0. -1.
</event>
<event>
 5    1  0.1258624E-009  0.9118800E+02  0.7815553E-02  0.1125453E+00
         25   -1    0    0    0    0  0.00000000000E+00  0.00000000000E+00  0.99999998245E-14  0.12509000000E+03  0.12509000000E+03 0.  0.
        -13    1    3    3    0    0 -0.41435341794E+02  0.37285429603E+02  0.26628621282E+02  0.61775281834E+02  0.10566000000E+00 0.  1.
         23    2    1    0    0    0 -0.15001820268E+02  0.22803680790E+02  0.12190526274E+02  0.95195662748E+02  0.90379991183E+02 0.  0.
         13    1    3    3    0    0  0.26433521526E+02 -0.14481748813E+02 -0.14438095007E+02  0.33420380914E+02  0.10566000000E+00 0. -1.
         22    1    1    0    0    0  0.15001820268E+02 -0.22803680790E+02 -0.12190526274E+02  0.29894337252E+02  0.00000000000E+00 0.  1.
</event>
<event>
 5    1  0.1258624E-009  0.9118800E+02  0.7815553E-02  0.1125453E+00
         25   -1    0    0    0    0  0.00000000000E+00  0.00000000000E+00  0.99999998245E-14  0.12509000000E+03  0.12509000000E+03 0.  0.
        -13    1    3    3    0    0  0.19263932682E+02  0.21473930762E+02 -0.25959051690E+02  0.38808663124E+02  0.10566000000E+00 0.  1.
         23    2    1    0    0    0  0.48472220960E+01 -0.28386281445E+02 -0.13204854373E+01  0.96262578712E+02  0.91844781247E+02 0.  0.
         13    1    3    3    0    0 -0.14416710586E+02 -0.49860212207E+02  0.24638566253E+02  0.57453915589E+02  0.10566000000E+00 0. -1.
         22    1    1    0    0    0 -0.48472220960E+01  0.28386281445E+02  0.13204854373E+01  0.28827421288E+02  0.00000000000E+00 0. -1.
</event>
<event>
 5    1  0.1258624E-009  0.9118800E+02  0.7815553E-02  0.1125453E+00
         25   -1    0    0    0    0  0.00000000000E+00  0.00000000000E+00  0.99999998245E-14  0.12509000000E+03  0.12509000000E+03 0.  0.
        -13    1    3    3    0    0 -0.42223856354E+02 -0.13550063951E+02  0.98615452671E-01  0.44345001607E+02  0.10566000000E+00 0. -1.
         23    2    1    0    0    0  0.83257415098E+01 -0.17576421911E+02  0.18458811266E+02  0.98276266723E+02  0.94547598112E+02 0.  0.
         13    1    3    3    0    0  0.50549597864E+02 -0.40263579604E+01  0.18360195814E+02  0.53931265116E+02  0.10566000000E+00 0.  1.
         22    1    1    0    0    0 -0.83257415098E+01  0.17576421911E+02 -0.18458811266E+02  0.26813733277E+02  0.00000000000E+00 0.  1.
</event>
<event>
 5    1  0.1258624E-009  0.9118800E+02  0.7815553E-02  0.1125453E+00
         25   -1    0    0    0    0  0.00000000000E+00  0.00000000000E+00  0.99999998245E-14  0.12509000000E+03  0.12509000000E+03 0.  0.
        -13    1    3    3    0    0 -0.16055416645E+02  0.24510521188E+02  0.25890027353E+02  0.39100469727E+02  0.10566000000E+00 0.  1.
         23    2    1    0    0    0 -0.19836025460E+02 -0.24039964024E+02  0.72829240563E+00  0.93914397582E+02  0.88588915147E+02 0.  0.
         13    1    3    3    0    0 -0.37806088150E+01 -0.48550485211E+02 -0.25161734947E+02  0.54813927855E+02  0.10566000000E+00 0. -1.
         22    1    1    0    0    0  0.19836025460E+02  0.24039964024E+02 -0.72829240563E+00  0.31175602418E+02  0.00000000000E+00 0. -1.
</event>
<event>
 5    1  0.1258624E-009  0.9118800E+02  0.7815553E-02  0.1125453E+00
         25   -1    0    0    0    0  0.00000000000E+00  0.00000000000E+00  0.99999998245E-14  0.12509000000E+03  0.12509000000E+03 0.  0.
        -13    1    3    3    0    0  0.14425813146E+02  0.57343092060E+02  0.38325692744E+01  0.59253979134E+02  0.10566000000E+00 0. -1.
         23    2    1    0    0    0  0.12154688017E+02  0.24779049806E+02 -0.11340553218E+02  0.95251335530E+02  0.90457012016E+02 0.  0.
         13    1    3    3    0    0 -0.22711251292E+01 -0.32564042254E+02 -0.15173122493E+02  0.35997356396E+02  0.10566000000E+00 0.  1.
         22    1    1    0    0    0 -0.12154688017E+02 -0.24779049806E+02  0.11340553218E+02  0.29838664470E+02  0.00000000000E+00 0. -1.
</event>
<event>
 5    1  0.1258624E-009  0.9118800E+02  0.7815553E-02  0.1125453E+00
         25   -1    0    0    0    0  0.00000000000E+00  0.00000000000E+00  0.99999998245E-14  0.12509000000E+03  0.12509000000E+03 0.  0.
        -13    1    3    3    0    0  0.37019750451E+02  0.41931130934E+02 -0.93297066831E+01  0.56707462081E+02  0.10566000000E+00 0. -1.
         23    2    1    0    0    0  0.24418440562E+02  0.17613555324E+01 -0.95589352477E+01  0.98808145882E+02  0.95248694673E+02 0.  0.
         13    1    3    3    0    0 -0.12601309889E+02 -0.40169775402E+02 -0.22922856463E+00  0.42100683801E+02  0.10566000000E+00 0.  1.
         22    1    1    0    0    0 -0.24418440562E+02 -0.17613555324E+01  0.95589352477E+01  0.26281854118E+02  0.00000000000E+00 0. -1.
</event>
<event>
 5    1  0.1258624E-009  0.9118800E+02  0.7815553E-02  0.1125453E+00
         25   -1    0    0    0    0  0.00000000000E+00  0.00000000000E+00  0.99999998245E-14  0.12509000000E+03  0.12509000000E+03 0.  0.
        -13    1    3    3    0    0 -0.37211084988E+02 -0.22175930117E+02 -0.19545817672E+02  0.47523540220E+02  0.10566000000E+00 0.  1.
         23    2    1    0    0    0 -0.21567338759E+02  0.19537527470E+02 -0.47271165617E+00  0.95985214533E+02  0.91466238972E+02 0.  0.
         13    1    3    3    0    0  0.15643746230E+02  0.41713457588E+02  0.19073106016E+02  0.48461674312E+02  0.10566000000E+00 0. -1.
         22    1    1    0    0    0  0.21567338759E+02 -0.19537527470E+02  0.47271165617E+00  0.29104785467E+02  0.00000000000E+00 0. -1.
</event>
<event>
 5    1  0.1258624E-009  0.9118800E+02  0.7815553E-02  0.1125453E+00
         25   -1    0    0    0    0  0.00000000000E+00  0.00000000000E+00  0.99999998245E-14  0.12509000000E+03  0.12509000000E+03 0.  0.
        -13    1    3    3    0    0  0.14058161264E+02 -0.12998954290E+02  0.30687231027E+02  0.36170734343E+02  0.10566000000E+00 0. -1.
         23    2    1    0    0    0 -0.23087710035E+02  0.20315126937E+02  0.81404912270E+00  0.94326232137E+02  0.89168540731E+02 0.  0.
         13    1    3    3    0    0 -0.37145871299E+02  0.33314081228E+02 -0.29873181904E+02  0.58155497794E+02  0.10566000000E+00 0.  1.
         22    1    1    0    0    0  0.23087710035E+02 -0.20315126937E+02 -0.81404912270E+00  0.30763767863E+02  0.00000000000E+00 0.  1.
</event>
<event>
 5    1  0.1258624E-009  0.9118800E+02  0.7815553E-02  0.1125453E+00
         25   -1    0    0    0    0  0.00000000000E+00  0.00000000000E+00  0.99999998245E-14  0.12509000000E+03  0.12509000000E+03 0.  0.
        -13    1    3    3    0    0  0.17039387914E+02 -0.34763051324E+02  0.63627163721E+01  0.39233987836E+02  0.10566000000E+00 0.  1.
         23    2    1    0    0    0  0.16074327242E+02  0.17100408061E+02 -0.16985603165E+02  0.96119003003E+02  0.91649026571E+02 0.  0.
         13    1    3    3    0    0 -0.96506067292E+00  0.51863459384E+02 -0.23348319537E+02  0.56885015168E+02  0.10566000000E+00 0. -1.
         22    1    1    0    0    0 -0.16074327242E+02 -0.17100408061E+02  0.16985603165E+02  0.28970996997E+02  0.00000000000E+00 0. -1.
</event>
<event>
 5    1  0.1258624E-009  0.9118800E+02  0.7815553E-02  0.1125453E+00
         25   -1    0    0    0    0  0.00000000000E+00  0.00000000000E+00  0.99999998245E-14  0.12509000000E+03  0.12509000000E+03 0.  0.
        -13    1    3    3    0    0 -0.25721485921E+01 -0.42392165947E+02 -0.43982192635E+02  0.61140462176E+02  0.10566000000E+00 0. -1.
         23    2    1    0    0    0  0.72614306494E+01 -0.18566787669E+02 -0.24800869612E+02  0.93269611678E+02  0.87673732381E+02 0.  0.
         13    1    3    3    0    0  0.98335792415E+01  0.23825378278E+02  0.19181323023E+02  0.32129149502E+02  0.10566000000E+00 0.  1.
         22    1    1    0    0    0 -0.72614306494E+01  0.18566787669E+02  0.24800869612E+02  0.31820388322E+02  0.00000000000E+00 0. -1.
</event>
<event>
 5    1  0.1258624E-009  0.9118800E+02  0.7815553E-02  0.1125453E+00
         25   -1    0    0    0    0  0.00000000000E+00  0.00000000000E+00  0.99999998245E-14  0.12509000000E+03  0.12509000000E+03 0.  0.
        -13    1    3    3    0    0  0.24916795039E+02 -0.17132610973E+02  0.20958842370E+02  0.36792081639E+02  0.10566000000E+00 0. -1.
         23    2    1    0    0    0  0.12650038153E+01  0.18023658685E+02 -0.21655651378E+02  0.96886813236E+02  0.92691072038E+02 0.  0.
         13    1    3    3    0    0 -0.23651791224E+02  0.35156269658E+02 -0.42614493748E+02  0.60094731598E+02  0.10566000000E+00 0.  1.
         22    1    1    0    0    0 -0.12650038153E+01 -0.18023658685E+02  0.21655651378E+02  0.28203186764E+02  0.00000000000E+00 0.  1.
</event>
<event>
 5    1  0.1258624E-009  0.9118800E+02  0.7815553E-02  0.1125453E+00
         25   -1    0    0    0    0  0.00000000000E+00  0.00000000000E+00  0.99999998245E-14  0.12509000000E+03  0.12509000000E+03 0.  0.
        -13    1    3    3    0    0 -0.30533149618E+02  0.26567580896E+02  0.47330958439E+02  0.62276322716E+02  0.10566000000E+00 0. -1.
         23    2    1    0    0    0 -0.16853078141E+02  0.92447881309E+01  0.21942465846E+02  0.95918710042E+02  0.91375241604E+02 0.  0.
         13    1    3    3    0    0  0.13680071477E+02 -0.17322792765E+02 -0.25388492592E+02  0.33642387326E+02  0.10566000000E+00 0.  1.
         22    1    1    0    0    0  0.16853078141E+02 -0.92447881309E+01 -0.21942465846E+02  0.29171289958E+02  0.00000000000E+00 0. -1.
</event>
<event>
 5    1  0.1258624E-009  0.9118800E+02  0.7815553E-02  0.1125453E+00
         25   -1    0    0    0    0  0.00000000000E+00  0.00000000000E+00  0.99999998245E-14  0.12509000000E+03  0.12509000000E+03 0.  0.
        -13    1    3    3    0    0  0.84381542438E+01 -0.44325142364E+02 -0.85176575352E+01  0.45918213669E+02  0.10566000000E+00 0. -1.
         23    2    1    0    0    0 -0.89595894871E+01 -0.77495682946E+01 -0.30761050764E+02  0.92126803908E+02  0.86027761226E+02 0.  0.
         13    1    3    3    0    0 -0.17397743731E+02  0.36575574070E+02 -0.22243393229E+02  0.46208590238E+02  0.10566000000E+00 0.  1.
         22    1    1    0    0    0  0.89595894871E+01  0.77495682946E+01  0.30761050764E+02  0.32963196092E+02  0.00000000000E+00 0.  1.
</event>
<event>
 5    1  0.1258624E-009  0.9118800E+02  0.7815553E-02  0.1125453E+00
         25   -1    0    0    0    0  0.00000000000E+00  0.00000000000E+00  0.99999998245E-14  0.12509000000E+03  0.12509000000E+03 0.  0.
        -13    1    3    3    0    0 -0.12554988667E+02  0.58374252676E+02 -0.18058812789E+02  0.62380389542E+02  0.10566000000E+00 0.  1.
         23    2    1    0    0    0 -0.40704514671E+01  0.31142972597E+02 -0.74621311866E+01  0.92807857581E+02  0.87012422732E+02 0.  0.
         13    1    3    3    0    0  0.84845372003E+01 -0.27231280080E+02  0.10596681603E+02  0.30427468040E+02  0.10566000000E+00 0. -1.
         22    1    1    0    0    0  0.40704514671E+01 -0.31142972597E+02  0.74621311866E+01  0.32282142419E+02  0.00000000000E+00 0.  1.
</event>
<event>
 5    1  0.1258624E-009  0.9118800E+02  0.7815553E-02  0.1125453E+00
         25   -1    0    0    0    0  0.00000000000E+00  0.00000000000E+00  0.99999998245E-14  0.12509000000E+03  0.12509000000E+03 0.  0.
        -13    1    3    3    0    0  0.24109153396E+02  0.23187181202E+02 -0.84861376363E+01  0.34509742763E+02  0.10566000000E+00 0. -1.
         23    2    1    0    0    0 -0.29132426890E+01 -0.25094371086E+02  0.16181796771E+02  0.95088916854E+02  0.90232129081E+02 0.  0.
         13    1    3    3    0    0 -0.27022396085E+02 -0.48281552288E+02  0.24667934408E+02  0.60579174091E+02  0.10566000000E+00 0.  1.
         22    1    1    0    0    0  0.29132426890E+01  0.25094371086E+02 -0.16181796771E+02  0.30001083146E+02  0.00000000000E+00 0.  1.
</event>
<event>
 5    1  0.1258624E-009  0.9118800E+02  0.7815553E-02  0.1125453E+00
         25   -1    0    0    0    0  0.00000000000E+00  0.00000000000E+00  0.99999998245E-14  0.12509000000E+03  0.12509000000E+03 0.  0.
        -13    1    3    3    0    0  0.21499993038E+01 -0.34922468321E+00 -0.42741190174E+02  0.42796786754E+02  0.10566000000E+00 0.  1.
         23    2    1    0    0    0  0.28894204643E+02 -0.39702911089E+01  0.28584575787E+01  0.95784555913E+02  0.91191403642E+02 0.  0.
         13    1    3    3    0    0  0.26744205339E+02 -0.36210664257E+01  0.45599647753E+02  0.52987769159E+02  0.10566000000E+00 0. -1.
         22    1    1    0    0    0 -0.28894204643E+02  0.39702911089E+01 -0.28584575787E+01  0.29305444087E+02  0.00000000000E+00 0. -1.
</event>
<event>
 5    1  0.1258624E-009  0.9118800E+02  0.7815553E-02  0.1125453E+00
         25   -1    0    0    0    0  0.00000000000E+00  0.00000000000E+00  0.99999998245E-14  0.12509000000E+03  0.12509000000E+03 0.  0.
        -13    1    3    3    0    0 -0.44961824646E+02 -0.30841605119E+02 -0.20240596531E+02  0.58158947667E+02  0.10566000000E+00 0. -1.
         23    2    1    0    0    0 -0.28180778891E+02 -0.20577165004E+01 -0.61589844199E+00  0.96827483711E+02  0.92610970057E+02 0.  0.
         13    1    3    3    0    0  0.16781045755E+02  0.28783888619E+02  0.19624698089E+02  0.38668536044E+02  0.10566000000E+00 0.  1.
         22    1    1    0    0    0  0.28180778891E+02  0.20577165004E+01  0.61589844199E+00  0.28262516289E+02  0.00000000000E+00 0. -1.
</event>
<event>
 5    1  0.1258624E-009  0.9118800E+02  0.7815553E-02  0.1125453E+00
         25   -1    0    0    0    0  0.00000000000E+00  0.00000000000E+00  0.99999998245E-14  0.12509000000E+03  0.12509000000E+03 0.  0.
        -13    1    3    3    0    0 -0.11330874161E+02  0.56490883644E+01 -0.27547620685E+02  0.30318038823E+02  0.10566000000E+00 0. -1.
         23    2    1    0    0    0  0.10346108225E+02  0.66253316992E+01  0.30456943738E+02  0.92248526261E+02  0.86204571804E+02 0.  0.
         13    1    3    3    0    0  0.21676982386E+02  0.97624333477E+00  0.58004564423E+02  0.61930487438E+02  0.10566000000E+00 0.  1.
         22    1    1    0    0    0 -0.10346108225E+02 -0.66253316992E+01 -0.30456943738E+02  0.32841473739E+02  0.00000000000E+00 0.  1.
</event>
<event>
 5    1  0.1258624E-009  0.9118800E+02  0.7815553E-02  0.1125453E+00
         25   -1    0    0    0    0  0.00000000000E+00  0.00000000000E+00  0.99999998245E-14  0.12509000000E+03  0.12509000000E+03 0.  0.
        -13    1    3    3    0    0  0.19255460269E+02  0.30906241399E+02 -0.10839651956E+01  0.36430133848E+02  0.10566000000E+00 0. -1.
         23    2    1    0    0    0  0.37234679188E+00 -0.27040751484E+02 -0.53391081847E+01  0.97524678323E+02  0.93547933825E+02 0.  0.
         13    1    3    3    0    0 -0.18883113477E+02 -0.57946992883E+02 -0.42551429892E+01  0.61094544475E+02  0.10566000000E+00 0.  1.
         22    1    1    0    0    0 -0.37234679188E+00  0.27040751484E+02  0.53391081847E+01  0.27565321677E+02  0.00000000000E+00 0.  1.
</event>
<event>
 5    1  0.1258624E-009  0.9118800E+02  0.7815553E-02  0.1125453E+00
         25   -1    0    0    0    0  0.00000000000E+00  0.00000000000E+00  0.99999998245E-14  0.12509000000E+03  0.12509000000E+03 0.  0.
        -13    1    3    3    0    0 -0.33096038312E+02 -0.94982419158E+00  0.18835554500E+02  0.38092508388E+02  0.10566000000E+00 0. -1.
         23    2    1    0    0    0  0.62056832021E+01  0.22870764989E+02 -0.16626911631E+02  0.96141138441E+02  0.91679233827E+02 0.  0.
         13    1    3    3    0    0  0.39301721514E+02  0.23820589180E+02 -0.35462466131E+02  0.58048630053E+02  0.10566000000E+00 0.  1.
         22    1    1    0    0    0 -0.62056832021E+01 -0.22870764989E+02  0.16626911631E+02  0.28948861559E+02  0.00000000000E+00 0.  1.
</event>
<event>
 5    1  0.1258624E-009  0.9118800E+02  0.7815553E-02  0.1125453E+00
         25   -1    0    0    0    0  0.00000000000E+00  0.00000000000E+00  0.99999998245E-14  0.12509000000E+03  0.12509000000E+03 0.  0.
        -13    1    3    3    0    0 -0.25847229235E+02 -0.16195318408E+02 -0.27743777687E+02  0.41232219948E+02  0.10566000000E+00 0. -1.
         23    2    1    0    0    0 -0.95224097514E+01  0.27403905095E+02  0.12044883625E+01  0.96053796836E+02  0.91559984669E+02 0.  0.
         13    1    3    3    0    0  0.16324819483E+02  0.43599223503E+02  0.28948266049E+02  0.54821576889E+02  0.10566000000E+00 0.  1.
         22    1    1    0    0    0  0.95224097514E+01 -0.27403905095E+02 -0.12044883625E+01  0.29036203164E+02  0.00000000000E+00 0.  1.
</event>
<event>
 5    1  0.1258624E-009  0.9118800E+02  0.7815553E-02  0.1125453E+00
         25   -1    0    0    0    0  0.00000000000E+00  0.00000000000E+00  0.99999998245E-14  0.12509000000E+03  0.12509000000E+03 0.  0.
        -13    1    3    3    0    0  0.15288400652E+02 -0.45179416850E+01  0.34678707667E+02  0.38167668531E+02  0.10566000000E+00 0.  1.
         23    2    1    0    0    0  0.16049294029E+02 -0.61865300989E+01 -0.23274206333E+02  0.96149687736E+02  0.91690898010E+02 0.  0.
         13    1    3    3    0    0  0.76089337710E+00 -0.16685884140E+01 -0.57952914000E+02  0.57982019206E+02  0.10566000000E+00 0. -1.
         22    1    1    0    0    0 -0.16049294029E+02  0.61865300989E+01  0.23274206333E+02  0.28940312264E+02  0.00000000000E+00 0. -1.
</event>
<event>
 5    1  0.1258624E-009  0.9118800E+02  0.7815553E-02  0.1125453E+00
         25   -1    0    0    0    0  0.00000000000E+00  0.00000000000E+00  0.99999998245E-14  0.12509000000E+03  0.12509000000E+03 0.  0.
        -13    1    3    3    0    0  0.15320609302E+02 -0.26056231003E+02 -0.45785104380E+02  0.54862876252E+02  0.10566000000E+00 0. -1.
         23    2    1    0    0    0  0.96838834094E+01 -0.26853062924E+02 -0.49193323784E+01  0.96123391339E+02  0.91655015930E+02 0.  0.
         13    1    3    3    0    0 -0.56367258928E+01 -0.79683192113E+00  0.40865772002E+02  0.41260515087E+02  0.10566000000E+00 0.  1.
         22    1    1    0    0    0 -0.96838834094E+01  0.26853062924E+02  0.49193323784E+01  0.28966608661E+02  0.00000000000E+00 0. -1.
</event>
<event>
 5    1  0.1258624E-009  0.9118800E+02  0.7815553E-02  0.1125453E+00
         25   -1    0    0    0    0  0.00000000000E+00  0.00000000000E+00  0.99999998245E-14  0.12509000000E+03  0.12509000000E+03 0.  0.
        -13    1    3    3    0    0  0.49153606188E+01 -0.43019732342E+02 -0.33335290464E+02  0.54645319060E+02  0.10566000000E+00 0. -1.
         23    2    1    0    0    0  0.11086855153E+02  0.49475162161E+01 -0.13544409421E+02  0.10690079165E+03  0.10534197622E+03 0.  0.
         13    1    3    3    0    0  0.61714945341E+01  0.47967248558E+02  0.19790881043E+02  0.52255472589E+02  0.10566000000E+00 0.  1.
         22    1    1    0    0    0 -0.11086855153E+02 -0.49475162161E+01  0.13544409421E+02  0.18189208352E+02  0.00000000000E+00 0.  1.
</event>
<event>
 5    1  0.1258624E-009  0.9118800E+02  0.7815553E-02  0.1125453E+00
         25   -1    0    0    0    0  0.00000000000E+00  0.00000000000E+00  0.99999998245E-14  0.12509000000E+03  0.12509000000E+03 0.  0.
        -13    1    3    3    0    0 -0.21034633799E+02 -0.24295891611E+02  0.49492475832E+02  0.59010698151E+02  0.10566000000E+00 0.  1.
         23    2    1    0    0    0 -0.14827830757E+02  0.26354006947E+01  0.24817158704E+02  0.96060682613E+02  0.91569391590E+02 0.  0.
         13    1    3    3    0    0  0.62068030414E+01  0.26931292306E+02 -0.24675317128E+02  0.37049984462E+02  0.10566000000E+00 0. -1.
         22    1    1    0    0    0  0.14827830757E+02 -0.26354006947E+01 -0.24817158704E+02  0.29029317387E+02  0.00000000000E+00 0.  1.
</event>
<event>
 5    1  0.1258624E-009  0.9118800E+02  0.7815553E-02  0.1125453E+00
         25   -1    0    0    0    0  0.00000000000E+00  0.00000000000E+00  0.99999998245E-14  0.12509000000E+03  0.12509000000E+03 0.  0.
        -13    1    3    3    0    0  0.21070577042E+02  0.63352938076E+00 -0.18510803503E+02  0.28054083245E+02  0.10566000000E+00 0. -1.
         23    2    1    0    0    0 -0.28366423411E+02 -0.24685051522E+02  0.24168062958E+01  0.87409146793E+02  0.78870224068E+02 0.  0.
         13    1    3    3    0    0 -0.49437000453E+02 -0.25318580903E+02  0.20927609799E+02  0.59355063547E+02  0.10566000000E+00 0.  1.
         22    1    1    0    0    0  0.28366423411E+02  0.24685051522E+02 -0.24168062958E+01  0.37680853207E+02  0.00000000000E+00 0.  1.
</event>
<event>
 5    1  0.1258624E-009  0.9118800E+02  0.7815553E-02  0.1125453E+00
         25   -1    0    0    0    0  0.00000000000E+00  0.00000000000E+00  0.99999998245E-14  0.12509000000E+03  0.12509000000E+03 0.  0.
        -13    1    3    3    0    0 -0.16154434755E+02 -0.24799494538E+02 -0.39573957399E+02  0.49417506613E+02  0.10566000000E+00 0. -1.
         23    2    1    0    0    0 -0.11758765596E+02  0.17001523904E+02 -0.21784064026E+02  0.95058918952E+02  0.90190533004E+02 0.  0.
         13    1    3    3    0    0  0.43956691583E+01  0.41801018441E+02  0.17789893373E+02  0.45641412339E+02  0.10566000000E+00 0.  1.
         22    1    1    0    0    0  0.11758765596E+02 -0.17001523904E+02  0.21784064026E+02  0.30031081048E+02  0.00000000000E+00 0.  1.
</event>
<event>
 5    1  0.1258624E-009  0.9118800E+02  0.7815553E-02  0.1125453E+00
         25   -1    0    0    0    0  0.00000000000E+00  0.00000000000E+00  0.99999998245E-14  0.12509000000E+03  0.12509000000E+03 0.  0.
        -13    1    3    3    0    0 -0.40343800157E+02  0.21485280160E+02 -0.17346666218E+01  0.45741225464E+02  0.10566000000E+00 0.  1.
         23    2    1    0    0    0 -0.36419835424E+01 -0.15592097464E+01 -0.28261477186E+02  0.96552195742E+02  0.92238388054E+02 0.  0.
         13    1    3    3    0    0  0.36701816614E+02 -0.23044489907E+02 -0.26526810564E+02  0.50810970278E+02  0.10566000000E+00 0. -1.
         22    1    1    0    0    0  0.36419835424E+01  0.15592097464E+01  0.28261477186E+02  0.28537804258E+02  0.00000000000E+00 0. -1.
</event>
<event>
 5    1  0.1258624E-009  0.9118800E+02  0.7815553E-02  0.1125453E+00
         25   -1    0    0    0    0  0.00000000000E+00  0.00000000000E+00  0.99999998245E-14  0.12509000000E+03  0.12509000000E+03 0.  0.
        -13    1    3    3    0    0  0.44858623879E+02 -0.97211877779E+01  0.16019473250E+01  0.45927932976E+02  0.10566000000E+00 0. -1.
         23    2    1    0    0    0 -0.33682252401E+01 -0.27523309876E+02  0.11457872722E+01  0.97337696379E+02  0.93297571138E+02 0.  0.
         13    1    3    3    0    0 -0.48226849119E+02 -0.17802122098E+02 -0.45616005284E+00  0.51409763403E+02  0.10566000000E+00 0.  1.
         22    1    1    0    0    0  0.33682252401E+01  0.27523309876E+02 -0.11457872722E+01  0.27752303621E+02  0.00000000000E+00 0. -1.
</event>
<event>
 5    1  0.1258624E-009  0.9118800E+02  0.7815553E-02  0.1125453E+00
         25   -1    0    0    0    0  0.00000000000E+00  0.00000000000E+00  0.99999998245E-14  0.12509000000E+03  0.12509000000E+03 0.  0.
        -13    1    3    3    0    0  0.49770896836E+02  0.24453247689E+01  0.16152821376E+02  0.52383648093E+02  0.10566000000E+00 0. -1.
         23    2    1    0    0    0  0.21701502207E+02  0.14462583389E+02 -0.14164742953E+02  0.95412374434E+02  0.90679433919E+02 0.  0.
         13    1    3    3    0    0 -0.28069394629E+02  0.12017258620E+02 -0.30317564330E+02  0.43028726341E+02  0.10566000000E+00 0.  1.
         22    1    1    0    0    0 -0.21701502207E+02 -0.14462583389E+02  0.14164742953E+02  0.29677625566E+02  0.00000000000E+00 0. -1.
</event>
<event>
 5    1  0.1258624E-009  0.9118800E+02  0.7815553E-02  0.1125453E+00
         25   -1    0    0    0    0  0.00000000000E+00  0.00000000000E+00  0.99999998245E-14  0.12509000000E+03  0.12509000000E+03 0.  0.
        -13    1    3    3    0    0  0.40833007805E+02  0.41446204234E+02 -0.19501577522E+02  0.61363222387E+02  0.10566000000E+00 0. -1.
         23    2    1    0    0    0  0.11830639099E+02  0.21431143531E+02 -0.13580085900E+02  0.97095774389E+02  0.92972645098E+02 0.  0.
         13    1    3    3    0    0 -0.29002368706E+02 -0.20015060703E+02  0.59214916227E+01  0.35732552002E+02  0.10566000000E+00 0.  1.
         22    1    1    0    0    0 -0.11830639099E+02 -0.21431143531E+02  0.13580085900E+02  0.27994225611E+02  0.00000000000E+00 0. -1.
</event>
<event>
 5    1  0.1258624E-009  0.9118800E+02  0.7815553E-02  0.1125453E+00
         25   -1    0    0    0    0  0.00000000000E+00  0.00000000000E+00  0.99999998245E-14  0.12509000000E+03  0.12509000000E+03 0.  0.
        -13    1    3    3    0    0  0.25985551798E+02 -0.16794111432E+02  0.49124904042E+00  0.30944200922E+02  0.10566000000E+00 0.  1.
         23    2    1    0    0    0 -0.46943136703E+01  0.32324772180E+02  0.12547678007E+02  0.90098976856E+02  0.83026826567E+02 0.  0.
         13    1    3    3    0    0 -0.30679865469E+02  0.49118883611E+02  0.12056428966E+02  0.59154775934E+02  0.10566000000E+00 0. -1.
         22    1    1    0    0    0  0.46943136703E+01 -0.32324772180E+02 -0.12547678007E+02  0.34991023144E+02  0.00000000000E+00 0. -1.
</event>
<event>
 5    1  0.1258624E-009  0.9118800E+02  0.7815553E-02  0.1125453E+00
         25   -1    0    0    0    0  0.00000000000E+00  0.00000000000E+00  0.99999998245E-14  0.12509000000E+03  0.12509000000E+03 0.  0.
        -13    1    3    3    0    0 -0.51478994262E+02 -0.10510148666E+02 -0.16052079659E+02  0.54938424628E+02  0.10566000000E+00 0. -1.
         23    2    1    0    0    0 -0.15528247412E+02 -0.24720501083E+02 -0.29843569600E+01  0.95744880679E+02  0.91136963678E+02 0.  0.
         13    1    3    3    0    0  0.35950746850E+02 -0.14210352417E+02  0.13067722699E+02  0.40806456052E+02  0.10566000000E+00 0.  1.
         22    1    1    0    0    0  0.15528247412E+02  0.24720501083E+02  0.29843569600E+01  0.29345119321E+02  0.00000000000E+00 0. -1.
</event>
<event>
 5    1  0.1258624E-009  0.9118800E+02  0.7815553E-02  0.1125453E+00
         25   -1    0    0    0    0  0.00000000000E+00  0.00000000000E+00  0.99999998245E-14  0.12509000000E+03  0.12509000000E+03 0.  0.
        -13    1    3    3    0    0  0.22433408409E+02 -0.83539038534E+00 -0.24531609258E+02  0.33253070637E+02  0.10566000000E+00 0.  1.
         23    2    1    0    0    0 -0.17261482916E+02  0.60894332661E+01  0.23083715801E+02  0.95629892649E+02  0.90979000011E+02 0.  0.
         13    1    3    3    0    0 -0.39694891325E+02  0.69248236515E+01  0.47615325058E+02  0.62376822012E+02  0.10566000000E+00 0. -1.
         22    1    1    0    0    0  0.17261482916E+02 -0.60894332661E+01 -0.23083715801E+02  0.29460107351E+02  0.00000000000E+00 0. -1.
</event>
<event>
 5    1  0.1258624E-009  0.9118800E+02  0.7815553E-02  0.1125453E+00
         25   -1    0    0    0    0  0.00000000000E+00  0.00000000000E+00  0.99999998245E-14  0.12509000000E+03  0.12509000000E+03 0.  0.
        -13    1    3    3    0    0 -0.24775006927E+02 -0.55106069145E+01 -0.30776117819E+02  0.39891707770E+02  0.10566000000E+00 0. -1.
         23    2    1    0    0    0  0.88933960978E+01  0.13669334150E+02 -0.41836241599E+02  0.80187724987E+02  0.66436864294E+02 0.  0.
         13    1    3    3    0    0  0.33668403024E+02  0.19179941065E+02 -0.11060123780E+02  0.40296017216E+02  0.10566000000E+00 0.  1.
         22    1    1    0    0    0 -0.88933960978E+01 -0.13669334150E+02  0.41836241599E+02  0.44902275013E+02  0.00000000000E+00 0.  1.
</event>
<event>
 5    1  0.1258624E-009  0.9118800E+02  0.7815553E-02  0.1125453E+00
         25   -1    0    0    0    0  0.00000000000E+00  0.00000000000E+00  0.99999998245E-14  0.12509000000E+03  0.12509000000E+03 0.  0.
        -13    1    3    3    0    0  0.23821554617E+02 -0.39954898896E+01  0.28759844178E+02  0.37557558560E+02  0.10566000000E+00 0.  1.
         23    2    1    0    0    0 -0.27133921621E+02 -0.11043062611E+02  0.15435988715E+01  0.95754328338E+02  0.91149930135E+02 0.  0.
         13    1    3    3    0    0 -0.50955476238E+02 -0.70475727214E+01 -0.27216245306E+02  0.58196769778E+02  0.10566000000E+00 0. -1.
         22    1    1    0    0    0  0.27133921621E+02  0.11043062611E+02 -0.15435988715E+01  0.29335671662E+02  0.00000000000E+00 0. -1.
</event>
<event>
 5    1  0.1258624E-009  0.9118800E+02  0.7815553E-02  0.1125453E+00
         25   -1    0    0    0    0  0.00000000000E+00  0.00000000000E+00  0.99999998245E-14  0.12509000000E+03  0.12509000000E+03 0.  0.
        -13    1    3    3    0    0 -0.12407339074E+01 -0.30948536531E+01 -0.48532421114E+02  0.48646938270E+02  0.10566000000E+00 0.  1.
         23    2    1    0    0    0  0.13453954824E+02 -0.23781600330E+02 -0.77334806343E+01  0.96693166772E+02  0.92429369591E+02 0.  0.
         13    1    3    3    0    0  0.14694688732E+02 -0.20686746677E+02  0.40798940480E+02  0.48046228502E+02  0.10566000000E+00 0. -1.
         22    1    1    0    0    0 -0.13453954824E+02  0.23781600330E+02  0.77334806343E+01  0.28396833228E+02  0.00000000000E+00 0.  1.
</event>
<event>
 5    1  0.1258624E-009  0.9118800E+02  0.7815553E-02  0.1125453E+00
         25   -1    0    0    0    0  0.00000000000E+00  0.00000000000E+00  0.99999998245E-14  0.12509000000E+03  0.12509000000E+03 0.  0.
        -13    1    3    3    0    0 -0.27082810825E+01 -0.34457236679E+02 -0.11631926757E+02  0.36468463500E+02  0.10566000000E+00 0.  1.
         23    2    1    0    0    0  0.13023095841E+02  0.23597422824E+02 -0.90003519162E+01  0.96674410549E+02  0.92403982226E+02 0.  0.
         13    1    3    3    0    0  0.15731376924E+02  0.58054659503E+02  0.26315748407E+01  0.60205947049E+02  0.10566000000E+00 0. -1.
         22    1    1    0    0    0 -0.13023095841E+02 -0.23597422824E+02  0.90003519162E+01  0.28415589451E+02  0.00000000000E+00 0. -1.
</event>
<event>
 5    1  0.1258624E-009  0.9118800E+02  0.7815553E-02  0.1125453E+00
         25   -1    0    0    0    0  0.00000000000E+00  0.00000000000E+00  0.99999998245E-14  0.12509000000E+03  0.12509000000E+03 0.  0.
        -13    1    3    3    0    0  0.48922499165E+01  0.38874428084E+02 -0.45245770014E+02  0.59852703667E+02  0.10566000000E+00 0. -1.
         23    2    1    0    0    0  0.60275970393E+01  0.23652367904E+02 -0.91859633936E+01  0.99010345919E+02  0.95513874605E+02 0.  0.
         13    1    3    3    0    0  0.11353471228E+01 -0.15222060180E+02  0.36059806620E+02  0.39157642252E+02  0.10566000000E+00 0.  1.
         22    1    1    0    0    0 -0.60275970393E+01 -0.23652367904E+02  0.91859633936E+01  0.26079654081E+02  0.00000000000E+00 0. -1.
</event>
<event>
 5    1  0.1258624E-009  0.9118800E+02  0.7815553E-02  0.1125453E+00
         25   -1    0    0    0    0  0.00000000000E+00  0.00000000000E+00  0.99999998245E-14  0.12509000000E+03  0.12509000000E+03 0.  0.
        -13    1    3    3    0    0 -0.36745950653E+02  0.50399293659E+02  0.43125550998E+01  0.62521700123E+02  0.10566000000E+00 0.  1.
         23    2    1    0    0    0 -0.17560018019E+02  0.23803394933E+02  0.84938171450E+00  0.95498154966E+02  0.90797688900E+02 0.  0.
         13    1    3    3    0    0  0.19185932634E+02 -0.26595898726E+02 -0.34631733853E+01  0.32976454843E+02  0.10566000000E+00 0. -1.
         22    1    1    0    0    0  0.17560018019E+02 -0.23803394933E+02 -0.84938171450E+00  0.29591845034E+02  0.00000000000E+00 0.  1.
</event>
<event>
 5    1  0.1258624E-009  0.9118800E+02  0.7815553E-02  0.1125453E+00
         25   -1    0    0    0    0  0.00000000000E+00  0.00000000000E+00  0.99999998245E-14  0.12509000000E+03  0.12509000000E+03 0.  0.
        -13    1    3    3    0    0 -0.15786313010E+02  0.23199928735E+00 -0.29238875711E+02  0.33229272020E+02  0.10566000000E+00 0.  1.
         23    2    1    0    0    0  0.15079471190E+02  0.35343105134E+02 -0.37338116028E+01  0.86483434742E+02  0.77388097301E+02 0.  0.
         13    1    3    3    0    0  0.30865784200E+02  0.35111105847E+02  0.25505064108E+02  0.53254162722E+02  0.10566000000E+00 0. -1.
         22    1    1    0    0    0 -0.15079471190E+02 -0.35343105134E+02  0.37338116028E+01  0.38606565258E+02  0.00000000000E+00 0. -1.
</event>
<event>
 5    1  0.1258624E-009  0.9118800E+02  0.7815553E-02  0.1125453E+00
         25   -1    0    0    0    0  0.00000000000E+00  0.00000000000E+00  0.99999998245E-14  0.12509000000E+03  0.12509000000E+03 0.  0.
        -13    1    3    3    0    0  0.31740008994E+02  0.16655799528E+02  0.45413554903E+02  0.57855388356E+02  0.10566000000E+00 0.  1.
         23    2    1    0    0    0  0.25111030007E+02 -0.50766860785E+01  0.16545265341E+02  0.94592748078E+02  0.89541641789E+02 0.  0.
         13    1    3    3    0    0 -0.66289789870E+01 -0.21732485607E+02 -0.28868289562E+02  0.36737359722E+02  0.10566000000E+00 0. -1.
         22    1    1    0    0    0 -0.25111030007E+02  0.50766860785E+01 -0.16545265341E+02  0.30497251922E+02  0.00000000000E+00 0.  1.
</event>
<event>
 5    1  0.1258624E-009  0.9118800E+02  0.7815553E-02  0.1125453E+00
         25   -1    0    0    0    0  0.00000000000E+00  0.00000000000E+00  0.99999998245E-14  0.12509000000E+03  0.12509000000E+03 0.  0.
        -13    1    3    3    0    0 -0.14822892333E+02  0.33282873291E+02  0.33839551473E+02  0.49725186772E+02  0.10566000000E+00 0. -1.
         23    2    1    0    0    0 -0.28193156078E+02  0.32384395838E+01  0.28160983947E+00  0.96710062637E+02  0.92452232913E+02 0.  0.
         13    1    3    3    0    0 -0.13370263745E+02 -0.30044433707E+02 -0.33557941633E+02  0.46984875865E+02  0.10566000000E+00 0.  1.
         22    1    1    0    0    0  0.28193156078E+02 -0.32384395838E+01 -0.28160983947E+00  0.28379937363E+02  0.00000000000E+00 0. -1.
</event>
<event>
 5    1  0.1258624E-009  0.9118800E+02  0.7815553E-02  0.1125453E+00
         25   -1    0    0    0    0  0.00000000000E+00  0.00000000000E+00  0.99999998245E-14  0.12509000000E+03  0.12509000000E+03 0.  0.
        -13    1    3    3    0    0 -0.14200756565E+02 -0.10685187766E+02 -0.41364197234E+02  0.45020469805E+02  0.10566000000E+00 0. -1.
         23    2    1    0    0    0 -0.21401841104E+02 -0.13712711004E+02  0.10586617346E+02  0.97555408800E+02  0.93589016842E+02 0.  0.
         13    1    3    3    0    0 -0.72010845393E+01 -0.30275232382E+01  0.51950814581E+02  0.52534938995E+02  0.10566000000E+00 0.  1.
         22    1    1    0    0    0  0.21401841104E+02  0.13712711004E+02 -0.10586617346E+02  0.27534591200E+02  0.00000000000E+00 0. -1.
</event>
<event>
 5    1  0.1258624E-009  0.9118800E+02  0.7815553E-02  0.1125453E+00
         25   -1    0    0    0    0  0.00000000000E+00  0.00000000000E+00  0.99999998245E-14  0.12509000000E+03  0.12509000000E+03 0.  0.
        -13    1    3    3    0    0 -0.17940466717E+02 -0.30163019086E+02 -0.34756288631E+02  0.49393105084E+02  0.10566000000E+00 0.  1.
         23    2    1    0    0    0 -0.25273861525E+02  0.87224354995E+01 -0.20292283009E+02  0.91524754475E+02  0.85147841867E+02 0.  0.
         13    1    3    3    0    0 -0.73333948080E+01  0.38885454586E+02  0.14464005621E+02  0.42131649391E+02  0.10566000000E+00 0. -1.
         22    1    1    0    0    0  0.25273861525E+02 -0.87224354995E+01  0.20292283009E+02  0.33565245525E+02  0.00000000000E+00 0. -1.
</event>
<event>
 5    1  0.1258624E-009  0.9118800E+02  0.7815553E-02  0.1125453E+00
         25   -1    0    0    0    0  0.00000000000E+00  0.00000000000E+00  0.99999998245E-14  0.12509000000E+03  0.12509000000E+03 0.  0.
        -13    1    3    3    0    0  0.47589832615E+02 -0.38493534118E+02  0.39008350824E+01  0.61333286359E+02  0.10566000000E+00 0.  1.
         23    2    1    0    0    0  0.25666722906E+02 -0.10442239738E+02 -0.14859715206E+01  0.97340600964E+02  0.93301465419E+02 0.  0.
         13    1    3    3    0    0 -0.21923109710E+02  0.28051294379E+02 -0.53868066030E+01  0.36007314606E+02  0.10566000000E+00 0. -1.
         22    1    1    0    0    0 -0.25666722906E+02  0.10442239738E+02  0.14859715206E+01  0.27749399036E+02  0.00000000000E+00 0.  1.
</event>
<event>
 5    1  0.1258624E-009  0.9118800E+02  0.7815553E-02  0.1125453E+00
         25   -1    0    0    0    0  0.00000000000E+00  0.00000000000E+00  0.99999998245E-14  0.12509000000E+03  0.12509000000E+03 0.  0.
        -13    1    3    3    0    0 -0.44811931012E+02  0.22625453611E+02 -0.36922423070E+02  0.62316103870E+02  0.10566000000E+00 0.  1.
         23    2    1    0    0    0 -0.23528491200E+02  0.16072094856E+02 -0.21086022976E+02  0.89642538932E+02  0.82336275663E+02 0.  0.
         13    1    3    3    0    0  0.21283439812E+02 -0.65533587553E+01  0.15836400094E+02  0.27326435062E+02  0.10566000000E+00 0. -1.
         22    1    1    0    0    0  0.23528491200E+02 -0.16072094856E+02  0.21086022976E+02  0.35447461068E+02  0.00000000000E+00 0.  1.
</event>
<event>
 5    1  0.1258624E-009  0.9118800E+02  0.7815553E-02  0.1125453E+00
         25   -1    0    0    0    0  0.00000000000E+00  0.00000000000E+00  0.99999998245E-14  0.12509000000E+03  0.12509000000E+03 0.  0.
        -13    1    3    3    0    0  0.16396239704E+02 -0.50318735088E+02  0.12984208229E+02  0.54492316932E+02  0.10566000000E+00 0. -1.
         23    2    1    0    0    0 -0.14843054171E+02 -0.25094464729E+02  0.71991322649E+01  0.95058750900E+02  0.90190299922E+02 0.  0.
         13    1    3    3    0    0 -0.31239293875E+02  0.25224270359E+02 -0.57850759637E+01  0.40566433968E+02  0.10566000000E+00 0.  1.
         22    1    1    0    0    0  0.14843054171E+02  0.25094464729E+02 -0.71991322649E+01  0.30031249100E+02  0.00000000000E+00 0.  1.
</event>
<event>
 5    1  0.1258624E-009  0.9118800E+02  0.7815553E-02  0.1125453E+00
         25   -1    0    0    0    0  0.00000000000E+00  0.00000000000E+00  0.99999998245E-14  0.12509000000E+03  0.12509000000E+03 0.  0.
        -13    1    3    3    0    0 -0.26444258173E+02  0.42933728687E+02  0.58963518014E+01  0.50767922726E+02  0.10566000000E+00 0. -1.
         23    2    1    0    0    0 -0.27445762858E+02  0.69129199589E+01 -0.15645222477E+02  0.92750684182E+02  0.86930190777E+02 0.  0.
         13    1    3    3    0    0 -0.10015046848E+01 -0.36020808728E+02 -0.21541574279E+02  0.41982761456E+02  0.10566000000E+00 0.  1.
         22    1    1    0    0    0  0.27445762858E+02 -0.69129199589E+01  0.15645222477E+02  0.32339315818E+02  0.00000000000E+00 0. -1.
</event>
<event>
 5    1  0.1258624E-009  0.9118800E+02  0.7815553E-02  0.1125453E+00
         25   -1    0    0    0    0  0.00000000000E+00  0.00000000000E+00  0.99999998245E-14  0.12509000000E+03  0.12509000000E+03 0.  0.
        -13    1    3    3    0    0 -0.31291981083E+02 -0.18849958884E+02  0.28420000822E+01  0.36641467746E+02  0.10566000000E+00 0. -1.
         23    2    1    0    0    0  0.22799457129E+02 -0.75436978856E+00  0.18421205351E+02  0.95768930345E+02  0.91169967060E+02 0.  0.
         13    1    3    3    0    0  0.54091438212E+02  0.18095589096E+02  0.15579205269E+02  0.59127462599E+02  0.10566000000E+00 0.  1.
         22    1    1    0    0    0 -0.22799457129E+02  0.75436978856E+00 -0.18421205351E+02  0.29321069655E+02  0.00000000000E+00 0.  1.
</event>
<event>
 5    1  0.1258624E-009  0.9118800E+02  0.7815553E-02  0.1125453E+00
         25   -1    0    0    0    0  0.00000000000E+00  0.00000000000E+00  0.99999998245E-14  0.12509000000E+03  0.12509000000E+03 0.  0.
        -13    1    3    3    0    0  0.35220110836E+02  0.16935932143E+01 -0.22576308908E+01  0.35333164684E+02  0.10566000000E+00 0.  1.
         23    2    1    0    0    0 -0.19374113512E+02 -0.77206978166E+00  0.22550054601E+02  0.95350172687E+02  0.90593587537E+02 0.  0.
         13    1    3    3    0    0 -0.54594224348E+02 -0.24656629960E+01  0.24807685491E+02  0.60017008003E+02  0.10566000000E+00 0. -1.
         22    1    1    0    0    0  0.19374113512E+02  0.77206978166E+00 -0.22550054601E+02  0.29739827313E+02  0.00000000000E+00 0. -1.
</event>
<event>
 5    1  0.1258624E-009  0.9118800E+02  0.7815553E-02  0.1125453E+00
         25   -1    0    0    0    0  0.00000000000E+00  0.00000000000E+00  0.99999998245E-14  0.12509000000E+03  0.12509000000E+03 0.  0.
        -13    1    3    3    0    0  0.13467179669E+02 -0.34546474062E+02 -0.93247458690E+01  0.38233308095E+02  0.10566000000E+00 0. -1.
         23    2    1    0    0    0 -0.56296720924E+01  0.55112588792E+01  0.27864672449E+02  0.96133012018E+02  0.91668145213E+02 0.  0.
         13    1    3    3    0    0 -0.19096851762E+02  0.40057732941E+02  0.37189418318E+02  0.57899703923E+02  0.10566000000E+00 0.  1.
         22    1    1    0    0    0  0.56296720924E+01 -0.55112588792E+01 -0.27864672449E+02  0.28956987982E+02  0.00000000000E+00 0.  1.
</event>
<event>
 5    1  0.1258624E-009  0.9118800E+02  0.7815553E-02  0.1125453E+00
         25   -1    0    0    0    0  0.00000000000E+00  0.00000000000E+00  0.99999998245E-14  0.12509000000E+03  0.12509000000E+03 0.  0.
        -13    1    3    3    0    0  0.27418039830E+02  0.23858606618E+02 -0.36288327931E+02  0.51359866880E+02  0.10566000000E+00 0.  1.
         23    2    1    0    0    0 -0.49211235222E+01  0.28447663471E+02 -0.66541138950E+01  0.95462913653E+02  0.90749124721E+02 0.  0.
         13    1    3    3    0    0 -0.32339163352E+02  0.45890568533E+01  0.29634214036E+02  0.44103046773E+02  0.10566000000E+00 0. -1.
         22    1    1    0    0    0  0.49211235222E+01 -0.28447663471E+02  0.66541138950E+01  0.29627086347E+02  0.00000000000E+00 0.  1.
</event>
<event>
 5    1  0.1258624E-009  0.9118800E+02  0.7815553E-02  0.1125453E+00
         25   -1    0    0    0    0  0.00000000000E+00  0.00000000000E+00  0.99999998245E-14  0.12509000000E+03  0.12509000000E+03 0.  0.
        -13    1    3    3    0    0  0.26472007026E+02 -0.21214887704E+02 -0.14280875682E+02  0.36807515409E+02  0.10566000000E+00 0. -1.
         23    2    1    0    0    0 -0.15670411702E+01  0.29299886559E+02 -0.44591998496E+01  0.95411330325E+02  0.90677993586E+02 0.  0.
         13    1    3    3    0    0 -0.28039048196E+02  0.50514774263E+02  0.98216758323E+01  0.58603814916E+02  0.10566000000E+00 0.  1.
         22    1    1    0    0    0  0.15670411702E+01 -0.29299886559E+02  0.44591998496E+01  0.29678669675E+02  0.00000000000E+00 0.  1.
</event>
<event>
 5    1  0.1258624E-009  0.9118800E+02  0.7815553E-02  0.1125453E+00
         25   -1    0    0    0    0  0.00000000000E+00  0.00000000000E+00  0.99999998245E-14  0.12509000000E+03  0.12509000000E+03 0.  0.
        -13    1    3    3    0    0 -0.45316363761E+02 -0.14688256218E+02  0.16777940731E+02  0.50505723977E+02  0.10566000000E+00 0. -1.
         23    2    1    0    0    0 -0.21124244735E+02  0.20662170304E+02  0.36038464853E+01  0.95321783614E+02  0.90554379930E+02 0.  0.
         13    1    3    3    0    0  0.24192119025E+02  0.35350426522E+02 -0.13174094246E+02  0.44816059637E+02  0.10566000000E+00 0.  1.
         22    1    1    0    0    0  0.21124244735E+02 -0.20662170304E+02 -0.36038464853E+01  0.29768216386E+02  0.00000000000E+00 0.  1.
</event>
<event>
 5    1  0.1258624E-009  0.9118800E+02  0.7815553E-02  0.1125453E+00
         25   -1    0    0    0    0  0.00000000000E+00  0.00000000000E+00  0.99999998245E-14  0.12509000000E+03  0.12509000000E+03 0.  0.
        -13    1    3    3    0    0  0.54419389342E+01 -0.59276500962E+01 -0.49508518495E+02  0.50158312398E+02  0.10566000000E+00 0. -1.
         23    2    1    0    0    0 -0.16443524941E+02  0.17447689898E+02 -0.17739911441E+02  0.95265247642E+02  0.90476248569E+02 0.  0.
         13    1    3    3    0    0 -0.21885463876E+02  0.23375339994E+02  0.31768607055E+02  0.45106935244E+02  0.10566000000E+00 0.  1.
         22    1    1    0    0    0  0.16443524941E+02 -0.17447689898E+02  0.17739911441E+02  0.29824752358E+02  0.00000000000E+00 0. -1.
</event>
<event>
 5    1  0.1258624E-009  0.9118800E+02  0.7815553E-02  0.1125453E+00
         25   -1    0    0    0    0  0.00000000000E+00  0.00000000000E+00  0.99999998245E-14  0.12509000000E+03  0.12509000000E+03 0.  0.
        -13    1    3    3    0    0  0.20630333090E+01  0.74842457808E+01 -0.57318638823E+02  0.57842091611E+02  0.10566000000E+00 0.  1.
         23    2    1    0    0    0  0.40750117658E+01  0.19708941798E+02 -0.21988905577E+02  0.95281275167E+02  0.90498405076E+02 0.  0.
         13    1    3    3    0    0  0.20119784568E+01  0.12224696018E+02  0.35329733247E+02  0.37439183556E+02  0.10566000000E+00 0. -1.
         22    1    1    0    0    0 -0.40750117658E+01 -0.19708941798E+02  0.21988905577E+02  0.29808724833E+02  0.00000000000E+00 0.  1.
</event>
<event>
 5    1  0.1258624E-009  0.9118800E+02  0.7815553E-02  0.1125453E+00
         25   -1    0    0    0    0  0.00000000000E+00  0.00000000000E+00  0.99999998245E-14  0.12509000000E+03  0.12509000000E+03 0.  0.
        -13    1    3    3    0    0 -0.32702096855E+02  0.32295862825E+02  0.25133834970E+02  0.52384832907E+02  0.10566000000E+00 0.  1.
         23    2    1    0    0    0 -0.27817029932E+02 -0.68061174832E+01  0.79898347092E+01  0.95358739547E+02  0.90605415731E+02 0.  0.
         13    1    3    3    0    0  0.48850669231E+01 -0.39101980309E+02 -0.17144000261E+02  0.42973906640E+02  0.10566000000E+00 0. -1.
         22    1    1    0    0    0  0.27817029932E+02  0.68061174832E+01 -0.79898347092E+01  0.29731260453E+02  0.00000000000E+00 0. -1.
</event>
<event>
 5    1  0.1258624E-009  0.9118800E+02  0.7815553E-02  0.1125453E+00
         25   -1    0    0    0    0  0.00000000000E+00  0.00000000000E+00  0.99999998245E-14  0.12509000000E+03  0.12509000000E+03 0.  0.
        -13    1    3    3    0    0  0.39805199375E+02 -0.74829573919E+01  0.24212286407E+02  0.47187864178E+02  0.10566000000E+00 0.  1.
         23    2    1    0    0    0  0.13729739434E+02 -0.22703317023E+02 -0.13356689117E+02  0.95385665418E+02  0.90642582015E+02 0.  0.
         13    1    3    3    0    0 -0.26075459941E+02 -0.15220359631E+02 -0.37568975524E+02  0.48197801240E+02  0.10566000000E+00 0. -1.
         22    1    1    0    0    0 -0.13729739434E+02  0.22703317023E+02  0.13356689117E+02  0.29704334582E+02  0.00000000000E+00 0. -1.
</event>
<event>
 5    1  0.1258624E-009  0.9118800E+02  0.7815553E-02  0.1125453E+00
         25   -1    0    0    0    0  0.00000000000E+00  0.00000000000E+00  0.99999998245E-14  0.12509000000E+03  0.12509000000E+03 0.  0.
        -13    1    3    3    0    0 -0.37372723873E+02 -0.16102759391E+02 -0.92037610881E+01  0.41722173145E+02  0.10566000000E+00 0. -1.
         23    2    1    0    0    0  0.15288291434E+02 -0.24629927046E+02  0.12081786834E+01  0.96075781813E+02  0.91590015799E+02 0.  0.
         13    1    3    3    0    0  0.52661015307E+02 -0.85271676551E+01  0.10411939771E+02  0.54353608668E+02  0.10566000000E+00 0.  1.
         22    1    1    0    0    0 -0.15288291434E+02  0.24629927046E+02 -0.12081786834E+01  0.29014218187E+02  0.00000000000E+00 0.  1.
</event>
<event>
 5    1  0.1258624E-009  0.9118800E+02  0.7815553E-02  0.1125453E+00
         25   -1    0    0    0    0  0.00000000000E+00  0.00000000000E+00  0.99999998245E-14  0.12509000000E+03  0.12509000000E+03 0.  0.
        -13    1    3    3    0    0 -0.24410379203E+02  0.13941626823E+02 -0.21104001426E+02  0.35151466705E+02  0.10566000000E+00 0.  1.
         23    2    1    0    0    0  0.69073194394E+01 -0.29907310279E+02  0.31330371782E+01  0.94235920984E+02  0.89041757686E+02 0.  0.
         13    1    3    3    0    0  0.31317698642E+02 -0.43848937101E+02  0.24237038604E+02  0.59084454279E+02  0.10566000000E+00 0. -1.
         22    1    1    0    0    0 -0.69073194394E+01  0.29907310279E+02 -0.31330371782E+01  0.30854079016E+02  0.00000000000E+00 0. -1.
</event>
<event>
 5    1  0.1258624E-009  0.9118800E+02  0.7815553E-02  0.1125453E+00
         25   -1    0    0    0    0  0.00000000000E+00  0.00000000000E+00  0.99999998245E-14  0.12509000000E+03  0.12509000000E+03 0.  0.
        -13    1    3    3    0    0  0.35706391553E+01  0.32131591851E+02  0.29983422376E+02  0.44093145049E+02  0.10566000000E+00 0.  1.
         23    2    1    0    0    0  0.17794108882E+02 -0.11441872560E+02  0.28032146956E+02  0.89970945036E+02  0.82833706479E+02 0.  0.
         13    1    3    3    0    0  0.14223469727E+02 -0.43573464411E+02 -0.19512754201E+01  0.45877799987E+02  0.10566000000E+00 0. -1.
         22    1    1    0    0    0 -0.17794108882E+02  0.11441872560E+02 -0.28032146956E+02  0.35119054964E+02  0.00000000000E+00 0. -1.
</event>
<event>
 5    1  0.1258624E-009  0.9118800E+02  0.7815553E-02  0.1125453E+00
         25   -1    0    0    0    0  0.00000000000E+00  0.00000000000E+00  0.99999998245E-14  0.12509000000E+03  0.12509000000E+03 0.  0.
        -13    1    3    3    0    0  0.30555721041E+02 -0.26673402306E+02  0.33957784805E+02  0.52898627503E+02  0.10566000000E+00 0.  1.
         23    2    1    0    0    0 -0.30253700092E+01 -0.27710099508E+02  0.60704015333E+01  0.96561904143E+02  0.92251553258E+02 0.  0.
         13    1    3    3    0    0 -0.33581091050E+02 -0.10366972022E+01 -0.27887383271E+02  0.43663276640E+02  0.10566000000E+00 0. -1.
         22    1    1    0    0    0  0.30253700092E+01  0.27710099508E+02 -0.60704015333E+01  0.28528095857E+02  0.00000000000E+00 0.  1.
</event>
<event>
 5    1  0.1258624E-009  0.9118800E+02  0.7815553E-02  0.1125453E+00
         25   -1    0    0    0    0  0.00000000000E+00  0.00000000000E+00  0.99999998245E-14  0.12509000000E+03  0.12509000000E+03 0.  0.
        -13    1    3    3    0    0  0.17739043695E+02 -0.90494765064E+00 -0.38370885419E+02  0.42282722397E+02  0.10566000000E+00 0.  1.
         23    2    1    0    0    0 -0.47867642872E+00  0.30868664441E+02 -0.16091690106E+01  0.94175715269E+02  0.88957137690E+02 0.  0.
         13    1    3    3    0    0 -0.18217720124E+02  0.31773612092E+02  0.36761716408E+02  0.51892992872E+02  0.10566000000E+00 0. -1.
         22    1    1    0    0    0  0.47867642872E+00 -0.30868664441E+02  0.16091690106E+01  0.30914284731E+02  0.00000000000E+00 0. -1.
</event>
<event>
 5    1  0.1258624E-009  0.9118800E+02  0.7815553E-02  0.1125453E+00
         25   -1    0    0    0    0  0.00000000000E+00  0.00000000000E+00  0.99999998245E-14  0.12509000000E+03  0.12509000000E+03 0.  0.
        -13    1    3    3    0    0 -0.28491758283E+02 -0.10110714237E+02 -0.17464003525E+02  0.34914315339E+02  0.10566000000E+00 0.  1.
         23    2    1    0    0    0  0.27751095443E+02  0.88027887518E+01 -0.65729650239E+01  0.95243454851E+02  0.90446113430E+02 0.  0.
         13    1    3    3    0    0  0.56242853727E+02  0.18913502989E+02  0.10891038501E+02  0.60329139512E+02  0.10566000000E+00 0. -1.
         22    1    1    0    0    0 -0.27751095443E+02 -0.88027887518E+01  0.65729650239E+01  0.29846545149E+02  0.00000000000E+00 0. -1.
</event>
<event>
 5    1  0.1258624E-009  0.9118800E+02  0.7815553E-02  0.1125453E+00
         25   -1    0    0    0    0  0.00000000000E+00  0.00000000000E+00  0.99999998245E-14  0.12509000000E+03  0.12509000000E+03 0.  0.
        -13    1    3    3    0    0  0.54741433909E+02 -0.42624373424E+01 -0.31644927601E+01  0.54998346675E+02  0.10566000000E+00 0. -1.
         23    2    1    0    0    0  0.21711718593E+02  0.93339294663E+01  0.16964522526E+02  0.95998489415E+02  0.91484392012E+02 0.  0.
         13    1    3    3    0    0 -0.33029715316E+02  0.13596366809E+02  0.20129015287E+02  0.41000142740E+02  0.10566000000E+00 0.  1.
         22    1    1    0    0    0 -0.21711718593E+02 -0.93339294663E+01 -0.16964522526E+02  0.29091510585E+02  0.00000000000E+00 0. -1.
</event>
<event>
 5    1  0.1258624E-009  0.9118800E+02  0.7815553E-02  0.1125453E+00
         25   -1    0    0    0    0  0.00000000000E+00  0.00000000000E+00  0.99999998245E-14  0.12509000000E+03  0.12509000000E+03 0.  0.
        -13    1    3    3    0    0 -0.13140244850E+02  0.46218519845E+02 -0.17504936618E+02  0.51139530516E+02  0.10566000000E+00 0. -1.
         23    2    1    0    0    0  0.18137556353E+02  0.22036567441E+02  0.42004867269E+01  0.96241683866E+02  0.91816318645E+02 0.  0.
         13    1    3    3    0    0  0.31277801203E+02 -0.24181952404E+02  0.21705423345E+02  0.45102153349E+02  0.10566000000E+00 0.  1.
         22    1    1    0    0    0 -0.18137556353E+02 -0.22036567441E+02 -0.42004867269E+01  0.28848316134E+02  0.00000000000E+00 0. -1.
</event>
<event>
 5    1  0.1258624E-009  0.9118800E+02  0.7815553E-02  0.1125453E+00
         25   -1    0    0    0    0  0.00000000000E+00  0.00000000000E+00  0.99999998245E-14  0.12509000000E+03  0.12509000000E+03 0.  0.
        -13    1    3    3    0    0  0.38740854220E+02 -0.25685515135E+02  0.23111879152E+02  0.51911170237E+02  0.10566000000E+00 0.  1.
         23    2    1    0    0    0  0.28090986332E+02  0.24311575229E+01 -0.86012274966E+01  0.95611276241E+02  0.90953400101E+02 0.  0.
         13    1    3    3    0    0 -0.10649867887E+02  0.28116672658E+02 -0.31713106649E+02  0.43700106004E+02  0.10566000000E+00 0. -1.
         22    1    1    0    0    0 -0.28090986332E+02 -0.24311575229E+01  0.86012274966E+01  0.29478723759E+02  0.00000000000E+00 0. -1.
</event>
<event>
 5    1  0.1258624E-009  0.9118800E+02  0.7815553E-02  0.1125453E+00
         25   -1    0    0    0    0  0.00000000000E+00  0.00000000000E+00  0.99999998245E-14  0.12509000000E+03  0.12509000000E+03 0.  0.
        -13    1    3    3    0    0 -0.34130831965E+02  0.96118227279E+01 -0.50408407275E+02  0.61630507988E+02  0.10566000000E+00 0.  1.
         23    2    1    0    0    0 -0.21381659756E+02  0.95666326552E+01 -0.21214754978E+02  0.93486809290E+02  0.87983077056E+02 0.  0.
         13    1    3    3    0    0  0.12749172210E+02 -0.45190072712E-01  0.29193652297E+02  0.31856301302E+02  0.10566000000E+00 0. -1.
         22    1    1    0    0    0  0.21381659756E+02 -0.95666326552E+01  0.21214754978E+02  0.31603190710E+02  0.00000000000E+00 0.  1.
</event>
<event>
 5    1  0.1258624E-009  0.9118800E+02  0.7815553E-02  0.1125453E+00
         25   -1    0    0    0    0  0.00000000000E+00  0.00000000000E+00  0.99999998245E-14  0.12509000000E+03  0.12509000000E+03 0.  0.
        -13    1    3    3    0    0  0.25302210767E+02 -0.52354546991E+02  0.13966155477E+02  0.59801882271E+02  0.10566000000E+00 0.  1.
         23    2    1    0    0    0  0.22355493606E+02 -0.16912092171E+02  0.37265844839E+01  0.96811485401E+02  0.92589358555E+02 0.  0.
         13    1    3    3    0    0 -0.29467171606E+01  0.35442454820E+02 -0.10239570993E+02  0.37009603130E+02  0.10566000000E+00 0. -1.
         22    1    1    0    0    0 -0.22355493606E+02  0.16912092171E+02 -0.37265844839E+01  0.28278514599E+02  0.00000000000E+00 0.  1.
</event>
<event>
 5    1  0.1258624E-009  0.9118800E+02  0.7815553E-02  0.1125453E+00
         25   -1    0    0    0    0  0.00000000000E+00  0.00000000000E+00  0.99999998245E-14  0.12509000000E+03  0.12509000000E+03 0.  0.
        -13    1    3    3    0    0 -0.37446168492E+02  0.14330287191E+02  0.33892132315E+02  0.52500099643E+02  0.10566000000E+00 0.  1.
         23    2    1    0    0    0 -0.26982032272E+02  0.82044921397E+01 -0.77262392914E+01  0.95848958118E+02  0.91279703340E+02 0.  0.
         13    1    3    3    0    0  0.10464136220E+02 -0.61257950508E+01 -0.41618371606E+02  0.43348858474E+02  0.10566000000E+00 0. -1.
         22    1    1    0    0    0  0.26982032272E+02 -0.82044921397E+01  0.77262392914E+01  0.29241041882E+02  0.00000000000E+00 0.  1.
</event>
<event>
 5    1  0.1258624E-009  0.9118800E+02  0.7815553E-02  0.1125453E+00
         25   -1    0    0    0    0  0.00000000000E+00  0.00000000000E+00  0.99999998245E-14  0.12509000000E+03  0.12509000000E+03 0.  0.
        -13    1    3    3    0    0 -0.35212515767E+02  0.13146594890E+02  0.48389464847E+02  0.61272389345E+02  0.10566000000E+00 0.  1.
         23    2    1    0    0    0 -0.11260150976E+02  0.12977429260E+02  0.25032133887E+02  0.94728636441E+02  0.89731277517E+02 0.  0.
         13    1    3    3    0    0  0.23952364791E+02 -0.16916562989E+00 -0.23357330960E+02  0.33456247096E+02  0.10566000000E+00 0. -1.
         22    1    1    0    0    0  0.11260150976E+02 -0.12977429260E+02 -0.25032133887E+02  0.30361363559E+02  0.00000000000E+00 0.  1.
</event>
<event>
 5    1  0.1258624E-009  0.9118800E+02  0.7815553E-02  0.1125453E+00
         25   -1    0    0    0    0  0.00000000000E+00  0.00000000000E+00  0.99999998245E-14  0.12509000000E+03  0.12509000000E+03 0.  0.
        -13    1    3    3    0    0 -0.67934250116E+01  0.14762122652E+01  0.36343310320E+02  0.37002394451E+02  0.10566000000E+00 0.  1.
         23    2    1    0    0    0  0.25240985014E+02 -0.75291005202E+01 -0.12364833113E+02  0.95992168860E+02  0.91475749275E+02 0.  0.
         13    1    3    3    0    0  0.32034410026E+02 -0.90053127854E+01 -0.48708143433E+02  0.58989774409E+02  0.10566000000E+00 0. -1.
         22    1    1    0    0    0 -0.25240985014E+02  0.75291005202E+01  0.12364833113E+02  0.29097831140E+02  0.00000000000E+00 0. -1.
</event>
<event>
 5    1  0.1258624E-009  0.9118800E+02  0.7815553E-02  0.1125453E+00
         25   -1    0    0    0    0  0.00000000000E+00  0.00000000000E+00  0.99999998245E-14  0.12509000000E+03  0.12509000000E+03 0.  0.
        -13    1    3    3    0    0 -0.33540261057E+02  0.24451277271E+02  0.91493936471E+01  0.42503372103E+02  0.10566000000E+00 0.  1.
         23    2    1    0    0    0  0.10733069335E+02  0.27023318560E+02 -0.14319480036E+02  0.92678489207E+02  0.86826242173E+02 0.  0.
         13    1    3    3    0    0  0.44273330392E+02  0.25720412890E+01 -0.23468873683E+02  0.50175117104E+02  0.10566000000E+00 0. -1.
         22    1    1    0    0    0 -0.10733069335E+02 -0.27023318560E+02  0.14319480036E+02  0.32411510793E+02  0.00000000000E+00 0. -1.
</event>
<event>
 5    1  0.1258624E-009  0.9118800E+02  0.7815553E-02  0.1125453E+00
         25   -1    0    0    0    0  0.00000000000E+00  0.00000000000E+00  0.99999998245E-14  0.12509000000E+03  0.12509000000E+03 0.  0.
        -13    1    3    3    0    0  0.24812629208E+02  0.27819158129E+02 -0.41158658630E+00  0.37279386996E+02  0.10566000000E+00 0.  1.
         23    2    1    0    0    0 -0.15631344060E+02  0.53764018723E+00  0.27476864296E+02  0.93473452977E+02  0.87964085659E+02 0.  0.
         13    1    3    3    0    0 -0.40443973267E+02 -0.27281517942E+02  0.27888450882E+02  0.56194065982E+02  0.10566000000E+00 0. -1.
         22    1    1    0    0    0  0.15631344060E+02 -0.53764018723E+00 -0.27476864296E+02  0.31616547023E+02  0.00000000000E+00 0. -1.
</event>
<event>
 5    1  0.1258624E-009  0.9118800E+02  0.7815553E-02  0.1125453E+00
         25   -1    0    0    0    0  0.00000000000E+00  0.00000000000E+00  0.99999998245E-14  0.12509000000E+03  0.12509000000E+03 0.  0.
        -13    1    3    3    0    0  0.24188464349E+01  0.31751801087E+02 -0.28182466601E+02  0.42523996497E+02  0.10566000000E+00 0.  1.
         23    2    1    0    0    0  0.17223068526E+02  0.21026512520E+02  0.18200084397E+02  0.92379277136E+02  0.86394093861E+02 0.  0.
         13    1    3    3    0    0  0.14804222091E+02 -0.10725288567E+02  0.46382550998E+02  0.49855280640E+02  0.10566000000E+00 0. -1.
         22    1    1    0    0    0 -0.17223068526E+02 -0.21026512520E+02 -0.18200084397E+02  0.32710722864E+02  0.00000000000E+00 0. -1.
</event>
<event>
 5    1  0.1258624E-009  0.9118800E+02  0.7815553E-02  0.1125453E+00
         25   -1    0    0    0    0  0.00000000000E+00  0.00000000000E+00  0.99999998245E-14  0.12509000000E+03  0.12509000000E+03 0.  0.
        -13    1    3    3    0    0 -0.30500827736E+02 -0.14414857756E+02 -0.58756888127E+01  0.34243590638E+02  0.10566000000E+00 0.  1.
         23    2    1    0    0    0  0.21025444311E+02  0.11956849764E+02 -0.19862181309E+02  0.93792367325E+02  0.88416437144E+02 0.  0.
         13    1    3    3    0    0  0.51526272047E+02  0.26371707520E+02 -0.13986492496E+02  0.59548776687E+02  0.10566000000E+00 0. -1.
         22    1    1    0    0    0 -0.21025444311E+02 -0.11956849764E+02  0.19862181309E+02  0.31297632675E+02  0.00000000000E+00 0. -1.
</event>
<event>
 5    1  0.1258624E-009  0.9118800E+02  0.7815553E-02  0.1125453E+00
         25   -1    0    0    0    0  0.00000000000E+00  0.00000000000E+00  0.99999998245E-14  0.12509000000E+03  0.12509000000E+03 0.  0.
        -13    1    3    3    0    0  0.24743907051E+02  0.31471250781E+02 -0.14815656658E+02  0.42687415102E+02  0.10566000000E+00 0.  1.
         23    2    1    0    0    0  0.11302394759E+02 -0.21055786262E+02 -0.14939118035E+02  0.96907248004E+02  0.92718645405E+02 0.  0.
         13    1    3    3    0    0 -0.13441512292E+02 -0.52527037043E+02 -0.12346137703E+00  0.54219832902E+02  0.10566000000E+00 0. -1.
         22    1    1    0    0    0 -0.11302394759E+02  0.21055786262E+02  0.14939118035E+02  0.28182751996E+02  0.00000000000E+00 0.  1.
</event>
<event>
 5    1  0.1258624E-009  0.9118800E+02  0.7815553E-02  0.1125453E+00
         25   -1    0    0    0    0  0.00000000000E+00  0.00000000000E+00  0.99999998245E-14  0.12509000000E+03  0.12509000000E+03 0.  0.
        -13    1    3    3    0    0  0.30209506020E+02  0.17430955492E+02 -0.22087882008E+02  0.41283630641E+02  0.10566000000E+00 0.  1.
         23    2    1    0    0    0  0.44420877114E+01 -0.28007086531E+02 -0.10939298622E+02  0.94695966152E+02  0.89685721896E+02 0.  0.
         13    1    3    3    0    0 -0.25767418308E+02 -0.45438042023E+02  0.11148583386E+02  0.53412335511E+02  0.10566000000E+00 0. -1.
         22    1    1    0    0    0 -0.44420877114E+01  0.28007086531E+02  0.10939298622E+02  0.30394033848E+02  0.00000000000E+00 0. -1.
</event>
<event>
 5    1  0.1258624E-009  0.9118800E+02  0.7815553E-02  0.1125453E+00
         25   -1    0    0    0    0  0.00000000000E+00  0.00000000000E+00  0.99999998245E-14  0.12509000000E+03  0.12509000000E+03 0.  0.
        -13    1    3    3    0    0 -0.36819305163E+02 -0.15407228223E+02 -0.30817661874E+02  0.50426018697E+02  0.10566000000E+00 0.  1.
         23    2    1    0    0    0 -0.19995522350E+02 -0.15080367141E+02  0.12646172018E+02  0.97033555930E+02  0.92888895583E+02 0.  0.
         13    1    3    3    0    0  0.16823782813E+02  0.32686108266E+00  0.43463833892E+02  0.46607537233E+02  0.10566000000E+00 0. -1.
         22    1    1    0    0    0  0.19995522350E+02  0.15080367141E+02 -0.12646172018E+02  0.28056444070E+02  0.00000000000E+00 0. -1.
</event>
<event>
 5    1  0.1258624E-009  0.9118800E+02  0.7815553E-02  0.1125453E+00
         25   -1    0    0    0    0  0.00000000000E+00  0.00000000000E+00  0.99999998245E-14  0.12509000000E+03  0.12509000000E+03 0.  0.
        -13    1    3    3    0    0  0.28261868589E+02 -0.21257739957E+02  0.13764781934E+02  0.37948716842E+02  0.10566000000E+00 0.  1.
         23    2    1    0    0    0 -0.21113255835E+02  0.12666235216E+02  0.11546097982E+02  0.97895966369E+02  0.94043100578E+02 0.  0.
         13    1    3    3    0    0 -0.49375124424E+02  0.33923975173E+02 -0.22186839519E+01  0.59947249528E+02  0.10566000000E+00 0. -1.
         22    1    1    0    0    0  0.21113255835E+02 -0.12666235216E+02 -0.11546097982E+02  0.27194033631E+02  0.00000000000E+00 0. -1.
</event>
<event>
 5    1  0.1258624E-009  0.9118800E+02  0.7815553E-02  0.1125453E+00
         25   -1    0    0    0    0  0.00000000000E+00  0.00000000000E+00  0.99999998245E-14  0.12509000000E+03  0.12509000000E+03 0.  0.
        -13    1    3    3    0    0 -0.23984244719E+02 -0.15395580401E+02  0.21282147838E+02  0.35569774686E+02  0.10566000000E+00 0.  1.
         23    2    1    0    0    0 -0.20101603921E+01  0.12301299718E+02 -0.26964561990E+02  0.95383934578E+02  0.90640193362E+02 0.  0.
         13    1    3    3    0    0  0.21974084327E+02  0.27696880119E+02 -0.48246709828E+02  0.59814159892E+02  0.10566000000E+00 0. -1.
         22    1    1    0    0    0  0.20101603921E+01 -0.12301299718E+02  0.26964561990E+02  0.29706065422E+02  0.00000000000E+00 0. -1.
</event>
<event>
 5    1  0.1258624E-009  0.9118800E+02  0.7815553E-02  0.1125453E+00
         25   -1    0    0    0    0  0.00000000000E+00  0.00000000000E+00  0.99999998245E-14  0.12509000000E+03  0.12509000000E+03 0.  0.
        -13    1    3    3    0    0 -0.32840113811E+02  0.77801894650E+00  0.90937123555E+01  0.34084969665E+02  0.10566000000E+00 0.  1.
         23    2    1    0    0    0  0.27809319598E+02  0.71520952925E+01 -0.28757254079E+01  0.96232063133E+02  0.91803210481E+02 0.  0.
         13    1    3    3    0    0  0.60649433409E+02  0.63740763460E+01 -0.11969437763E+02  0.62147093468E+02  0.10566000000E+00 0. -1.
         22    1    1    0    0    0 -0.27809319598E+02 -0.71520952925E+01  0.28757254079E+01  0.28857936867E+02  0.00000000000E+00 0. -1.
</event>
<event>
 5    1  0.1258624E-009  0.9118800E+02  0.7815553E-02  0.1125453E+00
         25   -1    0    0    0    0  0.00000000000E+00  0.00000000000E+00  0.99999998245E-14  0.12509000000E+03  0.12509000000E+03 0.  0.
        -13    1    3    3    0    0 -0.12999940406E+02  0.33695075754E+02  0.82571116161E+01  0.37047910020E+02  0.10566000000E+00 0.  1.
         23    2    1    0    0    0 -0.11404263118E+02 -0.24731219313E+02  0.11367541698E+02  0.95578791447E+02  0.90908712147E+02 0.  0.
         13    1    3    3    0    0  0.15956772882E+01 -0.58426295067E+02  0.31104300818E+01  0.58530881427E+02  0.10566000000E+00 0. -1.
         22    1    1    0    0    0  0.11404263118E+02  0.24731219313E+02 -0.11367541698E+02  0.29511208553E+02  0.00000000000E+00 0. -1.
</event>
<event>
 5    1  0.1258624E-009  0.9118800E+02  0.7815553E-02  0.1125453E+00
         25   -1    0    0    0    0  0.00000000000E+00  0.00000000000E+00  0.99999998245E-14  0.12509000000E+03  0.12509000000E+03 0.  0.
        -13    1    3    3    0    0  0.41440176136E+01  0.24005536484E+02 -0.35268914028E+02  0.42864275622E+02  0.10566000000E+00 0.  1.
         23    2    1    0    0    0 -0.16995049613E+02  0.20189619728E+02  0.12980963275E+02  0.95679834009E+02  0.91047640125E+02 0.  0.
         13    1    3    3    0    0 -0.21139067226E+02 -0.38159167559E+01  0.48249877303E+02  0.52815558386E+02  0.10566000000E+00 0. -1.
         22    1    1    0    0    0  0.16995049613E+02 -0.20189619728E+02 -0.12980963275E+02  0.29410165991E+02  0.00000000000E+00 0. -1.
</event>
<event>
 5    1  0.1258624E-009  0.9118800E+02  0.7815553E-02  0.1125453E+00
         25   -1    0    0    0    0  0.00000000000E+00  0.00000000000E+00  0.99999998245E-14  0.12509000000E+03  0.12509000000E+03 0.  0.
        -13    1    3    3    0    0 -0.87222191523E+01  0.47958511318E+02 -0.19354025689E+02  0.52446976931E+02  0.10566000000E+00 0. -1.
         23    2    1    0    0    0 -0.15227107595E+02  0.62913240830E+01 -0.25158754126E+02  0.95016615196E+02  0.90131840599E+02 0.  0.
         13    1    3    3    0    0 -0.65048884424E+01 -0.41667187235E+02 -0.58047284369E+01  0.42569638265E+02  0.10566000000E+00 0.  1.
         22    1    1    0    0    0  0.15227107595E+02 -0.62913240830E+01  0.25158754126E+02  0.30073384804E+02  0.00000000000E+00 0. -1.
</event>
<event>
 5    1  0.1258624E-009  0.9118800E+02  0.7815553E-02  0.1125453E+00
         25   -1    0    0    0    0  0.00000000000E+00  0.00000000000E+00  0.99999998245E-14  0.12509000000E+03  0.12509000000E+03 0.  0.
        -13    1    3    3    0    0  0.77970574688E+00  0.40904688252E+01  0.34657468255E+02  0.34906892531E+02  0.10566000000E+00 0.  1.
         23    2    1    0    0    0 -0.16208785692E+02  0.18184418508E+01 -0.24030737302E+02  0.96046794260E+02  0.91550417192E+02 0.  0.
         13    1    3    3    0    0 -0.16988491439E+02 -0.22720269744E+01 -0.58688205557E+02  0.61139901729E+02  0.10566000000E+00 0. -1.
         22    1    1    0    0    0  0.16208785692E+02 -0.18184418508E+01  0.24030737302E+02  0.29043205740E+02  0.00000000000E+00 0. -1.
</event>
<event>
 5    1  0.1258624E-009  0.9118800E+02  0.7815553E-02  0.1125453E+00
         25   -1    0    0    0    0  0.00000000000E+00  0.00000000000E+00  0.99999998245E-14  0.12509000000E+03  0.12509000000E+03 0.  0.
        -13    1    3    3    0    0 -0.42376604775E+02 -0.14713032407E+02 -0.43539091301E+02  0.62513307305E+02  0.10566000000E+00 0. -1.
         23    2    1    0    0    0 -0.19502046992E+02 -0.81213507289E+01 -0.21290276803E+02  0.95097299873E+02  0.90243749824E+02 0.  0.
         13    1    3    3    0    0  0.22874557783E+02  0.65916816778E+01  0.22248814497E+02  0.32583992568E+02  0.10566000000E+00 0.  1.
         22    1    1    0    0    0  0.19502046992E+02  0.81213507289E+01  0.21290276803E+02  0.29992700127E+02  0.00000000000E+00 0. -1.
</event>
<event>
 5    1  0.1258624E-009  0.9118800E+02  0.7815553E-02  0.1125453E+00
         25   -1    0    0    0    0  0.00000000000E+00  0.00000000000E+00  0.99999998245E-14  0.12509000000E+03  0.12509000000E+03 0.  0.
        -13    1    3    3    0    0 -0.12537181899E+02  0.17979208852E+02 -0.57263924891E+02  0.61315586427E+02  0.10566000000E+00 0. -1.
         23    2    1    0    0    0 -0.12719043181E+01  0.16066575769E+02 -0.27257353414E+02  0.93424310166E+02  0.87894173967E+02 0.  0.
         13    1    3    3    0    0  0.11265277581E+02 -0.19126330837E+01  0.30006571477E+02  0.32108723739E+02  0.10566000000E+00 0.  1.
         22    1    1    0    0    0  0.12719043181E+01 -0.16066575769E+02  0.27257353414E+02  0.31665689834E+02  0.00000000000E+00 0. -1.
</event>
<event>
 5    1  0.1258624E-009  0.9118800E+02  0.7815553E-02  0.1125453E+00
         25   -1    0    0    0    0  0.00000000000E+00  0.00000000000E+00  0.99999998245E-14  0.12509000000E+03  0.12509000000E+03 0.  0.
        -13    1    3    3    0    0  0.33229282524E+02 -0.29681339047E+01  0.18555327843E+02  0.38174682597E+02  0.10566000000E+00 0. -1.
         23    2    1    0    0    0 -0.95819486109E+01 -0.26022825697E+02 -0.11202086912E+02  0.95182008633E+02  0.90361091294E+02 0.  0.
         13    1    3    3    0    0 -0.42811231135E+02 -0.23054691792E+02 -0.29757414755E+02  0.57007326037E+02  0.10566000000E+00 0.  1.
         22    1    1    0    0    0  0.95819486109E+01  0.26022825697E+02  0.11202086912E+02  0.29907991367E+02  0.00000000000E+00 0.  1.
</event>
<event>
 5    1  0.1258624E-009  0.9118800E+02  0.7815553E-02  0.1125453E+00
         25   -1    0    0    0    0  0.00000000000E+00  0.00000000000E+00  0.99999998245E-14  0.12509000000E+03  0.12509000000E+03 0.  0.
        -13    1    3    3    0    0  0.17621797864E+02 -0.14149158475E+02  0.44735821962E+02  0.50120169355E+02  0.10566000000E+00 0. -1.
         23    2    1    0    0    0 -0.10064862616E+02  0.12542511615E+02  0.29510447501E+02  0.91482224578E+02  0.85085338601E+02 0.  0.
         13    1    3    3    0    0 -0.27686660480E+02  0.26691670090E+02 -0.15225374461E+02  0.41362055223E+02  0.10566000000E+00 0.  1.
         22    1    1    0    0    0  0.10064862616E+02 -0.12542511615E+02 -0.29510447501E+02  0.33607775422E+02  0.00000000000E+00 0. -1.
</event>
<event>
 5    1  0.1258624E-009  0.9118800E+02  0.7815553E-02  0.1125453E+00
         25   -1    0    0    0    0  0.00000000000E+00  0.00000000000E+00  0.99999998245E-14  0.12509000000E+03  0.12509000000E+03 0.  0.
        -13    1    3    3    0    0 -0.10754476553E+02  0.33319435994E+02  0.25070949549E+02  0.43062829171E+02  0.10566000000E+00 0.  1.
         23    2    1    0    0    0 -0.39085033482E+02  0.17297998420E+02  0.24927472572E+02  0.75610312446E+02  0.57172369792E+02 0.  0.
         13    1    3    3    0    0 -0.28330556929E+02 -0.16021437574E+02 -0.14347697656E+00  0.32547483275E+02  0.10566000000E+00 0. -1.
         22    1    1    0    0    0  0.39085033482E+02 -0.17297998420E+02 -0.24927472572E+02  0.49479687554E+02  0.00000000000E+00 0.  1.
</event>
<event>
 5    1  0.1258624E-009  0.9118800E+02  0.7815553E-02  0.1125453E+00
         25   -1    0    0    0    0  0.00000000000E+00  0.00000000000E+00  0.99999998245E-14  0.12509000000E+03  0.12509000000E+03 0.  0.
        -13    1    3    3    0    0  0.20614883719E+01 -0.14695830013E+01 -0.36533647288E+02  0.36621413910E+02  0.10566000000E+00 0.  1.
         23    2    1    0    0    0 -0.18325442393E+02 -0.39955551801E+01  0.20537200264E+02  0.97277001334E+02  0.93216157901E+02 0.  0.
         13    1    3    3    0    0 -0.20386930765E+02 -0.25259721787E+01  0.57070847552E+02  0.60655587425E+02  0.10566000000E+00 0. -1.
         22    1    1    0    0    0  0.18325442393E+02  0.39955551801E+01 -0.20537200264E+02  0.27812998666E+02  0.00000000000E+00 0. -1.
</event>
<event>
 5    1  0.1258624E-009  0.9118800E+02  0.7815553E-02  0.1125453E+00
         25   -1    0    0    0    0  0.00000000000E+00  0.00000000000E+00  0.99999998245E-14  0.12509000000E+03  0.12509000000E+03 0.  0.
        -13    1    3    3    0    0 -0.46198723303E+02  0.13189325869E+02  0.13094988388E+02  0.49797291459E+02  0.10566000000E+00 0.  1.
         23    2    1    0    0    0 -0.24272967829E+02 -0.21948413042E+02  0.54467813780E+01  0.91915051174E+02  0.85719305892E+02 0.  0.
         13    1    3    3    0    0  0.21925755474E+02 -0.35137738911E+02 -0.76482070097E+01  0.42117759715E+02  0.10566000000E+00 0. -1.
         22    1    1    0    0    0  0.24272967829E+02  0.21948413042E+02 -0.54467813780E+01  0.33174948826E+02  0.00000000000E+00 0.  1.
</event>
<event>
 5    1  0.1258624E-009  0.9118800E+02  0.7815553E-02  0.1125453E+00
         25   -1    0    0    0    0  0.00000000000E+00  0.00000000000E+00  0.99999998245E-14  0.12509000000E+03  0.12509000000E+03 0.  0.
        -13    1    3    3    0    0  0.15544633304E+02  0.33667263580E+02  0.28691711464E+02  0.46886519729E+02  0.10566000000E+00 0.  1.
         23    2    1    0    0    0  0.53261582294E+01  0.29023990178E+02 -0.14993493404E+02  0.91990682609E+02  0.85829603722E+02 0.  0.
         13    1    3    3    0    0 -0.10218475075E+02 -0.46432734025E+01 -0.43685204867E+02  0.45104162880E+02  0.10566000000E+00 0. -1.
         22    1    1    0    0    0 -0.53261582294E+01 -0.29023990178E+02  0.14993493404E+02  0.33099317391E+02  0.00000000000E+00 0.  1.
</event>
<event>
 5    1  0.1258624E-009  0.9118800E+02  0.7815553E-02  0.1125453E+00
         25   -1    0    0    0    0  0.00000000000E+00  0.00000000000E+00  0.99999998245E-14  0.12509000000E+03  0.12509000000E+03 0.  0.
        -13    1    3    3    0    0  0.49886498499E+02  0.14542196980E+02  0.54451058488E+01  0.52247474267E+02  0.10566000000E+00 0.  1.
         23    2    1    0    0    0  0.19727987911E+02 -0.14950656432E+02  0.15853537187E+02  0.95695267885E+02  0.91068842199E+02 0.  0.
         13    1    3    3    0    0 -0.30158510588E+02 -0.29492853412E+02  0.10408431339E+02  0.43447793618E+02  0.10566000000E+00 0. -1.
         22    1    1    0    0    0 -0.19727987911E+02  0.14950656432E+02 -0.15853537187E+02  0.29394732115E+02  0.00000000000E+00 0. -1.
</event>
<event>
 5    1  0.1258624E-009  0.9118800E+02  0.7815553E-02  0.1125453E+00
         25   -1    0    0    0    0  0.00000000000E+00  0.00000000000E+00  0.99999998245E-14  0.12509000000E+03  0.12509000000E+03 0.  0.
        -13    1    3    3    0    0  0.50470817042E+02 -0.83776445823E+01  0.28430780564E+02  0.58530408756E+02  0.10566000000E+00 0. -1.
         23    2    1    0    0    0  0.25073722869E+02  0.11506833576E+02  0.96050927087E+01  0.95877731971E+02  0.91319126608E+02 0.  0.
         13    1    3    3    0    0 -0.25397094173E+02  0.19884478158E+02 -0.18825687855E+02  0.37347323215E+02  0.10566000000E+00 0.  1.
         22    1    1    0    0    0 -0.25073722869E+02 -0.11506833576E+02 -0.96050927087E+01  0.29212268029E+02  0.00000000000E+00 0. -1.
</event>
<event>
 5    1  0.1258624E-009  0.9118800E+02  0.7815553E-02  0.1125453E+00
         25   -1    0    0    0    0  0.00000000000E+00  0.00000000000E+00  0.99999998245E-14  0.12509000000E+03  0.12509000000E+03 0.  0.
        -13    1    3    3    0    0  0.98511851079E+01 -0.22556041859E+02 -0.34676067111E+02  0.42523660081E+02  0.10566000000E+00 0. -1.
         23    2    1    0    0    0  0.82993167111E+01 -0.18553257425E+02  0.19531863117E+02  0.96901426149E+02  0.92710790601E+02 0.  0.
         13    1    3    3    0    0 -0.15518683968E+01  0.40027844340E+01  0.54207930229E+02  0.54377766067E+02  0.10566000000E+00 0.  1.
         22    1    1    0    0    0 -0.82993167111E+01  0.18553257425E+02 -0.19531863117E+02  0.28188573851E+02  0.00000000000E+00 0.  1.
</event>
<event>
 5    1  0.1258624E-009  0.9118800E+02  0.7815553E-02  0.1125453E+00
         25   -1    0    0    0    0  0.00000000000E+00  0.00000000000E+00  0.99999998245E-14  0.12509000000E+03  0.12509000000E+03 0.  0.
        -13    1    3    3    0    0  0.33644905807E+02 -0.47440204048E+02  0.63525969508E+01  0.58505720224E+02  0.10566000000E+00 0.  1.
         23    2    1    0    0    0  0.51919757604E+01 -0.23163071188E+02  0.15150716538E+02  0.96929234904E+02  0.92748303965E+02 0.  0.
         13    1    3    3    0    0 -0.28452930047E+02  0.24277132860E+02  0.87981195873E+01  0.38423514681E+02  0.10566000000E+00 0. -1.
         22    1    1    0    0    0 -0.51919757604E+01  0.23163071188E+02 -0.15150716538E+02  0.28160765096E+02  0.00000000000E+00 0.  1.
</event>
<event>
 5    1  0.1258624E-009  0.9118800E+02  0.7815553E-02  0.1125453E+00
         25   -1    0    0    0    0  0.00000000000E+00  0.00000000000E+00  0.99999998245E-14  0.12509000000E+03  0.12509000000E+03 0.  0.
        -13    1    3    3    0    0  0.13517523423E+02  0.26737417739E+02  0.18109728537E+02  0.35008375835E+02  0.10566000000E+00 0. -1.
         23    2    1    0    0    0  0.37778403917E+01 -0.29423192960E+02 -0.17644218970E+01  0.95372840872E+02  0.90624881955E+02 0.  0.
         13    1    3    3    0    0 -0.97396830315E+01 -0.56160610700E+02 -0.19874150434E+02  0.60364465037E+02  0.10566000000E+00 0.  1.
         22    1    1    0    0    0 -0.37778403917E+01  0.29423192960E+02  0.17644218970E+01  0.29717159128E+02  0.00000000000E+00 0.  1.
</event>
<event>
 5    1  0.1258624E-009  0.9118800E+02  0.7815553E-02  0.1125453E+00
         25   -1    0    0    0    0  0.00000000000E+00  0.00000000000E+00  0.99999998245E-14  0.12509000000E+03  0.12509000000E+03 0.  0.
        -13    1    3    3    0    0 -0.57472922904E+02  0.24391834529E+02 -0.13512201491E+01  0.62449462918E+02  0.10566000000E+00 0. -1.
         23    2    1    0    0    0 -0.26474729943E+02  0.89235019750E+01 -0.17752534954E+01  0.97095505219E+02  0.92972282943E+02 0.  0.
         13    1    3    3    0    0  0.30998192960E+02 -0.15468332554E+02 -0.42403334624E+00  0.34646042301E+02  0.10566000000E+00 0.  1.
         22    1    1    0    0    0  0.26474729943E+02 -0.89235019750E+01  0.17752534954E+01  0.27994494781E+02  0.00000000000E+00 0. -1.
</event>
<event>
 5    1  0.1258624E-009  0.9118800E+02  0.7815553E-02  0.1125453E+00
         25   -1    0    0    0    0  0.00000000000E+00  0.00000000000E+00  0.99999998245E-14  0.12509000000E+03  0.12509000000E+03 0.  0.
        -13    1    3    3    0    0  0.39050829596E+02 -0.18562864944E+02 -0.13693611921E+02  0.45354971266E+02  0.10566000000E+00 0.  1.
         23    2    1    0    0    0  0.13793083880E+02  0.24736992250E+02 -0.68760358269E+01  0.95944711921E+02  0.91410830476E+02 0.  0.
         13    1    3    3    0    0 -0.25257745716E+02  0.43299857194E+02  0.68175760940E+01  0.50589740655E+02  0.10566000000E+00 0. -1.
         22    1    1    0    0    0 -0.13793083880E+02 -0.24736992250E+02  0.68760358269E+01  0.29145288079E+02  0.00000000000E+00 0. -1.
</event>
<event>
 5    1  0.1258624E-009  0.9118800E+02  0.7815553E-02  0.1125453E+00
         25   -1    0    0    0    0  0.00000000000E+00  0.00000000000E+00  0.99999998245E-14  0.12509000000E+03  0.12509000000E+03 0.  0.
        -13    1    3    3    0    0 -0.25863295186E+02 -0.44663572111E+02 -0.13143938601E+01  0.51628320783E+02  0.10566000000E+00 0. -1.
         23    2    1    0    0    0 -0.12048837261E+02 -0.10338938631E+02 -0.24937892013E+02  0.95527074072E+02  0.90837521385E+02 0.  0.
         13    1    3    3    0    0  0.13814457925E+02  0.34324633480E+02 -0.23623498153E+02  0.43898753289E+02  0.10566000000E+00 0.  1.
         22    1    1    0    0    0  0.12048837261E+02  0.10338938631E+02  0.24937892013E+02  0.29562925928E+02  0.00000000000E+00 0. -1.
</event>
<event>
 5    1  0.1258624E-009  0.9118800E+02  0.7815553E-02  0.1125453E+00
         25   -1    0    0    0    0  0.00000000000E+00  0.00000000000E+00  0.99999998245E-14  0.12509000000E+03  0.12509000000E+03 0.  0.
        -13    1    3    3    0    0  0.12343439332E+00 -0.14158328148E+02  0.60134962453E+02  0.61779433190E+02  0.10566000000E+00 0. -1.
         23    2    1    0    0    0 -0.54590335506E+01 -0.21928726427E+01  0.27167604323E+02  0.97292725630E+02  0.93237256492E+02 0.  0.
         13    1    3    3    0    0 -0.55824679439E+01  0.11965455505E+02 -0.32967358130E+02  0.35513292440E+02  0.10566000000E+00 0.  1.
         22    1    1    0    0    0  0.54590335506E+01  0.21928726427E+01 -0.27167604323E+02  0.27797274370E+02  0.00000000000E+00 0. -1.
</event>
<event>
 5    1  0.1258624E-009  0.9118800E+02  0.7815553E-02  0.1125453E+00
         25   -1    0    0    0    0  0.00000000000E+00  0.00000000000E+00  0.99999998245E-14  0.12509000000E+03  0.12509000000E+03 0.  0.
        -13    1    3    3    0    0  0.23347104774E+02  0.17621732061E+02  0.15910471336E+02  0.33298153167E+02  0.10566000000E+00 0. -1.
         23    2    1    0    0    0 -0.22778261668E+02 -0.12625326808E+02 -0.13444312427E+02  0.95781338852E+02  0.91186990597E+02 0.  0.
         13    1    3    3    0    0 -0.46125366442E+02 -0.30247058868E+02 -0.29354783763E+02  0.62483185686E+02  0.10566000000E+00 0.  1.
         22    1    1    0    0    0  0.22778261668E+02  0.12625326808E+02  0.13444312427E+02  0.29308661148E+02  0.00000000000E+00 0.  1.
</event>
<event>
 5    1  0.1258624E-009  0.9118800E+02  0.7815553E-02  0.1125453E+00
         25   -1    0    0    0    0  0.00000000000E+00  0.00000000000E+00  0.99999998245E-14  0.12509000000E+03  0.12509000000E+03 0.  0.
        -13    1    3    3    0    0  0.53087772392E+01  0.16332855113E+02  0.27173813993E+02  0.32146113340E+02  0.10566000000E+00 0. -1.
         23    2    1    0    0    0  0.48438054211E+01 -0.19005972439E+02 -0.23847786350E+02  0.94212721086E+02  0.89009159424E+02 0.  0.
         13    1    3    3    0    0 -0.46497181814E+00 -0.35338827552E+02 -0.51021600343E+02  0.62066607746E+02  0.10566000000E+00 0.  1.
         22    1    1    0    0    0 -0.48438054211E+01  0.19005972439E+02  0.23847786350E+02  0.30877278914E+02  0.00000000000E+00 0.  1.
</event>
<event>
 5    1  0.1258624E-009  0.9118800E+02  0.7815553E-02  0.1125453E+00
         25   -1    0    0    0    0  0.00000000000E+00  0.00000000000E+00  0.99999998245E-14  0.12509000000E+03  0.12509000000E+03 0.  0.
        -13    1    3    3    0    0 -0.39716396441E+02  0.25744933599E+02 -0.15523019542E+02  0.49811334573E+02  0.10566000000E+00 0.  1.
         23    2    1    0    0    0  0.55522672089E+00  0.24696666926E+02  0.11004941561E+02  0.98046657516E+02  0.94243326964E+02 0.  0.
         13    1    3    3    0    0  0.40271623161E+02 -0.10482666725E+01  0.26527961103E+02  0.48235322943E+02  0.10566000000E+00 0. -1.
         22    1    1    0    0    0 -0.55522672089E+00 -0.24696666926E+02 -0.11004941561E+02  0.27043342484E+02  0.00000000000E+00 0.  1.
</event>
<event>
 5    1  0.1258624E-009  0.9118800E+02  0.7815553E-02  0.1125453E+00
         25   -1    0    0    0    0  0.00000000000E+00  0.00000000000E+00  0.99999998245E-14  0.12509000000E+03  0.12509000000E+03 0.  0.
        -13    1    3    3    0    0 -0.72434004210E+01  0.55817283711E+02  0.25777982169E+02  0.61907604859E+02  0.10566000000E+00 0.  1.
         23    2    1    0    0    0 -0.94241663442E+01  0.24351487920E+02  0.10634884358E+02  0.96895840312E+02  0.92703253607E+02 0.  0.
         13    1    3    3    0    0 -0.21807659232E+01 -0.31465795792E+02 -0.15143097811E+02  0.34988235454E+02  0.10566000000E+00 0. -1.
         22    1    1    0    0    0  0.94241663442E+01 -0.24351487920E+02 -0.10634884358E+02  0.28194159688E+02  0.00000000000E+00 0.  1.
</event>
<event>
 5    1  0.1258624E-009  0.9118800E+02  0.7815553E-02  0.1125453E+00
         25   -1    0    0    0    0  0.00000000000E+00  0.00000000000E+00  0.99999998245E-14  0.12509000000E+03  0.12509000000E+03 0.  0.
        -13    1    3    3    0    0  0.46748878343E+01  0.40201319055E+02  0.28912457136E+01  0.40575498713E+02  0.10566000000E+00 0. -1.
         23    2    1    0    0    0  0.21755664311E+02 -0.99411360335E+01 -0.15429178295E+02  0.96626081469E+02  0.92338534545E+02 0.  0.
         13    1    3    3    0    0  0.17080776477E+02 -0.50142455089E+02 -0.18320424009E+02  0.56050582756E+02  0.10566000000E+00 0.  1.
         22    1    1    0    0    0 -0.21755664311E+02  0.99411360335E+01  0.15429178295E+02  0.28463918531E+02  0.00000000000E+00 0.  1.
</event>
<event>
 5    1  0.1258624E-009  0.9118800E+02  0.7815553E-02  0.1125453E+00
         25   -1    0    0    0    0  0.00000000000E+00  0.00000000000E+00  0.99999998245E-14  0.12509000000E+03  0.12509000000E+03 0.  0.
        -13    1    3    3    0    0 -0.42517568770E+02  0.19628565185E+02 -0.37279596389E+02  0.59856525930E+02  0.10566000000E+00 0. -1.
         23    2    1    0    0    0 -0.26637594319E+02  0.86641816262E+01 -0.62618403244E+01  0.96387384813E+02  0.92014606626E+02 0.  0.
         13    1    3    3    0    0  0.15879974452E+02 -0.10964383559E+02  0.31017756065E+02  0.36530858883E+02  0.10566000000E+00 0.  1.
         22    1    1    0    0    0  0.26637594319E+02 -0.86641816262E+01  0.62618403244E+01  0.28702615187E+02  0.00000000000E+00 0. -1.
</event>
<event>
 5    1  0.1258624E-009  0.9118800E+02  0.7815553E-02  0.1125453E+00
         25   -1    0    0    0    0  0.00000000000E+00  0.00000000000E+00  0.99999998245E-14  0.12509000000E+03  0.12509000000E+03 0.  0.
        -13    1    3    3    0    0 -0.23264121600E+02  0.33884158836E+02 -0.23076725546E+02  0.47137055485E+02  0.10566000000E+00 0.  1.
         23    2    1    0    0    0  0.95998983822E+01  0.27080157712E+02  0.10394504689E+02  0.94536134149E+02  0.89462516964E+02 0.  0.
         13    1    3    3    0    0  0.32864019982E+02 -0.68040011241E+01  0.33471230235E+02  0.47399078664E+02  0.10566000000E+00 0. -1.
         22    1    1    0    0    0 -0.95998983822E+01 -0.27080157712E+02 -0.10394504689E+02  0.30553865851E+02  0.00000000000E+00 0.  1.
</event>
<event>
 5    1  0.1258624E-009  0.9118800E+02  0.7815553E-02  0.1125453E+00
         25   -1    0    0    0    0  0.00000000000E+00  0.00000000000E+00  0.99999998245E-14  0.12509000000E+03  0.12509000000E+03 0.  0.
        -13    1    3    3    0    0 -0.31876643516E+02  0.78775263198E+01  0.50147832133E+02  0.59941572005E+02  0.10566000000E+00 0. -1.
         23    2    1    0    0    0 -0.57042225954E+01  0.11999526514E+02  0.26458840679E+02  0.95482618453E+02  0.90776282060E+02 0.  0.
         13    1    3    3    0    0  0.26172420921E+02  0.41220001942E+01 -0.23688991454E+02  0.35541046448E+02  0.10566000000E+00 0.  1.
         22    1    1    0    0    0  0.57042225954E+01 -0.11999526514E+02 -0.26458840679E+02  0.29607381547E+02  0.00000000000E+00 0. -1.
</event>
<event>
 5    1  0.1258624E-009  0.9118800E+02  0.7815553E-02  0.1125453E+00
         25   -1    0    0    0    0  0.00000000000E+00  0.00000000000E+00  0.99999998245E-14  0.12509000000E+03  0.12509000000E+03 0.  0.
        -13    1    3    3    0    0 -0.32849116720E+02  0.76810500856E+01 -0.23743199166E+02  0.41253044377E+02  0.10566000000E+00 0.  1.
         23    2    1    0    0    0  0.19612496084E+02 -0.22293098146E+01 -0.23178460066E+02  0.94645610765E+02  0.89615460726E+02 0.  0.
         13    1    3    3    0    0  0.52461612803E+02 -0.99103599001E+01  0.56473910000E+00  0.53392566388E+02  0.10566000000E+00 0. -1.
         22    1    1    0    0    0 -0.19612496084E+02  0.22293098146E+01  0.23178460066E+02  0.30444389235E+02  0.00000000000E+00 0.  1.
</event>
<event>
 5    1  0.1258624E-009  0.9118800E+02  0.7815553E-02  0.1125453E+00
         25   -1    0    0    0    0  0.00000000000E+00  0.00000000000E+00  0.99999998245E-14  0.12509000000E+03  0.12509000000E+03 0.  0.
        -13    1    3    3    0    0 -0.27659875588E+02  0.21194153564E+02  0.46383697116E+02  0.58014820391E+02  0.10566000000E+00 0.  1.
         23    2    1    0    0    0  0.47400651596E+01  0.10750215757E+02  0.33738949771E+01  0.11286631300E+03  0.11220243351E+03 0.  0.
         13    1    3    3    0    0  0.32399940748E+02 -0.10443937806E+02 -0.43009802139E+02  0.54851492609E+02  0.10566000000E+00 0. -1.
         22    1    1    0    0    0 -0.47400651596E+01 -0.10750215757E+02 -0.33738949771E+01  0.12223687000E+02  0.00000000000E+00 0.  1.
</event>
<event>
 5    1  0.1258624E-009  0.9118800E+02  0.7815553E-02  0.1125453E+00
         25   -1    0    0    0    0  0.00000000000E+00  0.00000000000E+00  0.99999998245E-14  0.12509000000E+03  0.12509000000E+03 0.  0.
        -13    1    3    3    0    0  0.28119541758E+02  0.10970100122E+02  0.50004009287E+02  0.58407737794E+02  0.10566000000E+00 0.  1.
         23    2    1    0    0    0  0.93854198635E+01 -0.10396818741E+02  0.25790379662E+02  0.95741684391E+02  0.91132576508E+02 0.  0.
         13    1    3    3    0    0 -0.18734121895E+02 -0.21366918863E+02 -0.24213629625E+02  0.37333946597E+02  0.10566000000E+00 0. -1.
         22    1    1    0    0    0 -0.93854198635E+01  0.10396818741E+02 -0.25790379662E+02  0.29348315609E+02  0.00000000000E+00 0.  1.
</event>
<event>
 5    1  0.1258624E-009  0.9118800E+02  0.7815553E-02  0.1125453E+00
         25   -1    0    0    0    0  0.00000000000E+00  0.00000000000E+00  0.99999998245E-14  0.12509000000E+03  0.12509000000E+03 0.  0.
        -13    1    3    3    0    0  0.23325174567E+02 -0.17231899258E+02  0.22213767753E+02  0.36530326613E+02  0.10566000000E+00 0. -1.
         23    2    1    0    0    0  0.47522185430E+00  0.28514522808E+02 -0.74065668318E+01  0.95625426712E+02  0.90972859441E+02 0.  0.
         13    1    3    3    0    0 -0.22849952712E+02  0.45746422066E+02 -0.29620334585E+02  0.59095100100E+02  0.10566000000E+00 0.  1.
         22    1    1    0    0    0 -0.47522185430E+00 -0.28514522808E+02  0.74065668318E+01  0.29464573288E+02  0.00000000000E+00 0.  1.
</event>
<event>
 5    1  0.1258624E-009  0.9118800E+02  0.7815553E-02  0.1125453E+00
         25   -1    0    0    0    0  0.00000000000E+00  0.00000000000E+00  0.99999998245E-14  0.12509000000E+03  0.12509000000E+03 0.  0.
        -13    1    3    3    0    0  0.36089989086E+02  0.19960862050E+02 -0.61064432684E+01  0.41692003303E+02  0.10566000000E+00 0.  1.
         23    2    1    0    0    0 -0.75126350590E+01 -0.38295698755E+01 -0.27907372129E+02  0.95936497464E+02  0.91399588815E+02 0.  0.
         13    1    3    3    0    0 -0.43602624145E+02 -0.23790431925E+02 -0.21800928861E+02  0.54244494161E+02  0.10566000000E+00 0. -1.
         22    1    1    0    0    0  0.75126350590E+01  0.38295698755E+01  0.27907372129E+02  0.29153502536E+02  0.00000000000E+00 0. -1.
</event>
<event>
 5    1  0.1258624E-009  0.9118800E+02  0.7815553E-02  0.1125453E+00
         25   -1    0    0    0    0  0.00000000000E+00  0.00000000000E+00  0.99999998245E-14  0.12509000000E+03  0.12509000000E+03 0.  0.
        -13    1    3    3    0    0  0.72758428465E+01  0.69871305735E+01 -0.58131395265E+02  0.59000238663E+02  0.10566000000E+00 0.  1.
         23    2    1    0    0    0 -0.10358766246E+02  0.89021212118E+01 -0.27051180868E+02  0.94786234780E+02  0.89811536660E+02 0.  0.
         13    1    3    3    0    0 -0.17634609092E+02  0.19149906383E+01  0.31080214398E+02  0.35785996116E+02  0.10566000000E+00 0. -1.
         22    1    1    0    0    0  0.10358766246E+02 -0.89021212118E+01  0.27051180868E+02  0.30303765220E+02  0.00000000000E+00 0.  1.
</event>
<event>
 5    1  0.1258624E-009  0.9118800E+02  0.7815553E-02  0.1125453E+00
         25   -1    0    0    0    0  0.00000000000E+00  0.00000000000E+00  0.99999998245E-14  0.12509000000E+03  0.12509000000E+03 0.  0.
        -13    1    3    3    0    0  0.20082250702E+02 -0.26860930989E+02  0.12424613157E+02  0.35765745945E+02  0.10566000000E+00 0.  1.
         23    2    1    0    0    0 -0.26975345695E+02  0.96925170606E+01  0.11960537276E+01  0.96401244244E+02  0.92033446012E+02 0.  0.
         13    1    3    3    0    0 -0.47057596397E+02  0.36553448050E+02 -0.11228559430E+02  0.60635498298E+02  0.10566000000E+00 0. -1.
         22    1    1    0    0    0  0.26975345695E+02 -0.96925170606E+01 -0.11960537276E+01  0.28688755756E+02  0.00000000000E+00 0. -1.
</event>
<event>
 5    1  0.1258624E-009  0.9118800E+02  0.7815553E-02  0.1125453E+00
         25   -1    0    0    0    0  0.00000000000E+00  0.00000000000E+00  0.99999998245E-14  0.12509000000E+03  0.12509000000E+03 0.  0.
        -13    1    3    3    0    0  0.57923416329E+02  0.17703519456E+02 -0.30803344807E+00  0.60569322342E+02  0.10566000000E+00 0. -1.
         23    2    1    0    0    0  0.20726260693E+02  0.17474239254E+02  0.24532918191E+01  0.97869684782E+02  0.94008136024E+02 0.  0.
         13    1    3    3    0    0 -0.37197155636E+02 -0.22928020118E+00  0.27613252672E+01  0.37300362439E+02  0.10566000000E+00 0.  1.
         22    1    1    0    0    0 -0.20726260693E+02 -0.17474239254E+02 -0.24532918191E+01  0.27220315218E+02  0.00000000000E+00 0. -1.
</event>
<event>
 5    1  0.1258624E-009  0.9118800E+02  0.7815553E-02  0.1125453E+00
         25   -1    0    0    0    0  0.00000000000E+00  0.00000000000E+00  0.99999998245E-14  0.12509000000E+03  0.12509000000E+03 0.  0.
        -13    1    3    3    0    0  0.46853731320E+01  0.51906706677E+02  0.26340394813E+02  0.58395945770E+02  0.10566000000E+00 0. -1.
         23    2    1    0    0    0  0.13929820948E+02  0.17002592510E+02  0.20615793781E+02  0.94954655022E+02  0.90045807751E+02 0.  0.
         13    1    3    3    0    0  0.92444478156E+01 -0.34904114167E+02 -0.57246010313E+01  0.36558709252E+02  0.10566000000E+00 0.  1.
         22    1    1    0    0    0 -0.13929820948E+02 -0.17002592510E+02 -0.20615793781E+02  0.30135344978E+02  0.00000000000E+00 0. -1.
</event>
<event>
 5    1  0.1258624E-009  0.9118800E+02  0.7815553E-02  0.1125453E+00
         25   -1    0    0    0    0  0.00000000000E+00  0.00000000000E+00  0.99999998245E-14  0.12509000000E+03  0.12509000000E+03 0.  0.
        -13    1    3    3    0    0  0.89271230025E+01  0.23310275894E+02  0.23932055787E+02  0.34580586253E+02  0.10566000000E+00 0.  1.
         23    2    1    0    0    0 -0.23174763498E+02 -0.26224428995E+01 -0.19644172168E+02  0.94596715983E+02  0.89547184794E+02 0.  0.
         13    1    3    3    0    0 -0.32101886501E+02 -0.25932718793E+02 -0.43576227956E+02  0.60016129730E+02  0.10566000000E+00 0. -1.
         22    1    1    0    0    0  0.23174763498E+02  0.26224428995E+01  0.19644172168E+02  0.30493284017E+02  0.00000000000E+00 0. -1.
</event>
<event>
 5    1  0.1258624E-009  0.9118800E+02  0.7815553E-02  0.1125453E+00
         25   -1    0    0    0    0  0.00000000000E+00  0.00000000000E+00  0.99999998245E-14  0.12509000000E+03  0.12509000000E+03 0.  0.
        -13    1    3    3    0    0  0.63984027213E+01  0.41809211316E+02 -0.33296525684E+02  0.53829541099E+02  0.10566000000E+00 0. -1.
         23    2    1    0    0    0 -0.65705366025E+01  0.25457402077E+01 -0.28819883757E+02  0.95421187348E+02  0.90691590297E+02 0.  0.
         13    1    3    3    0    0 -0.12968939324E+02 -0.39263471109E+02  0.44766419272E+01  0.41591646248E+02  0.10566000000E+00 0.  1.
         22    1    1    0    0    0  0.65705366025E+01 -0.25457402077E+01  0.28819883757E+02  0.29668812652E+02  0.00000000000E+00 0. -1.
</event>
<event>
 5    1  0.1258624E-009  0.9118800E+02  0.7815553E-02  0.1125453E+00
         25   -1    0    0    0    0  0.00000000000E+00  0.00000000000E+00  0.99999998245E-14  0.12509000000E+03  0.12509000000E+03 0.  0.
        -13    1    3    3    0    0 -0.63119253283E+01  0.56237557908E+01  0.48790758549E+02  0.49517838345E+02  0.10566000000E+00 0. -1.
         23    2    1    0    0    0 -0.10381282206E+02 -0.21872404287E+02  0.66811379068E+01  0.99974055000E+02  0.96767768290E+02 0.  0.
         13    1    3    3    0    0 -0.40693568772E+01 -0.27496160078E+02 -0.42109620642E+02  0.50456216655E+02  0.10566000000E+00 0.  1.
         22    1    1    0    0    0  0.10381282206E+02  0.21872404287E+02 -0.66811379068E+01  0.25115945000E+02  0.00000000000E+00 0. -1.
</event>
<event>
 5    1  0.1258624E-009  0.9118800E+02  0.7815553E-02  0.1125453E+00
         25   -1    0    0    0    0  0.00000000000E+00  0.00000000000E+00  0.99999998245E-14  0.12509000000E+03  0.12509000000E+03 0.  0.
        -13    1    3    3    0    0  0.24926135008E+02 -0.34391460259E+02  0.31727664140E+02  0.53016418033E+02  0.10566000000E+00 0. -1.
         23    2    1    0    0    0  0.59544450490E+01 -0.28697919986E+02 -0.55781592969E+01  0.95254754258E+02  0.90461739538E+02 0.  0.
         13    1    3    3    0    0 -0.18971689959E+02  0.56935402734E+01 -0.37305823437E+02  0.42238336226E+02  0.10566000000E+00 0.  1.
         22    1    1    0    0    0 -0.59544450490E+01  0.28697919986E+02  0.55781592969E+01  0.29835245742E+02  0.00000000000E+00 0.  1.
</event>
<event>
 5    1  0.1258624E-009  0.9118800E+02  0.7815553E-02  0.1125453E+00
         25   -1    0    0    0    0  0.00000000000E+00  0.00000000000E+00  0.99999998245E-14  0.12509000000E+03  0.12509000000E+03 0.  0.
        -13    1    3    3    0    0  0.39761849832E+02 -0.16359846945E+01 -0.30589157043E+02  0.50193513930E+02  0.10566000000E+00 0.  1.
         23    2    1    0    0    0  0.16503576483E+01  0.21240649264E+02 -0.19957564505E+02  0.95897650960E+02  0.91346407795E+02 0.  0.
         13    1    3    3    0    0 -0.38111492183E+02  0.22876633958E+02  0.10631592538E+02  0.45704137030E+02  0.10566000000E+00 0. -1.
         22    1    1    0    0    0 -0.16503576483E+01 -0.21240649264E+02  0.19957564505E+02  0.29192349040E+02  0.00000000000E+00 0. -1.
</event>
<event>
 5    1  0.1258624E-009  0.9118800E+02  0.7815553E-02  0.1125453E+00
         25   -1    0    0    0    0  0.00000000000E+00  0.00000000000E+00  0.99999998245E-14  0.12509000000E+03  0.12509000000E+03 0.  0.
        -13    1    3    3    0    0 -0.21537258973E+02  0.38694749832E+02 -0.23845357372E+02  0.50296614407E+02  0.10566000000E+00 0.  1.
         23    2    1    0    0    0 -0.31840887325E+02  0.39280585357E+01 -0.13288779008E+01  0.92980224760E+02  0.87259867811E+02 0.  0.
         13    1    3    3    0    0 -0.10303628352E+02 -0.34766691296E+02  0.22516479471E+02  0.42683610352E+02  0.10566000000E+00 0. -1.
         22    1    1    0    0    0  0.31840887325E+02 -0.39280585357E+01  0.13288779008E+01  0.32109775240E+02  0.00000000000E+00 0.  1.
</event>
<event>
 5    1  0.1258624E-009  0.9118800E+02  0.7815553E-02  0.1125453E+00
         25   -1    0    0    0    0  0.00000000000E+00  0.00000000000E+00  0.99999998245E-14  0.12509000000E+03  0.12509000000E+03 0.  0.
        -13    1    3    3    0    0  0.23114513926E+02  0.13542431703E+02 -0.30119039219E+02  0.40309377296E+02  0.10566000000E+00 0. -1.
         23    2    1    0    0    0 -0.65388732369E+00 -0.28633505822E+02 -0.18082009887E+01  0.96392006776E+02  0.92020889776E+02 0.  0.
         13    1    3    3    0    0 -0.23768401250E+02 -0.42175937524E+02  0.28310838230E+02  0.56082629480E+02  0.10566000000E+00 0.  1.
         22    1    1    0    0    0  0.65388732369E+00  0.28633505822E+02  0.18082009887E+01  0.28697993224E+02  0.00000000000E+00 0. -1.
</event>
<event>
 5    1  0.1258624E-009  0.9118800E+02  0.7815553E-02  0.1125453E+00
         25   -1    0    0    0    0  0.00000000000E+00  0.00000000000E+00  0.99999998245E-14  0.12509000000E+03  0.12509000000E+03 0.  0.
        -13    1    3    3    0    0  0.10555770983E+02  0.22634114674E+02 -0.30590371206E+02  0.39490624491E+02  0.10566000000E+00 0.  1.
         23    2    1    0    0    0 -0.48914851765E+01  0.16466478037E+02  0.23443560249E+02  0.96026757866E+02  0.91523036352E+02 0.  0.
         13    1    3    3    0    0 -0.15447256160E+02 -0.61676366369E+01  0.54033931455E+02  0.56536133376E+02  0.10566000000E+00 0. -1.
         22    1    1    0    0    0  0.48914851765E+01 -0.16466478037E+02 -0.23443560249E+02  0.29063242134E+02  0.00000000000E+00 0. -1.
</event>
<event>
 5    1  0.1258624E-009  0.9118800E+02  0.7815553E-02  0.1125453E+00
         25   -1    0    0    0    0  0.00000000000E+00  0.00000000000E+00  0.99999998245E-14  0.12509000000E+03  0.12509000000E+03 0.  0.
        -13    1    3    3    0    0 -0.11279546651E+02 -0.40290212301E+02  0.11510658997E+02  0.43393960576E+02  0.10566000000E+00 0.  1.
         23    2    1    0    0    0 -0.33099590284E+02  0.20748329677E+01  0.63023113159E+01  0.91331935234E+02  0.84864099930E+02 0.  0.
         13    1    3    3    0    0 -0.21820043633E+02  0.42365045268E+02 -0.52083476808E+01  0.47937974658E+02  0.10566000000E+00 0. -1.
         22    1    1    0    0    0  0.33099590284E+02 -0.20748329677E+01 -0.63023113159E+01  0.33758064766E+02  0.00000000000E+00 0. -1.
</event>
<event>
 5    1  0.1258624E-009  0.9118800E+02  0.7815553E-02  0.1125453E+00
         25   -1    0    0    0    0  0.00000000000E+00  0.00000000000E+00  0.99999998245E-14  0.12509000000E+03  0.12509000000E+03 0.  0.
        -13    1    3    3    0    0  0.44471753341E+01 -0.15173686415E+01 -0.38068338462E+02  0.38357389554E+02  0.10566000000E+00 0.  1.
         23    2    1    0    0    0 -0.25059884334E+02  0.16202513224E+02  0.63798698788E+01  0.94574070106E+02  0.89515544791E+02 0.  0.
         13    1    3    3    0    0 -0.29507059668E+02  0.17719881865E+02  0.44448208341E+02  0.56216680553E+02  0.10566000000E+00 0. -1.
         22    1    1    0    0    0  0.25059884334E+02 -0.16202513224E+02 -0.63798698788E+01  0.30515929894E+02  0.00000000000E+00 0. -1.
</event>
<event>
 5    1  0.1258624E-009  0.9118800E+02  0.7815553E-02  0.1125453E+00
         25   -1    0    0    0    0  0.00000000000E+00  0.00000000000E+00  0.99999998245E-14  0.12509000000E+03  0.12509000000E+03 0.  0.
        -13    1    3    3    0    0  0.51218967630E+02  0.18707792750E+02  0.12522603371E+02  0.55948109118E+02  0.10566000000E+00 0. -1.
         23    2    1    0    0    0  0.13268705432E+02  0.25981711884E+02  0.79049156555E+01  0.94864256208E+02  0.89920139669E+02 0.  0.
         13    1    3    3    0    0 -0.37950262198E+02  0.72739191346E+01 -0.46176877156E+01  0.38916147090E+02  0.10566000000E+00 0.  1.
         22    1    1    0    0    0 -0.13268705432E+02 -0.25981711884E+02 -0.79049156555E+01  0.30225743792E+02  0.00000000000E+00 0.  1.
</event>
<event>
 5    1  0.1258624E-009  0.9118800E+02  0.7815553E-02  0.1125453E+00
         25   -1    0    0    0    0  0.00000000000E+00  0.00000000000E+00  0.99999998245E-14  0.12509000000E+03  0.12509000000E+03 0.  0.
        -13    1    3    3    0    0  0.33780519122E+02  0.81243376435E+00  0.10533174998E+01  0.33806865613E+02  0.10566000000E+00 0.  1.
         23    2    1    0    0    0 -0.16571511552E+02 -0.20572263051E+02 -0.19510842590E+02  0.92249385196E+02  0.86205818181E+02 0.  0.
         13    1    3    3    0    0 -0.50352030674E+02 -0.21384696815E+02 -0.20564160090E+02  0.58442519582E+02  0.10566000000E+00 0. -1.
         22    1    1    0    0    0  0.16571511552E+02  0.20572263051E+02  0.19510842590E+02  0.32840614804E+02  0.00000000000E+00 0. -1.
</event>
<event>
 5    1  0.1258624E-009  0.9118800E+02  0.7815553E-02  0.1125453E+00
         25   -1    0    0    0    0  0.00000000000E+00  0.00000000000E+00  0.99999998245E-14  0.12509000000E+03  0.12509000000E+03 0.  0.
        -13    1    3    3    0    0 -0.33072728980E+02 -0.45387708926E+02  0.55902658191E+01  0.56436794379E+02  0.10566000000E+00 0.  1.
         23    2    1    0    0    0 -0.26868659169E+02 -0.50837667351E+01 -0.90514900435E+00  0.97729648678E+02  0.93821614814E+02 0.  0.
         13    1    3    3    0    0  0.62040698118E+01  0.40303942191E+02 -0.64954148234E+01  0.41292854299E+02  0.10566000000E+00 0. -1.
         22    1    1    0    0    0  0.26868659169E+02  0.50837667351E+01  0.90514900435E+00  0.27360351322E+02  0.00000000000E+00 0.  1.
</event>
<event>
 5    1  0.1258624E-009  0.9118800E+02  0.7815553E-02  0.1125453E+00
         25   -1    0    0    0    0  0.00000000000E+00  0.00000000000E+00  0.99999998245E-14  0.12509000000E+03  0.12509000000E+03 0.  0.
        -13    1    3    3    0    0  0.79530700370E+01 -0.33998035992E+02 -0.98882149768E+01  0.36289195827E+02  0.10566000000E+00 0.  1.
         23    2    1    0    0    0  0.50479467359E+01  0.24242790537E+02 -0.17027410276E+02  0.95037922535E+02  0.90161407263E+02 0.  0.
         13    1    3    3    0    0 -0.29051233010E+01  0.58240826529E+02 -0.71391952988E+01  0.58748726708E+02  0.10566000000E+00 0. -1.
         22    1    1    0    0    0 -0.50479467359E+01 -0.24242790537E+02  0.17027410276E+02  0.30052077465E+02  0.00000000000E+00 0. -1.
</event>
<event>
 5    1  0.1258624E-009  0.9118800E+02  0.7815553E-02  0.1125453E+00
         25   -1    0    0    0    0  0.00000000000E+00  0.00000000000E+00  0.99999998245E-14  0.12509000000E+03  0.12509000000E+03 0.  0.
        -13    1    3    3    0    0 -0.19699047291E+01 -0.42353872659E+01  0.37214245215E+02  0.37506402665E+02  0.10566000000E+00 0.  1.
         23    2    1    0    0    0  0.14595802231E+01 -0.24248447767E+02 -0.17027623336E+02  0.95424236063E+02  0.90695795262E+02 0.  0.
         13    1    3    3    0    0  0.34294849522E+01 -0.20013060501E+02 -0.54241868550E+02  0.57917833398E+02  0.10566000000E+00 0. -1.
         22    1    1    0    0    0 -0.14595802231E+01  0.24248447767E+02  0.17027623336E+02  0.29665763937E+02  0.00000000000E+00 0. -1.
</event>
<event>
 5    1  0.1258624E-009  0.9118800E+02  0.7815553E-02  0.1125453E+00
         25   -1    0    0    0    0  0.00000000000E+00  0.00000000000E+00  0.99999998245E-14  0.12509000000E+03  0.12509000000E+03 0.  0.
        -13    1    3    3    0    0 -0.24210361685E+02 -0.47126542014E+02  0.13327222657E+02  0.54632212136E+02  0.10566000000E+00 0. -1.
         23    2    1    0    0    0 -0.21418268354E+02 -0.22618928429E+02 -0.13556561358E+02  0.91117386053E+02  0.84547262184E+02 0.  0.
         13    1    3    3    0    0  0.27920933314E+01  0.24507613585E+02 -0.26883784015E+02  0.36485173917E+02  0.10566000000E+00 0.  1.
         22    1    1    0    0    0  0.21418268354E+02  0.22618928429E+02  0.13556561358E+02  0.33972613947E+02  0.00000000000E+00 0. -1.
</event>
<event>
 5    1  0.1258624E-009  0.9118800E+02  0.7815553E-02  0.1125453E+00
         25   -1    0    0    0    0  0.00000000000E+00  0.00000000000E+00  0.99999998245E-14  0.12509000000E+03  0.12509000000E+03 0.  0.
        -13    1    3    3    0    0  0.15656444376E+02 -0.50084577577E+02  0.11841825327E+02  0.53794322681E+02  0.10566000000E+00 0.  1.
         23    2    1    0    0    0 -0.15401671221E+02 -0.21524247542E+02  0.12098498548E+02  0.95988825182E+02  0.91471176794E+02 0.  0.
         13    1    3    3    0    0 -0.31058115597E+02  0.28560330035E+02  0.25667322094E+00  0.42194502501E+02  0.10566000000E+00 0. -1.
         22    1    1    0    0    0  0.15401671221E+02  0.21524247542E+02 -0.12098498548E+02  0.29101174818E+02  0.00000000000E+00 0.  1.
</event>
<event>
 5    1  0.1258624E-009  0.9118800E+02  0.7815553E-02  0.1125453E+00
         25   -1    0    0    0    0  0.00000000000E+00  0.00000000000E+00  0.99999998245E-14  0.12509000000E+03  0.12509000000E+03 0.  0.
        -13    1    3    3    0    0 -0.83688450568E+01  0.95093734869E+00  0.27277724025E+02  0.28548681957E+02  0.10566000000E+00 0.  1.
         23    2    1    0    0    0  0.36183179225E+02  0.61592502656E+01 -0.10194522630E+02  0.86996862635E+02  0.78213598523E+02 0.  0.
         13    1    3    3    0    0  0.44552024282E+02  0.52083129169E+01 -0.37472246656E+02  0.58448180678E+02  0.10566000000E+00 0. -1.
         22    1    1    0    0    0 -0.36183179225E+02 -0.61592502656E+01  0.10194522630E+02  0.38093137365E+02  0.00000000000E+00 0. -1.
</event>
<event>
 5    1  0.1258624E-009  0.9118800E+02  0.7815553E-02  0.1125453E+00
         25   -1    0    0    0    0  0.00000000000E+00  0.00000000000E+00  0.99999998245E-14  0.12509000000E+03  0.12509000000E+03 0.  0.
        -13    1    3    3    0    0  0.45819439881E+02 -0.24195853683E+02  0.17880914398E+02  0.54814219598E+02  0.10566000000E+00 0. -1.
         23    2    1    0    0    0  0.13396650088E+02 -0.10007128696E+01  0.26298662168E+02  0.95558808157E+02  0.90881211066E+02 0.  0.
         13    1    3    3    0    0 -0.32422789793E+02  0.23195140814E+02  0.84177477703E+01  0.40744588559E+02  0.10566000000E+00 0.  1.
         22    1    1    0    0    0 -0.13396650088E+02  0.10007128696E+01 -0.26298662168E+02  0.29531191843E+02  0.00000000000E+00 0. -1.
</event>
<event>
 5    1  0.1258624E-009  0.9118800E+02  0.7815553E-02  0.1125453E+00
         25   -1    0    0    0    0  0.00000000000E+00  0.00000000000E+00  0.99999998245E-14  0.12509000000E+03  0.12509000000E+03 0.  0.
        -13    1    3    3    0    0  0.92102732002E+01  0.25482348122E+02  0.31871176456E+02  0.41832550137E+02  0.10566000000E+00 0.  1.
         23    2    1    0    0    0  0.28667330586E+02 -0.46661895483E+01 -0.74907869499E+01  0.95094982798E+02  0.90240537988E+02 0.  0.
         13    1    3    3    0    0  0.19457057386E+02 -0.30148537670E+02 -0.39361963406E+02  0.53262432661E+02  0.10566000000E+00 0. -1.
         22    1    1    0    0    0 -0.28667330586E+02  0.46661895483E+01  0.74907869499E+01  0.29995017202E+02  0.00000000000E+00 0. -1.
</event>
<event>
 5    1  0.1258624E-009  0.9118800E+02  0.7815553E-02  0.1125453E+00
         25   -1    0    0    0    0  0.00000000000E+00  0.00000000000E+00  0.99999998245E-14  0.12509000000E+03  0.12509000000E+03 0.  0.
        -13    1    3    3    0    0  0.58483025878E+01  0.32942185558E+02  0.39381607812E+02  0.51675065848E+02  0.10566000000E+00 0. -1.
         23    2    1    0    0    0  0.15990807610E+02 -0.70566492706E+01  0.23299981594E+02  0.95962841381E+02  0.91435636142E+02 0.  0.
         13    1    3    3    0    0  0.10142505022E+02 -0.39998834829E+02 -0.16081626218E+02  0.44287775533E+02  0.10566000000E+00 0.  1.
         22    1    1    0    0    0 -0.15990807610E+02  0.70566492706E+01 -0.23299981594E+02  0.29127158619E+02  0.00000000000E+00 0. -1.
</event>
<event>
 5    1  0.1258624E-009  0.9118800E+02  0.7815553E-02  0.1125453E+00
         25   -1    0    0    0    0  0.00000000000E+00  0.00000000000E+00  0.99999998245E-14  0.12509000000E+03  0.12509000000E+03 0.  0.
        -13    1    3    3    0    0  0.27707253527E+02  0.16876252582E+02  0.20969897619E+02  0.38629620363E+02  0.10566000000E+00 0. -1.
         23    2    1    0    0    0  0.55662121094E+01  0.28967166464E+01 -0.29200820719E+02  0.95222599456E+02  0.90417265120E+02 0.  0.
         13    1    3    3    0    0 -0.22141041418E+02 -0.13979535935E+02 -0.50170718338E+02  0.56592979093E+02  0.10566000000E+00 0.  1.
         22    1    1    0    0    0 -0.55662121094E+01 -0.28967166464E+01  0.29200820719E+02  0.29867400544E+02  0.00000000000E+00 0.  1.
</event>
<event>
 5    1  0.1258624E-009  0.9118800E+02  0.7815553E-02  0.1125453E+00
         25   -1    0    0    0    0  0.00000000000E+00  0.00000000000E+00  0.99999998245E-14  0.12509000000E+03  0.12509000000E+03 0.  0.
        -13    1    3    3    0    0 -0.17685636813E+02 -0.30565590774E+02 -0.26659516698E+02  0.44246786137E+02  0.10566000000E+00 0.  1.
         23    2    1    0    0    0 -0.85237929307E+01  0.17800607828E+02 -0.24647690234E+02  0.93514292267E+02  0.88022142325E+02 0.  0.
         13    1    3    3    0    0  0.91618438818E+01  0.48366198602E+02  0.20118264645E+01  0.49267506130E+02  0.10566000000E+00 0. -1.
         22    1    1    0    0    0  0.85237929307E+01 -0.17800607828E+02  0.24647690234E+02  0.31575707733E+02  0.00000000000E+00 0.  1.
</event>
<event>
 5    1  0.1258624E-009  0.9118800E+02  0.7815553E-02  0.1125453E+00
         25   -1    0    0    0    0  0.00000000000E+00  0.00000000000E+00  0.99999998245E-14  0.12509000000E+03  0.12509000000E+03 0.  0.
        -13    1    3    3    0    0  0.22857733242E+02  0.12106584826E+02 -0.26108428763E+02  0.36751960242E+02  0.10566000000E+00 0. -1.
         23    2    1    0    0    0  0.45403085335E+02  0.15913754575E+02  0.64619398034E+01  0.76546777933E+02  0.59185849687E+02 0.  0.
         13    1    3    3    0    0  0.22545352093E+02  0.38071697493E+01  0.32570368566E+02  0.39794817691E+02  0.10566000000E+00 0.  1.
         22    1    1    0    0    0 -0.45403085335E+02 -0.15913754575E+02 -0.64619398034E+01  0.48543222067E+02  0.00000000000E+00 0.  1.
</event>
<event>
 5    1  0.1258624E-009  0.9118800E+02  0.7815553E-02  0.1125453E+00
         25   -1    0    0    0    0  0.00000000000E+00  0.00000000000E+00  0.99999998245E-14  0.12509000000E+03  0.12509000000E+03 0.  0.
        -13    1    3    3    0    0  0.12479809247E+02  0.43807988063E+01 -0.50043705234E+02  0.51762154463E+02  0.10566000000E+00 0. -1.
         23    2    1    0    0    0 -0.19939142654E+02  0.67731534993E+01 -0.20902555092E+02  0.95419108078E+02  0.90688722336E+02 0.  0.
         13    1    3    3    0    0 -0.32418951901E+02  0.23923546930E+01  0.29141150142E+02  0.43656953615E+02  0.10566000000E+00 0.  1.
         22    1    1    0    0    0  0.19939142654E+02 -0.67731534993E+01  0.20902555092E+02  0.29670891922E+02  0.00000000000E+00 0.  1.
</event>
<event>
 5    1  0.1258624E-009  0.9118800E+02  0.7815553E-02  0.1125453E+00
         25   -1    0    0    0    0  0.00000000000E+00  0.00000000000E+00  0.99999998245E-14  0.12509000000E+03  0.12509000000E+03 0.  0.
        -13    1    3    3    0    0  0.10783972015E+02 -0.80309329775E+01 -0.38254889836E+02  0.40549200945E+02  0.10566000000E+00 0.  1.
         23    2    1    0    0    0  0.14229760700E+02  0.27958650247E+02  0.71896935865E+00  0.93710243306E+02  0.88300173105E+02 0.  0.
         13    1    3    3    0    0  0.34457886848E+01  0.35989583225E+02  0.38973859194E+02  0.53161042361E+02  0.10566000000E+00 0. -1.
         22    1    1    0    0    0 -0.14229760700E+02 -0.27958650247E+02 -0.71896935865E+00  0.31379756694E+02  0.00000000000E+00 0. -1.
</event>
<event>
 5    1  0.1258624E-009  0.9118800E+02  0.7815553E-02  0.1125453E+00
         25   -1    0    0    0    0  0.00000000000E+00  0.00000000000E+00  0.99999998245E-14  0.12509000000E+03  0.12509000000E+03 0.  0.
        -13    1    3    3    0    0  0.33562890546E+02 -0.47226901671E+02 -0.22149531059E+01  0.57980729941E+02  0.10566000000E+00 0.  1.
         23    2    1    0    0    0  0.15420190330E+02 -0.19608131794E+02  0.15745513041E+02  0.95591147765E+02  0.90925712798E+02 0.  0.
         13    1    3    3    0    0 -0.18142700217E+02  0.27618769876E+02  0.17960466147E+02  0.37610417824E+02  0.10566000000E+00 0. -1.
         22    1    1    0    0    0 -0.15420190330E+02  0.19608131794E+02 -0.15745513041E+02  0.29498852235E+02  0.00000000000E+00 0.  1.
</event>
<event>
 5    1  0.1258624E-009  0.9118800E+02  0.7815553E-02  0.1125453E+00
         25   -1    0    0    0    0  0.00000000000E+00  0.00000000000E+00  0.99999998245E-14  0.12509000000E+03  0.12509000000E+03 0.  0.
        -13    1    3    3    0    0 -0.34247705796E+02  0.27163685889E+01  0.31771279264E+02  0.46794330433E+02  0.10566000000E+00 0.  1.
         23    2    1    0    0    0 -0.20460133143E+01 -0.27170758700E+02  0.16108756325E+02  0.93436748522E+02  0.87911874313E+02 0.  0.
         13    1    3    3    0    0  0.32201692482E+02 -0.29887127289E+02 -0.15662522939E+02  0.46642418088E+02  0.10566000000E+00 0. -1.
         22    1    1    0    0    0  0.20460133143E+01  0.27170758700E+02 -0.16108756325E+02  0.31653251478E+02  0.00000000000E+00 0.  1.
</event>
<event>
 5    1  0.1258624E-009  0.9118800E+02  0.7815553E-02  0.1125453E+00
         25   -1    0    0    0    0  0.00000000000E+00  0.00000000000E+00  0.99999998245E-14  0.12509000000E+03  0.12509000000E+03 0.  0.
        -13    1    3    3    0    0  0.24345337284E+02 -0.27752675560E+02 -0.37059803236E+01  0.37103259997E+02  0.10566000000E+00 0.  1.
         23    2    1    0    0    0 -0.63159289082E+01  0.16514614629E+02 -0.24541414978E+02  0.94842611626E+02  0.89890024344E+02 0.  0.
         13    1    3    3    0    0 -0.30661266193E+02  0.44267290189E+02 -0.20835434654E+02  0.57739351629E+02  0.10566000000E+00 0. -1.
         22    1    1    0    0    0  0.63159289082E+01 -0.16514614629E+02  0.24541414978E+02  0.30247388374E+02  0.00000000000E+00 0. -1.
</event>
<event>
 5    1  0.1258624E-009  0.9118800E+02  0.7815553E-02  0.1125453E+00
         25   -1    0    0    0    0  0.00000000000E+00  0.00000000000E+00  0.99999998245E-14  0.12509000000E+03  0.12509000000E+03 0.  0.
        -13    1    3    3    0    0 -0.20641218544E+02 -0.36208269044E+02 -0.29086112693E+02  0.50824322580E+02  0.10566000000E+00 0. -1.
         23    2    1    0    0    0 -0.24102865523E+02 -0.11161528621E+02  0.94347169486E+01  0.96902383367E+02  0.92712082118E+02 0.  0.
         13    1    3    3    0    0 -0.34616469787E+01  0.25046740423E+02  0.38520829641E+02  0.46078060787E+02  0.10566000000E+00 0.  1.
         22    1    1    0    0    0  0.24102865523E+02  0.11161528621E+02 -0.94347169486E+01  0.28187616633E+02  0.00000000000E+00 0.  1.
</event>
<event>
 5    1  0.1258624E-009  0.9118800E+02  0.7815553E-02  0.1125453E+00
         25   -1    0    0    0    0  0.00000000000E+00  0.00000000000E+00  0.99999998245E-14  0.12509000000E+03  0.12509000000E+03 0.  0.
        -13    1    3    3    0    0 -0.15196469590E+02  0.64828937680E+01  0.40610767299E+02  0.43842971891E+02  0.10566000000E+00 0. -1.
         23    2    1    0    0    0 -0.46778585027E+01  0.25516470943E+02 -0.86935830147E+01  0.97730339271E+02  0.93822535560E+02 0.  0.
         13    1    3    3    0    0  0.10518611088E+02  0.19033577175E+02 -0.49304350314E+02  0.53887367380E+02  0.10566000000E+00 0.  1.
         22    1    1    0    0    0  0.46778585027E+01 -0.25516470943E+02  0.86935830147E+01  0.27359660729E+02  0.00000000000E+00 0.  1.
</event>
<event>
 5    1  0.1258624E-009  0.9118800E+02  0.7815553E-02  0.1125453E+00
         25   -1    0    0    0    0  0.00000000000E+00  0.00000000000E+00  0.99999998245E-14  0.12509000000E+03  0.12509000000E+03 0.  0.
        -13    1    3    3    0    0  0.11145911215E+02  0.45761063040E+02  0.87770004165E+01  0.47909843745E+02  0.10566000000E+00 0. -1.
         23    2    1    0    0    0 -0.24040007347E+02  0.15397913361E+02  0.11138811951E+02  0.94445411231E+02  0.89335574559E+02 0.  0.
         13    1    3    3    0    0 -0.35185918562E+02 -0.30363149679E+02  0.23618115350E+01  0.46535567486E+02  0.10566000000E+00 0.  1.
         22    1    1    0    0    0  0.24040007347E+02 -0.15397913361E+02 -0.11138811951E+02  0.30644588769E+02  0.00000000000E+00 0. -1.
</event>
<event>
 5    1  0.1258624E-009  0.9118800E+02  0.7815553E-02  0.1125453E+00
         25   -1    0    0    0    0  0.00000000000E+00  0.00000000000E+00  0.99999998245E-14  0.12509000000E+03  0.12509000000E+03 0.  0.
        -13    1    3    3    0    0  0.27071981538E+02  0.27920741187E+02 -0.12429954115E+02  0.40828603897E+02  0.10566000000E+00 0.  1.
         23    2    1    0    0    0 -0.22152704316E+02  0.12999229188E+02  0.10748745084E+02  0.97246548546E+02  0.93175283285E+02 0.  0.
         13    1    3    3    0    0 -0.49224685854E+02 -0.14921511999E+02  0.23178699198E+02  0.56417944649E+02  0.10566000000E+00 0. -1.
         22    1    1    0    0    0  0.22152704316E+02 -0.12999229188E+02 -0.10748745084E+02  0.27843451454E+02  0.00000000000E+00 0. -1.
</event>
<event>
 5    1  0.1258624E-009  0.9118800E+02  0.7815553E-02  0.1125453E+00
         25   -1    0    0    0    0  0.00000000000E+00  0.00000000000E+00  0.99999998245E-14  0.12509000000E+03  0.12509000000E+03 0.  0.
        -13    1    3    3    0    0 -0.40504536395E+02 -0.32459687904E+02  0.48203678171E+01  0.52129606917E+02  0.10566000000E+00 0.  1.
         23    2    1    0    0    0 -0.88086060595E+01 -0.10668309986E+02  0.25705245959E+02  0.95898150992E+02  0.91347092539E+02 0.  0.
         13    1    3    3    0    0  0.31695930336E+02  0.21791377918E+02  0.20884878142E+02  0.43768544075E+02  0.10566000000E+00 0. -1.
         22    1    1    0    0    0  0.88086060595E+01  0.10668309986E+02 -0.25705245959E+02  0.29191849008E+02  0.00000000000E+00 0.  1.
</event>
<event>
 5    1  0.1258624E-009  0.9118800E+02  0.7815553E-02  0.1125453E+00
         25   -1    0    0    0    0  0.00000000000E+00  0.00000000000E+00  0.99999998245E-14  0.12509000000E+03  0.12509000000E+03 0.  0.
        -13    1    3    3    0    0  0.49069721040E+02  0.35781210960E+02  0.11552358132E+02  0.61819096751E+02  0.10566000000E+00 0. -1.
         23    2    1    0    0    0  0.19917003201E+02  0.16144178530E+02  0.11553248515E+02  0.96968850163E+02  0.92801717838E+02 0.  0.
         13    1    3    3    0    0 -0.29152717839E+02 -0.19637032430E+02  0.89038342544E-03  0.35149753412E+02  0.10566000000E+00 0.  1.
         22    1    1    0    0    0 -0.19917003201E+02 -0.16144178530E+02 -0.11553248515E+02  0.28121149837E+02  0.00000000000E+00 0. -1.
</event>
<event>
 5    1  0.1258624E-009  0.9118800E+02  0.7815553E-02  0.1125453E+00
         25   -1    0    0    0    0  0.00000000000E+00  0.00000000000E+00  0.99999998245E-14  0.12509000000E+03  0.12509000000E+03 0.  0.
        -13    1    3    3    0    0  0.42999073230E+02 -0.11947556186E+02 -0.42425470320E+02  0.61575937616E+02  0.10566000000E+00 0. -1.
         23    2    1    0    0    0  0.23127806919E+02 -0.14299651876E+02 -0.26073016922E+02  0.87418024898E+02  0.78884303692E+02 0.  0.
         13    1    3    3    0    0 -0.19871266311E+02 -0.23520956898E+01  0.16352453398E+02  0.25842087282E+02  0.10566000000E+00 0.  1.
         22    1    1    0    0    0 -0.23127806919E+02  0.14299651876E+02  0.26073016922E+02  0.37671975102E+02  0.00000000000E+00 0. -1.
</event>
<event>
 5    1  0.1258624E-009  0.9118800E+02  0.7815553E-02  0.1125453E+00
         25   -1    0    0    0    0  0.00000000000E+00  0.00000000000E+00  0.99999998245E-14  0.12509000000E+03  0.12509000000E+03 0.  0.
        -13    1    3    3    0    0  0.21465662645E+02  0.20788093282E+02  0.37687707295E+02  0.48096714443E+02  0.10566000000E+00 0.  1.
         23    2    1    0    0    0 -0.19863058110E+02  0.16020858043E+02  0.13489833342E+02  0.96225063251E+02  0.91793672027E+02 0.  0.
         13    1    3    3    0    0 -0.41328720755E+02 -0.47672352394E+01 -0.24197873953E+02  0.48128348808E+02  0.10566000000E+00 0. -1.
         22    1    1    0    0    0  0.19863058110E+02 -0.16020858043E+02 -0.13489833342E+02  0.28864936749E+02  0.00000000000E+00 0.  1.
</event>
<event>
 5    1  0.1258624E-009  0.9118800E+02  0.7815553E-02  0.1125453E+00
         25   -1    0    0    0    0  0.00000000000E+00  0.00000000000E+00  0.99999998245E-14  0.12509000000E+03  0.12509000000E+03 0.  0.
        -13    1    3    3    0    0 -0.21556826489E+02  0.23615879258E+02 -0.80436518942E+01  0.32971472840E+02  0.10566000000E+00 0.  1.
         23    2    1    0    0    0  0.22156372170E+02 -0.18602334188E+02  0.64538473422E+01  0.95448748162E+02  0.90729596688E+02 0.  0.
         13    1    3    3    0    0  0.43713198659E+02 -0.42218213446E+02  0.14497499236E+02  0.62477275322E+02  0.10566000000E+00 0. -1.
         22    1    1    0    0    0 -0.22156372170E+02  0.18602334188E+02 -0.64538473422E+01  0.29641251838E+02  0.00000000000E+00 0. -1.
</event>
<event>
 5    1  0.1258624E-009  0.9118800E+02  0.7815553E-02  0.1125453E+00
         25   -1    0    0    0    0  0.00000000000E+00  0.00000000000E+00  0.99999998245E-14  0.12509000000E+03  0.12509000000E+03 0.  0.
        -13    1    3    3    0    0 -0.53566647495E+02  0.31579021686E+01  0.74498723114E+01  0.54174438912E+02  0.10566000000E+00 0. -1.
         23    2    1    0    0    0 -0.18382780171E+02  0.21819275775E+02 -0.54604377258E+01  0.96041354897E+02  0.91542984811E+02 0.  0.
         13    1    3    3    0    0  0.35183867324E+02  0.18661373607E+02 -0.12910310037E+02  0.41866915984E+02  0.10566000000E+00 0.  1.
         22    1    1    0    0    0  0.18382780171E+02 -0.21819275775E+02  0.54604377258E+01  0.29048645103E+02  0.00000000000E+00 0. -1.
</event>
<event>
 5    1  0.1258624E-009  0.9118800E+02  0.7815553E-02  0.1125453E+00
         25   -1    0    0    0    0  0.00000000000E+00  0.00000000000E+00  0.99999998245E-14  0.12509000000E+03  0.12509000000E+03 0.  0.
        -13    1    3    3    0    0 -0.73492373190E+01 -0.38461220523E+02  0.30908910936E+02  0.49886357981E+02  0.10566000000E+00 0.  1.
         23    2    1    0    0    0  0.43839065176E+01 -0.27344708675E+02 -0.11372529351E+02  0.95151961442E+02  0.90319486345E+02 0.  0.
         13    1    3    3    0    0  0.11733143837E+02  0.11116511848E+02 -0.42281440287E+02  0.45265603461E+02  0.10566000000E+00 0. -1.
         22    1    1    0    0    0 -0.43839065176E+01  0.27344708675E+02  0.11372529351E+02  0.29938038558E+02  0.00000000000E+00 0.  1.
</event>
<event>
 5    1  0.1258624E-009  0.9118800E+02  0.7815553E-02  0.1125453E+00
         25   -1    0    0    0    0  0.00000000000E+00  0.00000000000E+00  0.99999998245E-14  0.12509000000E+03  0.12509000000E+03 0.  0.
        -13    1    3    3    0    0  0.39346120071E+02 -0.35984904533E+02  0.32091047905E+02  0.62232443617E+02  0.10566000000E+00 0.  1.
         23    2    1    0    0    0  0.15284366356E+02 -0.19716096232E+02  0.13402550821E+02  0.96771019192E+02  0.92534671780E+02 0.  0.
         13    1    3    3    0    0 -0.24061753715E+02  0.16268808301E+02 -0.18688497084E+02  0.34538575574E+02  0.10566000000E+00 0. -1.
         22    1    1    0    0    0 -0.15284366356E+02  0.19716096232E+02 -0.13402550821E+02  0.28318980808E+02  0.00000000000E+00 0.  1.
</event>
<event>
 5    1  0.1258624E-009  0.9118800E+02  0.7815553E-02  0.1125453E+00
         25   -1    0    0    0    0  0.00000000000E+00  0.00000000000E+00  0.99999998245E-14  0.12509000000E+03  0.12509000000E+03 0.  0.
        -13    1    3    3    0    0  0.29945469265E+02  0.24726675617E+02 -0.48465371073E+02  0.62105096199E+02  0.10566000000E+00 0. -1.
         23    2    1    0    0    0  0.14184687510E+02  0.17114788013E+02 -0.22152840579E+02  0.93707366678E+02  0.88296097850E+02 0.  0.
         13    1    3    3    0    0 -0.15760781754E+02 -0.76118876035E+01  0.26312530495E+02  0.31602270479E+02  0.10566000000E+00 0.  1.
         22    1    1    0    0    0 -0.14184687510E+02 -0.17114788013E+02  0.22152840579E+02  0.31382633322E+02  0.00000000000E+00 0. -1.
</event>
<event>
 5    1  0.1258624E-009  0.9118800E+02  0.7815553E-02  0.1125453E+00
         25   -1    0    0    0    0  0.00000000000E+00  0.00000000000E+00  0.99999998245E-14  0.12509000000E+03  0.12509000000E+03 0.  0.
        -13    1    3    3    0    0 -0.21983228857E+02 -0.23076570170E+02  0.26287668828E+02  0.41313958152E+02  0.10566000000E+00 0.  1.
         23    2    1    0    0    0 -0.13342480030E+02  0.40982629418E-02 -0.24177343218E+02  0.97475407567E+02  0.93482026964E+02 0.  0.
         13    1    3    3    0    0  0.86407488262E+01  0.23080668433E+02 -0.50465012045E+02  0.56161449415E+02  0.10566000000E+00 0. -1.
         22    1    1    0    0    0  0.13342480030E+02 -0.40982629418E-02  0.24177343218E+02  0.27614592433E+02  0.00000000000E+00 0. -1.
</event>
<event>
 5    1  0.1258624E-009  0.9118800E+02  0.7815553E-02  0.1125453E+00
         25   -1    0    0    0    0  0.00000000000E+00  0.00000000000E+00  0.99999998245E-14  0.12509000000E+03  0.12509000000E+03 0.  0.
        -13    1    3    3    0    0  0.55727511000E+02 -0.22136664317E+02 -0.93036617472E+01  0.60680776818E+02  0.10566000000E+00 0.  1.
         23    2    1    0    0    0  0.17710038148E+02 -0.17323419533E+02  0.77110306582E+00  0.10030409845E+03  0.97193473295E+02 0.  0.
         13    1    3    3    0    0 -0.38017472852E+02  0.48132447837E+01  0.10074764813E+02  0.39623321636E+02  0.10566000000E+00 0. -1.
         22    1    1    0    0    0 -0.17710038148E+02  0.17323419533E+02 -0.77110306582E+00  0.24785901546E+02  0.00000000000E+00 0.  1.
</event>
<event>
 5    1  0.1258624E-009  0.9118800E+02  0.7815553E-02  0.1125453E+00
         25   -1    0    0    0    0  0.00000000000E+00  0.00000000000E+00  0.99999998245E-14  0.12509000000E+03  0.12509000000E+03 0.  0.
        -13    1    3    3    0    0 -0.21101004001E+02  0.48286484973E+02  0.23181071984E+02  0.57569178066E+02  0.10566000000E+00 0.  1.
         23    2    1    0    0    0 -0.17357749861E+02  0.27176961684E+02 -0.44446792816E+01  0.92537981621E+02  0.86623577287E+02 0.  0.
         13    1    3    3    0    0  0.37432541394E+01 -0.21109523289E+02 -0.27625751265E+02  0.34968803555E+02  0.10566000000E+00 0. -1.
         22    1    1    0    0    0  0.17357749861E+02 -0.27176961684E+02  0.44446792816E+01  0.32552018379E+02  0.00000000000E+00 0.  1.
</event>
<event>
 5    1  0.1258624E-009  0.9118800E+02  0.7815553E-02  0.1125453E+00
         25   -1    0    0    0    0  0.00000000000E+00  0.00000000000E+00  0.99999998245E-14  0.12509000000E+03  0.12509000000E+03 0.  0.
        -13    1    3    3    0    0 -0.33865065987E+02  0.76378965328E+01 -0.23145752853E+02  0.41724299837E+02  0.10566000000E+00 0. -1.
         23    2    1    0    0    0 -0.19505793068E+01  0.32460651566E+02 -0.27648459848E+02  0.82405857843E+02  0.70489640481E+02 0.  0.
         13    1    3    3    0    0  0.31914486680E+02  0.24822755033E+02 -0.45027069954E+01  0.40681558006E+02  0.10566000000E+00 0.  1.
         22    1    1    0    0    0  0.19505793068E+01 -0.32460651566E+02  0.27648459848E+02  0.42684142157E+02  0.00000000000E+00 0.  1.
</event>
<event>
 5    1  0.1258624E-009  0.9118800E+02  0.7815553E-02  0.1125453E+00
         25   -1    0    0    0    0  0.00000000000E+00  0.00000000000E+00  0.99999998245E-14  0.12509000000E+03  0.12509000000E+03 0.  0.
        -13    1    3    3    0    0 -0.52292046677E+01 -0.51775266915E+02  0.32805093937E+01  0.52142072758E+02  0.10566000000E+00 0.  1.
         23    2    1    0    0    0  0.25499540225E+01 -0.25161976772E+02 -0.23409626996E+02  0.90627876202E+02  0.83819890051E+02 0.  0.
         13    1    3    3    0    0  0.77791586902E+01  0.26613290143E+02 -0.26690136390E+02  0.38485803444E+02  0.10566000000E+00 0. -1.
         22    1    1    0    0    0 -0.25499540225E+01  0.25161976772E+02  0.23409626996E+02  0.34462123798E+02  0.00000000000E+00 0.  1.
</event>
<event>
 5    1  0.1258624E-009  0.9118800E+02  0.7815553E-02  0.1125453E+00
         25   -1    0    0    0    0  0.00000000000E+00  0.00000000000E+00  0.99999998245E-14  0.12509000000E+03  0.12509000000E+03 0.  0.
        -13    1    3    3    0    0  0.10096145262E+02  0.10431863667E+02  0.41219605040E+02  0.43701520939E+02  0.10566000000E+00 0.  1.
         23    2    1    0    0    0 -0.12918042064E+02  0.25159977788E+02 -0.39908269076E+01  0.96527314684E+02  0.92204639187E+02 0.  0.
         13    1    3    3    0    0 -0.23014187326E+02  0.14728114121E+02 -0.45210431948E+02  0.52825793745E+02  0.10566000000E+00 0. -1.
         22    1    1    0    0    0  0.12918042064E+02 -0.25159977788E+02  0.39908269076E+01  0.28562685316E+02  0.00000000000E+00 0. -1.
</event>
<event>
 5    1  0.1258624E-009  0.9118800E+02  0.7815553E-02  0.1125453E+00
         25   -1    0    0    0    0  0.00000000000E+00  0.00000000000E+00  0.99999998245E-14  0.12509000000E+03  0.12509000000E+03 0.  0.
        -13    1    3    3    0    0 -0.48372053899E+02 -0.34186560244E+02  0.13083100289E+02  0.60660985625E+02  0.10566000000E+00 0.  1.
         23    2    1    0    0    0 -0.16602197272E+02 -0.23408309947E+02  0.82129510503E+00  0.96380133151E+02  0.92004747768E+02 0.  0.
         13    1    3    3    0    0  0.31769856628E+02  0.10778250297E+02 -0.12261805184E+02  0.35719147527E+02  0.10566000000E+00 0. -1.
         22    1    1    0    0    0  0.16602197272E+02  0.23408309947E+02 -0.82129510503E+00  0.28709866849E+02  0.00000000000E+00 0.  1.
</event>
<event>
 5    1  0.1258624E-009  0.9118800E+02  0.7815553E-02  0.1125453E+00
         25   -1    0    0    0    0  0.00000000000E+00  0.00000000000E+00  0.99999998245E-14  0.12509000000E+03  0.12509000000E+03 0.  0.
        -13    1    3    3    0    0 -0.22955553471E+02  0.23975811700E+01  0.28544002171E+02  0.36707997147E+02  0.10566000000E+00 0. -1.
         23    2    1    0    0    0  0.15943021884E+02  0.20229452292E+02 -0.12903936393E+02  0.96281628626E+02  0.91870723027E+02 0.  0.
         13    1    3    3    0    0  0.38898575354E+02  0.17831871122E+02 -0.41447938564E+02  0.59573631478E+02  0.10566000000E+00 0.  1.
         22    1    1    0    0    0 -0.15943021884E+02 -0.20229452292E+02  0.12903936393E+02  0.28808371374E+02  0.00000000000E+00 0.  1.
</event>
<event>
 5    1  0.1258624E-009  0.9118800E+02  0.7815553E-02  0.1125453E+00
         25   -1    0    0    0    0  0.00000000000E+00  0.00000000000E+00  0.99999998245E-14  0.12509000000E+03  0.12509000000E+03 0.  0.
        -13    1    3    3    0    0 -0.42421452041E+02 -0.15360705882E+02  0.70482167847E+01  0.45664202636E+02  0.10566000000E+00 0. -1.
         23    2    1    0    0    0 -0.14185744394E+02  0.25591951316E+02  0.60342377716E+00  0.95823168323E+02  0.91244354078E+02 0.  0.
         13    1    3    3    0    0  0.28235707647E+02  0.40952657197E+02 -0.64447930075E+01  0.50158965687E+02  0.10566000000E+00 0.  1.
         22    1    1    0    0    0  0.14185744394E+02 -0.25591951316E+02 -0.60342377716E+00  0.29266831677E+02  0.00000000000E+00 0. -1.
</event>
<event>
 5    1  0.1258624E-009  0.9118800E+02  0.7815553E-02  0.1125453E+00
         25   -1    0    0    0    0  0.00000000000E+00  0.00000000000E+00  0.99999998245E-14  0.12509000000E+03  0.12509000000E+03 0.  0.
        -13    1    3    3    0    0  0.20730321545E+02  0.13306049541E+02  0.26675791930E+02  0.36309864016E+02  0.10566000000E+00 0. -1.
         23    2    1    0    0    0 -0.54519777184E+01 -0.28640690578E+02 -0.56587152298E+01  0.95390938132E+02  0.90649858256E+02 0.  0.
         13    1    3    3    0    0 -0.26182299263E+02 -0.41946740119E+02 -0.32334507160E+02  0.59081074115E+02  0.10566000000E+00 0.  1.
         22    1    1    0    0    0  0.54519777184E+01  0.28640690578E+02  0.56587152298E+01  0.29699061868E+02  0.00000000000E+00 0.  1.
</event>
<event>
 5    1  0.1258624E-009  0.9118800E+02  0.7815553E-02  0.1125453E+00
         25   -1    0    0    0    0  0.00000000000E+00  0.00000000000E+00  0.99999998245E-14  0.12509000000E+03  0.12509000000E+03 0.  0.
        -13    1    3    3    0    0 -0.25256617121E+02  0.10932317233E+02 -0.32232494227E+02  0.42383453335E+02  0.10566000000E+00 0.  1.
         23    2    1    0    0    0  0.22507925712E+02 -0.70478631969E+01 -0.18155279095E+02  0.95326041014E+02  0.90560260827E+02 0.  0.
         13    1    3    3    0    0  0.47764542833E+02 -0.17980180430E+02  0.14077215132E+02  0.52942587680E+02  0.10566000000E+00 0. -1.
         22    1    1    0    0    0 -0.22507925712E+02  0.70478631969E+01  0.18155279095E+02  0.29763958986E+02  0.00000000000E+00 0. -1.
</event>
<event>
 5    1  0.1258624E-009  0.9118800E+02  0.7815553E-02  0.1125453E+00
         25   -1    0    0    0    0  0.00000000000E+00  0.00000000000E+00  0.99999998245E-14  0.12509000000E+03  0.12509000000E+03 0.  0.
        -13    1    3    3    0    0  0.34838578693E+02  0.74029385566E+01  0.47053722378E+02  0.59013507084E+02  0.10566000000E+00 0.  1.
         23    2    1    0    0    0  0.40261975836E+01 -0.39279328070E+01  0.27058115333E+02  0.97453420463E+02  0.93452600988E+02 0.  0.
         13    1    3    3    0    0 -0.30812381109E+02 -0.11330871364E+02 -0.19995607045E+02  0.38439913379E+02  0.10566000000E+00 0. -1.
         22    1    1    0    0    0 -0.40261975836E+01  0.39279328070E+01 -0.27058115333E+02  0.27636579537E+02  0.00000000000E+00 0.  1.
</event>
<event>
 5    1  0.1258624E-009  0.9118800E+02  0.7815553E-02  0.1125453E+00
         25   -1    0    0    0    0  0.00000000000E+00  0.00000000000E+00  0.99999998245E-14  0.12509000000E+03  0.12509000000E+03 0.  0.
        -13    1    3    3    0    0  0.28214649557E+02 -0.13758133575E+02 -0.14697274422E+02  0.34660838544E+02  0.10566000000E+00 0. -1.
         23    2    1    0    0    0 -0.26944237178E+02  0.51067815335E+01  0.68706797511E+01  0.96818505965E+02  0.92598842985E+02 0.  0.
         13    1    3    3    0    0 -0.55158886735E+02  0.18864915109E+02  0.21567954173E+02  0.62157667421E+02  0.10566000000E+00 0.  1.
         22    1    1    0    0    0  0.26944237178E+02 -0.51067815335E+01 -0.68706797511E+01  0.28271494035E+02  0.00000000000E+00 0.  1.
</event>
<event>
 5    1  0.1258624E-009  0.9118800E+02  0.7815553E-02  0.1125453E+00
         25   -1    0    0    0    0  0.00000000000E+00  0.00000000000E+00  0.99999998245E-14  0.12509000000E+03  0.12509000000E+03 0.  0.
        -13    1    3    3    0    0 -0.43190587263E+02 -0.23435293778E+02 -0.22486498093E+02  0.54039740776E+02  0.10566000000E+00 0.  1.
         23    2    1    0    0    0 -0.29499158664E+02  0.93303308813E+01 -0.45700374866E+01  0.93814759331E+02  0.88448111283E+02 0.  0.
         13    1    3    3    0    0  0.13691428599E+02  0.32765624659E+02  0.17916460607E+02  0.39775018556E+02  0.10566000000E+00 0. -1.
         22    1    1    0    0    0  0.29499158664E+02 -0.93303308813E+01  0.45700374866E+01  0.31275240669E+02  0.00000000000E+00 0.  1.
</event>
<event>
 5    1  0.1258624E-009  0.9118800E+02  0.7815553E-02  0.1125453E+00
         25   -1    0    0    0    0  0.00000000000E+00  0.00000000000E+00  0.99999998245E-14  0.12509000000E+03  0.12509000000E+03 0.  0.
        -13    1    3    3    0    0  0.19967053873E+02 -0.22411151127E+02 -0.42184823301E+02  0.51773674934E+02  0.10566000000E+00 0.  1.
         23    2    1    0    0    0  0.24149713102E+02 -0.18178128801E+02  0.48780120978E+00  0.94859370505E+02  0.89913342798E+02 0.  0.
         13    1    3    3    0    0  0.41826592294E+01  0.42330223259E+01  0.42672624511E+02  0.43085695572E+02  0.10566000000E+00 0. -1.
         22    1    1    0    0    0 -0.24149713102E+02  0.18178128801E+02 -0.48780120978E+00  0.30230629495E+02  0.00000000000E+00 0.  1.
</event>
<event>
 5    1  0.1258624E-009  0.9118800E+02  0.7815553E-02  0.1125453E+00
         25   -1    0    0    0    0  0.00000000000E+00  0.00000000000E+00  0.99999998245E-14  0.12509000000E+03  0.12509000000E+03 0.  0.
        -13    1    3    3    0    0  0.37502862841E+02  0.65289166151E+01 -0.22554367200E+02  0.44247057724E+02  0.10566000000E+00 0.  1.
         23    2    1    0    0    0  0.12040698281E+02  0.18455494968E+02  0.20052930136E+02  0.95295642872E+02  0.90518262432E+02 0.  0.
         13    1    3    3    0    0 -0.25462164560E+02  0.11926578353E+02  0.42607297336E+02  0.51048585148E+02  0.10566000000E+00 0. -1.
         22    1    1    0    0    0 -0.12040698281E+02 -0.18455494968E+02 -0.20052930136E+02  0.29794357128E+02  0.00000000000E+00 0. -1.
</event>
<event>
 5    1  0.1258624E-009  0.9118800E+02  0.7815553E-02  0.1125453E+00
         25   -1    0    0    0    0  0.00000000000E+00  0.00000000000E+00  0.99999998245E-14  0.12509000000E+03  0.12509000000E+03 0.  0.
        -13    1    3    3    0    0  0.49967532917E+01 -0.11093492225E+02 -0.31628609322E+02  0.33888245821E+02  0.10566000000E+00 0.  1.
         23    2    1    0    0    0  0.10239969929E+01  0.86219614351E+00  0.29124892178E+02  0.95934360813E+02  0.91396664535E+02 0.  0.
         13    1    3    3    0    0 -0.39727562988E+01  0.11955688368E+02  0.60753501500E+02  0.62046114991E+02  0.10566000000E+00 0. -1.
         22    1    1    0    0    0 -0.10239969929E+01 -0.86219614351E+00 -0.29124892178E+02  0.29155639187E+02  0.00000000000E+00 0. -1.
</event>
<event>
 5    1  0.1258624E-009  0.9118800E+02  0.7815553E-02  0.1125453E+00
         25   -1    0    0    0    0  0.00000000000E+00  0.00000000000E+00  0.99999998245E-14  0.12509000000E+03  0.12509000000E+03 0.  0.
        -13    1    3    3    0    0 -0.30563650600E+02 -0.18847832168E+02 -0.16649342076E+02  0.39580162595E+02  0.10566000000E+00 0.  1.
         23    2    1    0    0    0 -0.11993032139E+02  0.27557868937E+02 -0.18851920315E+02  0.89612347036E+02  0.82290393617E+02 0.  0.
         13    1    3    3    0    0  0.18570618461E+02  0.46405701105E+02 -0.22025782391E+01  0.50032184442E+02  0.10566000000E+00 0. -1.
         22    1    1    0    0    0  0.11993032139E+02 -0.27557868937E+02  0.18851920315E+02  0.35477652964E+02  0.00000000000E+00 0.  1.
</event>
<event>
 5    1  0.1258624E-009  0.9118800E+02  0.7815553E-02  0.1125453E+00
         25   -1    0    0    0    0  0.00000000000E+00  0.00000000000E+00  0.99999998245E-14  0.12509000000E+03  0.12509000000E+03 0.  0.
        -13    1    3    3    0    0 -0.18188998708E+02 -0.18012647170E+02  0.24060195559E+02  0.35131172859E+02  0.10566000000E+00 0.  1.
         23    2    1    0    0    0  0.22742403406E+02  0.18905089142E+02 -0.58378764483E+00  0.95510275252E+02  0.90814385218E+02 0.  0.
         13    1    3    3    0    0  0.40931402115E+02  0.36917736312E+02 -0.24643983204E+02  0.60379102392E+02  0.10566000000E+00 0. -1.
         22    1    1    0    0    0 -0.22742403406E+02 -0.18905089142E+02  0.58378764483E+00  0.29579724748E+02  0.00000000000E+00 0. -1.
</event>
<event>
 5    1  0.1258624E-009  0.9118800E+02  0.7815553E-02  0.1125453E+00
         25   -1    0    0    0    0  0.00000000000E+00  0.00000000000E+00  0.99999998245E-14  0.12509000000E+03  0.12509000000E+03 0.  0.
        -13    1    3    3    0    0  0.30980553603E+02 -0.13302606637E+01  0.53764893365E+02  0.62066409736E+02  0.10566000000E+00 0.  1.
         23    2    1    0    0    0  0.12100915621E+02  0.39107318477E+01  0.27082236099E+02  0.95170549895E+02  0.90345227172E+02 0.  0.
         13    1    3    3    0    0 -0.18879637982E+02  0.52409925114E+01 -0.26682657266E+02  0.33104140159E+02  0.10566000000E+00 0. -1.
         22    1    1    0    0    0 -0.12100915621E+02 -0.39107318477E+01 -0.27082236099E+02  0.29919450105E+02  0.00000000000E+00 0.  1.
</event>
<event>
 5    1  0.1258624E-009  0.9118800E+02  0.7815553E-02  0.1125453E+00
         25   -1    0    0    0    0  0.00000000000E+00  0.00000000000E+00  0.99999998245E-14  0.12509000000E+03  0.12509000000E+03 0.  0.
        -13    1    3    3    0    0 -0.46858438287E+02  0.16867577481E+01 -0.28519897865E+02  0.54881273023E+02  0.10566000000E+00 0.  1.
         23    2    1    0    0    0 -0.49850955877E+01  0.74186906974E+01 -0.26421875039E+02  0.97197283563E+02  0.93109120400E+02 0.  0.
         13    1    3    3    0    0  0.41873342699E+02  0.57319329493E+01  0.20980228264E+01  0.42316010539E+02  0.10566000000E+00 0. -1.
         22    1    1    0    0    0  0.49850955877E+01 -0.74186906974E+01  0.26421875039E+02  0.27892716437E+02  0.00000000000E+00 0.  1.
</event>
<event>
 5    1  0.1258624E-009  0.9118800E+02  0.7815553E-02  0.1125453E+00
         25   -1    0    0    0    0  0.00000000000E+00  0.00000000000E+00  0.99999998245E-14  0.12509000000E+03  0.12509000000E+03 0.  0.
        -13    1    3    3    0    0  0.14464648426E+02 -0.46236920281E+02 -0.15678049749E+02  0.50920440485E+02  0.10566000000E+00 0.  1.
         23    2    1    0    0    0  0.22150559748E+02 -0.18519313784E+01 -0.18664757188E+02  0.96065008908E+02  0.91575301412E+02 0.  0.
         13    1    3    3    0    0  0.76859113221E+01  0.44384988903E+02 -0.29867074395E+01  0.45144568423E+02  0.10566000000E+00 0. -1.
         22    1    1    0    0    0 -0.22150559748E+02  0.18519313784E+01  0.18664757188E+02  0.29024991092E+02  0.00000000000E+00 0.  1.
</event>
<event>
 5    1  0.1258624E-009  0.9118800E+02  0.7815553E-02  0.1125453E+00
         25   -1    0    0    0    0  0.00000000000E+00  0.00000000000E+00  0.99999998245E-14  0.12509000000E+03  0.12509000000E+03 0.  0.
        -13    1    3    3    0    0 -0.18687114047E+00  0.51805648342E+02 -0.33026911870E+02  0.61438165603E+02  0.10566000000E+00 0.  1.
         23    2    1    0    0    0  0.81424100787E+01  0.22338048802E+02 -0.13696528742E+02  0.97651301675E+02  0.93717098510E+02 0.  0.
         13    1    3    3    0    0  0.83292812192E+01 -0.29467599540E+02  0.19330383128E+02  0.36213136072E+02  0.10566000000E+00 0. -1.
         22    1    1    0    0    0 -0.81424100787E+01 -0.22338048802E+02  0.13696528742E+02  0.27438698325E+02  0.00000000000E+00 0.  1.
</event>
<event>
 5    1  0.1258624E-009  0.9118800E+02  0.7815553E-02  0.1125453E+00
         25   -1    0    0    0    0  0.00000000000E+00  0.00000000000E+00  0.99999998245E-14  0.12509000000E+03  0.12509000000E+03 0.  0.
        -13    1    3    3    0    0 -0.38489278083E+02  0.73822833616E+01 -0.28212020202E+02  0.48289252250E+02  0.10566000000E+00 0.  1.
         23    2    1    0    0    0  0.61757181670E+01  0.20516070293E+02 -0.20418805719E+02  0.95493103843E+02  0.90790729810E+02 0.  0.
         13    1    3    3    0    0  0.44664996250E+02  0.13133786931E+02  0.77932144829E+01  0.47203851593E+02  0.10566000000E+00 0. -1.
         22    1    1    0    0    0 -0.61757181670E+01 -0.20516070293E+02  0.20418805719E+02  0.29596896157E+02  0.00000000000E+00 0.  1.
</event>
<event>
 5    1  0.1258624E-009  0.9118800E+02  0.7815553E-02  0.1125453E+00
         25   -1    0    0    0    0  0.00000000000E+00  0.00000000000E+00  0.99999998245E-14  0.12509000000E+03  0.12509000000E+03 0.  0.
        -13    1    3    3    0    0  0.38214377920E+02  0.23198562237E+02 -0.50575111833E+01  0.44990016149E+02  0.10566000000E+00 0.  1.
         23    2    1    0    0    0 -0.10811978128E+02  0.27284643836E+02  0.53040628377E+01  0.95265785964E+02  0.90476992835E+02 0.  0.
         13    1    3    3    0    0 -0.49026356048E+02  0.40860815990E+01  0.10361574021E+02  0.50275769814E+02  0.10566000000E+00 0. -1.
         22    1    1    0    0    0  0.10811978128E+02 -0.27284643836E+02 -0.53040628377E+01  0.29824214036E+02  0.00000000000E+00 0.  1.
</event>
<event>
 5    1  0.1258624E-009  0.9118800E+02  0.7815553E-02  0.1125453E+00
         25   -1    0    0    0    0  0.00000000000E+00  0.00000000000E+00  0.99999998245E-14  0.12509000000E+03  0.12509000000E+03 0.  0.
        -13    1    3    3    0    0  0.47656319701E+02  0.12546768142E+02 -0.24291634084E+02  0.54942159120E+02  0.10566000000E+00 0.  1.
         23    2    1    0    0    0  0.28526240858E+02 -0.27974700408E+01  0.78502654689E+01  0.95371337109E+02  0.90622806279E+02 0.  0.
         13    1    3    3    0    0 -0.19130078843E+02 -0.15344238183E+02  0.32141899553E+02  0.40429177989E+02  0.10566000000E+00 0. -1.
         22    1    1    0    0    0 -0.28526240858E+02  0.27974700408E+01 -0.78502654689E+01  0.29718662891E+02  0.00000000000E+00 0.  1.
</event>
<event>
 5    1  0.1258624E-009  0.9118800E+02  0.7815553E-02  0.1125453E+00
         25   -1    0    0    0    0  0.00000000000E+00  0.00000000000E+00  0.99999998245E-14  0.12509000000E+03  0.12509000000E+03 0.  0.
        -13    1    3    3    0    0 -0.46308019630E+02 -0.18379721086E+02 -0.22763342290E+01  0.49874238749E+02  0.10566000000E+00 0.  1.
         23    2    1    0    0    0 -0.21458615822E+02  0.19050441926E+02  0.65407258828E+01  0.95659189178E+02  0.91019271852E+02 0.  0.
         13    1    3    3    0    0  0.24849403808E+02  0.37430163012E+02  0.88170601119E+01  0.45784950429E+02  0.10566000000E+00 0. -1.
         22    1    1    0    0    0  0.21458615822E+02 -0.19050441926E+02 -0.65407258828E+01  0.29430810822E+02  0.00000000000E+00 0.  1.
</event>
<event>
 5    1  0.1258624E-009  0.9118800E+02  0.7815553E-02  0.1125453E+00
         25   -1    0    0    0    0  0.00000000000E+00  0.00000000000E+00  0.99999998245E-14  0.12509000000E+03  0.12509000000E+03 0.  0.
        -13    1    3    3    0    0 -0.23234371429E+01 -0.33980546855E+02  0.16913976760E+02  0.38028537950E+02  0.10566000000E+00 0. -1.
         23    2    1    0    0    0  0.65610301571E+01  0.23470150805E+02  0.15556459335E+02  0.96178090299E+02  0.91729638236E+02 0.  0.
         13    1    3    3    0    0  0.88844673000E+01  0.57450697660E+02 -0.13575174249E+01  0.58149552349E+02  0.10566000000E+00 0.  1.
         22    1    1    0    0    0 -0.65610301571E+01 -0.23470150805E+02 -0.15556459335E+02  0.28911909701E+02  0.00000000000E+00 0.  1.
</event>
<event>
 5    1  0.1258624E-009  0.9118800E+02  0.7815553E-02  0.1125453E+00
         25   -1    0    0    0    0  0.00000000000E+00  0.00000000000E+00  0.99999998245E-14  0.12509000000E+03  0.12509000000E+03 0.  0.
        -13    1    3    3    0    0  0.67217838332E+01 -0.27736918830E+02  0.28570749270E+02  0.40383386707E+02  0.10566000000E+00 0.  1.
         23    2    1    0    0    0  0.16459491193E+02  0.22831055367E+02  0.80781109634E+01  0.95808131613E+02  0.91223737409E+02 0.  0.
         13    1    3    3    0    0  0.97377073593E+01  0.50567974198E+02 -0.20492638306E+02  0.55424744906E+02  0.10566000000E+00 0. -1.
         22    1    1    0    0    0 -0.16459491193E+02 -0.22831055367E+02 -0.80781109634E+01  0.29281868387E+02  0.00000000000E+00 0. -1.
</event>
<event>
 5    1  0.1258624E-009  0.9118800E+02  0.7815553E-02  0.1125453E+00
         25   -1    0    0    0    0  0.00000000000E+00  0.00000000000E+00  0.99999998245E-14  0.12509000000E+03  0.12509000000E+03 0.  0.
        -13    1    3    3    0    0  0.30480166099E+02 -0.41969400684E+02  0.21475203402E+02  0.56139706486E+02  0.10566000000E+00 0. -1.
         23    2    1    0    0    0 -0.44523618696E+01 -0.27220657787E+02  0.98793942862E+01  0.95791703666E+02  0.91201207905E+02 0.  0.
         13    1    3    3    0    0 -0.34932527968E+02  0.14748742897E+02 -0.11595809116E+02  0.39651997180E+02  0.10566000000E+00 0.  1.
         22    1    1    0    0    0  0.44523618696E+01  0.27220657787E+02 -0.98793942862E+01  0.29298296334E+02  0.00000000000E+00 0. -1.
</event>
<event>
 5    1  0.1258624E-009  0.9118800E+02  0.7815553E-02  0.1125453E+00
         25   -1    0    0    0    0  0.00000000000E+00  0.00000000000E+00  0.99999998245E-14  0.12509000000E+03  0.12509000000E+03 0.  0.
        -13    1    3    3    0    0  0.13174936375E+02 -0.43635046549E+02  0.44345435066E+01  0.45795988645E+02  0.10566000000E+00 0.  1.
         23    2    1    0    0    0  0.41863852592E+00 -0.66708114847E+01 -0.27815435442E+02  0.96482773065E+02  0.92144191707E+02 0.  0.
         13    1    3    3    0    0 -0.12756297849E+02  0.36964235064E+02 -0.32249978949E+02  0.50686784421E+02  0.10566000000E+00 0. -1.
         22    1    1    0    0    0 -0.41863852592E+00  0.66708114847E+01  0.27815435442E+02  0.28607226935E+02  0.00000000000E+00 0. -1.
</event>
<event>
 5    1  0.1258624E-009  0.9118800E+02  0.7815553E-02  0.1125453E+00
         25   -1    0    0    0    0  0.00000000000E+00  0.00000000000E+00  0.99999998245E-14  0.12509000000E+03  0.12509000000E+03 0.  0.
        -13    1    3    3    0    0  0.27754877671E+02 -0.95972558546E+01 -0.29991782575E+02  0.41975692258E+02  0.10566000000E+00 0. -1.
         23    2    1    0    0    0 -0.22472712189E+02 -0.14532200428E+02 -0.13802753465E+02  0.94978147755E+02  0.90078437516E+02 0.  0.
         13    1    3    3    0    0 -0.50227589860E+02 -0.49349445737E+01  0.16189029111E+02  0.53002455497E+02  0.10566000000E+00 0.  1.
         22    1    1    0    0    0  0.22472712189E+02  0.14532200428E+02  0.13802753465E+02  0.30111852245E+02  0.00000000000E+00 0.  1.
</event>
<event>
 5    1  0.1258624E-009  0.9118800E+02  0.7815553E-02  0.1125453E+00
         25   -1    0    0    0    0  0.00000000000E+00  0.00000000000E+00  0.99999998245E-14  0.12509000000E+03  0.12509000000E+03 0.  0.
        -13    1    3    3    0    0 -0.16533096234E+02  0.42783466922E+02 -0.41589710286E+01  0.46055146477E+02  0.10566000000E+00 0. -1.
         23    2    1    0    0    0 -0.28790788290E+02  0.80585609242E+01  0.19101858054E+02  0.89611402569E+02  0.82288957916E+02 0.  0.
         13    1    3    3    0    0 -0.12257692056E+02 -0.34724905998E+02  0.23260829083E+02  0.43556256092E+02  0.10566000000E+00 0.  1.
         22    1    1    0    0    0  0.28790788290E+02 -0.80585609242E+01 -0.19101858054E+02  0.35478597431E+02  0.00000000000E+00 0.  1.
</event>
<event>
 5    1  0.1258624E-009  0.9118800E+02  0.7815553E-02  0.1125453E+00
         25   -1    0    0    0    0  0.00000000000E+00  0.00000000000E+00  0.99999998245E-14  0.12509000000E+03  0.12509000000E+03 0.  0.
        -13    1    3    3    0    0 -0.11075621296E+01 -0.28630957884E+02 -0.21407683640E+02  0.35766723726E+02  0.10566000000E+00 0. -1.
         23    2    1    0    0    0  0.18367612480E+02 -0.12952965697E+01  0.25617677066E+02  0.93541428564E+02  0.88060697806E+02 0.  0.
         13    1    3    3    0    0  0.19475174609E+02  0.27335661314E+02  0.47025360706E+02  0.57774704838E+02  0.10566000000E+00 0.  1.
         22    1    1    0    0    0 -0.18367612480E+02  0.12952965697E+01 -0.25617677066E+02  0.31548571436E+02  0.00000000000E+00 0.  1.
</event>
<event>
 5    1  0.1258624E-009  0.9118800E+02  0.7815553E-02  0.1125453E+00
         25   -1    0    0    0    0  0.00000000000E+00  0.00000000000E+00  0.99999998245E-14  0.12509000000E+03  0.12509000000E+03 0.  0.
        -13    1    3    3    0    0  0.36867115170E+02 -0.37017902827E+02 -0.18792620895E+02  0.55521915266E+02  0.10566000000E+00 0. -1.
         23    2    1    0    0    0 -0.45114325176E+00 -0.28645849696E+02 -0.97995450483E+01  0.94810975607E+02  0.89845989211E+02 0.  0.
         13    1    3    3    0    0 -0.37318258421E+02  0.83720531312E+01  0.89930758467E+01  0.39289060341E+02  0.10566000000E+00 0.  1.
         22    1    1    0    0    0  0.45114325176E+00  0.28645849696E+02  0.97995450483E+01  0.30279024393E+02  0.00000000000E+00 0. -1.
</event>
<event>
 5    1  0.1258624E-009  0.9118800E+02  0.7815553E-02  0.1125453E+00
         25   -1    0    0    0    0  0.00000000000E+00  0.00000000000E+00  0.99999998245E-14  0.12509000000E+03  0.12509000000E+03 0.  0.
        -13    1    3    3    0    0 -0.19646032237E+02 -0.43362948988E+02  0.20850465884E+02  0.51971771368E+02  0.10566000000E+00 0.  1.
         23    2    1    0    0    0 -0.25048012261E+02 -0.11722223409E+02 -0.92028730559E+01  0.95943708428E+02  0.91409457249E+02 0.  0.
         13    1    3    3    0    0 -0.54019800245E+01  0.31640725579E+02 -0.30053338940E+02  0.43971937060E+02  0.10566000000E+00 0. -1.
         22    1    1    0    0    0  0.25048012261E+02  0.11722223409E+02  0.92028730559E+01  0.29146291572E+02  0.00000000000E+00 0.  1.
</event>
<event>
 5    1  0.1258624E-009  0.9118800E+02  0.7815553E-02  0.1125453E+00
         25   -1    0    0    0    0  0.00000000000E+00  0.00000000000E+00  0.99999998245E-14  0.12509000000E+03  0.12509000000E+03 0.  0.
        -13    1    3    3    0    0  0.31627609469E+02 -0.54022771213E+01  0.15377674492E+02  0.35580532818E+02  0.10566000000E+00 0. -1.
         23    2    1    0    0    0 -0.14344921789E+02 -0.19178463048E+02 -0.18919943673E+02  0.94568622334E+02  0.89507931691E+02 0.  0.
         13    1    3    3    0    0 -0.45972531258E+02 -0.13776185927E+02 -0.34297618165E+02  0.58988089516E+02  0.10566000000E+00 0.  1.
         22    1    1    0    0    0  0.14344921789E+02  0.19178463048E+02  0.18919943673E+02  0.30521377666E+02  0.00000000000E+00 0.  1.
</event>
<event>
 5    1  0.1258624E-009  0.9118800E+02  0.7815553E-02  0.1125453E+00
         25   -1    0    0    0    0  0.00000000000E+00  0.00000000000E+00  0.99999998245E-14  0.12509000000E+03  0.12509000000E+03 0.  0.
        -13    1    3    3    0    0  0.20813646864E+01 -0.45522445948E+02 -0.27293454371E+02  0.53118442932E+02  0.10566000000E+00 0. -1.
         23    2    1    0    0    0  0.15358835854E+02 -0.17246406573E+02  0.83676768923E+01  0.10052680813E+03  0.97479683817E+02 0.  0.
         13    1    3    3    0    0  0.13277471167E+02  0.28276039375E+02  0.35661131263E+02  0.47408365194E+02  0.10566000000E+00 0.  1.
         22    1    1    0    0    0 -0.15358835854E+02  0.17246406573E+02 -0.83676768923E+01  0.24563191874E+02  0.00000000000E+00 0. -1.
</event>
<event>
 5    1  0.1258624E-009  0.9118800E+02  0.7815553E-02  0.1125453E+00
         25   -1    0    0    0    0  0.00000000000E+00  0.00000000000E+00  0.99999998245E-14  0.12509000000E+03  0.12509000000E+03 0.  0.
        -13    1    3    3    0    0  0.20852726926E+02 -0.41459074258E+01 -0.25117774891E+02  0.32908031666E+02  0.10566000000E+00 0. -1.
         23    2    1    0    0    0 -0.26177155301E+02  0.15172226717E+02  0.82579962611E+01  0.93727053304E+02  0.88323983694E+02 0.  0.
         13    1    3    3    0    0 -0.47029882227E+02  0.19318134142E+02  0.33375771152E+02  0.60819021638E+02  0.10566000000E+00 0.  1.
         22    1    1    0    0    0  0.26177155301E+02 -0.15172226717E+02 -0.82579962611E+01  0.31362946696E+02  0.00000000000E+00 0.  1.
</event>
<event>
 5    1  0.1258624E-009  0.9118800E+02  0.7815553E-02  0.1125453E+00
         25   -1    0    0    0    0  0.00000000000E+00  0.00000000000E+00  0.99999998245E-14  0.12509000000E+03  0.12509000000E+03 0.  0.
        -13    1    3    3    0    0  0.99501063125E+01 -0.25422975147E+02  0.37320898715E+02  0.46240598244E+02  0.10566000000E+00 0. -1.
         23    2    1    0    0    0 -0.22787320803E+02 -0.25141323490E+02  0.79130291909E+01  0.90248011435E+02  0.83251062460E+02 0.  0.
         13    1    3    3    0    0 -0.32737427115E+02  0.28165165722E+00 -0.29407869525E+02  0.44007413191E+02  0.10566000000E+00 0.  1.
         22    1    1    0    0    0  0.22787320803E+02  0.25141323490E+02 -0.79130291909E+01  0.34841988565E+02  0.00000000000E+00 0. -1.
</event>
<event>
 5    1  0.1258624E-009  0.9118800E+02  0.7815553E-02  0.1125453E+00
         25   -1    0    0    0    0  0.00000000000E+00  0.00000000000E+00  0.99999998245E-14  0.12509000000E+03  0.12509000000E+03 0.  0.
        -13    1    3    3    0    0 -0.15693013918E+01  0.52590606434E+02  0.15927244286E+02  0.54972018942E+02  0.10566000000E+00 0. -1.
         23    2    1    0    0    0 -0.21533862785E+02  0.18099170887E+02  0.98491586298E+01  0.95285752669E+02  0.90504593821E+02 0.  0.
         13    1    3    3    0    0 -0.19964561393E+02 -0.34491435547E+02 -0.60780856558E+01  0.40313733727E+02  0.10566000000E+00 0.  1.
         22    1    1    0    0    0  0.21533862785E+02 -0.18099170887E+02 -0.98491586298E+01  0.29804247331E+02  0.00000000000E+00 0. -1.
</event>
<event>
 5    1  0.1258624E-009  0.9118800E+02  0.7815553E-02  0.1125453E+00
         25   -1    0    0    0    0  0.00000000000E+00  0.00000000000E+00  0.99999998245E-14  0.12509000000E+03  0.12509000000E+03 0.  0.
        -13    1    3    3    0    0  0.26202327522E+02  0.17343251304E+02  0.15930636160E+02  0.35229911522E+02  0.10566000000E+00 0.  1.
         23    2    1    0    0    0 -0.19948634099E+02  0.56625794248E+01 -0.21072240205E+02  0.95525627600E+02  0.90835529464E+02 0.  0.
         13    1    3    3    0    0 -0.46150961621E+02 -0.11680671879E+02 -0.37002876365E+02  0.60295716078E+02  0.10566000000E+00 0. -1.
         22    1    1    0    0    0  0.19948634099E+02 -0.56625794248E+01  0.21072240205E+02  0.29564372400E+02  0.00000000000E+00 0. -1.
</event>
<event>
 5    1  0.1258624E-009  0.9118800E+02  0.7815553E-02  0.1125453E+00
         25   -1    0    0    0    0  0.00000000000E+00  0.00000000000E+00  0.99999998245E-14  0.12509000000E+03  0.12509000000E+03 0.  0.
        -13    1    3    3    0    0  0.26500452158E+02  0.17013875564E+02 -0.87063489989E+01  0.32673500015E+02  0.10566000000E+00 0. -1.
         23    2    1    0    0    0 -0.20914289680E+02 -0.16880209373E+02  0.13461800503E+02  0.95030574622E+02  0.90151212188E+02 0.  0.
         13    1    3    3    0    0 -0.47414741837E+02 -0.33894084937E+02  0.22168149502E+02  0.62357074607E+02  0.10566000000E+00 0.  1.
         22    1    1    0    0    0  0.20914289680E+02  0.16880209373E+02 -0.13461800503E+02  0.30059425378E+02  0.00000000000E+00 0.  1.
</event>
<event>
 5    1  0.1258624E-009  0.9118800E+02  0.7815553E-02  0.1125453E+00
         25   -1    0    0    0    0  0.00000000000E+00  0.00000000000E+00  0.99999998245E-14  0.12509000000E+03  0.12509000000E+03 0.  0.
        -13    1    3    3    0    0  0.46921929163E+02 -0.13482551266E+02  0.30469670929E+02  0.57548750079E+02  0.10566000000E+00 0.  1.
         23    2    1    0    0    0  0.27628051103E+02  0.11625225566E+01 -0.11899030524E+01  0.97411912354E+02  0.93397024218E+02 0.  0.
         13    1    3    3    0    0 -0.19293878060E+02  0.14645073823E+02 -0.31659573982E+02  0.39863162276E+02  0.10566000000E+00 0. -1.
         22    1    1    0    0    0 -0.27628051103E+02 -0.11625225566E+01  0.11899030524E+01  0.27678087646E+02  0.00000000000E+00 0.  1.
</event>
<event>
 5    1  0.1258624E-009  0.9118800E+02  0.7815553E-02  0.1125453E+00
         25   -1    0    0    0    0  0.00000000000E+00  0.00000000000E+00  0.99999998245E-14  0.12509000000E+03  0.12509000000E+03 0.  0.
        -13    1    3    3    0    0 -0.49386800843E+00 -0.43555079471E+02 -0.23567983956E+02  0.49525244927E+02  0.10566000000E+00 0.  1.
         23    2    1    0    0    0  0.26757929755E+02 -0.99957443679E+01 -0.92201062973E+01  0.95074802677E+02  0.90212560288E+02 0.  0.
         13    1    3    3    0    0  0.27251797763E+02  0.33559335103E+02  0.14347877659E+02  0.45549557750E+02  0.10566000000E+00 0. -1.
         22    1    1    0    0    0 -0.26757929755E+02  0.99957443679E+01  0.92201062973E+01  0.30015197323E+02  0.00000000000E+00 0.  1.
</event>
<event>
 5    1  0.1258624E-009  0.9118800E+02  0.7815553E-02  0.1125453E+00
         25   -1    0    0    0    0  0.00000000000E+00  0.00000000000E+00  0.99999998245E-14  0.12509000000E+03  0.12509000000E+03 0.  0.
        -13    1    3    3    0    0 -0.23054262837E+02  0.16673318379E+02  0.51455880897E+01  0.28913436696E+02  0.10566000000E+00 0. -1.
         23    2    1    0    0    0  0.29371328790E+02  0.86141551201E+01  0.25020601955E+02  0.85556354259E+02  0.75874769249E+02 0.  0.
         13    1    3    3    0    0  0.52425591627E+02 -0.80591632593E+01  0.19875013866E+02  0.56642917563E+02  0.10566000000E+00 0.  1.
         22    1    1    0    0    0 -0.29371328790E+02 -0.86141551201E+01 -0.25020601955E+02  0.39533645741E+02  0.00000000000E+00 0.  1.
</event>
<event>
 5    1  0.1258624E-009  0.9118800E+02  0.7815553E-02  0.1125453E+00
         25   -1    0    0    0    0  0.00000000000E+00  0.00000000000E+00  0.99999998245E-14  0.12509000000E+03  0.12509000000E+03 0.  0.
        -13    1    3    3    0    0  0.51905564045E+02 -0.15421808066E+02  0.22436444847E+02  0.58612498363E+02  0.10566000000E+00 0.  1.
         23    2    1    0    0    0  0.23069837947E+02  0.66458356958E+01  0.17767520921E+02  0.95222469894E+02  0.90417085874E+02 0.  0.
         13    1    3    3    0    0 -0.28835726099E+02  0.22067643762E+02 -0.46689239262E+01  0.36609971531E+02  0.10566000000E+00 0. -1.
         22    1    1    0    0    0 -0.23069837947E+02 -0.66458356958E+01 -0.17767520921E+02  0.29867530106E+02  0.00000000000E+00 0.  1.
</event>
<event>
 5    1  0.1258624E-009  0.9118800E+02  0.7815553E-02  0.1125453E+00
         25   -1    0    0    0    0  0.00000000000E+00  0.00000000000E+00  0.99999998245E-14  0.12509000000E+03  0.12509000000E+03 0.  0.
        -13    1    3    3    0    0 -0.42918635873E+02 -0.25980528955E+02 -0.33674313444E+02  0.60423238410E+02  0.10566000000E+00 0.  1.
         23    2    1    0    0    0 -0.25194961898E+02 -0.13002652428E+02 -0.54004855017E+01  0.96227908620E+02  0.91797549414E+02 0.  0.
         13    1    3    3    0    0  0.17723673975E+02  0.12977876527E+02  0.28273827942E+02  0.35804670210E+02  0.10566000000E+00 0. -1.
         22    1    1    0    0    0  0.25194961898E+02  0.13002652428E+02  0.54004855017E+01  0.28862091380E+02  0.00000000000E+00 0.  1.
</event>
<event>
 5    1  0.1258624E-009  0.9118800E+02  0.7815553E-02  0.1125453E+00
         25   -1    0    0    0    0  0.00000000000E+00  0.00000000000E+00  0.99999998245E-14  0.12509000000E+03  0.12509000000E+03 0.  0.
        -13    1    3    3    0    0  0.28944706064E+02 -0.48194969458E+02  0.11934333876E+02  0.57471650222E+02  0.10566000000E+00 0. -1.
         23    2    1    0    0    0  0.10985646171E+02 -0.24960562431E+02 -0.11941351535E+02  0.95319041413E+02  0.90550591830E+02 0.  0.
         13    1    3    3    0    0 -0.17959059893E+02  0.23234407027E+02 -0.23875685411E+02  0.37847391191E+02  0.10566000000E+00 0.  1.
         22    1    1    0    0    0 -0.10985646171E+02  0.24960562431E+02  0.11941351535E+02  0.29770958587E+02  0.00000000000E+00 0. -1.
</event>
<event>
 5    1  0.1258624E-009  0.9118800E+02  0.7815553E-02  0.1125453E+00
         25   -1    0    0    0    0  0.00000000000E+00  0.00000000000E+00  0.99999998245E-14  0.12509000000E+03  0.12509000000E+03 0.  0.
        -13    1    3    3    0    0 -0.59310497766E+01  0.35295739113E+02 -0.48835874563E+02  0.60546844339E+02  0.10566000000E+00 0.  1.
         23    2    1    0    0    0  0.72336015069E+01  0.10900238708E+02 -0.23952121070E+02  0.97798164254E+02  0.93912920479E+02 0.  0.
         13    1    3    3    0    0  0.13164651283E+02 -0.24395500406E+02  0.24883753493E+02  0.37251319915E+02  0.10566000000E+00 0. -1.
         22    1    1    0    0    0 -0.72336015069E+01 -0.10900238708E+02  0.23952121070E+02  0.27291835746E+02  0.00000000000E+00 0.  1.
</event>
<event>
 5    1  0.1258624E-009  0.9118800E+02  0.7815553E-02  0.1125453E+00
         25   -1    0    0    0    0  0.00000000000E+00  0.00000000000E+00  0.99999998245E-14  0.12509000000E+03  0.12509000000E+03 0.  0.
        -13    1    3    3    0    0 -0.52409772921E+02 -0.21833814406E+02 -0.31065294852E+01  0.56860895514E+02  0.10566000000E+00 0.  1.
         23    2    1    0    0    0 -0.17731349943E+02 -0.10600400625E+02 -0.19364508828E+02  0.96774748520E+02  0.92539713015E+02 0.  0.
         13    1    3    3    0    0  0.34678422979E+02  0.11233413781E+02 -0.16257979343E+02  0.39913853006E+02  0.10566000000E+00 0. -1.
         22    1    1    0    0    0  0.17731349943E+02  0.10600400625E+02  0.19364508828E+02  0.28315251480E+02  0.00000000000E+00 0.  1.
</event>
<event>
 5    1  0.1258624E-009  0.9118800E+02  0.7815553E-02  0.1125453E+00
         25   -1    0    0    0    0  0.00000000000E+00  0.00000000000E+00  0.99999998245E-14  0.12509000000E+03  0.12509000000E+03 0.  0.
        -13    1    3    3    0    0  0.32491265685E+02  0.46075537796E+00 -0.21927482879E+02  0.39201024359E+02  0.10566000000E+00 0. -1.
         23    2    1    0    0    0  0.71504517587E+00 -0.27153555607E+02  0.13986770045E+02  0.94537477878E+02  0.89464395798E+02 0.  0.
         13    1    3    3    0    0 -0.31776220509E+02 -0.27614310985E+02  0.35914252924E+02  0.55336453520E+02  0.10566000000E+00 0.  1.
         22    1    1    0    0    0 -0.71504517587E+00  0.27153555607E+02 -0.13986770045E+02  0.30552522122E+02  0.00000000000E+00 0.  1.
</event>
<event>
 5    1  0.1258624E-009  0.9118800E+02  0.7815553E-02  0.1125453E+00
         25   -1    0    0    0    0  0.00000000000E+00  0.00000000000E+00  0.99999998245E-14  0.12509000000E+03  0.12509000000E+03 0.  0.
        -13    1    3    3    0    0  0.21513459683E+02 -0.51868645120E+02 -0.25493149218E+02  0.61669255835E+02  0.10566000000E+00 0.  1.
         23    2    1    0    0    0  0.14619975864E+02 -0.25641986941E+02 -0.62562164169E+01  0.94917240225E+02  0.89993816785E+02 0.  0.
         13    1    3    3    0    0 -0.68934838190E+01  0.26226658179E+02  0.19236932801E+02  0.33247984390E+02  0.10566000000E+00 0. -1.
         22    1    1    0    0    0 -0.14619975864E+02  0.25641986941E+02  0.62562164169E+01  0.30172759775E+02  0.00000000000E+00 0.  1.
</event>
<event>
 5    1  0.1258624E-009  0.9118800E+02  0.7815553E-02  0.1125453E+00
         25   -1    0    0    0    0  0.00000000000E+00  0.00000000000E+00  0.99999998245E-14  0.12509000000E+03  0.12509000000E+03 0.  0.
        -13    1    3    3    0    0  0.28654190575E+02  0.16629681102E+02 -0.28753890732E+02  0.43868055887E+02  0.10566000000E+00 0.  1.
         23    2    1    0    0    0 -0.17837999460E+02  0.22640202777E+02 -0.14229679937E+02  0.92945687943E+02  0.87210344052E+02 0.  0.
         13    1    3    3    0    0 -0.46492190035E+02  0.60105216751E+01  0.14524210795E+02  0.49077632057E+02  0.10566000000E+00 0. -1.
         22    1    1    0    0    0  0.17837999460E+02 -0.22640202777E+02  0.14229679937E+02  0.32144312057E+02  0.00000000000E+00 0.  1.
</event>
<event>
 5    1  0.1258624E-009  0.9118800E+02  0.7815553E-02  0.1125453E+00
         25   -1    0    0    0    0  0.00000000000E+00  0.00000000000E+00  0.99999998245E-14  0.12509000000E+03  0.12509000000E+03 0.  0.
        -13    1    3    3    0    0 -0.24649313787E+02 -0.26471221926E+02 -0.84749638663E+01  0.37150376001E+02  0.10566000000E+00 0. -1.
         23    2    1    0    0    0  0.16540240507E+02  0.14096912120E+01  0.23527993125E+02  0.96295326086E+02  0.91889371421E+02 0.  0.
         13    1    3    3    0    0  0.41189554294E+02  0.27880913138E+02  0.32002956991E+02  0.59144950085E+02  0.10566000000E+00 0.  1.
         22    1    1    0    0    0 -0.16540240507E+02 -0.14096912120E+01 -0.23527993125E+02  0.28794673914E+02  0.00000000000E+00 0.  1.
</event>
<event>
 5    1  0.1258624E-009  0.9118800E+02  0.7815553E-02  0.1125453E+00
         25   -1    0    0    0    0  0.00000000000E+00  0.00000000000E+00  0.99999998245E-14  0.12509000000E+03  0.12509000000E+03 0.  0.
        -13    1    3    3    0    0  0.39130168901E+01  0.56568192952E+02 -0.25807961880E+02  0.62300354858E+02  0.10566000000E+00 0. -1.
         23    2    1    0    0    0  0.16678932966E+01  0.25317479698E+02 -0.15839493318E+02  0.95179363182E+02  0.90357429030E+02 0.  0.
         13    1    3    3    0    0 -0.22451235936E+01 -0.31250713255E+02  0.99684685620E+01  0.32879008324E+02  0.10566000000E+00 0.  1.
         22    1    1    0    0    0 -0.16678932966E+01 -0.25317479698E+02  0.15839493318E+02  0.29910636818E+02  0.00000000000E+00 0. -1.
</event>
<event>
 5    1  0.1258624E-009  0.9118800E+02  0.7815553E-02  0.1125453E+00
         25   -1    0    0    0    0  0.00000000000E+00  0.00000000000E+00  0.99999998245E-14  0.12509000000E+03  0.12509000000E+03 0.  0.
        -13    1    3    3    0    0 -0.78622163221E+01 -0.39393767845E+02 -0.12866521018E+02  0.42181061125E+02  0.10566000000E+00 0. -1.
         23    2    1    0    0    0  0.11150970948E+02 -0.89661724686E+01  0.26208369177E+02  0.95230076746E+02  0.90427609171E+02 0.  0.
         13    1    3    3    0    0  0.19013187270E+02  0.30427595376E+02  0.39074890195E+02  0.53049015621E+02  0.10566000000E+00 0.  1.
         22    1    1    0    0    0 -0.11150970948E+02  0.89661724686E+01 -0.26208369177E+02  0.29859923254E+02  0.00000000000E+00 0.  1.
</event>
<event>
 5    1  0.1258624E-009  0.9118800E+02  0.7815553E-02  0.1125453E+00
         25   -1    0    0    0    0  0.00000000000E+00  0.00000000000E+00  0.99999998245E-14  0.12509000000E+03  0.12509000000E+03 0.  0.
        -13    1    3    3    0    0  0.99003249730E+01  0.39815070119E+02 -0.24703222049E+02  0.47890673276E+02  0.10566000000E+00 0.  1.
         23    2    1    0    0    0 -0.24909559086E+02  0.17498086959E+02 -0.32456805908E+01  0.94476218405E+02  0.89378701157E+02 0.  0.
         13    1    3    3    0    0 -0.34809884058E+02 -0.22316983160E+02  0.21457541458E+02  0.46585545129E+02  0.10566000000E+00 0. -1.
         22    1    1    0    0    0  0.24909559086E+02 -0.17498086959E+02  0.32456805908E+01  0.30613781595E+02  0.00000000000E+00 0. -1.
</event>
<event>
 5    1  0.1258624E-009  0.9118800E+02  0.7815553E-02  0.1125453E+00
         25   -1    0    0    0    0  0.00000000000E+00  0.00000000000E+00  0.99999998245E-14  0.12509000000E+03  0.12509000000E+03 0.  0.
        -13    1    3    3    0    0 -0.16546910734E+02 -0.24592226938E+01  0.30933800801E+02  0.35167587735E+02  0.10566000000E+00 0.  1.
         23    2    1    0    0    0 -0.83388484176E+00  0.15647797701E+02 -0.24751870959E+02  0.95794880052E+02  0.91205564476E+02 0.  0.
         13    1    3    3    0    0  0.15713025893E+02  0.18107020395E+02 -0.55685671760E+02  0.60627292316E+02  0.10566000000E+00 0. -1.
         22    1    1    0    0    0  0.83388484176E+00 -0.15647797701E+02  0.24751870959E+02  0.29295119948E+02  0.00000000000E+00 0. -1.
</event>
<event>
 5    1  0.1258624E-009  0.9118800E+02  0.7815553E-02  0.1125453E+00
         25   -1    0    0    0    0  0.00000000000E+00  0.00000000000E+00  0.99999998245E-14  0.12509000000E+03  0.12509000000E+03 0.  0.
        -13    1    3    3    0    0  0.39566111119E+02 -0.15033630630E+02 -0.27588838732E+02  0.50523681434E+02  0.10566000000E+00 0. -1.
         23    2    1    0    0    0  0.26146431392E+02  0.26185623745E+01  0.12234397091E+02  0.96104258408E+02  0.91628899745E+02 0.  0.
         13    1    3    3    0    0 -0.13419679727E+02  0.17652193004E+02  0.39823235823E+02  0.45580576974E+02  0.10566000000E+00 0.  1.
         22    1    1    0    0    0 -0.26146431392E+02 -0.26185623745E+01 -0.12234397091E+02  0.28985741592E+02  0.00000000000E+00 0. -1.
</event>
<event>
 5    1  0.1258624E-009  0.9118800E+02  0.7815553E-02  0.1125453E+00
         25   -1    0    0    0    0  0.00000000000E+00  0.00000000000E+00  0.99999998245E-14  0.12509000000E+03  0.12509000000E+03 0.  0.
        -13    1    3    3    0    0 -0.58931661736E+01  0.14311536873E+02 -0.26370627246E+02  0.30577289621E+02  0.10566000000E+00 0.  1.
         23    2    1    0    0    0  0.12974911906E+02 -0.78788775612E+01  0.28556418462E+02  0.92749714195E+02  0.86928794984E+02 0.  0.
         13    1    3    3    0    0  0.18868078079E+02 -0.22190414434E+02  0.54927045708E+02  0.62172424574E+02  0.10566000000E+00 0. -1.
         22    1    1    0    0    0 -0.12974911906E+02  0.78788775612E+01 -0.28556418462E+02  0.32340285805E+02  0.00000000000E+00 0. -1.
</event>
<event>
 5    1  0.1258624E-009  0.9118800E+02  0.7815553E-02  0.1125453E+00
         25   -1    0    0    0    0  0.00000000000E+00  0.00000000000E+00  0.99999998245E-14  0.12509000000E+03  0.12509000000E+03 0.  0.
        -13    1    3    3    0    0 -0.36540223694E+02  0.28072577079E+02 -0.35149956817E+02  0.57955052926E+02  0.10566000000E+00 0.  1.
         23    2    1    0    0    0 -0.58831568920E+01  0.25424105416E+02 -0.12555975323E+02  0.96130559613E+02  0.91664798608E+02 0.  0.
         13    1    3    3    0    0  0.30657066802E+02 -0.26484716626E+01  0.22593981494E+02  0.38175506687E+02  0.10566000000E+00 0. -1.
         22    1    1    0    0    0  0.58831568920E+01 -0.25424105416E+02  0.12555975323E+02  0.28959440387E+02  0.00000000000E+00 0.  1.
</event>
<event>
 5    1  0.1258624E-009  0.9118800E+02  0.7815553E-02  0.1125453E+00
         25   -1    0    0    0    0  0.00000000000E+00  0.00000000000E+00  0.99999998245E-14  0.12509000000E+03  0.12509000000E+03 0.  0.
        -13    1    3    3    0    0  0.32313606536E+02 -0.38558747284E+02 -0.37142042249E+02  0.62533899815E+02  0.10566000000E+00 0. -1.
         23    2    1    0    0    0  0.15262269394E+02 -0.18037365958E+02 -0.16422890468E+02  0.96315101754E+02  0.91916288311E+02 0.  0.
         13    1    3    3    0    0 -0.17051337143E+02  0.20521381327E+02  0.20719151782E+02  0.33781201940E+02  0.10566000000E+00 0.  1.
         22    1    1    0    0    0 -0.15262269394E+02  0.18037365958E+02  0.16422890468E+02  0.28774898246E+02  0.00000000000E+00 0. -1.
</event>
<event>
 5    1  0.1258624E-009  0.9118800E+02  0.7815553E-02  0.1125453E+00
         25   -1    0    0    0    0  0.00000000000E+00  0.00000000000E+00  0.99999998245E-14  0.12509000000E+03  0.12509000000E+03 0.  0.
        -13    1    3    3    0    0  0.12094704611E+02  0.39043975434E+02 -0.53769776355E+01  0.41226653391E+02  0.10566000000E+00 0.  1.
         23    2    1    0    0    0 -0.12012361570E+02 -0.45781287500E+01 -0.26715329873E+02  0.95442657058E+02  0.90721198420E+02 0.  0.
         13    1    3    3    0    0 -0.24107066181E+02 -0.43622104184E+02 -0.21338352237E+02  0.54216003666E+02  0.10566000000E+00 0. -1.
         22    1    1    0    0    0  0.12012361570E+02  0.45781287500E+01  0.26715329873E+02  0.29647342942E+02  0.00000000000E+00 0. -1.
</event>
<event>
 5    1  0.1258624E-009  0.9118800E+02  0.7815553E-02  0.1125453E+00
         25   -1    0    0    0    0  0.00000000000E+00  0.00000000000E+00  0.99999998245E-14  0.12509000000E+03  0.12509000000E+03 0.  0.
        -13    1    3    3    0    0 -0.42324766276E+01 -0.46711899029E+02 -0.21488552966E+01  0.46952573011E+02  0.10566000000E+00 0. -1.
         23    2    1    0    0    0 -0.13150102222E+01 -0.42662684683E+01 -0.27999913237E+02  0.96736421040E+02  0.92487889563E+02 0.  0.
         13    1    3    3    0    0  0.29174664054E+01  0.42445630560E+02 -0.25851057941E+02  0.49783848029E+02  0.10566000000E+00 0.  1.
         22    1    1    0    0    0  0.13150102222E+01  0.42662684683E+01  0.27999913237E+02  0.28353578960E+02  0.00000000000E+00 0.  1.
</event>
<event>
 5    1  0.1258624E-009  0.9118800E+02  0.7815553E-02  0.1125453E+00
         25   -1    0    0    0    0  0.00000000000E+00  0.00000000000E+00  0.99999998245E-14  0.12509000000E+03  0.12509000000E+03 0.  0.
        -13    1    3    3    0    0 -0.58906163778E+01  0.29976791769E+02  0.17023438659E+02  0.34973075842E+02  0.10566000000E+00 0. -1.
         23    2    1    0    0    0 -0.86231866625E+01 -0.21143367115E+02 -0.17157063271E+02  0.96528379926E+02  0.92206084343E+02 0.  0.
         13    1    3    3    0    0 -0.27325702847E+01 -0.51120158883E+02 -0.34180501930E+02  0.61555304084E+02  0.10566000000E+00 0.  1.
         22    1    1    0    0    0  0.86231866625E+01  0.21143367115E+02  0.17157063271E+02  0.28561620074E+02  0.00000000000E+00 0.  1.
</event>
<event>
 5    1  0.1258624E-009  0.9118800E+02  0.7815553E-02  0.1125453E+00
         25   -1    0    0    0    0  0.00000000000E+00  0.00000000000E+00  0.99999998245E-14  0.12509000000E+03  0.12509000000E+03 0.  0.
        -13    1    3    3    0    0 -0.29488552935E+02 -0.45611950957E+02 -0.14749396244E+02  0.56281264004E+02  0.10566000000E+00 0.  1.
         23    2    1    0    0    0 -0.97284757552E+01 -0.44209345487E+02 -0.18035986051E+02  0.76362120283E+02  0.58794278228E+02 0.  0.
         13    1    3    3    0    0  0.19760077180E+02  0.14026054704E+01 -0.32865898074E+01  0.20080856278E+02  0.10566000000E+00 0. -1.
         22    1    1    0    0    0  0.97284757552E+01  0.44209345487E+02  0.18035986051E+02  0.48727879717E+02  0.00000000000E+00 0.  1.
</event>
<event>
 5    1  0.1258624E-009  0.9118800E+02  0.7815553E-02  0.1125453E+00
         25   -1    0    0    0    0  0.00000000000E+00  0.00000000000E+00  0.99999998245E-14  0.12509000000E+03  0.12509000000E+03 0.  0.
        -13    1    3    3    0    0 -0.27841827063E+02  0.11407930518E+02 -0.53621155214E+02  0.61486158308E+02  0.10566000000E+00 0. -1.
         23    2    1    0    0    0 -0.88513406928E+01 -0.61022764157E-01 -0.29644831419E+02  0.94151900742E+02  0.88923643805E+02 0.  0.
         13    1    3    3    0    0  0.18990486370E+02 -0.11468953283E+02  0.23976323795E+02  0.32665742434E+02  0.10566000000E+00 0.  1.
         22    1    1    0    0    0  0.88513406928E+01  0.61022764157E-01  0.29644831419E+02  0.30938099258E+02  0.00000000000E+00 0. -1.
</event>
<event>
 5    1  0.1258624E-009  0.9118800E+02  0.7815553E-02  0.1125453E+00
         25   -1    0    0    0    0  0.00000000000E+00  0.00000000000E+00  0.99999998245E-14  0.12509000000E+03  0.12509000000E+03 0.  0.
        -13    1    3    3    0    0  0.32525313332E+02 -0.28279844064E+02 -0.12230895537E+02  0.44802361069E+02  0.10566000000E+00 0.  1.
         23    2    1    0    0    0  0.20999119368E+02  0.18726104227E+02  0.56389691113E+01  0.96394565409E+02  0.92024367827E+02 0.  0.
         13    1    3    3    0    0 -0.11526193965E+02  0.47005948291E+02  0.17869864649E+02  0.51592204340E+02  0.10566000000E+00 0. -1.
         22    1    1    0    0    0 -0.20999119368E+02 -0.18726104227E+02 -0.56389691113E+01  0.28695434591E+02  0.00000000000E+00 0. -1.
</event>
<event>
 5    1  0.1258624E-009  0.9118800E+02  0.7815553E-02  0.1125453E+00
         25   -1    0    0    0    0  0.00000000000E+00  0.00000000000E+00  0.99999998245E-14  0.12509000000E+03  0.12509000000E+03 0.  0.
        -13    1    3    3    0    0  0.15942740116E+02 -0.24169069875E+02  0.21463625109E+02  0.36041826645E+02  0.10566000000E+00 0. -1.
         23    2    1    0    0    0 -0.18853736877E+02  0.21584076976E+02  0.37762392828E+01  0.96183326787E+02  0.91736778860E+02 0.  0.
         13    1    3    3    0    0 -0.34796476994E+02  0.45753146851E+02 -0.17687385826E+02  0.60141500142E+02  0.10566000000E+00 0.  1.
         22    1    1    0    0    0  0.18853736877E+02 -0.21584076976E+02 -0.37762392828E+01  0.28906673213E+02  0.00000000000E+00 0.  1.
</event>
<event>
 5    1  0.1258624E-009  0.9118800E+02  0.7815553E-02  0.1125453E+00
         25   -1    0    0    0    0  0.00000000000E+00  0.00000000000E+00  0.99999998245E-14  0.12509000000E+03  0.12509000000E+03 0.  0.
        -13    1    3    3    0    0  0.41227022201E+00  0.14664543662E+02 -0.32796575249E+02  0.35928335888E+02  0.10566000000E+00 0. -1.
         23    2    1    0    0    0 -0.17126856223E+02  0.10380796689E+02  0.23011284268E+02  0.94584109623E+02  0.89529573022E+02 0.  0.
         13    1    3    3    0    0 -0.17539126445E+02 -0.42837469723E+01  0.55807859517E+02  0.58655773736E+02  0.10566000000E+00 0.  1.
         22    1    1    0    0    0  0.17126856223E+02 -0.10380796689E+02 -0.23011284268E+02  0.30505890377E+02  0.00000000000E+00 0.  1.
</event>
<event>
 5    1  0.1258624E-009  0.9118800E+02  0.7815553E-02  0.1125453E+00
         25   -1    0    0    0    0  0.00000000000E+00  0.00000000000E+00  0.99999998245E-14  0.12509000000E+03  0.12509000000E+03 0.  0.
        -13    1    3    3    0    0 -0.31091362756E+02 -0.40194273386E+02  0.29981198547E+02  0.59001151526E+02  0.10566000000E+00 0. -1.
         23    2    1    0    0    0 -0.14846165004E+02 -0.75325273107E+01  0.23869491932E+02  0.95988449730E+02  0.91470663349E+02 0.  0.
         13    1    3    3    0    0  0.16245197752E+02  0.32661746075E+02 -0.61117066155E+01  0.36987298204E+02  0.10566000000E+00 0.  1.
         22    1    1    0    0    0  0.14846165004E+02  0.75325273107E+01 -0.23869491932E+02  0.29101550270E+02  0.00000000000E+00 0. -1.
</event>
<event>
 5    1  0.1258624E-009  0.9118800E+02  0.7815553E-02  0.1125453E+00
         25   -1    0    0    0    0  0.00000000000E+00  0.00000000000E+00  0.99999998245E-14  0.12509000000E+03  0.12509000000E+03 0.  0.
        -13    1    3    3    0    0 -0.49928707636E+02 -0.13351672607E+02  0.23871381887E+02  0.56929755356E+02  0.10566000000E+00 0. -1.
         23    2    1    0    0    0 -0.20984918145E+02 -0.81597717077E+01 -0.88271873114E+01  0.10090595775E+03  0.97965016251E+02 0.  0.
         13    1    3    3    0    0  0.28943789491E+02  0.51919008998E+01 -0.32698569199E+02  0.43976202391E+02  0.10566000000E+00 0.  1.
         22    1    1    0    0    0  0.20984918145E+02  0.81597717077E+01  0.88271873114E+01  0.24184042253E+02  0.00000000000E+00 0. -1.
</event>
<event>
 5    1  0.1258624E-009  0.9118800E+02  0.7815553E-02  0.1125453E+00
         25   -1    0    0    0    0  0.00000000000E+00  0.00000000000E+00  0.99999998245E-14  0.12509000000E+03  0.12509000000E+03 0.  0.
        -13    1    3    3    0    0 -0.18884079495E+02 -0.52728626374E+02 -0.16540892924E+01  0.56032701818E+02  0.10566000000E+00 0. -1.
         23    2    1    0    0    0 -0.17388485522E+02 -0.19044130318E+02  0.16645343171E+02  0.94396258332E+02  0.89266722856E+02 0.  0.
         13    1    3    3    0    0  0.14955939730E+01  0.33684496056E+02  0.18299432463E+02  0.38363556514E+02  0.10566000000E+00 0.  1.
         22    1    1    0    0    0  0.17388485522E+02  0.19044130318E+02 -0.16645343171E+02  0.30693741668E+02  0.00000000000E+00 0. -1.
</event>
<event>
 5    1  0.1258624E-009  0.9118800E+02  0.7815553E-02  0.1125453E+00
         25   -1    0    0    0    0  0.00000000000E+00  0.00000000000E+00  0.99999998245E-14  0.12509000000E+03  0.12509000000E+03 0.  0.
        -13    1    3    3    0    0 -0.58983990642E+02  0.99669301244E+00  0.74751138255E+01  0.59464216464E+02  0.10566000000E+00 0.  1.
         23    2    1    0    0    0 -0.26944746582E+02 -0.13236608179E+02  0.14691303320E+01  0.95033627824E+02  0.90155448582E+02 0.  0.
         13    1    3    3    0    0  0.32039244060E+02 -0.14233301191E+02 -0.60059834935E+01  0.35569411360E+02  0.10566000000E+00 0. -1.
         22    1    1    0    0    0  0.26944746582E+02  0.13236608179E+02 -0.14691303320E+01  0.30056372176E+02  0.00000000000E+00 0.  1.
</event>
<event>
 5    1  0.1258624E-009  0.9118800E+02  0.7815553E-02  0.1125453E+00
         25   -1    0    0    0    0  0.00000000000E+00  0.00000000000E+00  0.99999998245E-14  0.12509000000E+03  0.12509000000E+03 0.  0.
        -13    1    3    3    0    0 -0.32983700722E+02 -0.41332090303E+02  0.58836608745E+01  0.53206154075E+02  0.10566000000E+00 0. -1.
         23    2    1    0    0    0 -0.78189094926E+01 -0.21898089736E+02 -0.20166837820E+02  0.94310737055E+02  0.89146800820E+02 0.  0.
         13    1    3    3    0    0  0.25164791230E+02  0.19434000567E+02 -0.26050498695E+02  0.41104582980E+02  0.10566000000E+00 0.  1.
         22    1    1    0    0    0  0.78189094926E+01  0.21898089736E+02  0.20166837820E+02  0.30779262945E+02  0.00000000000E+00 0. -1.
</event>
<event>
 5    1  0.1258624E-009  0.9118800E+02  0.7815553E-02  0.1125453E+00
         25   -1    0    0    0    0  0.00000000000E+00  0.00000000000E+00  0.99999998245E-14  0.12509000000E+03  0.12509000000E+03 0.  0.
        -13    1    3    3    0    0  0.22676658379E+02  0.10011245822E+02 -0.43223713096E+02  0.49827265789E+02  0.10566000000E+00 0.  1.
         23    2    1    0    0    0 -0.18695637341E+01  0.27777147309E+02 -0.83528253465E+01  0.96023956711E+02  0.91519207766E+02 0.  0.
         13    1    3    3    0    0 -0.24546222113E+02  0.17765901487E+02  0.34870887750E+02  0.46196690922E+02  0.10566000000E+00 0. -1.
         22    1    1    0    0    0  0.18695637341E+01 -0.27777147309E+02  0.83528253465E+01  0.29066043289E+02  0.00000000000E+00 0. -1.
</event>
<event>
 5    1  0.1258624E-009  0.9118800E+02  0.7815553E-02  0.1125453E+00
         25   -1    0    0    0    0  0.00000000000E+00  0.00000000000E+00  0.99999998245E-14  0.12509000000E+03  0.12509000000E+03 0.  0.
        -13    1    3    3    0    0 -0.52250895245E+01  0.11841936829E+02 -0.42721208013E+02  0.44639061443E+02  0.10566000000E+00 0. -1.
         23    2    1    0    0    0 -0.28011075197E+02  0.99689709313E+01  0.24401175190E+01  0.95257888298E+02  0.90466073167E+02 0.  0.
         13    1    3    3    0    0 -0.22785985672E+02 -0.18729658976E+01  0.45161325532E+02  0.50618826855E+02  0.10566000000E+00 0.  1.
         22    1    1    0    0    0  0.28011075197E+02 -0.99689709313E+01 -0.24401175190E+01  0.29832111702E+02  0.00000000000E+00 0.  1.
</event>
<event>
 5    1  0.1258624E-009  0.9118800E+02  0.7815553E-02  0.1125453E+00
         25   -1    0    0    0    0  0.00000000000E+00  0.00000000000E+00  0.99999998245E-14  0.12509000000E+03  0.12509000000E+03 0.  0.
        -13    1    3    3    0    0  0.87133171463E+01  0.43697759011E+02  0.33645636859E+02  0.55834183812E+02  0.10566000000E+00 0. -1.
         23    2    1    0    0    0  0.10803996008E+02  0.26892727259E+02 -0.27511656209E+01  0.95977905924E+02  0.91456243112E+02 0.  0.
         13    1    3    3    0    0  0.20906788621E+01 -0.16805031752E+02 -0.36396802480E+02  0.40143722113E+02  0.10566000000E+00 0.  1.
         22    1    1    0    0    0 -0.10803996008E+02 -0.26892727259E+02  0.27511656209E+01  0.29112094076E+02  0.00000000000E+00 0. -1.
</event>
<event>
 5    1  0.1258624E-009  0.9118800E+02  0.7815553E-02  0.1125453E+00
         25   -1    0    0    0    0  0.00000000000E+00  0.00000000000E+00  0.99999998245E-14  0.12509000000E+03  0.12509000000E+03 0.  0.
        -13    1    3    3    0    0  0.12141799044E+02 -0.17555889632E+02 -0.31986135175E+02  0.38454603786E+02  0.10566000000E+00 0.  1.
         23    2    1    0    0    0 -0.19655493090E+02  0.21330803983E+02 -0.44323190118E+01  0.95747419013E+02  0.91140447599E+02 0.  0.
         13    1    3    3    0    0 -0.31797292134E+02  0.38886693616E+02  0.27553816164E+02  0.57292815227E+02  0.10566000000E+00 0. -1.
         22    1    1    0    0    0  0.19655493090E+02 -0.21330803983E+02  0.44323190118E+01  0.29342580987E+02  0.00000000000E+00 0. -1.
</event>
<event>
 5    1  0.1258624E-009  0.9118800E+02  0.7815553E-02  0.1125453E+00
         25   -1    0    0    0    0  0.00000000000E+00  0.00000000000E+00  0.99999998245E-14  0.12509000000E+03  0.12509000000E+03 0.  0.
        -13    1    3    3    0    0 -0.78574344925E+01  0.13746632015E+02 -0.39206436439E+02  0.42283152565E+02  0.10566000000E+00 0.  1.
         23    2    1    0    0    0  0.48629343557E+01  0.26506873382E+02  0.11270102911E+02  0.95879082749E+02  0.91320976900E+02 0.  0.
         13    1    3    3    0    0  0.12720368848E+02  0.12760241367E+02  0.50476539350E+02  0.53595930183E+02  0.10566000000E+00 0. -1.
         22    1    1    0    0    0 -0.48629343557E+01 -0.26506873382E+02 -0.11270102911E+02  0.29210917251E+02  0.00000000000E+00 0. -1.
</event>
<event>
 5    1  0.1258624E-009  0.9118800E+02  0.7815553E-02  0.1125453E+00
         25   -1    0    0    0    0  0.00000000000E+00  0.00000000000E+00  0.99999998245E-14  0.12509000000E+03  0.12509000000E+03 0.  0.
        -13    1    3    3    0    0 -0.49678471404E+02  0.14281286689E+02 -0.32317801312E+02  0.60961931697E+02  0.10566000000E+00 0.  1.
         23    2    1    0    0    0 -0.28633299525E+02  0.43638956437E+01 -0.71076029053E+01  0.95266729791E+02  0.90478297724E+02 0.  0.
         13    1    3    3    0    0  0.21045171878E+02 -0.99173910456E+01  0.25210198407E+02  0.34304798094E+02  0.10566000000E+00 0. -1.
         22    1    1    0    0    0  0.28633299525E+02 -0.43638956437E+01  0.71076029053E+01  0.29823270209E+02  0.00000000000E+00 0.  1.
</event>
<event>
 5    1  0.1258624E-009  0.9118800E+02  0.7815553E-02  0.1125453E+00
         25   -1    0    0    0    0  0.00000000000E+00  0.00000000000E+00  0.99999998245E-14  0.12509000000E+03  0.12509000000E+03 0.  0.
        -13    1    3    3    0    0  0.13680375306E+02  0.19674382942E+02  0.33654958987E+02  0.41314663754E+02  0.10566000000E+00 0. -1.
         23    2    1    0    0    0 -0.63698849095E+01 -0.23638997552E+02 -0.14520753588E+01  0.10056478518E+03  0.97528405384E+02 0.  0.
         13    1    3    3    0    0 -0.20050260215E+02 -0.43313380494E+02 -0.35107034346E+02  0.59250121427E+02  0.10566000000E+00 0.  1.
         22    1    1    0    0    0  0.63698849095E+01  0.23638997552E+02  0.14520753588E+01  0.24525214818E+02  0.00000000000E+00 0.  1.
</event>
<event>
 5    1  0.1258624E-009  0.9118800E+02  0.7815553E-02  0.1125453E+00
         25   -1    0    0    0    0  0.00000000000E+00  0.00000000000E+00  0.99999998245E-14  0.12509000000E+03  0.12509000000E+03 0.  0.
        -13    1    3    3    0    0  0.30515943262E+02 -0.92657523170E+01 -0.64981932417E+01  0.32547114136E+02  0.10566000000E+00 0.  1.
         23    2    1    0    0    0 -0.25861502699E+02  0.57927194854E+01  0.14882778559E+02  0.94694769807E+02  0.89684053266E+02 0.  0.
         13    1    3    3    0    0 -0.56377445961E+02  0.15058471802E+02  0.21380971800E+02  0.62147655670E+02  0.10566000000E+00 0. -1.
         22    1    1    0    0    0  0.25861502699E+02 -0.57927194854E+01 -0.14882778559E+02  0.30395230193E+02  0.00000000000E+00 0. -1.
</event>
<event>
 5    1  0.1258624E-009  0.9118800E+02  0.7815553E-02  0.1125453E+00
         25   -1    0    0    0    0  0.00000000000E+00  0.00000000000E+00  0.99999998245E-14  0.12509000000E+03  0.12509000000E+03 0.  0.
        -13    1    3    3    0    0  0.39188414796E+02  0.93553740711E+01  0.99484102931E+01  0.41499842284E+02  0.10566000000E+00 0. -1.
         23    2    1    0    0    0 -0.22601149418E+01 -0.26872156824E+02  0.93362285831E+01  0.96552549236E+02  0.92238867447E+02 0.  0.
         13    1    3    3    0    0 -0.41448529738E+02 -0.36227530896E+02 -0.61218171003E+00  0.55052706952E+02  0.10566000000E+00 0.  1.
         22    1    1    0    0    0  0.22601149418E+01  0.26872156824E+02 -0.93362285831E+01  0.28537450764E+02  0.00000000000E+00 0.  1.
</event>
<event>
 5    1  0.1258624E-009  0.9118800E+02  0.7815553E-02  0.1125453E+00
         25   -1    0    0    0    0  0.00000000000E+00  0.00000000000E+00  0.99999998245E-14  0.12509000000E+03  0.12509000000E+03 0.  0.
        -13    1    3    3    0    0 -0.43469374709E+01 -0.35831677279E+02 -0.15674933019E+02  0.39351234430E+02  0.10566000000E+00 0.  1.
         23    2    1    0    0    0 -0.25781604481E+02  0.14140411295E+02 -0.10164438424E+01  0.95667635729E+02  0.91030879413E+02 0.  0.
         13    1    3    3    0    0 -0.21434667010E+02  0.49972088574E+02  0.14658489177E+02  0.56316401299E+02  0.10566000000E+00 0. -1.
         22    1    1    0    0    0  0.25781604481E+02 -0.14140411295E+02  0.10164438424E+01  0.29422364271E+02  0.00000000000E+00 0.  1.
</event>
<event>
 5    1  0.1258624E-009  0.9118800E+02  0.7815553E-02  0.1125453E+00
         25   -1    0    0    0    0  0.00000000000E+00  0.00000000000E+00  0.99999998245E-14  0.12509000000E+03  0.12509000000E+03 0.  0.
        -13    1    3    3    0    0 -0.38328874572E+02  0.16567926749E+02 -0.58915969050E+01  0.42170142291E+02  0.10566000000E+00 0. -1.
         23    2    1    0    0    0  0.55309960850E+01 -0.53847768330E+01 -0.28054983557E+02  0.95992408320E+02  0.91476076727E+02 0.  0.
         13    1    3    3    0    0  0.43859870657E+02 -0.21952703581E+02 -0.22163386652E+02  0.53822266029E+02  0.10566000000E+00 0.  1.
         22    1    1    0    0    0 -0.55309960850E+01  0.53847768330E+01  0.28054983557E+02  0.29097591680E+02  0.00000000000E+00 0.  1.
</event>
<event>
 5    1  0.1258624E-009  0.9118800E+02  0.7815553E-02  0.1125453E+00
         25   -1    0    0    0    0  0.00000000000E+00  0.00000000000E+00  0.99999998245E-14  0.12509000000E+03  0.12509000000E+03 0.  0.
        -13    1    3    3    0    0 -0.39782577488E+02 -0.35594110195E+02  0.46296100761E+01  0.53582073548E+02  0.10566000000E+00 0.  1.
         23    2    1    0    0    0 -0.24370410318E+02 -0.18515294635E+01 -0.15854029488E+02  0.95957624343E+02  0.91428498610E+02 0.  0.
         13    1    3    3    0    0  0.15412167170E+02  0.33742580732E+02 -0.20483639564E+02  0.42375550795E+02  0.10566000000E+00 0. -1.
         22    1    1    0    0    0  0.24370410318E+02  0.18515294635E+01  0.15854029488E+02  0.29132375657E+02  0.00000000000E+00 0.  1.
</event>
<event>
 5    1  0.1258624E-009  0.9118800E+02  0.7815553E-02  0.1125453E+00
         25   -1    0    0    0    0  0.00000000000E+00  0.00000000000E+00  0.99999998245E-14  0.12509000000E+03  0.12509000000E+03 0.  0.
        -13    1    3    3    0    0  0.75916478071E+01  0.88893803379E+01 -0.34105857377E+02  0.36053777482E+02  0.10566000000E+00 0. -1.
         23    2    1    0    0    0  0.24456604472E+02  0.17910443019E+02  0.16798773079E+02  0.90432991352E+02  0.83528544082E+02 0.  0.
         13    1    3    3    0    0  0.16864956665E+02  0.90210626812E+01  0.50904630457E+02  0.54379213871E+02  0.10566000000E+00 0.  1.
         22    1    1    0    0    0 -0.24456604472E+02 -0.17910443019E+02 -0.16798773079E+02  0.34657008648E+02  0.00000000000E+00 0.  1.
</event>
<event>
 5    1  0.1258624E-009  0.9118800E+02  0.7815553E-02  0.1125453E+00
         25   -1    0    0    0    0  0.00000000000E+00  0.00000000000E+00  0.99999998245E-14  0.12509000000E+03  0.12509000000E+03 0.  0.
        -13    1    3    3    0    0 -0.31236694465E+02  0.56919368351E+01 -0.14515493776E+02  0.34911888371E+02  0.10566000000E+00 0. -1.
         23    2    1    0    0    0  0.25939669024E+02  0.13032366432E+02  0.47139325835E+01  0.95680304927E+02  0.91048287115E+02 0.  0.
         13    1    3    3    0    0  0.57176363489E+02  0.73404295965E+01  0.19229426360E+02  0.60768416556E+02  0.10566000000E+00 0.  1.
         22    1    1    0    0    0 -0.25939669024E+02 -0.13032366432E+02 -0.47139325835E+01  0.29409695073E+02  0.00000000000E+00 0.  1.
</event>
<event>
 5    1  0.1258624E-009  0.9118800E+02  0.7815553E-02  0.1125453E+00
         25   -1    0    0    0    0  0.00000000000E+00  0.00000000000E+00  0.99999998245E-14  0.12509000000E+03  0.12509000000E+03 0.  0.
        -13    1    3    3    0    0  0.11137257578E+02  0.34580170343E+02 -0.23171293486E+02  0.43089983676E+02  0.10566000000E+00 0. -1.
         23    2    1    0    0    0  0.23012766007E+02 -0.25669218291E+01  0.14870738847E+02  0.97570636621E+02  0.93609367959E+02 0.  0.
         13    1    3    3    0    0  0.11875508428E+02 -0.37147092172E+02  0.38042032333E+02  0.54480652945E+02  0.10566000000E+00 0.  1.
         22    1    1    0    0    0 -0.23012766007E+02  0.25669218291E+01 -0.14870738847E+02  0.27519363379E+02  0.00000000000E+00 0.  1.
</event>
<event>
 5    1  0.1258624E-009  0.9118800E+02  0.7815553E-02  0.1125453E+00
         25   -1    0    0    0    0  0.00000000000E+00  0.00000000000E+00  0.99999998245E-14  0.12509000000E+03  0.12509000000E+03 0.  0.
        -13    1    3    3    0    0 -0.28127358818E+02  0.31128182187E+02  0.16041084131E+01  0.41984477705E+02  0.10566000000E+00 0.  1.
         23    2    1    0    0    0  0.79262398307E+01  0.57579881024E+01 -0.28224928476E+02  0.95213147885E+02  0.90404188166E+02 0.  0.
         13    1    3    3    0    0  0.36053598648E+02 -0.25370194085E+02 -0.29829036889E+02  0.53228670180E+02  0.10566000000E+00 0. -1.
         22    1    1    0    0    0 -0.79262398307E+01 -0.57579881024E+01  0.28224928476E+02  0.29876852115E+02  0.00000000000E+00 0. -1.
</event>
<event>
 5    1  0.1258624E-009  0.9118800E+02  0.7815553E-02  0.1125453E+00
         25   -1    0    0    0    0  0.00000000000E+00  0.00000000000E+00  0.99999998245E-14  0.12509000000E+03  0.12509000000E+03 0.  0.
        -13    1    3    3    0    0 -0.14021358872E+02  0.53771149860E+00  0.29449206794E+02  0.32621382299E+02  0.10566000000E+00 0. -1.
         23    2    1    0    0    0 -0.12579104865E+02  0.33652642823E+02 -0.13356939163E+02  0.86760610858E+02  0.77834834904E+02 0.  0.
         13    1    3    3    0    0  0.14422540072E+01  0.33114931324E+02 -0.42806145957E+02  0.54139228559E+02  0.10566000000E+00 0.  1.
         22    1    1    0    0    0  0.12579104865E+02 -0.33652642823E+02  0.13356939163E+02  0.38329389142E+02  0.00000000000E+00 0.  1.
</event>
<event>
 5    1  0.1258624E-009  0.9118800E+02  0.7815553E-02  0.1125453E+00
         25   -1    0    0    0    0  0.00000000000E+00  0.00000000000E+00  0.99999998245E-14  0.12509000000E+03  0.12509000000E+03 0.  0.
        -13    1    3    3    0    0  0.18542338320E+02  0.42082206916E+02  0.11533232565E+02  0.47410516415E+02  0.10566000000E+00 0.  1.
         23    2    1    0    0    0 -0.16593612863E+02  0.11329223974E+02  0.22034322094E+02  0.95270364625E+02  0.90483322894E+02 0.  0.
         13    1    3    3    0    0 -0.35135951183E+02 -0.30752982942E+02  0.10501089530E+02  0.47859848210E+02  0.10566000000E+00 0. -1.
         22    1    1    0    0    0  0.16593612863E+02 -0.11329223974E+02 -0.22034322094E+02  0.29819635375E+02  0.00000000000E+00 0.  1.
</event>
<event>
 5    1  0.1258624E-009  0.9118800E+02  0.7815553E-02  0.1125453E+00
         25   -1    0    0    0    0  0.00000000000E+00  0.00000000000E+00  0.99999998245E-14  0.12509000000E+03  0.12509000000E+03 0.  0.
        -13    1    3    3    0    0 -0.26813830850E+02 -0.24134783174E+02 -0.20132000356E+01  0.36132166031E+02  0.10566000000E+00 0.  1.
         23    2    1    0    0    0  0.19433977849E+02  0.15782840321E+02  0.95233384866E+01  0.98304341158E+02  0.94584734344E+02 0.  0.
         13    1    3    3    0    0  0.46247808699E+02  0.39917623495E+02  0.11536538522E+02  0.62172175127E+02  0.10566000000E+00 0. -1.
         22    1    1    0    0    0 -0.19433977849E+02 -0.15782840321E+02 -0.95233384866E+01  0.26785658842E+02  0.00000000000E+00 0. -1.
</event>
<event>
 5    1  0.1258624E-009  0.9118800E+02  0.7815553E-02  0.1125453E+00
         25   -1    0    0    0    0  0.00000000000E+00  0.00000000000E+00  0.99999998245E-14  0.12509000000E+03  0.12509000000E+03 0.  0.
        -13    1    3    3    0    0 -0.32015785581E+02 -0.18634587121E+02  0.35851936164E+02  0.51552214834E+02  0.10566000000E+00 0. -1.
         23    2    1    0    0    0  0.95995433810E+01 -0.17212956587E+02  0.22270610565E+02  0.95350847313E+02  0.90594519044E+02 0.  0.
         13    1    3    3    0    0  0.41615328962E+02  0.14216305335E+01 -0.13581325599E+02  0.43798632479E+02  0.10566000000E+00 0.  1.
         22    1    1    0    0    0 -0.95995433810E+01  0.17212956587E+02 -0.22270610565E+02  0.29739152687E+02  0.00000000000E+00 0.  1.
</event>
<event>
 5    1  0.1258624E-009  0.9118800E+02  0.7815553E-02  0.1125453E+00
         25   -1    0    0    0    0  0.00000000000E+00  0.00000000000E+00  0.99999998245E-14  0.12509000000E+03  0.12509000000E+03 0.  0.
        -13    1    3    3    0    0  0.34423529712E+02 -0.15141186235E+02  0.28890366893E+02  0.47422561947E+02  0.10566000000E+00 0.  1.
         23    2    1    0    0    0  0.17130826866E+02 -0.21019706671E+02 -0.14384907386E+02  0.94394416309E+02  0.89264141580E+02 0.  0.
         13    1    3    3    0    0 -0.17292702845E+02 -0.58785204357E+01 -0.43275274278E+02  0.46971854361E+02  0.10566000000E+00 0. -1.
         22    1    1    0    0    0 -0.17130826866E+02  0.21019706671E+02  0.14384907386E+02  0.30695583691E+02  0.00000000000E+00 0. -1.
</event>
<event>
 5    1  0.1258624E-009  0.9118800E+02  0.7815553E-02  0.1125453E+00
         25   -1    0    0    0    0  0.00000000000E+00  0.00000000000E+00  0.99999998245E-14  0.12509000000E+03  0.12509000000E+03 0.  0.
        -13    1    3    3    0    0 -0.40555904071E+02  0.21339518262E+02 -0.15673639457E+02  0.48433774709E+02  0.10566000000E+00 0. -1.
         23    2    1    0    0    0 -0.55880569402E+00  0.49662252808E+01 -0.30544451953E+02  0.94139407074E+02  0.88906067070E+02 0.  0.
         13    1    3    3    0    0  0.39997098377E+02 -0.16373292981E+02 -0.14870812496E+02  0.45705632366E+02  0.10566000000E+00 0.  1.
         22    1    1    0    0    0  0.55880569402E+00 -0.49662252808E+01  0.30544451953E+02  0.30950592926E+02  0.00000000000E+00 0. -1.
</event>
<event>
 5    1  0.1258624E-009  0.9118800E+02  0.7815553E-02  0.1125453E+00
         25   -1    0    0    0    0  0.00000000000E+00  0.00000000000E+00  0.99999998245E-14  0.12509000000E+03  0.12509000000E+03 0.  0.
        -13    1    3    3    0    0  0.23182242530E+02  0.29562110245E+02  0.61941483655E+01  0.38075101692E+02  0.10566000000E+00 0. -1.
         23    2    1    0    0    0 -0.16590878264E+02 -0.82408888180E+01  0.23087698047E+02  0.95489133607E+02  0.90785259518E+02 0.  0.
         13    1    3    3    0    0 -0.39773120794E+02 -0.37802999063E+02  0.16893549682E+02  0.57414031915E+02  0.10566000000E+00 0.  1.
         22    1    1    0    0    0  0.16590878264E+02  0.82408888180E+01 -0.23087698047E+02  0.29600866393E+02  0.00000000000E+00 0.  1.
</event>
<event>
 5    1  0.1258624E-009  0.9118800E+02  0.7815553E-02  0.1125453E+00
         25   -1    0    0    0    0  0.00000000000E+00  0.00000000000E+00  0.99999998245E-14  0.12509000000E+03  0.12509000000E+03 0.  0.
        -13    1    3    3    0    0 -0.50114202366E+02  0.19410607552E+02  0.20427730236E+02  0.57493549995E+02  0.10566000000E+00 0.  1.
         23    2    1    0    0    0 -0.28718896297E+02 -0.52549198365E+01  0.21892882852E+00  0.95893474234E+02  0.91340687997E+02 0.  0.
         13    1    3    3    0    0  0.21395306070E+02 -0.24665527389E+02 -0.20208801407E+02  0.38399924239E+02  0.10566000000E+00 0. -1.
         22    1    1    0    0    0  0.28718896297E+02  0.52549198365E+01 -0.21892882852E+00  0.29196525766E+02  0.00000000000E+00 0. -1.
</event>
<event>
 5    1  0.1258624E-009  0.9118800E+02  0.7815553E-02  0.1125453E+00
         25   -1    0    0    0    0  0.00000000000E+00  0.00000000000E+00  0.99999998245E-14  0.12509000000E+03  0.12509000000E+03 0.  0.
        -13    1    3    3    0    0  0.30352450118E+02 -0.34966179589E+02 -0.24648561590E+02  0.52454434471E+02  0.10566000000E+00 0. -1.
         23    2    1    0    0    0  0.29631767553E+02  0.26324483468E+01 -0.48655348300E+01  0.94946263307E+02  0.90034149378E+02 0.  0.
         13    1    3    3    0    0 -0.72068256476E+00  0.37598627936E+02  0.19783026760E+02  0.42491828836E+02  0.10566000000E+00 0.  1.
         22    1    1    0    0    0 -0.29631767553E+02 -0.26324483468E+01  0.48655348300E+01  0.30143736693E+02  0.00000000000E+00 0. -1.
</event>
<event>
 5    1  0.1258624E-009  0.9118800E+02  0.7815553E-02  0.1125453E+00
         25   -1    0    0    0    0  0.00000000000E+00  0.00000000000E+00  0.99999998245E-14  0.12509000000E+03  0.12509000000E+03 0.  0.
        -13    1    3    3    0    0  0.25982642837E+02 -0.48352993872E+02 -0.25235255131E+02  0.60414725115E+02  0.10566000000E+00 0.  1.
         23    2    1    0    0    0  0.18026811614E+02 -0.10488302344E+02 -0.90464050839E+01  0.10235659137E+03  0.99800119884E+02 0.  0.
         13    1    3    3    0    0 -0.79558312233E+01  0.37864691528E+02  0.16188850047E+02  0.41941866254E+02  0.10566000000E+00 0. -1.
         22    1    1    0    0    0 -0.18026811614E+02  0.10488302344E+02  0.90464050839E+01  0.22733408630E+02  0.00000000000E+00 0.  1.
</event>
<event>
 5    1  0.1258624E-009  0.9118800E+02  0.7815553E-02  0.1125453E+00
         25   -1    0    0    0    0  0.00000000000E+00  0.00000000000E+00  0.99999998245E-14  0.12509000000E+03  0.12509000000E+03 0.  0.
        -13    1    3    3    0    0  0.50574399182E+02  0.17809234826E+02  0.69137436989E+01  0.54062461225E+02  0.10566000000E+00 0. -1.
         23    2    1    0    0    0  0.20233515531E+02 -0.51519836148E+01  0.21784845280E+02  0.94915216325E+02  0.89991003552E+02 0.  0.
         13    1    3    3    0    0 -0.30340883651E+02 -0.22961218441E+02  0.14871101581E+02  0.40852755100E+02  0.10566000000E+00 0.  1.
         22    1    1    0    0    0 -0.20233515531E+02  0.51519836148E+01 -0.21784845280E+02  0.30174783675E+02  0.00000000000E+00 0.  1.
</event>
<event>
 5    1  0.1258624E-009  0.9118800E+02  0.7815553E-02  0.1125453E+00
         25   -1    0    0    0    0  0.00000000000E+00  0.00000000000E+00  0.99999998245E-14  0.12509000000E+03  0.12509000000E+03 0.  0.
        -13    1    3    3    0    0  0.31924861109E+02 -0.97058657153E+01  0.20484868596E+02  0.39154075031E+02  0.10566000000E+00 0.  1.
         23    2    1    0    0    0 -0.87331102315E+01 -0.81460724947E+01 -0.23288962363E+02  0.98917467082E+02  0.95392158034E+02 0.  0.
         13    1    3    3    0    0 -0.40657971341E+02  0.15597932207E+01 -0.43773830959E+02  0.59763392050E+02  0.10566000000E+00 0. -1.
         22    1    1    0    0    0  0.87331102315E+01  0.81460724947E+01  0.23288962363E+02  0.26172532918E+02  0.00000000000E+00 0. -1.
</event>
<event>
 5    1  0.1258624E-009  0.9118800E+02  0.7815553E-02  0.1125453E+00
         25   -1    0    0    0    0  0.00000000000E+00  0.00000000000E+00  0.99999998245E-14  0.12509000000E+03  0.12509000000E+03 0.  0.
        -13    1    3    3    0    0  0.26307376720E+02  0.52511830171E+02 -0.32366808981E+01  0.58822254675E+02  0.10566000000E+00 0.  1.
         23    2    1    0    0    0  0.30824315399E+01  0.26913414308E+02  0.10528376017E+02  0.96026621747E+02  0.91522850310E+02 0.  0.
         13    1    3    3    0    0 -0.23224945180E+02 -0.25598415863E+02  0.13765056915E+02  0.37204367072E+02  0.10566000000E+00 0. -1.
         22    1    1    0    0    0 -0.30824315399E+01 -0.26913414308E+02 -0.10528376017E+02  0.29063378253E+02  0.00000000000E+00 0.  1.
</event>
<event>
 5    1  0.1258624E-009  0.9118800E+02  0.7815553E-02  0.1125453E+00
         25   -1    0    0    0    0  0.00000000000E+00  0.00000000000E+00  0.99999998245E-14  0.12509000000E+03  0.12509000000E+03 0.  0.
        -13    1    3    3    0    0 -0.46246921846E+02  0.15413256090E+02  0.70825117518E+01  0.49259713563E+02  0.10566000000E+00 0. -1.
         23    2    1    0    0    0 -0.19419524301E+02 -0.17768588714E+02 -0.12192382545E+02  0.96081469167E+02  0.91597783031E+02 0.  0.
         13    1    3    3    0    0  0.26827397545E+02 -0.33181844804E+02 -0.19274894297E+02  0.46821755604E+02  0.10566000000E+00 0.  1.
         22    1    1    0    0    0  0.19419524301E+02  0.17768588714E+02  0.12192382545E+02  0.29008530833E+02  0.00000000000E+00 0.  1.
</event>
<event>
 5    1  0.1258624E-009  0.9118800E+02  0.7815553E-02  0.1125453E+00
         25   -1    0    0    0    0  0.00000000000E+00  0.00000000000E+00  0.99999998245E-14  0.12509000000E+03  0.12509000000E+03 0.  0.
        -13    1    3    3    0    0 -0.24877657894E+01 -0.21152297733E+02  0.32500735092E+02  0.38857658493E+02  0.10566000000E+00 0.  1.
         23    2    1    0    0    0 -0.16078873384E+02 -0.11049930401E+02 -0.21856970986E+02  0.95792247324E+02  0.91201953574E+02 0.  0.
         13    1    3    3    0    0 -0.13591107594E+02  0.10102367332E+02 -0.54357706078E+02  0.56934588832E+02  0.10566000000E+00 0. -1.
         22    1    1    0    0    0  0.16078873384E+02  0.11049930401E+02  0.21856970986E+02  0.29297752676E+02  0.00000000000E+00 0. -1.
</event>
<event>
 5    1  0.1258624E-009  0.9118800E+02  0.7815553E-02  0.1125453E+00
         25   -1    0    0    0    0  0.00000000000E+00  0.00000000000E+00  0.99999998245E-14  0.12509000000E+03  0.12509000000E+03 0.  0.
        -13    1    3    3    0    0 -0.19719174589E+02  0.44522066915E+02 -0.31261643354E+02  0.57865030874E+02  0.10566000000E+00 0.  1.
         23    2    1    0    0    0 -0.17818219547E+02  0.82758114518E+01 -0.22530880204E+02  0.95196546440E+02  0.90381214244E+02 0.  0.
         13    1    3    3    0    0  0.19009550419E+01 -0.36246255463E+02  0.87307631499E+01  0.37331515565E+02  0.10566000000E+00 0. -1.
         22    1    1    0    0    0  0.17818219547E+02 -0.82758114518E+01  0.22530880204E+02  0.29893453560E+02  0.00000000000E+00 0.  1.
</event>
<event>
 5    1  0.1258624E-009  0.9118800E+02  0.7815553E-02  0.1125453E+00
         25   -1    0    0    0    0  0.00000000000E+00  0.00000000000E+00  0.99999998245E-14  0.12509000000E+03  0.12509000000E+03 0.  0.
        -13    1    3    3    0    0  0.49734028462E+00  0.31090185154E+02  0.33191863570E+02  0.45481402041E+02  0.10566000000E+00 0. -1.
         23    2    1    0    0    0  0.20444109692E+02  0.19020875550E+02 -0.10704092189E+02  0.95184600531E+02  0.90364679277E+02 0.  0.
         13    1    3    3    0    0  0.19946769408E+02 -0.12069309603E+02 -0.43895955759E+02  0.49703198490E+02  0.10566000000E+00 0.  1.
         22    1    1    0    0    0 -0.20444109692E+02 -0.19020875550E+02  0.10704092189E+02  0.29905399469E+02  0.00000000000E+00 0.  1.
</event>
<event>
 5    1  0.1258624E-009  0.9118800E+02  0.7815553E-02  0.1125453E+00
         25   -1    0    0    0    0  0.00000000000E+00  0.00000000000E+00  0.99999998245E-14  0.12509000000E+03  0.12509000000E+03 0.  0.
        -13    1    3    3    0    0 -0.18869468180E+02  0.14863771014E+02 -0.25015666250E+02  0.34681165495E+02  0.10566000000E+00 0. -1.
         23    2    1    0    0    0  0.15116418259E+02  0.11069020350E+02  0.24121514819E+02  0.94546968231E+02  0.89477664319E+02 0.  0.
         13    1    3    3    0    0  0.33985886440E+02 -0.37947506639E+01  0.49137181069E+02  0.59865802735E+02  0.10566000000E+00 0.  1.
         22    1    1    0    0    0 -0.15116418259E+02 -0.11069020350E+02 -0.24121514819E+02  0.30543031769E+02  0.00000000000E+00 0.  1.
</event>
<event>
 5    1  0.1258624E-009  0.9118800E+02  0.7815553E-02  0.1125453E+00
         25   -1    0    0    0    0  0.00000000000E+00  0.00000000000E+00  0.99999998245E-14  0.12509000000E+03  0.12509000000E+03 0.  0.
        -13    1    3    3    0    0 -0.17462172603E+02 -0.28827815407E+02  0.96342932785E+01  0.35054260571E+02  0.10566000000E+00 0.  1.
         23    2    1    0    0    0 -0.12053988019E+01  0.24466924223E+02 -0.15416866465E+02  0.96145861754E+02  0.91685678236E+02 0.  0.
         13    1    3    3    0    0  0.16256773801E+02  0.53294739630E+02 -0.25051159743E+02  0.61091601183E+02  0.10566000000E+00 0. -1.
         22    1    1    0    0    0  0.12053988019E+01 -0.24466924223E+02  0.15416866465E+02  0.28944138246E+02  0.00000000000E+00 0. -1.
</event>
<event>
 5    1  0.1258624E-009  0.9118800E+02  0.7815553E-02  0.1125453E+00
         25   -1    0    0    0    0  0.00000000000E+00  0.00000000000E+00  0.99999998245E-14  0.12509000000E+03  0.12509000000E+03 0.  0.
        -13    1    3    3    0    0  0.42833273908E+02 -0.27195883761E+02 -0.17415432043E+02  0.53643395535E+02  0.10566000000E+00 0.  1.
         23    2    1    0    0    0  0.27641910990E+02  0.84635036473E+01  0.10842144582E+00  0.96181214270E+02  0.91733898239E+02 0.  0.
         13    1    3    3    0    0 -0.15191362918E+02  0.35659387408E+02  0.17523853489E+02  0.42537818735E+02  0.10566000000E+00 0. -1.
         22    1    1    0    0    0 -0.27641910990E+02 -0.84635036473E+01 -0.10842144582E+00  0.28908785730E+02  0.00000000000E+00 0.  1.
</event>
<event>
 5    1  0.1258624E-009  0.9118800E+02  0.7815553E-02  0.1125453E+00
         25   -1    0    0    0    0  0.00000000000E+00  0.00000000000E+00  0.99999998245E-14  0.12509000000E+03  0.12509000000E+03 0.  0.
        -13    1    3    3    0    0  0.55110731639E+02  0.10838047748E+02 -0.22502159922E+02  0.60506316910E+02  0.10566000000E+00 0. -1.
         23    2    1    0    0    0  0.20667572241E+02  0.91787463998E+01 -0.19691810879E+02  0.95103914169E+02  0.90252917663E+02 0.  0.
         13    1    3    3    0    0 -0.34443159398E+02 -0.16593013486E+01  0.28103490435E+01  0.34597597259E+02  0.10566000000E+00 0.  1.
         22    1    1    0    0    0 -0.20667572241E+02 -0.91787463998E+01  0.19691810879E+02  0.29986085831E+02  0.00000000000E+00 0. -1.
</event>
<event>
 5    1  0.1258624E-009  0.9118800E+02  0.7815553E-02  0.1125453E+00
         25   -1    0    0    0    0  0.00000000000E+00  0.00000000000E+00  0.99999998245E-14  0.12509000000E+03  0.12509000000E+03 0.  0.
        -13    1    3    3    0    0  0.29255992785E+02  0.25257981863E+02 -0.50882926464E+01  0.38984364144E+02  0.10566000000E+00 0.  1.
         23    2    1    0    0    0 -0.24332592267E+02  0.14900369805E+02  0.86649026577E+01  0.95270935548E+02  0.90484112171E+02 0.  0.
         13    1    3    3    0    0 -0.53588585051E+02 -0.10357612058E+02  0.13753195304E+02  0.56286571404E+02  0.10566000000E+00 0. -1.
         22    1    1    0    0    0  0.24332592267E+02 -0.14900369805E+02 -0.86649026577E+01  0.29819064452E+02  0.00000000000E+00 0. -1.
</event>
<event>
 5    1  0.1258624E-009  0.9118800E+02  0.7815553E-02  0.1125453E+00
         25   -1    0    0    0    0  0.00000000000E+00  0.00000000000E+00  0.99999998245E-14  0.12509000000E+03  0.12509000000E+03 0.  0.
        -13    1    3    3    0    0  0.28505918795E+02 -0.18478402184E+01 -0.23504382921E+02  0.36992824985E+02  0.10566000000E+00 0. -1.
         23    2    1    0    0    0 -0.20026739700E+02 -0.21068406862E+02  0.35820438018E+01  0.95802133767E+02  0.91215512528E+02 0.  0.
         13    1    3    3    0    0 -0.48532658495E+02 -0.19220566644E+02  0.27086426723E+02  0.58809308781E+02  0.10566000000E+00 0.  1.
         22    1    1    0    0    0  0.20026739700E+02  0.21068406862E+02 -0.35820438018E+01  0.29287866233E+02  0.00000000000E+00 0.  1.
</event>
<event>
 5    1  0.1258624E-009  0.9118800E+02  0.7815553E-02  0.1125453E+00
         25   -1    0    0    0    0  0.00000000000E+00  0.00000000000E+00  0.99999998245E-14  0.12509000000E+03  0.12509000000E+03 0.  0.
        -13    1    3    3    0    0 -0.12148251383E+02  0.32126859894E+01  0.32070483265E+02  0.34444570309E+02  0.10566000000E+00 0.  1.
         23    2    1    0    0    0  0.40231949067E+01  0.24717832006E+02 -0.19989696338E+02  0.93047133773E+02  0.87355731509E+02 0.  0.
         13    1    3    3    0    0  0.16171446290E+02  0.21505146017E+02 -0.52060179602E+02  0.58602563464E+02  0.10566000000E+00 0. -1.
         22    1    1    0    0    0 -0.40231949067E+01 -0.24717832006E+02  0.19989696338E+02  0.32042866227E+02  0.00000000000E+00 0. -1.
</event>
<event>
 5    1  0.1258624E-009  0.9118800E+02  0.7815553E-02  0.1125453E+00
         25   -1    0    0    0    0  0.00000000000E+00  0.00000000000E+00  0.99999998245E-14  0.12509000000E+03  0.12509000000E+03 0.  0.
        -13    1    3    3    0    0  0.21477264334E+02  0.21368791650E+02  0.17316682391E+02  0.34896658765E+02  0.10566000000E+00 0. -1.
         23    2    1    0    0    0 -0.23749917730E+02 -0.11118610022E+02 -0.10127994995E+02  0.96978465648E+02  0.92814677911E+02 0.  0.
         13    1    3    3    0    0 -0.45227182064E+02 -0.32487401673E+02 -0.27444677386E+02  0.62081806883E+02  0.10566000000E+00 0.  1.
         22    1    1    0    0    0  0.23749917730E+02  0.11118610022E+02  0.10127994995E+02  0.28111534352E+02  0.00000000000E+00 0.  1.
</event>
<event>
 5    1  0.1258624E-009  0.9118800E+02  0.7815553E-02  0.1125453E+00
         25   -1    0    0    0    0  0.00000000000E+00  0.00000000000E+00  0.99999998245E-14  0.12509000000E+03  0.12509000000E+03 0.  0.
        -13    1    3    3    0    0 -0.25611563305E+02  0.54878431226E+02  0.47181594780E+00  0.60562597064E+02  0.10566000000E+00 0. -1.
         23    2    1    0    0    0 -0.81656291286E+01  0.26443981284E+02 -0.10209574341E+02  0.95590897413E+02  0.90925368379E+02 0.  0.
         13    1    3    3    0    0  0.17445934176E+02 -0.28434449942E+02 -0.10681390289E+02  0.35028300349E+02  0.10566000000E+00 0.  1.
         22    1    1    0    0    0  0.81656291286E+01 -0.26443981284E+02  0.10209574341E+02  0.29499102587E+02  0.00000000000E+00 0. -1.
</event>
<event>
 5    1  0.1258624E-009  0.9118800E+02  0.7815553E-02  0.1125453E+00
         25   -1    0    0    0    0  0.00000000000E+00  0.00000000000E+00  0.99999998245E-14  0.12509000000E+03  0.12509000000E+03 0.  0.
        -13    1    3    3    0    0  0.12567850932E+02 -0.18649621446E+02 -0.42729793969E+02  0.48286703281E+02  0.10566000000E+00 0.  1.
         23    2    1    0    0    0  0.18128701384E+01  0.21782081616E+02 -0.12415257720E+02  0.99952693026E+02  0.96740150100E+02 0.  0.
         13    1    3    3    0    0 -0.10754980794E+02  0.40431703061E+02  0.30314536249E+02  0.51665989745E+02  0.10566000000E+00 0. -1.
         22    1    1    0    0    0 -0.18128701384E+01 -0.21782081616E+02  0.12415257720E+02  0.25137306974E+02  0.00000000000E+00 0. -1.
</event>
<event>
 5    1  0.1258624E-009  0.9118800E+02  0.7815553E-02  0.1125453E+00
         25   -1    0    0    0    0  0.00000000000E+00  0.00000000000E+00  0.99999998245E-14  0.12509000000E+03  0.12509000000E+03 0.  0.
        -13    1    3    3    0    0  0.42439107013E+02 -0.36703752150E+02  0.69993507294E+01  0.56544188919E+02  0.10566000000E+00 0.  1.
         23    2    1    0    0    0  0.15939692433E+02 -0.93251305783E+01  0.20988515343E+02  0.97133790825E+02  0.93023780231E+02 0.  0.
         13    1    3    3    0    0 -0.26499414580E+02  0.27378621571E+02  0.13989164613E+02  0.40589601905E+02  0.10566000000E+00 0. -1.
         22    1    1    0    0    0 -0.15939692433E+02  0.93251305783E+01 -0.20988515343E+02  0.27956209175E+02  0.00000000000E+00 0.  1.
</event>
<event>
 5    1  0.1258624E-009  0.9118800E+02  0.7815553E-02  0.1125453E+00
         25   -1    0    0    0    0  0.00000000000E+00  0.00000000000E+00  0.99999998245E-14  0.12509000000E+03  0.12509000000E+03 0.  0.
        -13    1    3    3    0    0  0.13439581289E+02  0.31636078828E+02  0.46381594222E+02  0.57729778065E+02  0.10566000000E+00 0.  1.
         23    2    1    0    0    0 -0.59497712172E+01  0.38858051261E+01  0.27899903450E+02  0.96299309290E+02  0.91894793641E+02 0.  0.
         13    1    3    3    0    0 -0.19389352506E+02 -0.27750273702E+02 -0.18481690772E+02  0.38569531226E+02  0.10566000000E+00 0. -1.
         22    1    1    0    0    0  0.59497712172E+01 -0.38858051261E+01 -0.27899903450E+02  0.28790690710E+02  0.00000000000E+00 0.  1.
</event>
<event>
 5    1  0.1258624E-009  0.9118800E+02  0.7815553E-02  0.1125453E+00
         25   -1    0    0    0    0  0.00000000000E+00  0.00000000000E+00  0.99999998245E-14  0.12509000000E+03  0.12509000000E+03 0.  0.
        -13    1    3    3    0    0 -0.84722266543E+01  0.21455249532E+02 -0.27796183242E+02  0.36121258614E+02  0.10566000000E+00 0.  1.
         23    2    1    0    0    0 -0.15194982879E+02 -0.17456411301E+02  0.17397957059E+02  0.96136542348E+02  0.91672962560E+02 0.  0.
         13    1    3    3    0    0 -0.67227562244E+01 -0.38911660833E+02  0.45194140301E+02  0.60015283734E+02  0.10566000000E+00 0. -1.
         22    1    1    0    0    0  0.15194982879E+02  0.17456411301E+02 -0.17397957059E+02  0.28953457652E+02  0.00000000000E+00 0. -1.
</event>
<event>
 5    1  0.1258624E-009  0.9118800E+02  0.7815553E-02  0.1125453E+00
         25   -1    0    0    0    0  0.00000000000E+00  0.00000000000E+00  0.99999998245E-14  0.12509000000E+03  0.12509000000E+03 0.  0.
        -13    1    3    3    0    0  0.15974255871E+02  0.15151624039E+02  0.40843961809E+02  0.46400311873E+02  0.10566000000E+00 0.  1.
         23    2    1    0    0    0  0.28597589467E+02 -0.13241808489E+01 -0.43504842203E+01  0.96133095966E+02  0.91668259768E+02 0.  0.
         13    1    3    3    0    0  0.12623333596E+02 -0.16475804888E+02 -0.45194446029E+02  0.49732784093E+02  0.10566000000E+00 0. -1.
         22    1    1    0    0    0 -0.28597589467E+02  0.13241808489E+01  0.43504842203E+01  0.28956904034E+02  0.00000000000E+00 0. -1.
</event>
<event>
 5    1  0.1258624E-009  0.9118800E+02  0.7815553E-02  0.1125453E+00
         25   -1    0    0    0    0  0.00000000000E+00  0.00000000000E+00  0.99999998245E-14  0.12509000000E+03  0.12509000000E+03 0.  0.
        -13    1    3    3    0    0  0.31834808340E+02 -0.31266581237E+02 -0.26979543770E+02  0.52143658007E+02  0.10566000000E+00 0. -1.
         23    2    1    0    0    0  0.11499963295E+02 -0.27094444828E+02  0.95381300842E+01  0.94149185179E+02  0.88919823707E+02 0.  0.
         13    1    3    3    0    0 -0.20334845045E+02  0.41721364090E+01  0.36517673854E+02  0.42005527172E+02  0.10566000000E+00 0.  1.
         22    1    1    0    0    0 -0.11499963295E+02  0.27094444828E+02 -0.95381300842E+01  0.30940814821E+02  0.00000000000E+00 0. -1.
</event>
<event>
 5    1  0.1258624E-009  0.9118800E+02  0.7815553E-02  0.1125453E+00
         25   -1    0    0    0    0  0.00000000000E+00  0.00000000000E+00  0.99999998245E-14  0.12509000000E+03  0.12509000000E+03 0.  0.
        -13    1    3    3    0    0  0.35233393067E+02  0.58301652394E+01 -0.20327373622E+02  0.41092530905E+02  0.10566000000E+00 0. -1.
         23    2    1    0    0    0 -0.17503226946E+02  0.19020490466E+02 -0.13639601426E+02  0.95863629405E+02  0.91299806706E+02 0.  0.
         13    1    3    3    0    0 -0.52736620013E+02  0.13190325226E+02  0.66877721963E+01  0.54771098500E+02  0.10566000000E+00 0.  1.
         22    1    1    0    0    0  0.17503226946E+02 -0.19020490466E+02  0.13639601426E+02  0.29226370595E+02  0.00000000000E+00 0.  1.
</event>
<event>
 5    1  0.1258624E-009  0.9118800E+02  0.7815553E-02  0.1125453E+00
         25   -1    0    0    0    0  0.00000000000E+00  0.00000000000E+00  0.99999998245E-14  0.12509000000E+03  0.12509000000E+03 0.  0.
        -13    1    3    3    0    0  0.14928825499E+02 -0.44899675027E+02 -0.30747976508E+02  0.56429601023E+02  0.10566000000E+00 0.  1.
         23    2    1    0    0    0  0.37152294291E+01 -0.33788157116E+02  0.11747222084E+00  0.91097996665E+02  0.84518570182E+02 0.  0.
         13    1    3    3    0    0 -0.11213596070E+02  0.11111517911E+02  0.30865448728E+02  0.34668395641E+02  0.10566000000E+00 0. -1.
         22    1    1    0    0    0 -0.37152294291E+01  0.33788157116E+02 -0.11747222084E+00  0.33992003335E+02  0.00000000000E+00 0.  1.
</event>
<event>
 5    1  0.1258624E-009  0.9118800E+02  0.7815553E-02  0.1125453E+00
         25   -1    0    0    0    0  0.00000000000E+00  0.00000000000E+00  0.99999998245E-14  0.12509000000E+03  0.12509000000E+03 0.  0.
        -13    1    3    3    0    0  0.10957859923E+02  0.50709416060E+02 -0.16318045572E+02  0.54385745803E+02  0.10566000000E+00 0. -1.
         23    2    1    0    0    0 -0.38360703975E+01  0.13493272511E+02 -0.25962990067E+02  0.95579651097E+02  0.90909895014E+02 0.  0.
         13    1    3    3    0    0 -0.14793930320E+02 -0.37216143549E+02 -0.96449444952E+01  0.41193905294E+02  0.10566000000E+00 0.  1.
         22    1    1    0    0    0  0.38360703975E+01 -0.13493272511E+02  0.25962990067E+02  0.29510348903E+02  0.00000000000E+00 0. -1.
</event>
<event>
 5    1  0.1258624E-009  0.9118800E+02  0.7815553E-02  0.1125453E+00
         25   -1    0    0    0    0  0.00000000000E+00  0.00000000000E+00  0.99999998245E-14  0.12509000000E+03  0.12509000000E+03 0.  0.
        -13    1    3    3    0    0 -0.32491118737E+02 -0.15050776630E+02  0.50234027244E+01  0.36158600815E+02  0.10566000000E+00 0. -1.
         23    2    1    0    0    0  0.80027559723E+01  0.27763568604E+02  0.78228065162E+01  0.95155803058E+02  0.90324806720E+02 0.  0.
         13    1    3    3    0    0  0.40493874710E+02  0.42814345234E+02  0.27994037918E+01  0.58997202242E+02  0.10566000000E+00 0.  1.
         22    1    1    0    0    0 -0.80027559723E+01 -0.27763568604E+02 -0.78228065162E+01  0.29934196942E+02  0.00000000000E+00 0.  1.
</event>
<event>
 5    1  0.1258624E-009  0.9118800E+02  0.7815553E-02  0.1125453E+00
         25   -1    0    0    0    0  0.00000000000E+00  0.00000000000E+00  0.99999998245E-14  0.12509000000E+03  0.12509000000E+03 0.  0.
        -13    1    3    3    0    0 -0.27996750798E+02 -0.25261932489E+02 -0.20305611586E+01  0.37763972659E+02  0.10566000000E+00 0. -1.
         23    2    1    0    0    0 -0.49278401139E+01  0.18666341273E+02  0.24395373826E+02  0.93979709599E+02  0.88681089572E+02 0.  0.
         13    1    3    3    0    0  0.23068910684E+02  0.43928273762E+02  0.26425934985E+02  0.56215736940E+02  0.10566000000E+00 0.  1.
         22    1    1    0    0    0  0.49278401139E+01 -0.18666341273E+02 -0.24395373826E+02  0.31110290401E+02  0.00000000000E+00 0.  1.
</event>
<event>
 5    1  0.1258624E-009  0.9118800E+02  0.7815553E-02  0.1125453E+00
         25   -1    0    0    0    0  0.00000000000E+00  0.00000000000E+00  0.99999998245E-14  0.12509000000E+03  0.12509000000E+03 0.  0.
        -13    1    3    3    0    0 -0.41644192806E+02  0.93294379550E+01  0.15031533089E+02  0.45246385028E+02  0.10566000000E+00 0.  1.
         23    2    1    0    0    0  0.10132122465E+01  0.26627502976E+02 -0.87309443959E+01  0.97049316987E+02  0.92910117984E+02 0.  0.
         13    1    3    3    0    0  0.42657405053E+02  0.17298065021E+02 -0.23762477485E+02  0.51802931959E+02  0.10566000000E+00 0. -1.
         22    1    1    0    0    0 -0.10132122465E+01 -0.26627502976E+02  0.87309443959E+01  0.28040683013E+02  0.00000000000E+00 0. -1.
</event>
<event>
 5    1  0.1258624E-009  0.9118800E+02  0.7815553E-02  0.1125453E+00
         25   -1    0    0    0    0  0.00000000000E+00  0.00000000000E+00  0.99999998245E-14  0.12509000000E+03  0.12509000000E+03 0.  0.
        -13    1    3    3    0    0 -0.15706806978E+02  0.60083150348E+02  0.43020204302E+01  0.62251162921E+02  0.10566000000E+00 0. -1.
         23    2    1    0    0    0 -0.10494614135E+02  0.24208579567E+02  0.51854765785E+00  0.98699449756E+02  0.95105837045E+02 0.  0.
         13    1    3    3    0    0  0.52121928438E+01 -0.35874570781E+02 -0.37834727724E+01  0.36448286835E+02  0.10566000000E+00 0.  1.
         22    1    1    0    0    0  0.10494614135E+02 -0.24208579567E+02 -0.51854765785E+00  0.26390550244E+02  0.00000000000E+00 0. -1.
</event>
<event>
 5    1  0.1258624E-009  0.9118800E+02  0.7815553E-02  0.1125453E+00
         25   -1    0    0    0    0  0.00000000000E+00  0.00000000000E+00  0.99999998245E-14  0.12509000000E+03  0.12509000000E+03 0.  0.
        -13    1    3    3    0    0 -0.18483188817E+02 -0.28739139240E+02 -0.35500650072E+00  0.34171678138E+02  0.10566000000E+00 0. -1.
         23    2    1    0    0    0  0.23900601599E+01  0.28895693811E+02 -0.50887592680E+01  0.95652456297E+02  0.91010018219E+02 0.  0.
         13    1    3    3    0    0  0.20873248977E+02  0.57634833051E+02 -0.47337527673E+01  0.61480778159E+02  0.10566000000E+00 0.  1.
         22    1    1    0    0    0 -0.23900601599E+01 -0.28895693811E+02  0.50887592680E+01  0.29437543703E+02  0.00000000000E+00 0.  1.
</event>
<event>
 5    1  0.1258624E-009  0.9118800E+02  0.7815553E-02  0.1125453E+00
         25   -1    0    0    0    0  0.00000000000E+00  0.00000000000E+00  0.99999998245E-14  0.12509000000E+03  0.12509000000E+03 0.  0.
        -13    1    3    3    0    0 -0.83482437977E+00 -0.36344366558E+02 -0.28904707456E+02  0.46444624979E+02  0.10566000000E+00 0. -1.
         23    2    1    0    0    0 -0.30153545672E+02 -0.70016115490E+01 -0.70020987055E+01  0.93352194985E+02  0.87791480460E+02 0.  0.
         13    1    3    3    0    0 -0.29318721292E+02  0.29342755009E+02  0.21902608751E+02  0.46907570006E+02  0.10566000000E+00 0.  1.
         22    1    1    0    0    0  0.30153545672E+02  0.70016115490E+01  0.70020987055E+01  0.31737805015E+02  0.00000000000E+00 0. -1.
</event>
<event>
 5    1  0.1258624E-009  0.9118800E+02  0.7815553E-02  0.1125453E+00
         25   -1    0    0    0    0  0.00000000000E+00  0.00000000000E+00  0.99999998245E-14  0.12509000000E+03  0.12509000000E+03 0.  0.
        -13    1    3    3    0    0  0.31444599169E+02  0.98257078974E+01  0.46257863924E+01  0.33267347600E+02  0.10566000000E+00 0.  1.
         23    2    1    0    0    0 -0.23654900584E+02 -0.10610528744E+02 -0.14892731049E+02  0.95191319762E+02  0.90373980094E+02 0.  0.
         13    1    3    3    0    0 -0.55099499753E+02 -0.20436236642E+02 -0.19518517441E+02  0.61923972162E+02  0.10566000000E+00 0. -1.
         22    1    1    0    0    0  0.23654900584E+02  0.10610528744E+02  0.14892731049E+02  0.29898680238E+02  0.00000000000E+00 0. -1.
</event>
<event>
 5    1  0.1258624E-009  0.9118800E+02  0.7815553E-02  0.1125453E+00
         25   -1    0    0    0    0  0.00000000000E+00  0.00000000000E+00  0.99999998245E-14  0.12509000000E+03  0.12509000000E+03 0.  0.
        -13    1    3    3    0    0 -0.27194668048E+02  0.27437307338E+02 -0.12485364010E+02  0.40598661095E+02  0.10566000000E+00 0.  1.
         23    2    1    0    0    0  0.16906899790E+02  0.19277997959E+02  0.17047285591E+02  0.94298858224E+02  0.89130130992E+02 0.  0.
         13    1    3    3    0    0  0.44101567838E+02 -0.81593093795E+01  0.29532649601E+02  0.53700197130E+02  0.10566000000E+00 0. -1.
         22    1    1    0    0    0 -0.16906899790E+02 -0.19277997959E+02 -0.17047285591E+02  0.30791141776E+02  0.00000000000E+00 0. -1.
</event>
<event>
 5    1  0.1258624E-009  0.9118800E+02  0.7815553E-02  0.1125453E+00
         25   -1    0    0    0    0  0.00000000000E+00  0.00000000000E+00  0.99999998245E-14  0.12509000000E+03  0.12509000000E+03 0.  0.
        -13    1    3    3    0    0  0.47152940218E+02  0.12065892247E+02 -0.29082508823E+02  0.56699109432E+02  0.10566000000E+00 0.  1.
         23    2    1    0    0    0  0.28477720924E+02  0.66847536322E+01  0.44941200128E+01  0.95495006592E+02  0.90793351349E+02 0.  0.
         13    1    3    3    0    0 -0.18675219294E+02 -0.53811386149E+01  0.33576628835E+02  0.38795897160E+02  0.10566000000E+00 0. -1.
         22    1    1    0    0    0 -0.28477720924E+02 -0.66847536322E+01 -0.44941200128E+01  0.29594993408E+02  0.00000000000E+00 0.  1.
</event>
<event>
 5    1  0.1258624E-009  0.9118800E+02  0.7815553E-02  0.1125453E+00
         25   -1    0    0    0    0  0.00000000000E+00  0.00000000000E+00  0.99999998245E-14  0.12509000000E+03  0.12509000000E+03 0.  0.
        -13    1    3    3    0    0  0.39906941285E+02  0.23883191261E+02 -0.54735955004E+01  0.46828860751E+02  0.10566000000E+00 0. -1.
         23    2    1    0    0    0  0.20625874100E+01  0.16654130968E+02  0.24326141499E+02  0.95537072813E+02  0.90851289348E+02 0.  0.
         13    1    3    3    0    0 -0.37844353875E+02 -0.72290602927E+01  0.29799736999E+02  0.48708212061E+02  0.10566000000E+00 0.  1.
         22    1    1    0    0    0 -0.20625874100E+01 -0.16654130968E+02 -0.24326141499E+02  0.29552927187E+02  0.00000000000E+00 0.  1.
</event>
<event>
 5    1  0.1258624E-009  0.9118800E+02  0.7815553E-02  0.1125453E+00
         25   -1    0    0    0    0  0.00000000000E+00  0.00000000000E+00  0.99999998245E-14  0.12509000000E+03  0.12509000000E+03 0.  0.
        -13    1    3    3    0    0 -0.98902991124E+00 -0.47384296141E+02  0.37462020184E+02  0.60412447569E+02  0.10566000000E+00 0.  1.
         23    2    1    0    0    0  0.95046485991E+01 -0.25425045377E+02  0.12735870653E+02  0.95107110235E+02  0.90257347283E+02 0.  0.
         13    1    3    3    0    0  0.10493678510E+02  0.21959250764E+02 -0.24726149531E+02  0.34694662666E+02  0.10566000000E+00 0. -1.
         22    1    1    0    0    0 -0.95046485991E+01  0.25425045377E+02 -0.12735870653E+02  0.29982889765E+02  0.00000000000E+00 0.  1.
</event>
<event>
 5    1  0.1258624E-009  0.9118800E+02  0.7815553E-02  0.1125453E+00
         25   -1    0    0    0    0  0.00000000000E+00  0.00000000000E+00  0.99999998245E-14  0.12509000000E+03  0.12509000000E+03 0.  0.
        -13    1    3    3    0    0  0.88587554069E+01  0.30331095451E+02 -0.14221648371E+02  0.34651397447E+02  0.10566000000E+00 0. -1.
         23    2    1    0    0    0  0.18060639140E+01 -0.70913170580E+01  0.30692843861E+02  0.93536881157E+02  0.88054237989E+02 0.  0.
         13    1    3    3    0    0 -0.70526914929E+01 -0.37422412509E+02  0.44914492232E+02  0.58885483710E+02  0.10566000000E+00 0.  1.
         22    1    1    0    0    0 -0.18060639140E+01  0.70913170580E+01 -0.30692843861E+02  0.31553118843E+02  0.00000000000E+00 0.  1.
</event>
<event>
 5    1  0.1258624E-009  0.9118800E+02  0.7815553E-02  0.1125453E+00
         25   -1    0    0    0    0  0.00000000000E+00  0.00000000000E+00  0.99999998245E-14  0.12509000000E+03  0.12509000000E+03 0.  0.
        -13    1    3    3    0    0 -0.20873009669E+02 -0.76468943661E+01 -0.11426163184E+02  0.24994517304E+02  0.10566000000E+00 0. -1.
         23    2    1    0    0    0  0.50133211484E+01 -0.35562873884E+02  0.27811309294E+02  0.79666214243E+02  0.65447577337E+02 0.  0.
         13    1    3    3    0    0  0.25886330818E+02 -0.27915979518E+02  0.39237472479E+02  0.54671696939E+02  0.10566000000E+00 0.  1.
         22    1    1    0    0    0 -0.50133211484E+01  0.35562873884E+02 -0.27811309294E+02  0.45423785757E+02  0.00000000000E+00 0.  1.
</event>
<event>
 4    1  0.1258624E-009  0.9118800E+02  0.7815553E-02  0.1125453E+00
         25   -1    0    0    0    0  0.00000000000E+00  0.00000000000E+00  0.99999998245E-14  0.12509000000E+03  0.12509000000E+03 0.  0.
        -13    1    1    0    0    0  0.17472408465E+02 -0.51471741674E+02 -0.27831109368E+02  0.61067233941E+02  0.10566000000E+00 0.  1.
         13    1    1    0    0    0  0.27209636785E+01  0.42316457035E+01  0.69172837533E+01  0.85539726010E+01  0.10566000000E+00 0. -1.
         22    1    1    0    0    0 -0.20193372143E+02  0.47240095971E+02  0.20913825615E+02  0.55468793458E+02  0.00000000000E+00 0.  1.
</event>
<event>
 5    1  0.1258624E-009  0.9118800E+02  0.7815553E-02  0.1125453E+00
         25   -1    0    0    0    0  0.00000000000E+00  0.00000000000E+00  0.99999998245E-14  0.12509000000E+03  0.12509000000E+03 0.  0.
        -13    1    3    3    0    0  0.33602718140E+02 -0.30447905121E+02 -0.21267639357E+01  0.45395505081E+02  0.10566000000E+00 0. -1.
         23    2    1    0    0    0 -0.13863375325E+02 -0.18930114760E+02 -0.16611178716E+02  0.96341544762E+02  0.91952267882E+02 0.  0.
         13    1    3    3    0    0 -0.47466093465E+02  0.11517790361E+02 -0.14484414780E+02  0.50946039681E+02  0.10566000000E+00 0.  1.
         22    1    1    0    0    0  0.13863375325E+02  0.18930114760E+02  0.16611178716E+02  0.28748455238E+02  0.00000000000E+00 0. -1.
</event>
<event>
 5    1  0.1258624E-009  0.9118800E+02  0.7815553E-02  0.1125453E+00
         25   -1    0    0    0    0  0.00000000000E+00  0.00000000000E+00  0.99999998245E-14  0.12509000000E+03  0.12509000000E+03 0.  0.
        -13    1    3    3    0    0 -0.77758524924E+01 -0.13717542931E+02 -0.35699841547E+02  0.39027230450E+02  0.10566000000E+00 0.  1.
         23    2    1    0    0    0  0.26406929592E+02  0.14162879046E+02 -0.10734078257E+01  0.95105582752E+02  0.90255230280E+02 0.  0.
         13    1    3    3    0    0  0.34182782084E+02  0.27880421977E+02  0.34626433722E+02  0.56078352302E+02  0.10566000000E+00 0. -1.
         22    1    1    0    0    0 -0.26406929592E+02 -0.14162879046E+02  0.10734078257E+01  0.29984417248E+02  0.00000000000E+00 0. -1.
</event>
<event>
 5    1  0.1258624E-009  0.9118800E+02  0.7815553E-02  0.1125453E+00
         25   -1    0    0    0    0  0.00000000000E+00  0.00000000000E+00  0.99999998245E-14  0.12509000000E+03  0.12509000000E+03 0.  0.
        -13    1    3    3    0    0  0.29703486948E+02 -0.15719271660E+02  0.56071189583E-03  0.33606603559E+02  0.10566000000E+00 0.  1.
         23    2    1    0    0    0 -0.29399677624E+02  0.28176802463E+01  0.52871642015E+00  0.95550874972E+02  0.90870291077E+02 0.  0.
         13    1    3    3    0    0 -0.59103164572E+02  0.18536951906E+02  0.52815570826E+00  0.61944271413E+02  0.10566000000E+00 0. -1.
         22    1    1    0    0    0  0.29399677624E+02 -0.28176802463E+01 -0.52871642015E+00  0.29539125028E+02  0.00000000000E+00 0. -1.
</event>
<event>
 5    1  0.1258624E-009  0.9118800E+02  0.7815553E-02  0.1125453E+00
         25   -1    0    0    0    0  0.00000000000E+00  0.00000000000E+00  0.99999998245E-14  0.12509000000E+03  0.12509000000E+03 0.  0.
        -13    1    3    3    0    0  0.28532736723E+02 -0.20987451812E+02  0.47631518572E+02  0.59357922167E+02  0.10566000000E+00 0.  1.
         23    2    1    0    0    0  0.14301210976E+02  0.37928377006E+01  0.25911687313E+02  0.95251672423E+02  0.90457477893E+02 0.  0.
         13    1    3    3    0    0 -0.14231525747E+02  0.24780289512E+02 -0.21719831260E+02  0.35893750255E+02  0.10566000000E+00 0. -1.
         22    1    1    0    0    0 -0.14301210976E+02 -0.37928377006E+01 -0.25911687313E+02  0.29838327577E+02  0.00000000000E+00 0.  1.
</event>
<event>
 5    1  0.1258624E-009  0.9118800E+02  0.7815553E-02  0.1125453E+00
         25   -1    0    0    0    0  0.00000000000E+00  0.00000000000E+00  0.99999998245E-14  0.12509000000E+03  0.12509000000E+03 0.  0.
        -13    1    3    3    0    0 -0.11529989816E+02 -0.16789968030E+02 -0.27842805919E+02  0.34497488273E+02  0.10566000000E+00 0. -1.
         23    2    1    0    0    0  0.21262224528E+02  0.93669870220E+01  0.17301523117E+02  0.96121649341E+02  0.91652638435E+02 0.  0.
         13    1    3    3    0    0  0.32792214344E+02  0.26156955052E+02  0.45144329036E+02  0.61624161068E+02  0.10566000000E+00 0.  1.
         22    1    1    0    0    0 -0.21262224528E+02 -0.93669870220E+01 -0.17301523117E+02  0.28968350659E+02  0.00000000000E+00 0.  1.
</event>
<event>
 5    1  0.1258624E-009  0.9118800E+02  0.7815553E-02  0.1125453E+00
         25   -1    0    0    0    0  0.00000000000E+00  0.00000000000E+00  0.99999998245E-14  0.12509000000E+03  0.12509000000E+03 0.  0.
        -13    1    3    3    0    0 -0.49681543102E+02 -0.18742683694E+02  0.97441070716E+01  0.53986134366E+02  0.10566000000E+00 0.  1.
         23    2    1    0    0    0 -0.23168745275E+02 -0.31143072248E+01 -0.18127982011E+02  0.95507684355E+02  0.90810816382E+02 0.  0.
         13    1    3    3    0    0  0.26512797827E+02  0.15628376470E+02 -0.27872089082E+02  0.41521549990E+02  0.10566000000E+00 0. -1.
         22    1    1    0    0    0  0.23168745275E+02  0.31143072248E+01  0.18127982011E+02  0.29582315645E+02  0.00000000000E+00 0. -1.
</event>
<event>
 5    1  0.1258624E-009  0.9118800E+02  0.7815553E-02  0.1125453E+00
         25   -1    0    0    0    0  0.00000000000E+00  0.00000000000E+00  0.99999998245E-14  0.12509000000E+03  0.12509000000E+03 0.  0.
        -13    1    3    3    0    0 -0.87586359205E+00  0.12706445229E+02 -0.37065074710E+02  0.39192496919E+02  0.10566000000E+00 0.  1.
         23    2    1    0    0    0 -0.23597350462E+02  0.83749495279E+01  0.14815374363E+02  0.95995841721E+02  0.91480771650E+02 0.  0.
         13    1    3    3    0    0 -0.22721486870E+02 -0.43314957009E+01  0.51880449074E+02  0.56803344802E+02  0.10566000000E+00 0. -1.
         22    1    1    0    0    0  0.23597350462E+02 -0.83749495279E+01 -0.14815374363E+02  0.29094158279E+02  0.00000000000E+00 0. -1.
</event>
<event>
 5    1  0.1258624E-009  0.9118800E+02  0.7815553E-02  0.1125453E+00
         25   -1    0    0    0    0  0.00000000000E+00  0.00000000000E+00  0.99999998245E-14  0.12509000000E+03  0.12509000000E+03 0.  0.
        -13    1    3    3    0    0 -0.59129469279E+01  0.21457486848E+02 -0.36278097467E+02  0.42561698780E+02  0.10566000000E+00 0.  1.
         23    2    1    0    0    0 -0.29547198594E+02 -0.57214643077E+01  0.17547753705E+01  0.94942838688E+02  0.90029391217E+02 0.  0.
         13    1    3    3    0    0 -0.23634251666E+02 -0.27178951156E+02  0.38032872837E+02  0.52381139908E+02  0.10566000000E+00 0. -1.
         22    1    1    0    0    0  0.29547198594E+02  0.57214643077E+01 -0.17547753705E+01  0.30147161312E+02  0.00000000000E+00 0. -1.
</event>
<event>
 5    1  0.1258624E-009  0.9118800E+02  0.7815553E-02  0.1125453E+00
         25   -1    0    0    0    0  0.00000000000E+00  0.00000000000E+00  0.99999998245E-14  0.12509000000E+03  0.12509000000E+03 0.  0.
        -13    1    3    3    0    0  0.49527187021E+02  0.28737821775E+02 -0.59514892374E+01  0.57569401967E+02  0.10566000000E+00 0. -1.
         23    2    1    0    0    0  0.12107057988E+02  0.23872241274E+02 -0.11946926374E+02  0.95777992113E+02  0.91182399435E+02 0.  0.
         13    1    3    3    0    0 -0.37420129033E+02 -0.48655805005E+01 -0.59954371363E+01  0.38208590146E+02  0.10566000000E+00 0.  1.
         22    1    1    0    0    0 -0.12107057988E+02 -0.23872241274E+02  0.11946926374E+02  0.29312007887E+02  0.00000000000E+00 0. -1.
</event>
<event>
 5    1  0.1258624E-009  0.9118800E+02  0.7815553E-02  0.1125453E+00
         25   -1    0    0    0    0  0.00000000000E+00  0.00000000000E+00  0.99999998245E-14  0.12509000000E+03  0.12509000000E+03 0.  0.
        -13    1    3    3    0    0 -0.23194119418E+02  0.21479500912E+02  0.10926638517E+02  0.33447551903E+02  0.10566000000E+00 0. -1.
         23    2    1    0    0    0  0.30863745464E+02 -0.31759812238E+01  0.85348416795E+01  0.92910796106E+02  0.87160282639E+02 0.  0.
         13    1    3    3    0    0  0.54057864882E+02 -0.24655482136E+02 -0.23917968376E+01  0.59463244202E+02  0.10566000000E+00 0.  1.
         22    1    1    0    0    0 -0.30863745464E+02  0.31759812238E+01 -0.85348416795E+01  0.32179203894E+02  0.00000000000E+00 0.  1.
</event>
<event>
 5    1  0.1258624E-009  0.9118800E+02  0.7815553E-02  0.1125453E+00
         25   -1    0    0    0    0  0.00000000000E+00  0.00000000000E+00  0.99999998245E-14  0.12509000000E+03  0.12509000000E+03 0.  0.
        -13    1    3    3    0    0  0.38659671918E+01 -0.33737358893E+02  0.46382309111E+02  0.57484648819E+02  0.10566000000E+00 0.  1.
         23    2    1    0    0    0  0.13754592738E+02 -0.25337809121E+01  0.24565688106E+02  0.96821963294E+02  0.92603513307E+02 0.  0.
         13    1    3    3    0    0  0.98886255458E+01  0.31203577980E+02 -0.21816621005E+02  0.39337314474E+02  0.10566000000E+00 0. -1.
         22    1    1    0    0    0 -0.13754592738E+02  0.25337809121E+01 -0.24565688106E+02  0.28268036706E+02  0.00000000000E+00 0.  1.
</event>
<event>
 5    1  0.1258624E-009  0.9118800E+02  0.7815553E-02  0.1125453E+00
         25   -1    0    0    0    0  0.00000000000E+00  0.00000000000E+00  0.99999998245E-14  0.12509000000E+03  0.12509000000E+03 0.  0.
        -13    1    3    3    0    0  0.45623168634E+01  0.43869895632E+02 -0.29848655351E+02  0.53257261178E+02  0.10566000000E+00 0.  1.
         23    2    1    0    0    0  0.23455278706E+02  0.10048731753E+02 -0.55853593892E+01  0.98968680192E+02  0.95459291378E+02 0.  0.
         13    1    3    3    0    0  0.18892961842E+02 -0.33821163879E+02  0.24263295962E+02  0.45711419014E+02  0.10566000000E+00 0. -1.
         22    1    1    0    0    0 -0.23455278706E+02 -0.10048731753E+02  0.55853593892E+01  0.26121319808E+02  0.00000000000E+00 0. -1.
</event>
<event>
 5    1  0.1258624E-009  0.9118800E+02  0.7815553E-02  0.1125453E+00
         25   -1    0    0    0    0  0.00000000000E+00  0.00000000000E+00  0.99999998245E-14  0.12509000000E+03  0.12509000000E+03 0.  0.
        -13    1    3    3    0    0  0.42485797556E+02  0.15329889719E+02  0.30708984978E+02  0.54617775817E+02  0.10566000000E+00 0.  1.
         23    2    1    0    0    0  0.14364247063E+02  0.25794559160E+02  0.30816043690E+01  0.95405203194E+02  0.90669540834E+02 0.  0.
         13    1    3    3    0    0 -0.28121550493E+02  0.10464669441E+02 -0.27627380609E+02  0.40787427377E+02  0.10566000000E+00 0. -1.
         22    1    1    0    0    0 -0.14364247063E+02 -0.25794559160E+02 -0.30816043690E+01  0.29684796806E+02  0.00000000000E+00 0.  1.
</event>
<event>
 5    1  0.1258624E-009  0.9118800E+02  0.7815553E-02  0.1125453E+00
         25   -1    0    0    0    0  0.00000000000E+00  0.00000000000E+00  0.99999998245E-14  0.12509000000E+03  0.12509000000E+03 0.  0.
        -13    1    3    3    0    0 -0.29495175720E+02  0.24836477481E+02  0.29798257078E+02  0.48731543104E+02  0.10566000000E+00 0.  1.
         23    2    1    0    0    0 -0.25385528085E+02 -0.12579006575E+02 -0.31219989875E-01  0.96758790756E+02  0.92518139688E+02 0.  0.
         13    1    3    3    0    0  0.41096476352E+01 -0.37415484056E+02 -0.29829477068E+02  0.48027247651E+02  0.10566000000E+00 0. -1.
         22    1    1    0    0    0  0.25385528085E+02  0.12579006575E+02  0.31219989875E-01  0.28331209244E+02  0.00000000000E+00 0. -1.
</event>
<event>
 5    1  0.1258624E-009  0.9118800E+02  0.7815553E-02  0.1125453E+00
         25   -1    0    0    0    0  0.00000000000E+00  0.00000000000E+00  0.99999998245E-14  0.12509000000E+03  0.12509000000E+03 0.  0.
        -13    1    3    3    0    0 -0.42569986167E+02 -0.15610658977E+00 -0.12197723162E+02  0.44283447312E+02  0.10566000000E+00 0.  1.
         23    2    1    0    0    0 -0.12226828791E+01 -0.91137092066E+01  0.23637303718E+02  0.99727098431E+02  0.96448003533E+02 0.  0.
         13    1    3    3    0    0  0.41347303288E+02 -0.89576026169E+01  0.35835026880E+02  0.55443651119E+02  0.10566000000E+00 0. -1.
         22    1    1    0    0    0  0.12226828791E+01  0.91137092066E+01 -0.23637303718E+02  0.25362901569E+02  0.00000000000E+00 0. -1.
</event>
<event>
 5    1  0.1258624E-009  0.9118800E+02  0.7815553E-02  0.1125453E+00
         25   -1    0    0    0    0  0.00000000000E+00  0.00000000000E+00  0.99999998245E-14  0.12509000000E+03  0.12509000000E+03 0.  0.
        -13    1    3    3    0    0 -0.41867985064E+02  0.41211153491E+02  0.13846552828E+02  0.60357481182E+02  0.10566000000E+00 0.  1.
         23    2    1    0    0    0 -0.16709765671E+02  0.16624851176E+02  0.17512604980E+02  0.95725169358E+02  0.91109904895E+02 0.  0.
         13    1    3    3    0    0  0.25158219392E+02 -0.24586302315E+02  0.36660521522E+01  0.35367688176E+02  0.10566000000E+00 0. -1.
         22    1    1    0    0    0  0.16709765671E+02 -0.16624851176E+02 -0.17512604980E+02  0.29364830642E+02  0.00000000000E+00 0.  1.
</event>
<event>
 5    1  0.1258624E-009  0.9118800E+02  0.7815553E-02  0.1125453E+00
         25   -1    0    0    0    0  0.00000000000E+00  0.00000000000E+00  0.99999998245E-14  0.12509000000E+03  0.12509000000E+03 0.  0.
        -13    1    3    3    0    0  0.14472508403E+02 -0.35423982544E+02  0.44439773506E+02  0.58644834999E+02  0.10566000000E+00 0.  1.
         23    2    1    0    0    0  0.61243759955E+01 -0.29074289796E+01  0.28475538996E+02  0.95818555797E+02  0.91238030389E+02 0.  0.
         13    1    3    3    0    0 -0.83481324073E+01  0.32516553565E+02 -0.15964234510E+02  0.37173720798E+02  0.10566000000E+00 0. -1.
         22    1    1    0    0    0 -0.61243759955E+01  0.29074289796E+01 -0.28475538996E+02  0.29271444203E+02  0.00000000000E+00 0.  1.
</event>
<event>
 5    1  0.1258624E-009  0.9118800E+02  0.7815553E-02  0.1125453E+00
         25   -1    0    0    0    0  0.00000000000E+00  0.00000000000E+00  0.99999998245E-14  0.12509000000E+03  0.12509000000E+03 0.  0.
        -13    1    3    3    0    0 -0.30074560118E+02 -0.30220490392E+02  0.30487716157E+02  0.52414398846E+02  0.10566000000E+00 0.  1.
         23    2    1    0    0    0 -0.61787467996E+00  0.69915160980E+01  0.23718735962E+02  0.10035456990E+03  0.97258409396E+02 0.  0.
         13    1    3    3    0    0  0.29456685438E+02  0.37212006490E+02 -0.67689801946E+01  0.47940171057E+02  0.10566000000E+00 0. -1.
         22    1    1    0    0    0  0.61787467996E+00 -0.69915160980E+01 -0.23718735962E+02  0.24735430098E+02  0.00000000000E+00 0.  1.
</event>
<event>
 5    1  0.1258624E-009  0.9118800E+02  0.7815553E-02  0.1125453E+00
         25   -1    0    0    0    0  0.00000000000E+00  0.00000000000E+00  0.99999998245E-14  0.12509000000E+03  0.12509000000E+03 0.  0.
        -13    1    3    3    0    0 -0.10620001722E+02  0.41424995023E+02  0.96399555372E+01  0.43837821068E+02  0.10566000000E+00 0. -1.
         23    2    1    0    0    0 -0.28955756204E+02 -0.58101152775E+01 -0.68885843530E+00  0.95549049053E+02  0.90867777524E+02 0.  0.
         13    1    3    3    0    0 -0.18335754483E+02 -0.47235110301E+02 -0.10328813972E+02  0.51711227985E+02  0.10566000000E+00 0.  1.
         22    1    1    0    0    0  0.28955756204E+02  0.58101152775E+01  0.68885843530E+00  0.29540950947E+02  0.00000000000E+00 0.  1.
</event>
<event>
 5    1  0.1258624E-009  0.9118800E+02  0.7815553E-02  0.1125453E+00
         25   -1    0    0    0    0  0.00000000000E+00  0.00000000000E+00  0.99999998245E-14  0.12509000000E+03  0.12509000000E+03 0.  0.
        -13    1    3    3    0    0 -0.28719584057E+02  0.33460474798E+02  0.15823933032E+02  0.46848969068E+02  0.10566000000E+00 0.  1.
         23    2    1    0    0    0 -0.11982659025E+02  0.60954727993E+01 -0.23754917078E+02  0.97794670888E+02  0.93908267276E+02 0.  0.
         13    1    3    3    0    0  0.16736925032E+02 -0.27365001999E+02 -0.39578850109E+02  0.50945701820E+02  0.10566000000E+00 0. -1.
         22    1    1    0    0    0  0.11982659025E+02 -0.60954727993E+01  0.23754917078E+02  0.27295329112E+02  0.00000000000E+00 0. -1.
</event>
<event>
 5    1  0.1258624E-009  0.9118800E+02  0.7815553E-02  0.1125453E+00
         25   -1    0    0    0    0  0.00000000000E+00  0.00000000000E+00  0.99999998245E-14  0.12509000000E+03  0.12509000000E+03 0.  0.
        -13    1    3    3    0    0 -0.11108327361E+02  0.47849970844E+02  0.23884229310E+02  0.54621261614E+02  0.10566000000E+00 0.  1.
         23    2    1    0    0    0  0.15238638027E+02  0.76422915558E+01  0.12299617986E+02  0.10406855115E+03  0.10192331444E+03 0.  0.
         13    1    3    3    0    0  0.26346965388E+02 -0.40207679288E+02 -0.11584611323E+02  0.49447289536E+02  0.10566000000E+00 0. -1.
         22    1    1    0    0    0 -0.15238638027E+02 -0.76422915558E+01 -0.12299617986E+02  0.21021448850E+02  0.00000000000E+00 0.  1.
</event>
<event>
 5    1  0.1258624E-009  0.9118800E+02  0.7815553E-02  0.1125453E+00
         25   -1    0    0    0    0  0.00000000000E+00  0.00000000000E+00  0.99999998245E-14  0.12509000000E+03  0.12509000000E+03 0.  0.
        -13    1    3    3    0    0  0.46010469093E+02 -0.40096261336E+02  0.95168154898E+01  0.61767745469E+02  0.10566000000E+00 0. -1.
         23    2    1    0    0    0  0.26776987694E+02 -0.14214202333E+02  0.34673539362E+01  0.94576508537E+02  0.89518952216E+02 0.  0.
         13    1    3    3    0    0 -0.19233481399E+02  0.25882059003E+02 -0.60494615537E+01  0.32808763068E+02  0.10566000000E+00 0.  1.
         22    1    1    0    0    0 -0.26776987694E+02  0.14214202333E+02 -0.34673539362E+01  0.30513491463E+02  0.00000000000E+00 0. -1.
</event>
<event>
 5    1  0.1258624E-009  0.9118800E+02  0.7815553E-02  0.1125453E+00
         25   -1    0    0    0    0  0.00000000000E+00  0.00000000000E+00  0.99999998245E-14  0.12509000000E+03  0.12509000000E+03 0.  0.
        -13    1    3    3    0    0 -0.30078917642E+02  0.28375280353E+02 -0.22666112274E+02  0.47155716846E+02  0.10566000000E+00 0.  1.
         23    2    1    0    0    0  0.15198717648E+02  0.21801823567E+02 -0.17659088329E+02  0.93181318899E+02  0.87547668513E+02 0.  0.
         13    1    3    3    0    0  0.45277635290E+02 -0.65734567854E+01  0.50070239447E+01  0.46025602053E+02  0.10566000000E+00 0. -1.
         22    1    1    0    0    0 -0.15198717648E+02 -0.21801823567E+02  0.17659088329E+02  0.31908681101E+02  0.00000000000E+00 0. -1.
</event>
<event>
 5    1  0.1258624E-009  0.9118800E+02  0.7815553E-02  0.1125453E+00
         25   -1    0    0    0    0  0.00000000000E+00  0.00000000000E+00  0.99999998245E-14  0.12509000000E+03  0.12509000000E+03 0.  0.
        -13    1    3    3    0    0  0.21121245860E+02  0.23992866460E+02 -0.51819999473E+01  0.32382540900E+02  0.10566000000E+00 0. -1.
         23    2    1    0    0    0 -0.18355147009E+02 -0.20261584488E+02  0.13554363162E+02  0.94575020262E+02  0.89516872539E+02 0.  0.
         13    1    3    3    0    0 -0.39476392868E+02 -0.44254450948E+02  0.18736363109E+02  0.62192479362E+02  0.10566000000E+00 0.  1.
         22    1    1    0    0    0  0.18355147009E+02  0.20261584488E+02 -0.13554363162E+02  0.30514979738E+02  0.00000000000E+00 0.  1.
</event>
<event>
 5    1  0.1258624E-009  0.9118800E+02  0.7815553E-02  0.1125453E+00
         25   -1    0    0    0    0  0.00000000000E+00  0.00000000000E+00  0.99999998245E-14  0.12509000000E+03  0.12509000000E+03 0.  0.
        -13    1    3    3    0    0  0.19721401091E+02  0.19083448110E+02  0.19281303210E+02  0.33539401758E+02  0.10566000000E+00 0.  1.
         23    2    1    0    0    0 -0.24641657488E+02 -0.99331032502E+01 -0.12902576279E+02  0.95554355457E+02  0.90875082109E+02 0.  0.
         13    1    3    3    0    0 -0.44363058579E+02 -0.29016551360E+02 -0.32183879489E+02  0.62014953699E+02  0.10566000000E+00 0. -1.
         22    1    1    0    0    0  0.24641657488E+02  0.99331032502E+01  0.12902576279E+02  0.29535644543E+02  0.00000000000E+00 0. -1.
</event>
<event>
 5    1  0.1258624E-009  0.9118800E+02  0.7815553E-02  0.1125453E+00
         25   -1    0    0    0    0  0.00000000000E+00  0.00000000000E+00  0.99999998245E-14  0.12509000000E+03  0.12509000000E+03 0.  0.
        -13    1    3    3    0    0  0.84041261387E+01  0.20058236749E+02 -0.22600529843E+02  0.31364905720E+02  0.10566000000E+00 0. -1.
         23    2    1    0    0    0 -0.21403229435E+02 -0.16493731900E+02  0.17183198056E+02  0.93068074423E+02  0.87385712557E+02 0.  0.
         13    1    3    3    0    0 -0.29807355574E+02 -0.36551968649E+02  0.39783727899E+02  0.61703168703E+02  0.10566000000E+00 0.  1.
         22    1    1    0    0    0  0.21403229435E+02  0.16493731900E+02 -0.17183198056E+02  0.32021925577E+02  0.00000000000E+00 0.  1.
</event>
<event>
 5    1  0.1258624E-009  0.9118800E+02  0.7815553E-02  0.1125453E+00
         25   -1    0    0    0    0  0.00000000000E+00  0.00000000000E+00  0.99999998245E-14  0.12509000000E+03  0.12509000000E+03 0.  0.
        -13    1    3    3    0    0  0.24398385729E+02  0.20388937384E+02 -0.78158687176E+01  0.32742769609E+02  0.10566000000E+00 0.  1.
         23    2    1    0    0    0 -0.13729183676E+02 -0.26061823552E+02  0.73667751375E+01  0.94725901014E+02  0.89727464111E+02 0.  0.
         13    1    3    3    0    0 -0.38127569405E+02 -0.46450760937E+02  0.15182643855E+02  0.61983131405E+02  0.10566000000E+00 0. -1.
         22    1    1    0    0    0  0.13729183676E+02  0.26061823552E+02 -0.73667751375E+01  0.30364098986E+02  0.00000000000E+00 0. -1.
</event>
<event>
 5    1  0.1258624E-009  0.9118800E+02  0.7815553E-02  0.1125453E+00
         25   -1    0    0    0    0  0.00000000000E+00  0.00000000000E+00  0.99999998245E-14  0.12509000000E+03  0.12509000000E+03 0.  0.
        -13    1    3    3    0    0  0.11263380988E+02  0.26910228459E+00  0.37284134593E+02  0.38949377706E+02  0.10566000000E+00 0. -1.
         23    2    1    0    0    0  0.33595163947E+02 -0.86538412461E+01 -0.73299335098E+01  0.89632251422E+02  0.82320644803E+02 0.  0.
         13    1    3    3    0    0  0.22331782959E+02 -0.89229435306E+01 -0.44614068103E+02  0.50682873716E+02  0.10566000000E+00 0.  1.
         22    1    1    0    0    0 -0.33595163947E+02  0.86538412461E+01  0.73299335098E+01  0.35457748578E+02  0.00000000000E+00 0.  1.
</event>
<event>
 5    1  0.1258624E-009  0.9118800E+02  0.7815553E-02  0.1125453E+00
         25   -1    0    0    0    0  0.00000000000E+00  0.00000000000E+00  0.99999998245E-14  0.12509000000E+03  0.12509000000E+03 0.  0.
        -13    1    3    3    0    0 -0.48090719717E+02  0.16152446913E+02 -0.30237501444E+01  0.50820990675E+02  0.10566000000E+00 0.  1.
         23    2    1    0    0    0 -0.49564561269E+01  0.28811866032E+02 -0.20048582815E+01  0.95786253852E+02  0.91193732727E+02 0.  0.
         13    1    3    3    0    0  0.43134263590E+02  0.12659419119E+02  0.10188918629E+01  0.44965263177E+02  0.10566000000E+00 0. -1.
         22    1    1    0    0    0  0.49564561269E+01 -0.28811866032E+02  0.20048582815E+01  0.29303746148E+02  0.00000000000E+00 0.  1.
</event>
<event>
 5    1  0.1258624E-009  0.9118800E+02  0.7815553E-02  0.1125453E+00
         25   -1    0    0    0    0  0.00000000000E+00  0.00000000000E+00  0.99999998245E-14  0.12509000000E+03  0.12509000000E+03 0.  0.
        -13    1    3    3    0    0  0.39462012290E+02 -0.16651257695E+02  0.15196814775E+02  0.45447432712E+02  0.10566000000E+00 0. -1.
         23    2    1    0    0    0  0.10645137595E+02  0.23471274427E+02 -0.50377089312E+01  0.98829798383E+02  0.95277126634E+02 0.  0.
         13    1    3    3    0    0 -0.28816874694E+02  0.40122532122E+02 -0.20234523706E+02  0.53382365672E+02  0.10566000000E+00 0.  1.
         22    1    1    0    0    0 -0.10645137595E+02 -0.23471274427E+02  0.50377089312E+01  0.26260201617E+02  0.00000000000E+00 0.  1.
</event>
<event>
 5    1  0.1258624E-009  0.9118800E+02  0.7815553E-02  0.1125453E+00
         25   -1    0    0    0    0  0.00000000000E+00  0.00000000000E+00  0.99999998245E-14  0.12509000000E+03  0.12509000000E+03 0.  0.
        -13    1    3    3    0    0  0.24520197173E+02  0.36124038255E+02 -0.38607926541E+02  0.58281809899E+02  0.10566000000E+00 0. -1.
         23    2    1    0    0    0  0.22937311476E+02  0.10840278558E+02 -0.70332387959E+01  0.98763238997E+02  0.95189700243E+02 0.  0.
         13    1    3    3    0    0 -0.15828856972E+01 -0.25283759698E+02  0.31574687745E+02  0.40481429098E+02  0.10566000000E+00 0.  1.
         22    1    1    0    0    0 -0.22937311476E+02 -0.10840278558E+02  0.70332387959E+01  0.26326761003E+02  0.00000000000E+00 0. -1.
</event>
<event>
 5    1  0.1258624E-009  0.9118800E+02  0.7815553E-02  0.1125453E+00
         25   -1    0    0    0    0  0.00000000000E+00  0.00000000000E+00  0.99999998245E-14  0.12509000000E+03  0.12509000000E+03 0.  0.
        -13    1    3    3    0    0 -0.76928962135E+01 -0.27983183092E+02  0.54819703900E+02  0.62027818661E+02  0.10566000000E+00 0.  1.
         23    2    1    0    0    0 -0.51611100787E+01 -0.17977928291E+02  0.23200624360E+02  0.95288793085E+02  0.90508796004E+02 0.  0.
         13    1    3    3    0    0  0.25317861348E+01  0.10005254801E+02 -0.31619079540E+02  0.33260974424E+02  0.10566000000E+00 0. -1.
         22    1    1    0    0    0  0.51611100787E+01  0.17977928291E+02 -0.23200624360E+02  0.29801206915E+02  0.00000000000E+00 0.  1.
</event>
<event>
 5    1  0.1258624E-009  0.9118800E+02  0.7815553E-02  0.1125453E+00
         25   -1    0    0    0    0  0.00000000000E+00  0.00000000000E+00  0.99999998245E-14  0.12509000000E+03  0.12509000000E+03 0.  0.
        -13    1    3    3    0    0 -0.30242046177E+02  0.61166192459E+01  0.26711334521E+01  0.30969993637E+02  0.10566000000E+00 0.  1.
         23    2    1    0    0    0  0.19704862486E+01  0.41527307114E+02  0.15810855910E+02  0.80610980038E+02  0.67229062807E+02 0.  0.
         13    1    3    3    0    0  0.32212532425E+02  0.35410687868E+02  0.13139722457E+02  0.49640986401E+02  0.10566000000E+00 0. -1.
         22    1    1    0    0    0 -0.19704862486E+01 -0.41527307114E+02 -0.15810855910E+02  0.44479019962E+02  0.00000000000E+00 0. -1.
</event>
<event>
 5    1  0.1258624E-009  0.9118800E+02  0.7815553E-02  0.1125453E+00
         25   -1    0    0    0    0  0.00000000000E+00  0.00000000000E+00  0.99999998245E-14  0.12509000000E+03  0.12509000000E+03 0.  0.
        -13    1    3    3    0    0  0.49270608567E+02  0.10367239398E+02  0.17249773881E+02  0.53222536432E+02  0.10566000000E+00 0.  1.
         23    2    1    0    0    0  0.22595241069E+02  0.13155838906E+02 -0.14824915739E+02  0.95033401008E+02  0.90155133876E+02 0.  0.
         13    1    3    3    0    0 -0.26675367497E+02  0.27885995073E+01 -0.32074689620E+02  0.41810864576E+02  0.10566000000E+00 0. -1.
         22    1    1    0    0    0 -0.22595241069E+02 -0.13155838906E+02  0.14824915739E+02  0.30056598992E+02  0.00000000000E+00 0.  1.
</event>
<event>
 5    1  0.1258624E-009  0.9118800E+02  0.7815553E-02  0.1125453E+00
         25   -1    0    0    0    0  0.00000000000E+00  0.00000000000E+00  0.99999998245E-14  0.12509000000E+03  0.12509000000E+03 0.  0.
        -13    1    3    3    0    0  0.32159919758E+02 -0.28857529255E+02  0.85598176244E+01  0.44048826038E+02  0.10566000000E+00 0. -1.
         23    2    1    0    0    0 -0.17153379509E+02 -0.20406001025E+02  0.15012452204E+02  0.94495604638E+02  0.89405829051E+02 0.  0.
         13    1    3    3    0    0 -0.49313299267E+02  0.84515282293E+01  0.64526345796E+01  0.50446778599E+02  0.10566000000E+00 0.  1.
         22    1    1    0    0    0  0.17153379509E+02  0.20406001025E+02 -0.15012452204E+02  0.30594395362E+02  0.00000000000E+00 0.  1.
</event>
<event>
 5    1  0.1258624E-009  0.9118800E+02  0.7815553E-02  0.1125453E+00
         25   -1    0    0    0    0  0.00000000000E+00  0.00000000000E+00  0.99999998245E-14  0.12509000000E+03  0.12509000000E+03 0.  0.
        -13    1    3    3    0    0  0.94129643980E+01  0.58706886653E+01 -0.24616305472E+02  0.27000787828E+02  0.10566000000E+00 0.  1.
         23    2    1    0    0    0 -0.71938497386E+01 -0.28704127139E+02  0.22615751617E+02  0.87845529134E+02  0.79559326158E+02 0.  0.
         13    1    3    3    0    0 -0.16606814137E+02 -0.34574815804E+02  0.47232057090E+02  0.60844741306E+02  0.10566000000E+00 0. -1.
         22    1    1    0    0    0  0.71938497386E+01  0.28704127139E+02 -0.22615751617E+02  0.37244470866E+02  0.00000000000E+00 0. -1.
</event>
<event>
 5    1  0.1258624E-009  0.9118800E+02  0.7815553E-02  0.1125453E+00
         25   -1    0    0    0    0  0.00000000000E+00  0.00000000000E+00  0.99999998245E-14  0.12509000000E+03  0.12509000000E+03 0.  0.
        -13    1    3    3    0    0  0.33656465342E+02 -0.36034806084E+02  0.29073942407E+02  0.57241332968E+02  0.10566000000E+00 0.  1.
         23    2    1    0    0    0  0.16020747219E+02  0.72841364243E+00  0.20763543918E+02  0.98854152693E+02  0.95309096211E+02 0.  0.
         13    1    3    3    0    0 -0.17635718122E+02  0.36763219727E+02 -0.83103984888E+01  0.41612819725E+02  0.10566000000E+00 0. -1.
         22    1    1    0    0    0 -0.16020747219E+02 -0.72841364243E+00 -0.20763543918E+02  0.26235847307E+02  0.00000000000E+00 0.  1.
</event>
<event>
 5    1  0.1258624E-009  0.9118800E+02  0.7815553E-02  0.1125453E+00
         25   -1    0    0    0    0  0.00000000000E+00  0.00000000000E+00  0.99999998245E-14  0.12509000000E+03  0.12509000000E+03 0.  0.
        -13    1    3    3    0    0  0.43357900289E+02  0.75272452423E+01  0.42786913172E+02  0.61378318984E+02  0.10566000000E+00 0.  1.
         23    2    1    0    0    0  0.14013342223E+02  0.62095773031E+01  0.25140272941E+02  0.95645714747E+02  0.91000751730E+02 0.  0.
         13    1    3    3    0    0 -0.29344558066E+02 -0.13176679392E+01 -0.17646640232E+02  0.34267395763E+02  0.10566000000E+00 0. -1.
         22    1    1    0    0    0 -0.14013342223E+02 -0.62095773031E+01 -0.25140272941E+02  0.29444285253E+02  0.00000000000E+00 0.  1.
</event>
<event>
 5    1  0.1258624E-009  0.9118800E+02  0.7815553E-02  0.1125453E+00
         25   -1    0    0    0    0  0.00000000000E+00  0.00000000000E+00  0.99999998245E-14  0.12509000000E+03  0.12509000000E+03 0.  0.
        -13    1    3    3    0    0  0.91410485969E+01  0.20107620212E+02  0.53744616556E+02  0.58106541223E+02  0.10566000000E+00 0. -1.
         23    2    1    0    0    0  0.92137926217E+00  0.23542162709E+02  0.16689745552E+02  0.96217349077E+02  0.91783159088E+02 0.  0.
         13    1    3    3    0    0 -0.82196693348E+01  0.34345424963E+01 -0.37054871004E+02  0.38110807855E+02  0.10566000000E+00 0.  1.
         22    1    1    0    0    0 -0.92137926217E+00 -0.23542162709E+02 -0.16689745552E+02  0.28872650923E+02  0.00000000000E+00 0. -1.
</event>
<event>
 5    1  0.1258624E-009  0.9118800E+02  0.7815553E-02  0.1125453E+00
         25   -1    0    0    0    0  0.00000000000E+00  0.00000000000E+00  0.99999998245E-14  0.12509000000E+03  0.12509000000E+03 0.  0.
        -13    1    3    3    0    0  0.28652147665E+02  0.35051125167E+01 -0.20680840644E+02  0.35509712943E+02  0.10566000000E+00 0.  1.
         23    2    1    0    0    0  0.22004810281E+02  0.16857374661E+02  0.27558376193E+02  0.86002318380E+02  0.76606474350E+02 0.  0.
         13    1    3    3    0    0 -0.66473373834E+01  0.13352262145E+02  0.48239216838E+02  0.50492605437E+02  0.10566000000E+00 0. -1.
         22    1    1    0    0    0 -0.22004810281E+02 -0.16857374661E+02 -0.27558376193E+02  0.39087681620E+02  0.00000000000E+00 0. -1.
</event>
<event>
 5    1  0.1258624E-009  0.9118800E+02  0.7815553E-02  0.1125453E+00
         25   -1    0    0    0    0  0.00000000000E+00  0.00000000000E+00  0.99999998245E-14  0.12509000000E+03  0.12509000000E+03 0.  0.
        -13    1    3    3    0    0 -0.20241682632E+02  0.34175618248E+02 -0.24813823073E+00  0.39721169859E+02  0.10566000000E+00 0.  1.
         23    2    1    0    0    0 -0.50705958625E+01 -0.18673020271E+02 -0.19153808736E+02  0.97863890885E+02  0.94000426178E+02 0.  0.
         13    1    3    3    0    0  0.15171086770E+02 -0.52848638518E+02 -0.18905670505E+02  0.58142721026E+02  0.10566000000E+00 0. -1.
         22    1    1    0    0    0  0.50705958625E+01  0.18673020271E+02  0.19153808736E+02  0.27226109115E+02  0.00000000000E+00 0. -1.
</event>
<event>
 5    1  0.1258624E-009  0.9118800E+02  0.7815553E-02  0.1125453E+00
         25   -1    0    0    0    0  0.00000000000E+00  0.00000000000E+00  0.99999998245E-14  0.12509000000E+03  0.12509000000E+03 0.  0.
        -13    1    3    3    0    0  0.44559739765E+02  0.19157225889E+02 -0.28442434292E+02  0.56227688412E+02  0.10566000000E+00 0. -1.
         23    2    1    0    0    0  0.79752327302E+01  0.24277280522E+02 -0.88200748537E+01  0.98056975621E+02  0.94257021282E+02 0.  0.
         13    1    3    3    0    0 -0.36584507035E+02  0.51200546328E+01  0.19622359439E+02  0.41829287209E+02  0.10566000000E+00 0.  1.
         22    1    1    0    0    0 -0.79752327302E+01 -0.24277280522E+02  0.88200748537E+01  0.27033024379E+02  0.00000000000E+00 0. -1.
</event>
<event>
 5    1  0.1258624E-009  0.9118800E+02  0.7815553E-02  0.1125453E+00
         25   -1    0    0    0    0  0.00000000000E+00  0.00000000000E+00  0.99999998245E-14  0.12509000000E+03  0.12509000000E+03 0.  0.
        -13    1    3    3    0    0 -0.13905532338E+02 -0.29334635253E+02  0.13752883908E+01  0.32492879792E+02  0.10566000000E+00 0. -1.
         23    2    1    0    0    0  0.15420459032E+02  0.20728966854E+02  0.18873708364E+02  0.93094727052E+02  0.87423856663E+02 0.  0.
         13    1    3    3    0    0  0.29325991369E+02  0.50063602107E+02  0.17498419973E+02  0.60601847260E+02  0.10566000000E+00 0.  1.
         22    1    1    0    0    0 -0.15420459032E+02 -0.20728966854E+02 -0.18873708364E+02  0.31995272948E+02  0.00000000000E+00 0.  1.
</event>
<event>
 5    1  0.1258624E-009  0.9118800E+02  0.7815553E-02  0.1125453E+00
         25   -1    0    0    0    0  0.00000000000E+00  0.00000000000E+00  0.99999998245E-14  0.12509000000E+03  0.12509000000E+03 0.  0.
        -13    1    3    3    0    0 -0.28730014888E+02  0.39590070739E+01  0.20054845060E+02  0.35260395161E+02  0.10566000000E+00 0. -1.
         23    2    1    0    0    0  0.28195303762E+02 -0.77646823686E+01  0.38833508293E+01  0.95588375296E+02  0.90921898526E+02 0.  0.
         13    1    3    3    0    0  0.56925318650E+02 -0.11723689442E+02 -0.16171494230E+02  0.60327980135E+02  0.10566000000E+00 0.  1.
         22    1    1    0    0    0 -0.28195303762E+02  0.77646823686E+01 -0.38833508293E+01  0.29501624704E+02  0.00000000000E+00 0.  1.
</event>
<event>
 5    1  0.1258624E-009  0.9118800E+02  0.7815553E-02  0.1125453E+00
         25   -1    0    0    0    0  0.00000000000E+00  0.00000000000E+00  0.99999998245E-14  0.12509000000E+03  0.12509000000E+03 0.  0.
        -13    1    3    3    0    0 -0.42685113630E+02 -0.18451101692E+02  0.34924184584E+02  0.58156443428E+02  0.10566000000E+00 0. -1.
         23    2    1    0    0    0 -0.61095014931E+01 -0.11918589277E+02  0.25183390922E+02  0.96566641902E+02  0.92257977276E+02 0.  0.
         13    1    3    3    0    0  0.36575612137E+02  0.65325124146E+01 -0.97407936616E+01  0.38410198475E+02  0.10566000000E+00 0.  1.
         22    1    1    0    0    0  0.61095014931E+01  0.11918589277E+02 -0.25183390922E+02  0.28523358098E+02  0.00000000000E+00 0. -1.
</event>
<event>
 5    1  0.1258624E-009  0.9118800E+02  0.7815553E-02  0.1125453E+00
         25   -1    0    0    0    0  0.00000000000E+00  0.00000000000E+00  0.99999998245E-14  0.12509000000E+03  0.12509000000E+03 0.  0.
        -13    1    3    3    0    0 -0.69054386575E+01 -0.39888618851E+02 -0.97325763933E+01  0.41635576184E+02  0.10566000000E+00 0. -1.
         23    2    1    0    0    0 -0.21528708337E+02 -0.25960733934E+02  0.25881967276E+02  0.82577399290E+02  0.70793401206E+02 0.  0.
         13    1    3    3    0    0 -0.14623269680E+02  0.13927884917E+02  0.35614543670E+02  0.40941823106E+02  0.10566000000E+00 0.  1.
         22    1    1    0    0    0  0.21528708337E+02  0.25960733934E+02 -0.25881967276E+02  0.42512600710E+02  0.00000000000E+00 0. -1.
</event>
<event>
 5    1  0.1258624E-009  0.9118800E+02  0.7815553E-02  0.1125453E+00
         25   -1    0    0    0    0  0.00000000000E+00  0.00000000000E+00  0.99999998245E-14  0.12509000000E+03  0.12509000000E+03 0.  0.
        -13    1    3    3    0    0  0.16520058638E+02  0.45762680397E+02 -0.75044019880E+01  0.49228675259E+02  0.10566000000E+00 0.  1.
         23    2    1    0    0    0 -0.21573101781E+02  0.20028492336E+02 -0.46455413440E+01  0.95288653049E+02  0.90508602463E+02 0.  0.
         13    1    3    3    0    0 -0.38093160419E+02 -0.25734188061E+02  0.28588606440E+01  0.46059977791E+02  0.10566000000E+00 0. -1.
         22    1    1    0    0    0  0.21573101781E+02 -0.20028492336E+02  0.46455413440E+01  0.29801346951E+02  0.00000000000E+00 0.  1.
</event>
<event>
 5    1  0.1258624E-009  0.9118800E+02  0.7815553E-02  0.1125453E+00
         25   -1    0    0    0    0  0.00000000000E+00  0.00000000000E+00  0.99999998245E-14  0.12509000000E+03  0.12509000000E+03 0.  0.
        -13    1    3    3    0    0  0.51049496020E+01  0.76822823625E-01  0.60569257147E+02  0.60784146680E+02  0.10566000000E+00 0. -1.
         23    2    1    0    0    0  0.11790607445E+02 -0.39205754977E+01  0.25300334082E+02  0.96903190304E+02  0.92713170857E+02 0.  0.
         13    1    3    3    0    0  0.66856578429E+01 -0.39973983214E+01 -0.35268923065E+02  0.36119043624E+02  0.10566000000E+00 0.  1.
         22    1    1    0    0    0 -0.11790607445E+02  0.39205754977E+01 -0.25300334082E+02  0.28186809696E+02  0.00000000000E+00 0. -1.
</event>
<event>
 5    1  0.1258624E-009  0.9118800E+02  0.7815553E-02  0.1125453E+00
         25   -1    0    0    0    0  0.00000000000E+00  0.00000000000E+00  0.99999998245E-14  0.12509000000E+03  0.12509000000E+03 0.  0.
        -13    1    3    3    0    0 -0.31652015164E+02 -0.41251703923E+02  0.52047518516E+01  0.52255657553E+02  0.10566000000E+00 0.  1.
         23    2    1    0    0    0 -0.12587912238E+02 -0.12221626635E+02  0.26730542078E+02  0.93115860889E+02  0.87454090683E+02 0.  0.
         13    1    3    3    0    0  0.19064102926E+02  0.29030077288E+02  0.21525790226E+02  0.40860203336E+02  0.10566000000E+00 0. -1.
         22    1    1    0    0    0  0.12587912238E+02  0.12221626635E+02 -0.26730542078E+02  0.31974139111E+02  0.00000000000E+00 0. -1.
</event>
<event>
 5    1  0.1258624E-009  0.9118800E+02  0.7815553E-02  0.1125453E+00
         25   -1    0    0    0    0  0.00000000000E+00  0.00000000000E+00  0.99999998245E-14  0.12509000000E+03  0.12509000000E+03 0.  0.
        -13    1    3    3    0    0  0.39812392369E+01  0.22032252289E+02  0.29044288061E+02  0.36672227091E+02  0.10566000000E+00 0.  1.
         23    2    1    0    0    0 -0.14694737564E+02  0.82298163829E+01 -0.24685647209E+02  0.95206118594E+02  0.90394461389E+02 0.  0.
         13    1    3    3    0    0 -0.18675976801E+02 -0.13802435906E+02 -0.53729935270E+02  0.58533891503E+02  0.10566000000E+00 0. -1.
         22    1    1    0    0    0  0.14694737564E+02 -0.82298163829E+01  0.24685647209E+02  0.29883881406E+02  0.00000000000E+00 0. -1.
</event>
<event>
 5    1  0.1258624E-009  0.9118800E+02  0.7815553E-02  0.1125453E+00
         25   -1    0    0    0    0  0.00000000000E+00  0.00000000000E+00  0.99999998245E-14  0.12509000000E+03  0.12509000000E+03 0.  0.
        -13    1    3    3    0    0  0.27604895051E+02 -0.12513213678E+02 -0.29908500942E+02  0.42580985662E+02  0.10566000000E+00 0. -1.
         23    2    1    0    0    0 -0.22414602473E+02 -0.14569975168E+02 -0.12445057951E+02  0.95601391219E+02  0.90939804020E+02 0.  0.
         13    1    3    3    0    0 -0.50019497524E+02 -0.20567614895E+01  0.17463442991E+02  0.53020405558E+02  0.10566000000E+00 0.  1.
         22    1    1    0    0    0  0.22414602473E+02  0.14569975168E+02  0.12445057951E+02  0.29488608781E+02  0.00000000000E+00 0. -1.
</event>
<event>
 5    1  0.1258624E-009  0.9118800E+02  0.7815553E-02  0.1125453E+00
         25   -1    0    0    0    0  0.00000000000E+00  0.00000000000E+00  0.99999998245E-14  0.12509000000E+03  0.12509000000E+03 0.  0.
        -13    1    3    3    0    0  0.31282528034E+01 -0.76473244579E+01  0.32931504335E+02  0.33952358957E+02  0.10566000000E+00 0. -1.
         23    2    1    0    0    0 -0.38841191205E+02  0.50515989208E+01  0.25302642497E+02  0.78459746910E+02  0.63099535513E+02 0.  0.
         13    1    3    3    0    0 -0.41969444009E+02  0.12698923379E+02 -0.76288618381E+01  0.44507387953E+02  0.10566000000E+00 0.  1.
         22    1    1    0    0    0  0.38841191205E+02 -0.50515989208E+01 -0.25302642497E+02  0.46630253090E+02  0.00000000000E+00 0. -1.
</event>
<event>
 5    1  0.1258624E-009  0.9118800E+02  0.7815553E-02  0.1125453E+00
         25   -1    0    0    0    0  0.00000000000E+00  0.00000000000E+00  0.99999998245E-14  0.12509000000E+03  0.12509000000E+03 0.  0.
        -13    1    3    3    0    0  0.34810430465E+01  0.39087992883E+02  0.46835246882E+01  0.39521328620E+02  0.10566000000E+00 0.  1.
         23    2    1    0    0    0 -0.18258848615E+02 -0.10875993658E+02  0.19773776064E+02  0.96061134872E+02  0.91570009405E+02 0.  0.
         13    1    3    3    0    0 -0.21739891661E+02 -0.49963986541E+02  0.15090251376E+02  0.56539806253E+02  0.10566000000E+00 0. -1.
         22    1    1    0    0    0  0.18258848615E+02  0.10875993658E+02 -0.19773776064E+02  0.29028865128E+02  0.00000000000E+00 0. -1.
</event>
<event>
 5    1  0.1258624E-009  0.9118800E+02  0.7815553E-02  0.1125453E+00
         25   -1    0    0    0    0  0.00000000000E+00  0.00000000000E+00  0.99999998245E-14  0.12509000000E+03  0.12509000000E+03 0.  0.
        -13    1    3    3    0    0  0.20724638689E+02 -0.55106506392E+02 -0.59850960857E+01  0.59178291921E+02  0.10566000000E+00 0. -1.
         23    2    1    0    0    0  0.13332039633E+02 -0.23796084308E+02  0.11143241392E+02  0.95625296745E+02  0.90972680732E+02 0.  0.
         13    1    3    3    0    0 -0.73925990559E+01  0.31310422083E+02  0.17128337478E+02  0.36447004824E+02  0.10566000000E+00 0.  1.
         22    1    1    0    0    0 -0.13332039633E+02  0.23796084308E+02 -0.11143241392E+02  0.29464703255E+02  0.00000000000E+00 0. -1.
</event>
<event>
 5    1  0.1258624E-009  0.9118800E+02  0.7815553E-02  0.1125453E+00
         25   -1    0    0    0    0  0.00000000000E+00  0.00000000000E+00  0.99999998245E-14  0.12509000000E+03  0.12509000000E+03 0.  0.
        -13    1    3    3    0    0  0.38809644535E+02 -0.29438138112E+02 -0.20906715303E+01  0.48756277092E+02  0.10566000000E+00 0.  1.
         23    2    1    0    0    0 -0.89768527349E+01 -0.24968823253E+02  0.70989236767E+01  0.97623279463E+02  0.93679688066E+02 0.  0.
         13    1    3    3    0    0 -0.47786497270E+02  0.44693148588E+01  0.91895952070E+01  0.48867002371E+02  0.10566000000E+00 0. -1.
         22    1    1    0    0    0  0.89768527349E+01  0.24968823253E+02 -0.70989236767E+01  0.27466720537E+02  0.00000000000E+00 0. -1.
</event>
<event>
 5    1  0.1258624E-009  0.9118800E+02  0.7815553E-02  0.1125453E+00
         25   -1    0    0    0    0  0.00000000000E+00  0.00000000000E+00  0.99999998245E-14  0.12509000000E+03  0.12509000000E+03 0.  0.
        -13    1    3    3    0    0 -0.29195872093E+02  0.64012744914E+01  0.19439782712E+02  0.35655176039E+02  0.10566000000E+00 0.  1.
         23    2    1    0    0    0  0.25463409093E+02 -0.87163911961E+01 -0.55191645216E+01  0.97615978541E+02  0.93669938675E+02 0.  0.
         13    1    3    3    0    0  0.54659281186E+02 -0.15117665687E+02 -0.24958947234E+02  0.61960802502E+02  0.10566000000E+00 0. -1.
         22    1    1    0    0    0 -0.25463409093E+02  0.87163911961E+01  0.55191645216E+01  0.27474021459E+02  0.00000000000E+00 0. -1.
</event>
<event>
 5    1  0.1258624E-009  0.9118800E+02  0.7815553E-02  0.1125453E+00
         25   -1    0    0    0    0  0.00000000000E+00  0.00000000000E+00  0.99999998245E-14  0.12509000000E+03  0.12509000000E+03 0.  0.
        -13    1    3    3    0    0  0.37637715812E+02 -0.28268617092E+01  0.16938961498E+02  0.41370622177E+02  0.10566000000E+00 0. -1.
         23    2    1    0    0    0  0.99715623310E+01 -0.18610903666E+02 -0.23924107006E+02  0.93181369716E+02  0.87547741122E+02 0.  0.
         13    1    3    3    0    0 -0.27666153481E+02 -0.15784041957E+02 -0.40863068504E+02  0.51810747539E+02  0.10566000000E+00 0.  1.
         22    1    1    0    0    0 -0.99715623310E+01  0.18610903666E+02  0.23924107006E+02  0.31908630284E+02  0.00000000000E+00 0. -1.
</event>
<event>
 5    1  0.1258624E-009  0.9118800E+02  0.7815553E-02  0.1125453E+00
         25   -1    0    0    0    0  0.00000000000E+00  0.00000000000E+00  0.99999998245E-14  0.12509000000E+03  0.12509000000E+03 0.  0.
        -13    1    3    3    0    0 -0.30932494721E+02 -0.76827097998E+01 -0.52357603389E+02  0.61295783347E+02  0.10566000000E+00 0.  1.
         23    2    1    0    0    0 -0.15228459245E+02  0.51936871567E+01 -0.24793004668E+02  0.95533724224E+02  0.90846678675E+02 0.  0.
         13    1    3    3    0    0  0.15704035475E+02  0.12876396957E+02  0.27564598721E+02  0.34237940876E+02  0.10566000000E+00 0. -1.
         22    1    1    0    0    0  0.15228459245E+02 -0.51936871567E+01  0.24793004668E+02  0.29556275776E+02  0.00000000000E+00 0.  1.
</event>
<event>
 5    1  0.1258624E-009  0.9118800E+02  0.7815553E-02  0.1125453E+00
         25   -1    0    0    0    0  0.00000000000E+00  0.00000000000E+00  0.99999998245E-14  0.12509000000E+03  0.12509000000E+03 0.  0.
        -13    1    3    3    0    0 -0.51755954288E+02 -0.33196054124E+00 -0.27925314278E+02  0.58810061585E+02  0.10566000000E+00 0.  1.
         23    2    1    0    0    0 -0.37840591116E+02 -0.12837751095E+01 -0.33347622103E+01  0.87081066135E+02  0.78348152662E+02 0.  0.
         13    1    3    3    0    0  0.13915363172E+02 -0.95181456825E+00  0.24590552068E+02  0.28271004549E+02  0.10566000000E+00 0. -1.
         22    1    1    0    0    0  0.37840591116E+02  0.12837751095E+01  0.33347622103E+01  0.38008933865E+02  0.00000000000E+00 0.  1.
</event>
<event>
 5    1  0.1258624E-009  0.9118800E+02  0.7815553E-02  0.1125453E+00
         25   -1    0    0    0    0  0.00000000000E+00  0.00000000000E+00  0.99999998245E-14  0.12509000000E+03  0.12509000000E+03 0.  0.
        -13    1    3    3    0    0 -0.35052848481E+02 -0.81493285959E+00  0.97092831787E+00  0.35075920060E+02  0.10566000000E+00 0.  1.
         23    2    1    0    0    0  0.14894551048E+02 -0.27859205796E+02  0.85093186220E+01  0.92373161798E+02  0.86385239009E+02 0.  0.
         13    1    3    3    0    0  0.49947399529E+02 -0.27044272937E+02  0.75383903042E+01  0.57297241738E+02  0.10566000000E+00 0. -1.
         22    1    1    0    0    0 -0.14894551048E+02  0.27859205796E+02 -0.85093186220E+01  0.32716838202E+02  0.00000000000E+00 0. -1.
</event>
<event>
 5    1  0.1258624E-009  0.9118800E+02  0.7815553E-02  0.1125453E+00
         25   -1    0    0    0    0  0.00000000000E+00  0.00000000000E+00  0.99999998245E-14  0.12509000000E+03  0.12509000000E+03 0.  0.
        -13    1    3    3    0    0 -0.53298065303E+01  0.66081997359E+00 -0.43793018966E+02  0.44121232926E+02  0.10566000000E+00 0. -1.
         23    2    1    0    0    0  0.28031368256E+02  0.67994131237E+01 -0.47239270762E+01  0.95861501712E+02  0.91296891505E+02 0.  0.
         13    1    3    3    0    0  0.33361174786E+02  0.61385931501E+01  0.39069091890E+02  0.51740268787E+02  0.10566000000E+00 0.  1.
         22    1    1    0    0    0 -0.28031368256E+02 -0.67994131237E+01  0.47239270762E+01  0.29228498288E+02  0.00000000000E+00 0.  1.
</event>
<event>
 5    1  0.1258624E-009  0.9118800E+02  0.7815553E-02  0.1125453E+00
         25   -1    0    0    0    0  0.00000000000E+00  0.00000000000E+00  0.99999998245E-14  0.12509000000E+03  0.12509000000E+03 0.  0.
        -13    1    3    3    0    0  0.68953240359E+01  0.26863904135E+02 -0.28019499843E+02  0.39424844634E+02  0.10566000000E+00 0.  1.
         23    2    1    0    0    0  0.23663074746E+02 -0.14746592800E+02  0.70069855019E+01  0.96341070429E+02  0.91951622606E+02 0.  0.
         13    1    3    3    0    0  0.16767750710E+02 -0.41610496935E+02  0.35026485345E+02  0.56916225795E+02  0.10566000000E+00 0. -1.
         22    1    1    0    0    0 -0.23663074746E+02  0.14746592800E+02 -0.70069855019E+01  0.28748929571E+02  0.00000000000E+00 0. -1.
</event>
<event>
 5    1  0.1258624E-009  0.9118800E+02  0.7815553E-02  0.1125453E+00
         25   -1    0    0    0    0  0.00000000000E+00  0.00000000000E+00  0.99999998245E-14  0.12509000000E+03  0.12509000000E+03 0.  0.
        -13    1    3    3    0    0 -0.29586510936E+02 -0.25768811276E+02  0.12175197616E+02  0.41080894160E+02  0.10566000000E+00 0.  1.
         23    2    1    0    0    0  0.16628331383E+02  0.49278759328E+01  0.21634361897E+02  0.97362198419E+02  0.93330416803E+02 0.  0.
         13    1    3    3    0    0  0.46214842319E+02  0.30696687209E+02  0.94591642816E+01  0.56281304260E+02  0.10566000000E+00 0. -1.
         22    1    1    0    0    0 -0.16628331383E+02 -0.49278759328E+01 -0.21634361897E+02  0.27727801581E+02  0.00000000000E+00 0.  1.
</event>
<event>
 5    1  0.1258624E-009  0.9118800E+02  0.7815553E-02  0.1125453E+00
         25   -1    0    0    0    0  0.00000000000E+00  0.00000000000E+00  0.99999998245E-14  0.12509000000E+03  0.12509000000E+03 0.  0.
        -13    1    3    3    0    0 -0.39885688783E+02 -0.26556321040E+02 -0.22506676054E+02  0.52940230335E+02  0.10566000000E+00 0. -1.
         23    2    1    0    0    0 -0.27583909399E+02  0.69555530008E+01  0.25105042001E+01  0.96532086795E+02  0.92211113075E+02 0.  0.
         13    1    3    3    0    0  0.12301779385E+02  0.33511874041E+02  0.25017180254E+02  0.43591856460E+02  0.10566000000E+00 0.  1.
         22    1    1    0    0    0  0.27583909399E+02 -0.69555530008E+01 -0.25105042001E+01  0.28557913205E+02  0.00000000000E+00 0. -1.
</event>
<event>
 5    1  0.1258624E-009  0.9118800E+02  0.7815553E-02  0.1125453E+00
         25   -1    0    0    0    0  0.00000000000E+00  0.00000000000E+00  0.99999998245E-14  0.12509000000E+03  0.12509000000E+03 0.  0.
        -13    1    3    3    0    0 -0.52933274457E+01  0.30299427786E+02  0.19948443970E+02  0.36660963169E+02  0.10566000000E+00 0.  1.
         23    2    1    0    0    0 -0.21360482858E+01 -0.27802868341E+02  0.47228992348E+01  0.96808062877E+02  0.92584734544E+02 0.  0.
         13    1    3    3    0    0  0.31572791599E+01 -0.58102296126E+02 -0.15225544736E+02  0.60147099708E+02  0.10566000000E+00 0. -1.
         22    1    1    0    0    0  0.21360482858E+01  0.27802868341E+02 -0.47228992348E+01  0.28281937123E+02  0.00000000000E+00 0. -1.
</event>
<event>
 5    1  0.1258624E-009  0.9118800E+02  0.7815553E-02  0.1125453E+00
         25   -1    0    0    0    0  0.00000000000E+00  0.00000000000E+00  0.99999998245E-14  0.12509000000E+03  0.12509000000E+03 0.  0.
        -13    1    3    3    0    0 -0.10719717832E+00  0.49429911376E+01  0.32488932494E+02  0.32863148834E+02  0.10566000000E+00 0. -1.
         23    2    1    0    0    0  0.14746576125E+02 -0.97779936839E+00 -0.26916472392E+02  0.94383093854E+02  0.89248273487E+02 0.  0.
         13    1    3    3    0    0  0.14853773304E+02 -0.59207905060E+01 -0.59405404886E+02  0.61519945020E+02  0.10566000000E+00 0.  1.
         22    1    1    0    0    0 -0.14746576125E+02  0.97779936839E+00  0.26916472392E+02  0.30706906146E+02  0.00000000000E+00 0.  1.
</event>
<event>
 5    1  0.1258624E-009  0.9118800E+02  0.7815553E-02  0.1125453E+00
         25   -1    0    0    0    0  0.00000000000E+00  0.00000000000E+00  0.99999998245E-14  0.12509000000E+03  0.12509000000E+03 0.  0.
        -13    1    3    3    0    0  0.27080999119E+02  0.20719633143E+02 -0.43085530012E+02  0.54945953184E+02  0.10566000000E+00 0. -1.
         23    2    1    0    0    0  0.28169490077E+02  0.61551631991E+01 -0.48828864820E+01  0.95845363131E+02  0.91274776626E+02 0.  0.
         13    1    3    3    0    0  0.10884909575E+01 -0.14564469944E+02  0.38202643530E+02  0.40899409947E+02  0.10566000000E+00 0.  1.
         22    1    1    0    0    0 -0.28169490077E+02 -0.61551631991E+01  0.48828864820E+01  0.29244636869E+02  0.00000000000E+00 0. -1.
</event>
<event>
 5    1  0.1258624E-009  0.9118800E+02  0.7815553E-02  0.1125453E+00
         25   -1    0    0    0    0  0.00000000000E+00  0.00000000000E+00  0.99999998245E-14  0.12509000000E+03  0.12509000000E+03 0.  0.
        -13    1    3    3    0    0  0.37434971392E+02 -0.28352915321E+02 -0.38774363442E+02  0.60899321135E+02  0.10566000000E+00 0. -1.
         23    2    1    0    0    0  0.24728755175E+02 -0.89080205061E+01 -0.12451827359E+02  0.96005430785E+02  0.91493882712E+02 0.  0.
         13    1    3    3    0    0 -0.12706216217E+02  0.19444894814E+02  0.26322536083E+02  0.35106109650E+02  0.10566000000E+00 0.  1.
         22    1    1    0    0    0 -0.24728755175E+02  0.89080205061E+01  0.12451827359E+02  0.29084569215E+02  0.00000000000E+00 0. -1.
</event>
<event>
 5    1  0.1258624E-009  0.9118800E+02  0.7815553E-02  0.1125453E+00
         25   -1    0    0    0    0  0.00000000000E+00  0.00000000000E+00  0.99999998245E-14  0.12509000000E+03  0.12509000000E+03 0.  0.
        -13    1    3    3    0    0  0.49707815186E+01  0.16840369114E+02  0.28463183631E+02  0.33443544777E+02  0.10566000000E+00 0.  1.
         23    2    1    0    0    0 -0.23602867841E+02 -0.13659021632E+02 -0.15187510254E+02  0.93875825176E+02  0.88534433089E+02 0.  0.
         13    1    3    3    0    0 -0.28573649360E+02 -0.30499390746E+02 -0.43650693884E+02  0.60432280399E+02  0.10566000000E+00 0. -1.
         22    1    1    0    0    0  0.23602867841E+02  0.13659021632E+02  0.15187510254E+02  0.31214174824E+02  0.00000000000E+00 0. -1.
</event>
<event>
 5    1  0.1258624E-009  0.9118800E+02  0.7815553E-02  0.1125453E+00
         25   -1    0    0    0    0  0.00000000000E+00  0.00000000000E+00  0.99999998245E-14  0.12509000000E+03  0.12509000000E+03 0.  0.
        -13    1    3    3    0    0  0.53301396958E+01 -0.31122035265E+02  0.26280400933E+02  0.41081164850E+02  0.10566000000E+00 0.  1.
         23    2    1    0    0    0 -0.21971589719E+02 -0.26471189055E+01 -0.15136003520E+02  0.98278498814E+02  0.94550551206E+02 0.  0.
         13    1    3    3    0    0 -0.27301729415E+02  0.28474916359E+02 -0.41416404454E+02  0.57197333964E+02  0.10566000000E+00 0. -1.
         22    1    1    0    0    0  0.21971589719E+02  0.26471189055E+01  0.15136003520E+02  0.26811501186E+02  0.00000000000E+00 0. -1.
</event>
<event>
 5    1  0.1258624E-009  0.9118800E+02  0.7815553E-02  0.1125453E+00
         25   -1    0    0    0    0  0.00000000000E+00  0.00000000000E+00  0.99999998245E-14  0.12509000000E+03  0.12509000000E+03 0.  0.
        -13    1    3    3    0    0  0.26745313724E+02 -0.19027977348E+02 -0.46628401939E+02  0.57022756506E+02  0.10566000000E+00 0. -1.
         23    2    1    0    0    0  0.11602386016E+02  0.88191705489E+01 -0.27284445436E+02  0.94157265022E+02  0.88931189486E+02 0.  0.
         13    1    3    3    0    0 -0.15142927708E+02  0.27847147897E+02  0.19343956502E+02  0.37134508516E+02  0.10566000000E+00 0.  1.
         22    1    1    0    0    0 -0.11602386016E+02 -0.88191705489E+01  0.27284445436E+02  0.30932734978E+02  0.00000000000E+00 0. -1.
</event>
<event>
 5    1  0.1258624E-009  0.9118800E+02  0.7815553E-02  0.1125453E+00
         25   -1    0    0    0    0  0.00000000000E+00  0.00000000000E+00  0.99999998245E-14  0.12509000000E+03  0.12509000000E+03 0.  0.
        -13    1    3    3    0    0 -0.80412703251E+01  0.34941230336E+02 -0.27759228331E+02  0.45344652688E+02  0.10566000000E+00 0. -1.
         23    2    1    0    0    0  0.47708290348E+01 -0.50101679570E+01 -0.36279555844E+02  0.88156698429E+02  0.80047078104E+02 0.  0.
         13    1    3    3    0    0  0.12812099360E+02 -0.39951398293E+02 -0.85203275139E+01  0.42812045741E+02  0.10566000000E+00 0.  1.
         22    1    1    0    0    0 -0.47708290348E+01  0.50101679570E+01  0.36279555844E+02  0.36933301571E+02  0.00000000000E+00 0.  1.
</event>
<event>
 5    1  0.1258624E-009  0.9118800E+02  0.7815553E-02  0.1125453E+00
         25   -1    0    0    0    0  0.00000000000E+00  0.00000000000E+00  0.99999998245E-14  0.12509000000E+03  0.12509000000E+03 0.  0.
        -13    1    3    3    0    0  0.34054088810E+02 -0.12559797941E+02  0.19146091275E+02  0.41036733108E+02  0.10566000000E+00 0. -1.
         23    2    1    0    0    0 -0.77428283087E+01  0.22153733833E+02  0.18224121284E+02  0.95377075042E+02  0.90630726214E+02 0.  0.
         13    1    3    3    0    0 -0.41796917119E+02  0.34713531774E+02 -0.92196999126E+00  0.54340341935E+02  0.10566000000E+00 0.  1.
         22    1    1    0    0    0  0.77428283087E+01 -0.22153733833E+02 -0.18224121284E+02  0.29712924958E+02  0.00000000000E+00 0.  1.
</event>
<event>
 5    1  0.1258624E-009  0.9118800E+02  0.7815553E-02  0.1125453E+00
         25   -1    0    0    0    0  0.00000000000E+00  0.00000000000E+00  0.99999998245E-14  0.12509000000E+03  0.12509000000E+03 0.  0.
        -13    1    3    3    0    0  0.18758278372E+01 -0.27618323566E+02 -0.48948701785E+01  0.28111589154E+02  0.10566000000E+00 0.  1.
         23    2    1    0    0    0 -0.15334058188E+02  0.31599156661E+02 -0.83208435900E-01  0.89966689139E+02  0.82827279255E+02 0.  0.
         13    1    3    3    0    0 -0.17209886025E+02  0.59217480227E+02  0.48116617426E+01  0.61855099985E+02  0.10566000000E+00 0. -1.
         22    1    1    0    0    0  0.15334058188E+02 -0.31599156661E+02  0.83208435900E-01  0.35123310861E+02  0.00000000000E+00 0. -1.
</event>
<event>
 5    1  0.1258624E-009  0.9118800E+02  0.7815553E-02  0.1125453E+00
         25   -1    0    0    0    0  0.00000000000E+00  0.00000000000E+00  0.99999998245E-14  0.12509000000E+03  0.12509000000E+03 0.  0.
        -13    1    3    3    0    0  0.35396075770E+02 -0.15089926466E+02  0.14235623826E+02  0.41027456788E+02  0.10566000000E+00 0.  1.
         23    2    1    0    0    0  0.68220144617E+01  0.29084703972E+02  0.13903349790E+01  0.95183597378E+02  0.90363290622E+02 0.  0.
         13    1    3    3    0    0 -0.28574061309E+02  0.44174630438E+02 -0.12845288847E+02  0.54156140590E+02  0.10566000000E+00 0. -1.
         22    1    1    0    0    0 -0.68220144617E+01 -0.29084703972E+02 -0.13903349790E+01  0.29906402622E+02  0.00000000000E+00 0. -1.
</event>
<event>
 5    1  0.1258624E-009  0.9118800E+02  0.7815553E-02  0.1125453E+00
         25   -1    0    0    0    0  0.00000000000E+00  0.00000000000E+00  0.99999998245E-14  0.12509000000E+03  0.12509000000E+03 0.  0.
        -13    1    3    3    0    0 -0.17159115916E+02 -0.23558949594E+02 -0.92722015259E+00  0.29160422944E+02  0.10566000000E+00 0.  1.
         23    2    1    0    0    0  0.12828281095E+02 -0.14497489862E+02 -0.40837290199E+02  0.79896789459E+02  0.65886802069E+02 0.  0.
         13    1    3    3    0    0  0.29987397012E+02  0.90614597323E+01 -0.39910070047E+02  0.50736366515E+02  0.10566000000E+00 0. -1.
         22    1    1    0    0    0 -0.12828281095E+02  0.14497489862E+02  0.40837290199E+02  0.45193210541E+02  0.00000000000E+00 0. -1.
</event>
<event>
 5    1  0.1258624E-009  0.9118800E+02  0.7815553E-02  0.1125453E+00
         25   -1    0    0    0    0  0.00000000000E+00  0.00000000000E+00  0.99999998245E-14  0.12509000000E+03  0.12509000000E+03 0.  0.
        -13    1    3    3    0    0  0.77338499536E+01 -0.19130734866E+02  0.30412546358E+02  0.36752300495E+02  0.10566000000E+00 0.  1.
         23    2    1    0    0    0 -0.20548089447E+02 -0.14410050113E+01 -0.19459964216E+02  0.96752909771E+02  0.92510187907E+02 0.  0.
         13    1    3    3    0    0 -0.28281939400E+02  0.17689729855E+02 -0.49872510574E+02  0.60000609277E+02  0.10566000000E+00 0. -1.
         22    1    1    0    0    0  0.20548089447E+02  0.14410050113E+01  0.19459964216E+02  0.28337090229E+02  0.00000000000E+00 0. -1.
</event>
<event>
 5    1  0.1258624E-009  0.9118800E+02  0.7815553E-02  0.1125453E+00
         25   -1    0    0    0    0  0.00000000000E+00  0.00000000000E+00  0.99999998245E-14  0.12509000000E+03  0.12509000000E+03 0.  0.
        -13    1    3    3    0    0 -0.59965515816E+01 -0.43141107955E+02 -0.21023245268E+02  0.48364261931E+02  0.10566000000E+00 0. -1.
         23    2    1    0    0    0 -0.19955843888E+02  0.31055609525E+01 -0.19976592595E+02  0.96683232042E+02  0.92415923370E+02 0.  0.
         13    1    3    3    0    0 -0.13959292307E+02  0.46246668908E+02  0.10466526731E+01  0.48318970111E+02  0.10566000000E+00 0.  1.
         22    1    1    0    0    0  0.19955843888E+02 -0.31055609525E+01  0.19976592595E+02  0.28406767958E+02  0.00000000000E+00 0. -1.
</event>
<event>
 5    1  0.1258624E-009  0.9118800E+02  0.7815553E-02  0.1125453E+00
         25   -1    0    0    0    0  0.00000000000E+00  0.00000000000E+00  0.99999998245E-14  0.12509000000E+03  0.12509000000E+03 0.  0.
        -13    1    3    3    0    0  0.39813814578E+02  0.40567865870E+01  0.32577245047E+02  0.51603153078E+02  0.10566000000E+00 0. -1.
         23    2    1    0    0    0 -0.46029598778E+00  0.18880316834E+02  0.22552566742E+02  0.95674077393E+02  0.91039730790E+02 0.  0.
         13    1    3    3    0    0 -0.40274110566E+02  0.14823530247E+02 -0.10024678305E+02  0.44070924315E+02  0.10566000000E+00 0.  1.
         22    1    1    0    0    0  0.46029598778E+00 -0.18880316834E+02 -0.22552566742E+02  0.29415922607E+02  0.00000000000E+00 0.  1.
</event>
<event>
 5    1  0.1258624E-009  0.9118800E+02  0.7815553E-02  0.1125453E+00
         25   -1    0    0    0    0  0.00000000000E+00  0.00000000000E+00  0.99999998245E-14  0.12509000000E+03  0.12509000000E+03 0.  0.
        -13    1    3    3    0    0 -0.33508516810E+02  0.19363833306E+02  0.86819577204E+01  0.39663160401E+02  0.10566000000E+00 0.  1.
         23    2    1    0    0    0  0.12965734048E+02 -0.12901744699E+02  0.20662602690E+02  0.97494557883E+02  0.93507648838E+02 0.  0.
         13    1    3    3    0    0  0.46474250858E+02 -0.32265578005E+02  0.11980644970E+02  0.57831397482E+02  0.10566000000E+00 0. -1.
         22    1    1    0    0    0 -0.12965734048E+02  0.12901744699E+02 -0.20662602690E+02  0.27595442117E+02  0.00000000000E+00 0. -1.
</event>
<event>
 5    1  0.1258624E-009  0.9118800E+02  0.7815553E-02  0.1125453E+00
         25   -1    0    0    0    0  0.00000000000E+00  0.00000000000E+00  0.99999998245E-14  0.12509000000E+03  0.12509000000E+03 0.  0.
        -13    1    3    3    0    0 -0.60205757355E+01 -0.36887948298E-01  0.52758229653E+02  0.53100759440E+02  0.10566000000E+00 0.  1.
         23    2    1    0    0    0 -0.15823019781E+02  0.84122395053E+01  0.26284511071E+00  0.10716786798E+03  0.10565864428E+03 0.  0.
         13    1    3    3    0    0 -0.98024440450E+01  0.84491274536E+01 -0.52495384542E+02  0.54067108544E+02  0.10566000000E+00 0. -1.
         22    1    1    0    0    0  0.15823019781E+02 -0.84122395053E+01 -0.26284511071E+00  0.17922132017E+02  0.00000000000E+00 0. -1.
</event>
<event>
 5    1  0.1258624E-009  0.9118800E+02  0.7815553E-02  0.1125453E+00
         25   -1    0    0    0    0  0.00000000000E+00  0.00000000000E+00  0.99999998245E-14  0.12509000000E+03  0.12509000000E+03 0.  0.
        -13    1    3    3    0    0  0.10402289169E+01 -0.27932857100E+02 -0.16637765601E+02  0.32529263598E+02  0.10566000000E+00 0. -1.
         23    2    1    0    0    0 -0.35533557735E+02  0.10761489696E+02 -0.12932532264E+01  0.87940088968E+02  0.79707862585E+02 0.  0.
         13    1    3    3    0    0 -0.36573786652E+02  0.38694346796E+02  0.15344512375E+02  0.55410825370E+02  0.10566000000E+00 0.  1.
         22    1    1    0    0    0  0.35533557735E+02 -0.10761489696E+02  0.12932532264E+01  0.37149911032E+02  0.00000000000E+00 0.  1.
</event>
<event>
 5    1  0.1258624E-009  0.9118800E+02  0.7815553E-02  0.1125453E+00
         25   -1    0    0    0    0  0.00000000000E+00  0.00000000000E+00  0.99999998245E-14  0.12509000000E+03  0.12509000000E+03 0.  0.
        -13    1    3    3    0    0 -0.19473870001E+02  0.33199240445E+02  0.73365844092E+01  0.39182366107E+02  0.10566000000E+00 0.  1.
         23    2    1    0    0    0  0.45665088905E+01  0.20393156740E+01 -0.30741729369E+02  0.93944121678E+02  0.88630876456E+02 0.  0.
         13    1    3    3    0    0  0.24040378892E+02 -0.31159924771E+02 -0.38078313778E+02  0.54761755571E+02  0.10566000000E+00 0. -1.
         22    1    1    0    0    0 -0.45665088905E+01 -0.20393156740E+01  0.30741729369E+02  0.31145878322E+02  0.00000000000E+00 0. -1.
</event>
<event>
 5    1  0.1258624E-009  0.9118800E+02  0.7815553E-02  0.1125453E+00
         25   -1    0    0    0    0  0.00000000000E+00  0.00000000000E+00  0.99999998245E-14  0.12509000000E+03  0.12509000000E+03 0.  0.
        -13    1    3    3    0    0  0.14349954434E+02  0.24330882742E+02  0.38416551483E+02  0.47683913840E+02  0.10566000000E+00 0. -1.
         23    2    1    0    0    0  0.29343603914E+02  0.36179878007E+01 -0.19413464658E+01  0.95460525613E+02  0.90745832950E+02 0.  0.
         13    1    3    3    0    0  0.14993649479E+02 -0.20712894941E+02 -0.40357897949E+02  0.47776611772E+02  0.10566000000E+00 0.  1.
         22    1    1    0    0    0 -0.29343603914E+02 -0.36179878007E+01  0.19413464658E+01  0.29629474387E+02  0.00000000000E+00 0.  1.
</event>
<event>
 5    1  0.1258624E-009  0.9118800E+02  0.7815553E-02  0.1125453E+00
         25   -1    0    0    0    0  0.00000000000E+00  0.00000000000E+00  0.99999998245E-14  0.12509000000E+03  0.12509000000E+03 0.  0.
        -13    1    3    3    0    0 -0.14240866758E+01 -0.87584243900E+01  0.39325307837E+02  0.40314129300E+02  0.10566000000E+00 0. -1.
         23    2    1    0    0    0 -0.29851219499E+02  0.47292548479E-01 -0.61019302513E+01  0.94621473699E+02  0.89581762598E+02 0.  0.
         13    1    3    3    0    0 -0.28427132823E+02  0.88057169385E+01 -0.45427238089E+02  0.54307344400E+02  0.10566000000E+00 0.  1.
         22    1    1    0    0    0  0.29851219499E+02 -0.47292548479E-01  0.61019302513E+01  0.30468526301E+02  0.00000000000E+00 0.  1.
</event>
<event>
 5    1  0.1258624E-009  0.9118800E+02  0.7815553E-02  0.1125453E+00
         25   -1    0    0    0    0  0.00000000000E+00  0.00000000000E+00  0.99999998245E-14  0.12509000000E+03  0.12509000000E+03 0.  0.
        -13    1    3    3    0    0 -0.23436619010E+02  0.24298882469E+02  0.23466950230E+01  0.33841231382E+02  0.10566000000E+00 0. -1.
         23    2    1    0    0    0 -0.22738608121E+02 -0.29463769495E+02 -0.22478507675E+01  0.87804468688E+02  0.79494741187E+02 0.  0.
         13    1    3    3    0    0  0.69801088902E+00 -0.53762651964E+02 -0.45945457905E+01  0.53963237306E+02  0.10566000000E+00 0.  1.
         22    1    1    0    0    0  0.22738608121E+02  0.29463769495E+02  0.22478507675E+01  0.37285531312E+02  0.00000000000E+00 0.  1.
</event>
<event>
 5    1  0.1258624E-009  0.9118800E+02  0.7815553E-02  0.1125453E+00
         25   -1    0    0    0    0  0.00000000000E+00  0.00000000000E+00  0.99999998245E-14  0.12509000000E+03  0.12509000000E+03 0.  0.
        -13    1    3    3    0    0 -0.42998999837E+01  0.44291176473E+02 -0.35831925508E+00  0.44500977629E+02  0.10566000000E+00 0. -1.
         23    2    1    0    0    0 -0.99668156411E+01  0.21487624373E+01 -0.28049749551E+02  0.95244681373E+02  0.90447809736E+02 0.  0.
         13    1    3    3    0    0 -0.56669156574E+01 -0.42142414036E+02 -0.27691430296E+02  0.50743703744E+02  0.10566000000E+00 0.  1.
         22    1    1    0    0    0  0.99668156411E+01 -0.21487624373E+01  0.28049749551E+02  0.29845318627E+02  0.00000000000E+00 0. -1.
</event>
<event>
 5    1  0.1258624E-009  0.9118800E+02  0.7815553E-02  0.1125453E+00
         25   -1    0    0    0    0  0.00000000000E+00  0.00000000000E+00  0.99999998245E-14  0.12509000000E+03  0.12509000000E+03 0.  0.
        -13    1    3    3    0    0 -0.20059327513E+02 -0.62789791197E+01 -0.29768548221E+02  0.36441457521E+02  0.10566000000E+00 0. -1.
         23    2    1    0    0    0  0.14462178908E+02  0.26277934543E+02  0.42055456078E+01  0.94801865748E+02  0.89833304919E+02 0.  0.
         13    1    3    3    0    0  0.34521506421E+02  0.32556913663E+02  0.33974093829E+02  0.58360408226E+02  0.10566000000E+00 0.  1.
         22    1    1    0    0    0 -0.14462178908E+02 -0.26277934543E+02 -0.42055456078E+01  0.30288134252E+02  0.00000000000E+00 0.  1.
</event>
<event>
 5    1  0.1258624E-009  0.9118800E+02  0.7815553E-02  0.1125453E+00
         25   -1    0    0    0    0  0.00000000000E+00  0.00000000000E+00  0.99999998245E-14  0.12509000000E+03  0.12509000000E+03 0.  0.
        -13    1    3    3    0    0  0.22928954560E+01  0.27800252290E+02  0.18466187975E+02  0.33453290710E+02  0.10566000000E+00 0.  1.
         23    2    1    0    0    0  0.52643559356E+01  0.22997410512E+00 -0.32870045364E+02  0.91800268644E+02  0.85551640015E+02 0.  0.
         13    1    3    3    0    0  0.29714604796E+01 -0.27570278185E+02 -0.51336233339E+02  0.58346977934E+02  0.10566000000E+00 0. -1.
         22    1    1    0    0    0 -0.52643559356E+01 -0.22997410512E+00  0.32870045364E+02  0.33289731356E+02  0.00000000000E+00 0.  1.
</event>
<event>
 5    1  0.1258624E-009  0.9118800E+02  0.7815553E-02  0.1125453E+00
         25   -1    0    0    0    0  0.00000000000E+00  0.00000000000E+00  0.99999998245E-14  0.12509000000E+03  0.12509000000E+03 0.  0.
        -13    1    3    3    0    0  0.29566385124E+00  0.30546702726E+01 -0.39009801388E+02  0.39130476562E+02  0.10566000000E+00 0.  1.
         23    2    1    0    0    0 -0.26228338942E+02  0.24782871754E+01  0.11624469653E+02  0.96294237019E+02  0.91887888850E+02 0.  0.
         13    1    3    3    0    0 -0.26524002793E+02 -0.57638309715E+00  0.50634271041E+02  0.57163760457E+02  0.10566000000E+00 0. -1.
         22    1    1    0    0    0  0.26228338942E+02 -0.24782871754E+01 -0.11624469653E+02  0.28795762981E+02  0.00000000000E+00 0. -1.
</event>
<event>
 5    1  0.1258624E-009  0.9118800E+02  0.7815553E-02  0.1125453E+00
         25   -1    0    0    0    0  0.00000000000E+00  0.00000000000E+00  0.99999998245E-14  0.12509000000E+03  0.12509000000E+03 0.  0.
        -13    1    3    3    0    0  0.28943654252E+01 -0.22031432246E+02 -0.24536954752E+02  0.33103393641E+02  0.10566000000E+00 0.  1.
         23    2    1    0    0    0 -0.75465262035E+01  0.18238866307E+02  0.22005742845E+02  0.95528893456E+02  0.90840026778E+02 0.  0.
         13    1    3    3    0    0 -0.10440891629E+02  0.40270298553E+02  0.46542697598E+02  0.62425499815E+02  0.10566000000E+00 0. -1.
         22    1    1    0    0    0  0.75465262035E+01 -0.18238866307E+02 -0.22005742845E+02  0.29561106544E+02  0.00000000000E+00 0. -1.
</event>
<event>
 5    1  0.1258624E-009  0.9118800E+02  0.7815553E-02  0.1125453E+00
         25   -1    0    0    0    0  0.00000000000E+00  0.00000000000E+00  0.99999998245E-14  0.12509000000E+03  0.12509000000E+03 0.  0.
        -13    1    3    3    0    0 -0.40452550465E+02 -0.42297397791E+02  0.14425558454E+02  0.60279238547E+02  0.10566000000E+00 0. -1.
         23    2    1    0    0    0 -0.19257117592E+02 -0.29506312519E+02 -0.16839898943E+01  0.89815435816E+02  0.82598532871E+02 0.  0.
         13    1    3    3    0    0  0.21195432873E+02  0.12791085272E+02 -0.16109548349E+02  0.29536197270E+02  0.10566000000E+00 0.  1.
         22    1    1    0    0    0  0.19257117592E+02  0.29506312519E+02  0.16839898943E+01  0.35274564184E+02  0.00000000000E+00 0. -1.
</event>
<event>
 5    1  0.1258624E-009  0.9118800E+02  0.7815553E-02  0.1125453E+00
         25   -1    0    0    0    0  0.00000000000E+00  0.00000000000E+00  0.99999998245E-14  0.12509000000E+03  0.12509000000E+03 0.  0.
        -13    1    3    3    0    0  0.29663033655E+02 -0.98870922786E+01 -0.41706034714E+02  0.52125374387E+02  0.10566000000E+00 0.  1.
         23    2    1    0    0    0  0.52090273178E+01  0.19875228288E+02 -0.20358985397E+02  0.96165149932E+02  0.91711990001E+02 0.  0.
         13    1    3    3    0    0 -0.24454006338E+02  0.29762320566E+02  0.21347049317E+02  0.44039775545E+02  0.10566000000E+00 0. -1.
         22    1    1    0    0    0 -0.52090273178E+01 -0.19875228288E+02  0.20358985397E+02  0.28924850068E+02  0.00000000000E+00 0.  1.
</event>
<event>
 5    1  0.1258624E-009  0.9118800E+02  0.7815553E-02  0.1125453E+00
         25   -1    0    0    0    0  0.00000000000E+00  0.00000000000E+00  0.99999998245E-14  0.12509000000E+03  0.12509000000E+03 0.  0.
        -13    1    3    3    0    0  0.19954018181E+02 -0.39490011593E+02  0.20923287859E+02  0.48943017848E+02  0.10566000000E+00 0.  1.
         23    2    1    0    0    0 -0.77936563847E+01 -0.25092609829E+02 -0.13589484978E+02  0.95508684109E+02  0.90812193512E+02 0.  0.
         13    1    3    3    0    0 -0.27747674566E+02  0.14397401764E+02 -0.34512772837E+02  0.46565666261E+02  0.10566000000E+00 0. -1.
         22    1    1    0    0    0  0.77936563847E+01  0.25092609829E+02  0.13589484978E+02  0.29581315891E+02  0.00000000000E+00 0.  1.
</event>
<event>
 5    1  0.1258624E-009  0.9118800E+02  0.7815553E-02  0.1125453E+00
         25   -1    0    0    0    0  0.00000000000E+00  0.00000000000E+00  0.99999998245E-14  0.12509000000E+03  0.12509000000E+03 0.  0.
        -13    1    3    3    0    0 -0.25727093949E+02  0.16818620435E+02 -0.20279791478E+02  0.36824318905E+02  0.10566000000E+00 0. -1.
         23    2    1    0    0    0  0.59464260741E+01  0.11608846234E+02  0.27654644841E+02  0.94513789064E+02  0.89431267731E+02 0.  0.
         13    1    3    3    0    0  0.31673520023E+02 -0.52097742011E+01  0.47934436319E+02  0.57689470159E+02  0.10566000000E+00 0.  1.
         22    1    1    0    0    0 -0.59464260741E+01 -0.11608846234E+02 -0.27654644841E+02  0.30576210936E+02  0.00000000000E+00 0.  1.
</event>
<event>
 5    1  0.1258624E-009  0.9118800E+02  0.7815553E-02  0.1125453E+00
         25   -1    0    0    0    0  0.00000000000E+00  0.00000000000E+00  0.99999998245E-14  0.12509000000E+03  0.12509000000E+03 0.  0.
        -13    1    3    3    0    0 -0.87806409385E+01 -0.38520326780E+02 -0.27754048828E+01  0.39605924643E+02  0.10566000000E+00 0.  1.
         23    2    1    0    0    0  0.24408953189E+02  0.59858926391E+01 -0.14106539810E+02  0.96269480021E+02  0.91854180153E+02 0.  0.
         13    1    3    3    0    0  0.33189594127E+02  0.44506219419E+02 -0.11331134927E+02  0.56663555378E+02  0.10566000000E+00 0. -1.
         22    1    1    0    0    0 -0.24408953189E+02 -0.59858926391E+01  0.14106539810E+02  0.28820519979E+02  0.00000000000E+00 0. -1.
</event>
<event>
 5    1  0.1258624E-009  0.9118800E+02  0.7815553E-02  0.1125453E+00
         25   -1    0    0    0    0  0.00000000000E+00  0.00000000000E+00  0.99999998245E-14  0.12509000000E+03  0.12509000000E+03 0.  0.
        -13    1    3    3    0    0  0.58854235361E+01  0.43056668714E+02  0.88849022006E+01  0.44356144807E+02  0.10566000000E+00 0.  1.
         23    2    1    0    0    0  0.24339214511E+02  0.16335090367E+01 -0.15838024577E+02  0.96005489736E+02  0.91493963309E+02 0.  0.
         13    1    3    3    0    0  0.18453790975E+02 -0.41423159678E+02 -0.24722926778E+02  0.51649344929E+02  0.10566000000E+00 0. -1.
         22    1    1    0    0    0 -0.24339214511E+02 -0.16335090367E+01  0.15838024577E+02  0.29084510264E+02  0.00000000000E+00 0. -1.
</event>
<event>
 5    1  0.1258624E-009  0.9118800E+02  0.7815553E-02  0.1125453E+00
         25   -1    0    0    0    0  0.00000000000E+00  0.00000000000E+00  0.99999998245E-14  0.12509000000E+03  0.12509000000E+03 0.  0.
        -13    1    3    3    0    0  0.30102954492E+02  0.11158662716E+02  0.45638673889E+02  0.55799671515E+02  0.10566000000E+00 0.  1.
         23    2    1    0    0    0  0.16225843787E+01  0.21143077966E+02  0.13173469888E+02  0.10012596918E+03  0.96963946234E+02 0.  0.
         13    1    3    3    0    0 -0.28480370113E+02  0.99844152506E+01 -0.32465204002E+02  0.44326297664E+02  0.10566000000E+00 0. -1.
         22    1    1    0    0    0 -0.16225843787E+01 -0.21143077966E+02 -0.13173469888E+02  0.24964030821E+02  0.00000000000E+00 0.  1.
</event>
<event>
 5    1  0.1258624E-009  0.9118800E+02  0.7815553E-02  0.1125453E+00
         25   -1    0    0    0    0  0.00000000000E+00  0.00000000000E+00  0.99999998245E-14  0.12509000000E+03  0.12509000000E+03 0.  0.
        -13    1    3    3    0    0  0.41324224402E+02 -0.59223188980E+01  0.22473376906E+02  0.47411277321E+02  0.10566000000E+00 0.  1.
         23    2    1    0    0    0  0.25471284293E+02  0.15140350169E+02 -0.13921974149E+02  0.92351064602E+02  0.86353235273E+02 0.  0.
         13    1    3    3    0    0 -0.15852940109E+02  0.21062669068E+02 -0.36395351056E+02  0.44939787281E+02  0.10566000000E+00 0. -1.
         22    1    1    0    0    0 -0.25471284293E+02 -0.15140350169E+02  0.13921974149E+02  0.32738935398E+02  0.00000000000E+00 0.  1.
</event>
<event>
 5    1  0.1258624E-009  0.9118800E+02  0.7815553E-02  0.1125453E+00
         25   -1    0    0    0    0  0.00000000000E+00  0.00000000000E+00  0.99999998245E-14  0.12509000000E+03  0.12509000000E+03 0.  0.
        -13    1    3    3    0    0  0.26910201358E+02 -0.76238512359E+01  0.38455831921E-01  0.27969531417E+02  0.10566000000E+00 0. -1.
         23    2    1    0    0    0 -0.20798766085E+02 -0.22155160428E+02  0.26802985530E+02  0.84570377129E+02  0.74231454588E+02 0.  0.
         13    1    3    3    0    0 -0.47708967443E+02 -0.14531309192E+02  0.26764529698E+02  0.56600845712E+02  0.10566000000E+00 0.  1.
         22    1    1    0    0    0  0.20798766085E+02  0.22155160428E+02 -0.26802985530E+02  0.40519622871E+02  0.00000000000E+00 0.  1.
</event>
<event>
 5    1  0.1258624E-009  0.9118800E+02  0.7815553E-02  0.1125453E+00
         25   -1    0    0    0    0  0.00000000000E+00  0.00000000000E+00  0.99999998245E-14  0.12509000000E+03  0.12509000000E+03 0.  0.
        -13    1    3    3    0    0 -0.12802989766E+01 -0.37133716231E+02 -0.20568012099E+02  0.42468886639E+02  0.10566000000E+00 0.  1.
         23    2    1    0    0    0 -0.94712841807E+01  0.14260688708E+02 -0.25098630112E+02  0.94708859469E+02  0.89703703167E+02 0.  0.
         13    1    3    3    0    0 -0.81909852041E+01  0.51394404939E+02 -0.45306180132E+01  0.52239972830E+02  0.10566000000E+00 0. -1.
         22    1    1    0    0    0  0.94712841807E+01 -0.14260688708E+02  0.25098630112E+02  0.30381140531E+02  0.00000000000E+00 0.  1.
</event>
<event>
 5    1  0.1258624E-009  0.9118800E+02  0.7815553E-02  0.1125453E+00
         25   -1    0    0    0    0  0.00000000000E+00  0.00000000000E+00  0.99999998245E-14  0.12509000000E+03  0.12509000000E+03 0.  0.
        -13    1    3    3    0    0 -0.25114720196E+02 -0.34235404559E+01  0.53288185733E+02  0.59009420456E+02  0.10566000000E+00 0.  1.
         23    2    1    0    0    0 -0.24464716986E+02 -0.40445596165E+01  0.17664236618E+02  0.94644867466E+02  0.89614423185E+02 0.  0.
         13    1    3    3    0    0  0.65000320968E+00 -0.62101916060E+00 -0.35623949116E+02  0.35635447010E+02  0.10566000000E+00 0. -1.
         22    1    1    0    0    0  0.24464716986E+02  0.40445596165E+01 -0.17664236618E+02  0.30445132534E+02  0.00000000000E+00 0.  1.
</event>
<event>
 5    1  0.1258624E-009  0.9118800E+02  0.7815553E-02  0.1125453E+00
         25   -1    0    0    0    0  0.00000000000E+00  0.00000000000E+00  0.99999998245E-14  0.12509000000E+03  0.12509000000E+03 0.  0.
        -13    1    3    3    0    0 -0.34905004593E+02  0.31053344837E+02 -0.17623903309E+02  0.49932781848E+02  0.10566000000E+00 0.  1.
         23    2    1    0    0    0  0.12164740201E+02  0.20408912809E+02 -0.11862634173E+02  0.98533894944E+02  0.94887837667E+02 0.  0.
         13    1    3    3    0    0  0.47069744794E+02 -0.10644432027E+02  0.57612691356E+01  0.48601113097E+02  0.10566000000E+00 0. -1.
         22    1    1    0    0    0 -0.12164740201E+02 -0.20408912809E+02  0.11862634173E+02  0.26556105056E+02  0.00000000000E+00 0. -1.
</event>
<event>
 5    1  0.1258624E-009  0.9118800E+02  0.7815553E-02  0.1125453E+00
         25   -1    0    0    0    0  0.00000000000E+00  0.00000000000E+00  0.99999998245E-14  0.12509000000E+03  0.12509000000E+03 0.  0.
        -13    1    3    3    0    0 -0.20721564361E+02 -0.21963655629E+02  0.19313293284E+02  0.35844104950E+02  0.10566000000E+00 0.  1.
         23    2    1    0    0    0  0.51313562873E+01  0.57439970300E+01 -0.27763130740E+02  0.96278270658E+02  0.91866150748E+02 0.  0.
         13    1    3    3    0    0  0.25852920648E+02  0.27707652659E+02 -0.47076424024E+02  0.60434165708E+02  0.10566000000E+00 0. -1.
         22    1    1    0    0    0 -0.51313562873E+01 -0.57439970300E+01  0.27763130740E+02  0.28811729342E+02  0.00000000000E+00 0. -1.
</event>
<event>
 5    1  0.1258624E-009  0.9118800E+02  0.7815553E-02  0.1125453E+00
         25   -1    0    0    0    0  0.00000000000E+00  0.00000000000E+00  0.99999998245E-14  0.12509000000E+03  0.12509000000E+03 0.  0.
        -13    1    3    3    0    0  0.23955483866E+02  0.30474366532E+02 -0.37695613369E+02  0.54069609339E+02  0.10566000000E+00 0.  1.
         23    2    1    0    0    0  0.53688167364E+01  0.27168596533E+02  0.12691907663E+01  0.97366946851E+02  0.93336780869E+02 0.  0.
         13    1    3    3    0    0 -0.18586667130E+02 -0.33057699989E+01  0.38964804135E+02  0.43297337512E+02  0.10566000000E+00 0. -1.
         22    1    1    0    0    0 -0.53688167364E+01 -0.27168596533E+02 -0.12691907663E+01  0.27723053149E+02  0.00000000000E+00 0.  1.
</event>
<event>
 5    1  0.1258624E-009  0.9118800E+02  0.7815553E-02  0.1125453E+00
         25   -1    0    0    0    0  0.00000000000E+00  0.00000000000E+00  0.99999998245E-14  0.12509000000E+03  0.12509000000E+03 0.  0.
        -13    1    3    3    0    0  0.23671498944E+02  0.42517386046E+02  0.26520489354E+02  0.55420352742E+02  0.10566000000E+00 0. -1.
         23    2    1    0    0    0  0.22109814080E+02  0.23967412018E+01  0.18031705018E+02  0.96459061614E+02  0.92111996692E+02 0.  0.
         13    1    3    3    0    0 -0.15616848639E+01 -0.40120644844E+02 -0.84887843362E+01  0.41038708872E+02  0.10566000000E+00 0.  1.
         22    1    1    0    0    0 -0.22109814080E+02 -0.23967412018E+01 -0.18031705018E+02  0.28630938386E+02  0.00000000000E+00 0. -1.
</event>
<event>
 5    1  0.1258624E-009  0.9118800E+02  0.7815553E-02  0.1125453E+00
         25   -1    0    0    0    0  0.00000000000E+00  0.00000000000E+00  0.99999998245E-14  0.12509000000E+03  0.12509000000E+03 0.  0.
        -13    1    3    3    0    0 -0.33392691378E+01 -0.47102769489E+02 -0.17516605497E+02  0.50365307942E+02  0.10566000000E+00 0.  1.
         23    2    1    0    0    0 -0.18205305337E+02 -0.17604190193E+02  0.14112074118E+02  0.96098772178E+02  0.91621409744E+02 0.  0.
         13    1    3    3    0    0 -0.14866036199E+02  0.29498579296E+02  0.31628679615E+02  0.45733464236E+02  0.10566000000E+00 0. -1.
         22    1    1    0    0    0  0.18205305337E+02  0.17604190193E+02 -0.14112074118E+02  0.28991227822E+02  0.00000000000E+00 0. -1.
</event>
<event>
 5    1  0.1258624E-009  0.9118800E+02  0.7815553E-02  0.1125453E+00
         25   -1    0    0    0    0  0.00000000000E+00  0.00000000000E+00  0.99999998245E-14  0.12509000000E+03  0.12509000000E+03 0.  0.
        -13    1    3    3    0    0  0.33235823064E+02 -0.49839496651E+01  0.34236436538E+01  0.33781536213E+02  0.10566000000E+00 0.  1.
         23    2    1    0    0    0 -0.26986131384E+02  0.99118942078E+01 -0.31653848334E+01  0.96167403384E+02  0.91715063532E+02 0.  0.
         13    1    3    3    0    0 -0.60221954448E+02  0.14895843873E+02 -0.65890284872E+01  0.62385867171E+02  0.10566000000E+00 0. -1.
         22    1    1    0    0    0  0.26986131384E+02 -0.99118942078E+01  0.31653848334E+01  0.28922596616E+02  0.00000000000E+00 0. -1.
</event>
<event>
 5    1  0.1258624E-009  0.9118800E+02  0.7815553E-02  0.1125453E+00
         25   -1    0    0    0    0  0.00000000000E+00  0.00000000000E+00  0.99999998245E-14  0.12509000000E+03  0.12509000000E+03 0.  0.
        -13    1    3    3    0    0 -0.78801151015E+01 -0.60026593786E+01  0.44896987656E+02  0.45976937678E+02  0.10566000000E+00 0.  1.
         23    2    1    0    0    0  0.14031576436E+02  0.23056245685E+02  0.10271099993E+02  0.96211442255E+02  0.91775108408E+02 0.  0.
         13    1    3    3    0    0  0.21911691538E+02  0.29058905064E+02 -0.34625887663E+02  0.50234504576E+02  0.10566000000E+00 0. -1.
         22    1    1    0    0    0 -0.14031576436E+02 -0.23056245685E+02 -0.10271099993E+02  0.28878557745E+02  0.00000000000E+00 0.  1.
</event>
<event>
 5    1  0.1258624E-009  0.9118800E+02  0.7815553E-02  0.1125453E+00
         25   -1    0    0    0    0  0.00000000000E+00  0.00000000000E+00  0.99999998245E-14  0.12509000000E+03  0.12509000000E+03 0.  0.
        -13    1    3    3    0    0 -0.30015044516E+02  0.13895237409E+02 -0.28813284463E+02  0.43865670468E+02  0.10566000000E+00 0. -1.
         23    2    1    0    0    0 -0.16890947548E+02 -0.23559180846E+02  0.45912903127E+01  0.95740058638E+02  0.91130344947E+02 0.  0.
         13    1    3    3    0    0  0.13124096968E+02 -0.37454418255E+02  0.33404574776E+02  0.51874388171E+02  0.10566000000E+00 0.  1.
         22    1    1    0    0    0  0.16890947548E+02  0.23559180846E+02 -0.45912903127E+01  0.29349941362E+02  0.00000000000E+00 0. -1.
</event>
<event>
 5    1  0.1258624E-009  0.9118800E+02  0.7815553E-02  0.1125453E+00
         25   -1    0    0    0    0  0.00000000000E+00  0.00000000000E+00  0.99999998245E-14  0.12509000000E+03  0.12509000000E+03 0.  0.
        -13    1    3    3    0    0 -0.28684441385E+02  0.95052519215E+01  0.53327459086E+02  0.61294176300E+02  0.10566000000E+00 0.  1.
         23    2    1    0    0    0 -0.11664549726E+02 -0.42286636314E+01  0.25881384275E+02  0.96388268895E+02  0.92015808491E+02 0.  0.
         13    1    3    3    0    0  0.17019891659E+02 -0.13733915553E+02 -0.27446074811E+02  0.35094092595E+02  0.10566000000E+00 0. -1.
         22    1    1    0    0    0  0.11664549726E+02  0.42286636314E+01 -0.25881384275E+02  0.28701731105E+02  0.00000000000E+00 0.  1.
</event>
<event>
 5    1  0.1258624E-009  0.9118800E+02  0.7815553E-02  0.1125453E+00
         25   -1    0    0    0    0  0.00000000000E+00  0.00000000000E+00  0.99999998245E-14  0.12509000000E+03  0.12509000000E+03 0.  0.
        -13    1    3    3    0    0  0.30716466066E+02 -0.21127287465E+02 -0.30954545471E+02  0.48456770554E+02  0.10566000000E+00 0. -1.
         23    2    1    0    0    0  0.11850354593E+02 -0.22883789968E+02  0.12930601131E+02  0.96257740414E+02  0.91838191384E+02 0.  0.
         13    1    3    3    0    0 -0.18866111473E+02 -0.17565025031E+01  0.43885146602E+02  0.47800969859E+02  0.10566000000E+00 0.  1.
         22    1    1    0    0    0 -0.11850354593E+02  0.22883789968E+02 -0.12930601131E+02  0.28832259586E+02  0.00000000000E+00 0. -1.
</event>
<event>
 5    1  0.1258624E-009  0.9118800E+02  0.7815553E-02  0.1125453E+00
         25   -1    0    0    0    0  0.00000000000E+00  0.00000000000E+00  0.99999998245E-14  0.12509000000E+03  0.12509000000E+03 0.  0.
        -13    1    3    3    0    0  0.15499353204E+02 -0.14612359990E+02  0.31260243884E+02  0.37828098365E+02  0.10566000000E+00 0.  1.
         23    2    1    0    0    0  0.14516225532E+02  0.18529080187E+02 -0.16768364165E+02  0.96189729187E+02  0.91745508599E+02 0.  0.
         13    1    3    3    0    0 -0.98312767180E+00  0.33141440177E+02 -0.48028608049E+02  0.58361630822E+02  0.10566000000E+00 0. -1.
         22    1    1    0    0    0 -0.14516225532E+02 -0.18529080187E+02  0.16768364165E+02  0.28900270813E+02  0.00000000000E+00 0. -1.
</event>
<event>
 5    1  0.1258624E-009  0.9118800E+02  0.7815553E-02  0.1125453E+00
         25   -1    0    0    0    0  0.00000000000E+00  0.00000000000E+00  0.99999998245E-14  0.12509000000E+03  0.12509000000E+03 0.  0.
        -13    1    3    3    0    0 -0.33445078023E+02 -0.27892438712E+02 -0.80020234974E+01  0.44278718651E+02  0.10566000000E+00 0. -1.
         23    2    1    0    0    0  0.89082015604E+01 -0.15125894079E+02 -0.27374632856E+02  0.92570478928E+02  0.86670492777E+02 0.  0.
         13    1    3    3    0    0  0.42353279583E+02  0.12766544633E+02 -0.19372609359E+02  0.48291760278E+02  0.10566000000E+00 0.  1.
         22    1    1    0    0    0 -0.89082015604E+01  0.15125894079E+02  0.27374632856E+02  0.32519521072E+02  0.00000000000E+00 0. -1.
</event>
<event>
 5    1  0.1258624E-009  0.9118800E+02  0.7815553E-02  0.1125453E+00
         25   -1    0    0    0    0  0.00000000000E+00  0.00000000000E+00  0.99999998245E-14  0.12509000000E+03  0.12509000000E+03 0.  0.
        -13    1    3    3    0    0 -0.52484830372E+02  0.26682390758E+02 -0.19777965555E+02  0.62111081791E+02  0.10566000000E+00 0. -1.
         23    2    1    0    0    0 -0.28046338924E+02  0.10586767310E+02 -0.57379187923E+01  0.94567868994E+02  0.89506878869E+02 0.  0.
         13    1    3    3    0    0  0.24438491448E+02 -0.16095623448E+02  0.14040046762E+02  0.32456787203E+02  0.10566000000E+00 0.  1.
         22    1    1    0    0    0  0.28046338924E+02 -0.10586767310E+02  0.57379187923E+01  0.30522131006E+02  0.00000000000E+00 0. -1.
</event>
<event>
 5    1  0.1258624E-009  0.9118800E+02  0.7815553E-02  0.1125453E+00
         25   -1    0    0    0    0  0.00000000000E+00  0.00000000000E+00  0.99999998245E-14  0.12509000000E+03  0.12509000000E+03 0.  0.
        -13    1    3    3    0    0  0.18795242114E+02 -0.22171571983E+02  0.18652103561E+02  0.34536239830E+02  0.10566000000E+00 0.  1.
         23    2    1    0    0    0 -0.25812400805E+02 -0.77946507391E+00 -0.15793945080E+02  0.94818952739E+02  0.89857094858E+02 0.  0.
         13    1    3    3    0    0 -0.44607642919E+02  0.21392106909E+02 -0.34446048640E+02  0.60282712909E+02  0.10566000000E+00 0. -1.
         22    1    1    0    0    0  0.25812400805E+02  0.77946507391E+00  0.15793945080E+02  0.30271047261E+02  0.00000000000E+00 0. -1.
</event>
<event>
 5    1  0.1258624E-009  0.9118800E+02  0.7815553E-02  0.1125453E+00
         25   -1    0    0    0    0  0.00000000000E+00  0.00000000000E+00  0.99999998245E-14  0.12509000000E+03  0.12509000000E+03 0.  0.
        -13    1    3    3    0    0  0.86250569045E+01  0.20449274022E+02  0.25649802289E+02  0.33918843379E+02  0.10566000000E+00 0.  1.
         23    2    1    0    0    0 -0.90509428151E+01  0.69334483122E+01 -0.29540303421E+02  0.93425796275E+02  0.87896288955E+02 0.  0.
         13    1    3    3    0    0 -0.17675999720E+02 -0.13515825710E+02 -0.55190105710E+02  0.59506952896E+02  0.10566000000E+00 0. -1.
         22    1    1    0    0    0  0.90509428151E+01 -0.69334483122E+01  0.29540303421E+02  0.31664203725E+02  0.00000000000E+00 0. -1.
</event>
<event>
 5    1  0.1258624E-009  0.9118800E+02  0.7815553E-02  0.1125453E+00
         25   -1    0    0    0    0  0.00000000000E+00  0.00000000000E+00  0.99999998245E-14  0.12509000000E+03  0.12509000000E+03 0.  0.
        -13    1    3    3    0    0  0.26506092490E+02  0.12922302963E+02  0.45459899384E+02  0.54186460200E+02  0.10566000000E+00 0. -1.
         23    2    1    0    0    0  0.93148874435E+01 -0.15873244770E+02  0.26840789806E+02  0.92545337995E+02  0.86634199712E+02 0.  0.
         13    1    3    3    0    0 -0.17191205046E+02 -0.28795547733E+02 -0.18619109578E+02  0.38358877795E+02  0.10566000000E+00 0.  1.
         22    1    1    0    0    0 -0.93148874435E+01  0.15873244770E+02 -0.26840789806E+02  0.32544662005E+02  0.00000000000E+00 0. -1.
</event>
<event>
 5    1  0.1258624E-009  0.9118800E+02  0.7815553E-02  0.1125453E+00
         25   -1    0    0    0    0  0.00000000000E+00  0.00000000000E+00  0.99999998245E-14  0.12509000000E+03  0.12509000000E+03 0.  0.
        -13    1    3    3    0    0 -0.35441304876E+02 -0.31094077374E+02 -0.36611565887E+02  0.59693765670E+02  0.10566000000E+00 0. -1.
         23    2    1    0    0    0 -0.25191484747E+02 -0.14070372327E+02 -0.69270006215E+01  0.95415606682E+02  0.90683892614E+02 0.  0.
         13    1    3    3    0    0  0.10249820129E+02  0.17023705047E+02  0.29684565266E+02  0.35721841012E+02  0.10566000000E+00 0.  1.
         22    1    1    0    0    0  0.25191484747E+02  0.14070372327E+02  0.69270006215E+01  0.29674393318E+02  0.00000000000E+00 0. -1.
</event>
<event>
 5    1  0.1258624E-009  0.9118800E+02  0.7815553E-02  0.1125453E+00
         25   -1    0    0    0    0  0.00000000000E+00  0.00000000000E+00  0.99999998245E-14  0.12509000000E+03  0.12509000000E+03 0.  0.
        -13    1    3    3    0    0 -0.10883759992E+02 -0.29610400542E+02 -0.13363209852E+02  0.34261036082E+02  0.10566000000E+00 0.  1.
         23    2    1    0    0    0  0.12548066907E+02  0.19946104833E+02  0.16153898026E+02  0.96519919452E+02  0.92194605853E+02 0.  0.
         13    1    3    3    0    0  0.23431826900E+02  0.49556505375E+02  0.29517107878E+02  0.62258883369E+02  0.10566000000E+00 0. -1.
         22    1    1    0    0    0 -0.12548066907E+02 -0.19946104833E+02 -0.16153898026E+02  0.28570080548E+02  0.00000000000E+00 0. -1.
</event>
<event>
 5    1  0.1258624E-009  0.9118800E+02  0.7815553E-02  0.1125453E+00
         25   -1    0    0    0    0  0.00000000000E+00  0.00000000000E+00  0.99999998245E-14  0.12509000000E+03  0.12509000000E+03 0.  0.
        -13    1    3    3    0    0 -0.54096288186E+02  0.59939199383E+01 -0.27809053791E+01  0.54498440991E+02  0.10566000000E+00 0.  1.
         23    2    1    0    0    0 -0.20018922547E+02  0.78132255280E+01 -0.22552609101E+02  0.93938371947E+02  0.88622761149E+02 0.  0.
         13    1    3    3    0    0  0.34077365639E+02  0.18193055897E+01 -0.19771703722E+02  0.39439930956E+02  0.10566000000E+00 0. -1.
         22    1    1    0    0    0  0.20018922547E+02 -0.78132255280E+01  0.22552609101E+02  0.31151628053E+02  0.00000000000E+00 0.  1.
</event>
<event>
 5    1  0.1258624E-009  0.9118800E+02  0.7815553E-02  0.1125453E+00
         25   -1    0    0    0    0  0.00000000000E+00  0.00000000000E+00  0.99999998245E-14  0.12509000000E+03  0.12509000000E+03 0.  0.
        -13    1    3    3    0    0  0.22094906058E+02  0.41572946569E+02  0.12885371265E+02  0.48811256046E+02  0.10566000000E+00 0.  1.
         23    2    1    0    0    0 -0.11788627086E+02  0.16488568107E+02  0.25217395435E+02  0.92736304086E+02  0.86909495777E+02 0.  0.
         13    1    3    3    0    0 -0.33883533144E+02 -0.25084378462E+02  0.12332024170E+02  0.43925048040E+02  0.10566000000E+00 0. -1.
         22    1    1    0    0    0  0.11788627086E+02 -0.16488568107E+02 -0.25217395435E+02  0.32353695914E+02  0.00000000000E+00 0.  1.
</event>
<event>
 5    1  0.1258624E-009  0.9118800E+02  0.7815553E-02  0.1125453E+00
         25   -1    0    0    0    0  0.00000000000E+00  0.00000000000E+00  0.99999998245E-14  0.12509000000E+03  0.12509000000E+03 0.  0.
        -13    1    3    3    0    0 -0.29497396516E+02  0.79655421197E+01  0.19501319049E+02  0.36247191218E+02  0.10566000000E+00 0.  1.
         23    2    1    0    0    0 -0.16722811222E+01 -0.33595635238E+02 -0.34475673133E+01  0.91276556645E+02  0.84782432386E+02 0.  0.
         13    1    3    3    0    0  0.27825115394E+02 -0.41561177357E+02 -0.22948886363E+02  0.55029365427E+02  0.10566000000E+00 0. -1.
         22    1    1    0    0    0  0.16722811222E+01  0.33595635238E+02  0.34475673133E+01  0.33813443355E+02  0.00000000000E+00 0. -1.
</event>
<event>
 5    1  0.1258624E-009  0.9118800E+02  0.7815553E-02  0.1125453E+00
         25   -1    0    0    0    0  0.00000000000E+00  0.00000000000E+00  0.99999998245E-14  0.12509000000E+03  0.12509000000E+03 0.  0.
        -13    1    3    3    0    0 -0.16714167487E+02  0.33623149156E+02 -0.13768219116E+02  0.39993181614E+02  0.10566000000E+00 0.  1.
         23    2    1    0    0    0 -0.53479046659E+01 -0.20208389078E+02 -0.20969397475E+02  0.95480969217E+02  0.90774009379E+02 0.  0.
         13    1    3    3    0    0  0.11366262821E+02 -0.53831538234E+02 -0.72011783593E+01  0.55487787602E+02  0.10566000000E+00 0. -1.
         22    1    1    0    0    0  0.53479046659E+01  0.20208389078E+02  0.20969397475E+02  0.29609030783E+02  0.00000000000E+00 0.  1.
</event>
<event>
 5    1  0.1258624E-009  0.9118800E+02  0.7815553E-02  0.1125453E+00
         25   -1    0    0    0    0  0.00000000000E+00  0.00000000000E+00  0.99999998245E-14  0.12509000000E+03  0.12509000000E+03 0.  0.
        -13    1    3    3    0    0 -0.15199555686E+02 -0.31689548900E+02  0.47935582430E+02  0.59439761351E+02  0.10566000000E+00 0.  1.
         23    2    1    0    0    0  0.62836572666E+01 -0.17867651204E+02  0.24633122928E+02  0.94017052708E+02  0.88733748634E+02 0.  0.
         13    1    3    3    0    0  0.21483212953E+02  0.13821897696E+02 -0.23302459502E+02  0.34577291357E+02  0.10566000000E+00 0. -1.
         22    1    1    0    0    0 -0.62836572666E+01  0.17867651204E+02 -0.24633122928E+02  0.31072947292E+02  0.00000000000E+00 0.  1.
</event>
<event>
 5    1  0.1258624E-009  0.9118800E+02  0.7815553E-02  0.1125453E+00
         25   -1    0    0    0    0  0.00000000000E+00  0.00000000000E+00  0.99999998245E-14  0.12509000000E+03  0.12509000000E+03 0.  0.
        -13    1    3    3    0    0 -0.30708210440E+02  0.37513909851E+02 -0.57404842238E+01  0.48818561469E+02  0.10566000000E+00 0.  1.
         23    2    1    0    0    0 -0.20791996376E+02 -0.12749829237E+02  0.19372485621E+01  0.10062332489E+03  0.97603459577E+02 0.  0.
         13    1    3    3    0    0  0.99162140639E+01 -0.50263739088E+02  0.76777327859E+01  0.51804763423E+02  0.10566000000E+00 0. -1.
         22    1    1    0    0    0  0.20791996376E+02  0.12749829237E+02 -0.19372485621E+01  0.24466675108E+02  0.00000000000E+00 0.  1.
</event>
<event>
 5    1  0.1258624E-009  0.9118800E+02  0.7815553E-02  0.1125453E+00
         25   -1    0    0    0    0  0.00000000000E+00  0.00000000000E+00  0.99999998245E-14  0.12509000000E+03  0.12509000000E+03 0.  0.
        -13    1    3    3    0    0  0.23554476307E+01 -0.35299536429E+02 -0.24601880017E+02  0.43091403667E+02  0.10566000000E+00 0.  1.
         23    2    1    0    0    0 -0.18318422829E+02 -0.10984125386E+02  0.18574752073E+02  0.96783869215E+02  0.92552041038E+02 0.  0.
         13    1    3    3    0    0 -0.20673870459E+02  0.24315411043E+02  0.43176632090E+02  0.53692465548E+02  0.10566000000E+00 0. -1.
         22    1    1    0    0    0  0.18318422829E+02  0.10984125386E+02 -0.18574752073E+02  0.28306130785E+02  0.00000000000E+00 0.  1.
</event>
<event>
 5    1  0.1258624E-009  0.9118800E+02  0.7815553E-02  0.1125453E+00
         25   -1    0    0    0    0  0.00000000000E+00  0.00000000000E+00  0.99999998245E-14  0.12509000000E+03  0.12509000000E+03 0.  0.
        -13    1    3    3    0    0  0.13760378923E+02  0.24164069069E+02  0.19731152587E+02  0.34096624591E+02  0.10566000000E+00 0. -1.
         23    2    1    0    0    0 -0.13451480797E+02 -0.40389819419E+01 -0.26739342741E+02  0.94886553822E+02  0.89951153051E+02 0.  0.
         13    1    3    3    0    0 -0.27211859721E+02 -0.28203051011E+02 -0.46470495329E+02  0.60789929231E+02  0.10566000000E+00 0.  1.
         22    1    1    0    0    0  0.13451480797E+02  0.40389819419E+01  0.26739342741E+02  0.30203446178E+02  0.00000000000E+00 0.  1.
</event>
<event>
 5    1  0.1258624E-009  0.9118800E+02  0.7815553E-02  0.1125453E+00
         25   -1    0    0    0    0  0.00000000000E+00  0.00000000000E+00  0.99999998245E-14  0.12509000000E+03  0.12509000000E+03 0.  0.
        -13    1    3    3    0    0  0.21825037770E+02  0.27248440997E+02  0.38526425057E+02  0.51991407003E+02  0.10566000000E+00 0.  1.
         23    2    1    0    0    0 -0.11991666574E+02  0.10588902944E+01  0.25804405114E+02  0.96615649452E+02  0.92324401324E+02 0.  0.
         13    1    3    3    0    0 -0.33816704344E+02 -0.26189550703E+02 -0.12722019943E+02  0.44624242449E+02  0.10566000000E+00 0. -1.
         22    1    1    0    0    0  0.11991666574E+02 -0.10588902944E+01 -0.25804405114E+02  0.28474350548E+02  0.00000000000E+00 0. -1.
</event>
<event>
 5    1  0.1258624E-009  0.9118800E+02  0.7815553E-02  0.1125453E+00
         25   -1    0    0    0    0  0.00000000000E+00  0.00000000000E+00  0.99999998245E-14  0.12509000000E+03  0.12509000000E+03 0.  0.
        -13    1    3    3    0    0  0.12188115023E+02  0.48135002102E+02  0.14019368450E+02  0.51595372186E+02  0.10566000000E+00 0. -1.
         23    2    1    0    0    0 -0.91228312356E+01  0.10440630036E+02  0.25209298527E+02  0.96319502306E+02  0.91922276881E+02 0.  0.
         13    1    3    3    0    0 -0.21310946258E+02 -0.37694372066E+02  0.11189930077E+02  0.44724130121E+02  0.10566000000E+00 0.  1.
         22    1    1    0    0    0  0.91228312356E+01 -0.10440630036E+02 -0.25209298527E+02  0.28770497694E+02  0.00000000000E+00 0. -1.
</event>
<event>
 5    1  0.1258624E-009  0.9118800E+02  0.7815553E-02  0.1125453E+00
         25   -1    0    0    0    0  0.00000000000E+00  0.00000000000E+00  0.99999998245E-14  0.12509000000E+03  0.12509000000E+03 0.  0.
        -13    1    3    3    0    0  0.39454366543E+02  0.13065922303E+02  0.41981729517E+02  0.59074885884E+02  0.10566000000E+00 0. -1.
         23    2    1    0    0    0  0.13136243237E+02 -0.58322026332E+01  0.26408360085E+02  0.95023790456E+02  0.90141798275E+02 0.  0.
         13    1    3    3    0    0 -0.26318123306E+02 -0.18898124936E+02 -0.15573369431E+02  0.35948904572E+02  0.10566000000E+00 0.  1.
         22    1    1    0    0    0 -0.13136243237E+02  0.58322026332E+01 -0.26408360085E+02  0.30066209544E+02  0.00000000000E+00 0. -1.
</event>
<event>
 5    1  0.1258624E-009  0.9118800E+02  0.7815553E-02  0.1125453E+00
         25   -1    0    0    0    0  0.00000000000E+00  0.00000000000E+00  0.99999998245E-14  0.12509000000E+03  0.12509000000E+03 0.  0.
        -13    1    3    3    0    0 -0.30593765791E+02 -0.14980628804E+02 -0.39802687630E+02  0.52389529977E+02  0.10566000000E+00 0.  1.
         23    2    1    0    0    0 -0.26708714711E+02 -0.11692929879E+02  0.32601111890E+01  0.95752168185E+02  0.91146965591E+02 0.  0.
         13    1    3    3    0    0  0.38850510796E+01  0.32876989250E+01  0.43062798819E+02  0.43362638207E+02  0.10566000000E+00 0. -1.
         22    1    1    0    0    0  0.26708714711E+02  0.11692929879E+02 -0.32601111890E+01  0.29337831815E+02  0.00000000000E+00 0. -1.
</event>
<event>
 4    1  0.1258624E-009  0.9118800E+02  0.7815553E-02  0.1125453E+00
         25   -1    0    0    0    0  0.00000000000E+00  0.00000000000E+00  0.99999998245E-14  0.12509000000E+03  0.12509000000E+03 0.  0.
        -13    1    1    0    0    0 -0.21751391080E+02 -0.15709032198E+02 -0.16220994820E+01  0.26880087003E+02  0.10566000000E+00 0.  1.
         13    1    1    0    0    0 -0.28081748687E+02  0.11944522923E+02 -0.26889829526E+02  0.40673459813E+02  0.10566000000E+00 0. -1.
         22    1    1    0    0    0  0.49833139767E+02  0.37645092748E+01  0.28511929008E+02  0.57536453184E+02  0.00000000000E+00 0. -1.
</event>
<event>
 5    1  0.1258624E-009  0.9118800E+02  0.7815553E-02  0.1125453E+00
         25   -1    0    0    0    0  0.00000000000E+00  0.00000000000E+00  0.99999998245E-14  0.12509000000E+03  0.12509000000E+03 0.  0.
        -13    1    3    3    0    0 -0.27047159105E+02 -0.73143755716E+01  0.21357018141E+02  0.35230417164E+02  0.10566000000E+00 0.  1.
         23    2    1    0    0    0  0.33575202420E+01  0.75025555012E+01 -0.28472497092E+02  0.95454811931E+02  0.90737956495E+02 0.  0.
         13    1    3    3    0    0  0.30404679347E+02  0.14816931073E+02 -0.49829515233E+02  0.60224394767E+02  0.10566000000E+00 0. -1.
         22    1    1    0    0    0 -0.33575202420E+01 -0.75025555012E+01  0.28472497092E+02  0.29635188069E+02  0.00000000000E+00 0. -1.
</event>
<event>
 5    1  0.1258624E-009  0.9118800E+02  0.7815553E-02  0.1125453E+00
         25   -1    0    0    0    0  0.00000000000E+00  0.00000000000E+00  0.99999998245E-14  0.12509000000E+03  0.12509000000E+03 0.  0.
        -13    1    3    3    0    0  0.35782364720E+02  0.31601000794E+02 -0.20613169020E+02  0.51999180544E+02  0.10566000000E+00 0.  1.
         23    2    1    0    0    0 -0.63522184498E+01  0.26317689661E+02 -0.12662357906E+02  0.95201761911E+02  0.90388432307E+02 0.  0.
         13    1    3    3    0    0 -0.42134583169E+02 -0.52833111330E+01  0.79508111142E+01  0.43202581367E+02  0.10566000000E+00 0. -1.
         22    1    1    0    0    0  0.63522184498E+01 -0.26317689661E+02  0.12662357906E+02  0.29888238089E+02  0.00000000000E+00 0.  1.
</event>
<event>
 5    1  0.1258624E-009  0.9118800E+02  0.7815553E-02  0.1125453E+00
         25   -1    0    0    0    0  0.00000000000E+00  0.00000000000E+00  0.99999998245E-14  0.12509000000E+03  0.12509000000E+03 0.  0.
        -13    1    3    3    0    0 -0.28173574488E+02 -0.10570386341E+02 -0.24794328764E+01  0.30193411835E+02  0.10566000000E+00 0.  1.
         23    2    1    0    0    0 -0.25530671091E+02  0.27017570894E+02 -0.30382652214E+02  0.77080939824E+02  0.60304240525E+02 0.  0.
         13    1    3    3    0    0  0.26429033968E+01  0.37587957235E+02 -0.27903219338E+02  0.46887527989E+02  0.10566000000E+00 0. -1.
         22    1    1    0    0    0  0.25530671091E+02 -0.27017570894E+02  0.30382652214E+02  0.48009060176E+02  0.00000000000E+00 0. -1.
</event>
<event>
 5    1  0.1258624E-009  0.9118800E+02  0.7815553E-02  0.1125453E+00
         25   -1    0    0    0    0  0.00000000000E+00  0.00000000000E+00  0.99999998245E-14  0.12509000000E+03  0.12509000000E+03 0.  0.
        -13    1    3    3    0    0 -0.21911390111E+02 -0.35344856607E+02 -0.32624522839E+02  0.52855828058E+02  0.10566000000E+00 0. -1.
         23    2    1    0    0    0 -0.15470596500E+02  0.55708147123E+01 -0.25296992961E+02  0.94918636334E+02  0.89995757333E+02 0.  0.
         13    1    3    3    0    0  0.64407936112E+01  0.40915671320E+02  0.73275298787E+01  0.42062808276E+02  0.10566000000E+00 0.  1.
         22    1    1    0    0    0  0.15470596500E+02 -0.55708147123E+01  0.25296992961E+02  0.30171363666E+02  0.00000000000E+00 0. -1.
</event>
<event>
 5    1  0.1258624E-009  0.9118800E+02  0.7815553E-02  0.1125453E+00
         25   -1    0    0    0    0  0.00000000000E+00  0.00000000000E+00  0.99999998245E-14  0.12509000000E+03  0.12509000000E+03 0.  0.
        -13    1    3    3    0    0 -0.23358896534E+02 -0.21280147962E+02 -0.47589020741E+01  0.31955297801E+02  0.10566000000E+00 0.  1.
         23    2    1    0    0    0  0.21459303564E+02  0.20256032844E+02  0.82883807742E+01  0.94438640619E+02  0.89326093669E+02 0.  0.
         13    1    3    3    0    0  0.44818200098E+02  0.41536180806E+02  0.13047282848E+02  0.62483342818E+02  0.10566000000E+00 0. -1.
         22    1    1    0    0    0 -0.21459303564E+02 -0.20256032844E+02 -0.82883807742E+01  0.30651359381E+02  0.00000000000E+00 0. -1.
</event>
<event>
 5    1  0.1258624E-009  0.9118800E+02  0.7815553E-02  0.1125453E+00
         25   -1    0    0    0    0  0.00000000000E+00  0.00000000000E+00  0.99999998245E-14  0.12509000000E+03  0.12509000000E+03 0.  0.
        -13    1    3    3    0    0  0.73562672020E+01 -0.42007602148E+02  0.24547133641E+02  0.49206973483E+02  0.10566000000E+00 0. -1.
         23    2    1    0    0    0  0.17226185589E+02 -0.19183117752E+02 -0.14507262973E+02  0.95506319438E+02  0.90808936217E+02 0.  0.
         13    1    3    3    0    0  0.98699183875E+01  0.22824484396E+02 -0.39054396614E+02  0.46299345954E+02  0.10566000000E+00 0.  1.
         22    1    1    0    0    0 -0.17226185589E+02  0.19183117752E+02  0.14507262973E+02  0.29583680562E+02  0.00000000000E+00 0. -1.
</event>
<event>
 5    1  0.1258624E-009  0.9118800E+02  0.7815553E-02  0.1125453E+00
         25   -1    0    0    0    0  0.00000000000E+00  0.00000000000E+00  0.99999998245E-14  0.12509000000E+03  0.12509000000E+03 0.  0.
        -13    1    3    3    0    0 -0.20150822223E+02 -0.30782472054E+02  0.10492891579E+02  0.38258700445E+02  0.10566000000E+00 0.  1.
         23    2    1    0    0    0 -0.16497343271E+02  0.25076055045E+02  0.84555124473E+00  0.95061916003E+02  0.90194689676E+02 0.  0.
         13    1    3    3    0    0  0.36534789525E+01  0.55858527099E+02 -0.96473403345E+01  0.56803215558E+02  0.10566000000E+00 0. -1.
         22    1    1    0    0    0  0.16497343271E+02 -0.25076055045E+02 -0.84555124473E+00  0.30028083997E+02  0.00000000000E+00 0. -1.
</event>
<event>
 5    1  0.1258624E-009  0.9118800E+02  0.7815553E-02  0.1125453E+00
         25   -1    0    0    0    0  0.00000000000E+00  0.00000000000E+00  0.99999998245E-14  0.12509000000E+03  0.12509000000E+03 0.  0.
        -13    1    3    3    0    0 -0.15922342243E+02  0.51597312277E+02 -0.26226022708E+02  0.60030151156E+02  0.10566000000E+00 0.  1.
         23    2    1    0    0    0 -0.17379046237E+02  0.16885213111E+02 -0.15224017439E+02  0.96473354898E+02  0.92131405223E+02 0.  0.
         13    1    3    3    0    0 -0.14567039944E+01 -0.34712099165E+02  0.11002005270E+02  0.36443203742E+02  0.10566000000E+00 0. -1.
         22    1    1    0    0    0  0.17379046237E+02 -0.16885213111E+02  0.15224017439E+02  0.28616645102E+02  0.00000000000E+00 0.  1.
</event>
<event>
 5    1  0.1258624E-009  0.9118800E+02  0.7815553E-02  0.1125453E+00
         25   -1    0    0    0    0  0.00000000000E+00  0.00000000000E+00  0.99999998245E-14  0.12509000000E+03  0.12509000000E+03 0.  0.
        -13    1    3    3    0    0  0.22007695159E+02 -0.87802844360E+01 -0.29342158423E+02  0.37714791077E+02  0.10566000000E+00 0.  1.
         23    2    1    0    0    0  0.13201724910E+02  0.18390401758E+02  0.20101387683E+02  0.94815287711E+02  0.89851992630E+02 0.  0.
         13    1    3    3    0    0 -0.88059702490E+01  0.27170686194E+02  0.49443546106E+02  0.57100496634E+02  0.10566000000E+00 0. -1.
         22    1    1    0    0    0 -0.13201724910E+02 -0.18390401758E+02 -0.20101387683E+02  0.30274712289E+02  0.00000000000E+00 0. -1.
</event>
<event>
 5    1  0.1258624E-009  0.9118800E+02  0.7815553E-02  0.1125453E+00
         25   -1    0    0    0    0  0.00000000000E+00  0.00000000000E+00  0.99999998245E-14  0.12509000000E+03  0.12509000000E+03 0.  0.
        -13    1    3    3    0    0 -0.32514449883E+02 -0.28386070780E+02 -0.32129153915E+02  0.53807547434E+02  0.10566000000E+00 0.  1.
         23    2    1    0    0    0 -0.26126028770E+02 -0.14978326694E+02  0.56931427238E+01  0.94441484148E+02  0.89330075586E+02 0.  0.
         13    1    3    3    0    0  0.63884211131E+01  0.13407744086E+02  0.37822296639E+02  0.40633936714E+02  0.10566000000E+00 0. -1.
         22    1    1    0    0    0  0.26126028770E+02  0.14978326694E+02 -0.56931427238E+01  0.30648515852E+02  0.00000000000E+00 0.  1.
</event>
<event>
 5    1  0.1258624E-009  0.9118800E+02  0.7815553E-02  0.1125453E+00
         25   -1    0    0    0    0  0.00000000000E+00  0.00000000000E+00  0.99999998245E-14  0.12509000000E+03  0.12509000000E+03 0.  0.
        -13    1    3    3    0    0  0.30526638896E+02 -0.26429107176E+02  0.94758984879E+01  0.41475019043E+02  0.10566000000E+00 0. -1.
         23    2    1    0    0    0 -0.21378357432E+02 -0.40757005701E+01  0.15590333204E+02  0.98318672221E+02  0.94603685532E+02 0.  0.
         13    1    3    3    0    0 -0.51904996328E+02  0.22353406606E+02  0.61144347165E+01  0.56843653178E+02  0.10566000000E+00 0.  1.
         22    1    1    0    0    0  0.21378357432E+02  0.40757005701E+01 -0.15590333204E+02  0.26771327779E+02  0.00000000000E+00 0.  1.
</event>
<event>
 5    1  0.1258624E-009  0.9118800E+02  0.7815553E-02  0.1125453E+00
         25   -1    0    0    0    0  0.00000000000E+00  0.00000000000E+00  0.99999998245E-14  0.12509000000E+03  0.12509000000E+03 0.  0.
        -13    1    3    3    0    0  0.29048960863E+02  0.22230283945E+02 -0.42443387946E+02  0.56031062777E+02  0.10566000000E+00 0. -1.
         23    2    1    0    0    0 -0.46003053819E+00  0.24252775933E+02 -0.13916966053E+02  0.97124115199E+02  0.93010768411E+02 0.  0.
         13    1    3    3    0    0 -0.29508991401E+02  0.20224919889E+01  0.28526421893E+02  0.41093052422E+02  0.10566000000E+00 0.  1.
         22    1    1    0    0    0  0.46003053819E+00 -0.24252775933E+02  0.13916966053E+02  0.27965884801E+02  0.00000000000E+00 0. -1.
</event>
<event>
 5    1  0.1258624E-009  0.9118800E+02  0.7815553E-02  0.1125453E+00
         25   -1    0    0    0    0  0.00000000000E+00  0.00000000000E+00  0.99999998245E-14  0.12509000000E+03  0.12509000000E+03 0.  0.
        -13    1    3    3    0    0 -0.76867005249E+01 -0.20374369693E+02  0.47266683473E+02  0.52041818146E+02  0.10566000000E+00 0. -1.
         23    2    1    0    0    0  0.16461373292E+02  0.73166338076E+01  0.95306548716E+01  0.10471002642E+03  0.10270757669E+03 0.  0.
         13    1    3    3    0    0  0.24148073817E+02  0.27691003501E+02 -0.37736028601E+02  0.52668208272E+02  0.10566000000E+00 0.  1.
         22    1    1    0    0    0 -0.16461373292E+02 -0.73166338076E+01 -0.95306548716E+01  0.20379973583E+02  0.00000000000E+00 0.  1.
</event>
<event>
 5    1  0.1258624E-009  0.9118800E+02  0.7815553E-02  0.1125453E+00
         25   -1    0    0    0    0  0.00000000000E+00  0.00000000000E+00  0.99999998245E-14  0.12509000000E+03  0.12509000000E+03 0.  0.
        -13    1    3    3    0    0  0.25620219725E+01  0.33338868287E+02  0.66314298605E+01  0.34088577578E+02  0.10566000000E+00 0. -1.
         23    2    1    0    0    0 -0.10597076471E+02 -0.26867558854E+02  0.52688522283E+01  0.95731448396E+02  0.91118525338E+02 0.  0.
         13    1    3    3    0    0 -0.13159098443E+02 -0.60206427141E+02 -0.13625776321E+01  0.61642870818E+02  0.10566000000E+00 0.  1.
         22    1    1    0    0    0  0.10597076471E+02  0.26867558854E+02 -0.52688522283E+01  0.29358551604E+02  0.00000000000E+00 0.  1.
</event>
<event>
 5    1  0.1258624E-009  0.9118800E+02  0.7815553E-02  0.1125453E+00
         25   -1    0    0    0    0  0.00000000000E+00  0.00000000000E+00  0.99999998245E-14  0.12509000000E+03  0.12509000000E+03 0.  0.
        -13    1    3    3    0    0  0.13137904344E+02 -0.41635591231E+02  0.53429286735E+01  0.43985054718E+02  0.10566000000E+00 0.  1.
         23    2    1    0    0    0  0.20320965364E+02 -0.20593933592E+01  0.28216407286E+02  0.90256849490E+02  0.83264341140E+02 0.  0.
         13    1    3    3    0    0  0.71830610199E+01  0.39576197872E+02  0.22873478612E+02  0.46271794772E+02  0.10566000000E+00 0. -1.
         22    1    1    0    0    0 -0.20320965364E+02  0.20593933592E+01 -0.28216407286E+02  0.34833150510E+02  0.00000000000E+00 0.  1.
</event>
<event>
 5    1  0.1258624E-009  0.9118800E+02  0.7815553E-02  0.1125453E+00
         25   -1    0    0    0    0  0.00000000000E+00  0.00000000000E+00  0.99999998245E-14  0.12509000000E+03  0.12509000000E+03 0.  0.
        -13    1    3    3    0    0 -0.18220972842E+02  0.30255916899E+02 -0.30692670796E+02  0.46791832229E+02  0.10566000000E+00 0. -1.
         23    2    1    0    0    0 -0.41902111510E+01 -0.16056971947E+02 -0.24386621094E+02  0.95592686462E+02  0.90927829618E+02 0.  0.
         13    1    3    3    0    0  0.14030761691E+02 -0.46312888846E+02  0.63060497024E+01  0.48800854232E+02  0.10566000000E+00 0.  1.
         22    1    1    0    0    0  0.41902111510E+01  0.16056971947E+02  0.24386621094E+02  0.29497313538E+02  0.00000000000E+00 0.  1.
</event>
<event>
 5    1  0.1258624E-009  0.9118800E+02  0.7815553E-02  0.1125453E+00
         25   -1    0    0    0    0  0.00000000000E+00  0.00000000000E+00  0.99999998245E-14  0.12509000000E+03  0.12509000000E+03 0.  0.
        -13    1    3    3    0    0  0.23721169396E+02  0.12728282835E+02 -0.54202557916E+02  0.60519678702E+02  0.10566000000E+00 0.  1.
         23    2    1    0    0    0  0.17154404515E+02 -0.32982421204E+01 -0.22982834662E+02  0.96221978168E+02  0.91789467796E+02 0.  0.
         13    1    3    3    0    0 -0.65667648806E+01 -0.16026524955E+02  0.31219723254E+02  0.35702299467E+02  0.10566000000E+00 0. -1.
         22    1    1    0    0    0 -0.17154404515E+02  0.32982421204E+01  0.22982834662E+02  0.28868021832E+02  0.00000000000E+00 0.  1.
</event>
<event>
 5    1  0.1258624E-009  0.9118800E+02  0.7815553E-02  0.1125453E+00
         25   -1    0    0    0    0  0.00000000000E+00  0.00000000000E+00  0.99999998245E-14  0.12509000000E+03  0.12509000000E+03 0.  0.
        -13    1    3    3    0    0  0.17307194019E+02 -0.84808790339E+00 -0.32438317228E+02  0.36776538806E+02  0.10566000000E+00 0.  1.
         23    2    1    0    0    0  0.12340344342E+02  0.25266593367E+01  0.26356937814E+02  0.95877737561E+02  0.91319134265E+02 0.  0.
         13    1    3    3    0    0 -0.49668496776E+01  0.33747472401E+01  0.58795255043E+02  0.59101198755E+02  0.10566000000E+00 0. -1.
         22    1    1    0    0    0 -0.12340344342E+02 -0.25266593367E+01 -0.26356937814E+02  0.29212262439E+02  0.00000000000E+00 0. -1.
</event>
<event>
 5    1  0.1258624E-009  0.9118800E+02  0.7815553E-02  0.1125453E+00
         25   -1    0    0    0    0  0.00000000000E+00  0.00000000000E+00  0.99999998245E-14  0.12509000000E+03  0.12509000000E+03 0.  0.
        -13    1    3    3    0    0 -0.53687606824E+02 -0.20190002987E+01 -0.19671088520E+02  0.57213620549E+02  0.10566000000E+00 0.  1.
         23    2    1    0    0    0 -0.23955645652E+02 -0.17145623531E+02 -0.63047870495E+00  0.95624038820E+02  0.90970951033E+02 0.  0.
         13    1    3    3    0    0  0.29731961172E+02 -0.15126623233E+02  0.19040609815E+02  0.38410418271E+02  0.10566000000E+00 0. -1.
         22    1    1    0    0    0  0.23955645652E+02  0.17145623531E+02  0.63047870495E+00  0.29465961180E+02  0.00000000000E+00 0.  1.
</event>
<event>
 5    1  0.1258624E-009  0.9118800E+02  0.7815553E-02  0.1125453E+00
         25   -1    0    0    0    0  0.00000000000E+00  0.00000000000E+00  0.99999998245E-14  0.12509000000E+03  0.12509000000E+03 0.  0.
        -13    1    3    3    0    0  0.69164719524E+01  0.30266450853E+02  0.18269382203E+02  0.36023285825E+02  0.10566000000E+00 0.  1.
         23    2    1    0    0    0 -0.59865259558E+01 -0.27227174355E+02  0.97330627595E+01  0.95562216015E+02  0.90885901562E+02 0.  0.
         13    1    3    3    0    0 -0.12902997908E+02 -0.57493625208E+02 -0.85363194435E+01  0.59538930190E+02  0.10566000000E+00 0. -1.
         22    1    1    0    0    0  0.59865259558E+01  0.27227174355E+02 -0.97330627595E+01  0.29527783985E+02  0.00000000000E+00 0. -1.
</event>
<event>
 5    1  0.1258624E-009  0.9118800E+02  0.7815553E-02  0.1125453E+00
         25   -1    0    0    0    0  0.00000000000E+00  0.00000000000E+00  0.99999998245E-14  0.12509000000E+03  0.12509000000E+03 0.  0.
        -13    1    3    3    0    0  0.15191729389E+02  0.43177747507E+02 -0.26529771277E+01  0.45849274512E+02  0.10566000000E+00 0.  1.
         23    2    1    0    0    0 -0.22839746738E+02  0.19884548618E+02 -0.13787582628E+02  0.91816185378E+02  0.85574909628E+02 0.  0.
         13    1    3    3    0    0 -0.38031476127E+02 -0.23293198889E+02 -0.11134605500E+02  0.45966910866E+02  0.10566000000E+00 0. -1.
         22    1    1    0    0    0  0.22839746738E+02 -0.19884548618E+02  0.13787582628E+02  0.33273814622E+02  0.00000000000E+00 0.  1.
</event>
<event>
 5    1  0.1258624E-009  0.9118800E+02  0.7815553E-02  0.1125453E+00
         25   -1    0    0    0    0  0.00000000000E+00  0.00000000000E+00  0.99999998245E-14  0.12509000000E+03  0.12509000000E+03 0.  0.
        -13    1    3    3    0    0 -0.39084741854E+02  0.11392629537E+01  0.13870026701E+02  0.41488598079E+02  0.10566000000E+00 0. -1.
         23    2    1    0    0    0  0.42019842243E+00 -0.27488770194E+02 -0.10042620735E+02  0.95821189215E+02  0.91241640811E+02 0.  0.
         13    1    3    3    0    0  0.39504940276E+02 -0.28628033148E+02 -0.23912647436E+02  0.54332591136E+02  0.10566000000E+00 0.  1.
         22    1    1    0    0    0 -0.42019842243E+00  0.27488770194E+02  0.10042620735E+02  0.29268810785E+02  0.00000000000E+00 0.  1.
</event>
<event>
 5    1  0.1258624E-009  0.9118800E+02  0.7815553E-02  0.1125453E+00
         25   -1    0    0    0    0  0.00000000000E+00  0.00000000000E+00  0.99999998245E-14  0.12509000000E+03  0.12509000000E+03 0.  0.
        -13    1    3    3    0    0 -0.26085055290E+02 -0.17966920089E+02  0.48708101651E+02  0.58101038351E+02  0.10566000000E+00 0.  1.
         23    2    1    0    0    0 -0.15494574272E+02 -0.24602359477E+02  0.18929854708E+02  0.90395658632E+02  0.83472616926E+02 0.  0.
         13    1    3    3    0    0  0.10590481017E+02 -0.66354393879E+01 -0.29778246943E+02  0.32294620281E+02  0.10566000000E+00 0. -1.
         22    1    1    0    0    0  0.15494574272E+02  0.24602359477E+02 -0.18929854708E+02  0.34694341368E+02  0.00000000000E+00 0.  1.
</event>
<event>
 5    1  0.1258624E-009  0.9118800E+02  0.7815553E-02  0.1125453E+00
         25   -1    0    0    0    0  0.00000000000E+00  0.00000000000E+00  0.99999998245E-14  0.12509000000E+03  0.12509000000E+03 0.  0.
        -13    1    3    3    0    0 -0.47498441017E+01  0.52306200490E+01  0.46451852012E+02  0.46986233351E+02  0.10566000000E+00 0. -1.
         23    2    1    0    0    0  0.13477661246E+02  0.25695575576E+02  0.66311623784E+01  0.95326225519E+02  0.90560515681E+02 0.  0.
         13    1    3    3    0    0  0.18227505347E+02  0.20464955527E+02 -0.39820689634E+02  0.48339992169E+02  0.10566000000E+00 0.  1.
         22    1    1    0    0    0 -0.13477661246E+02 -0.25695575576E+02 -0.66311623784E+01  0.29763774481E+02  0.00000000000E+00 0. -1.
</event>
<event>
 5    1  0.1258624E-009  0.9118800E+02  0.7815553E-02  0.1125453E+00
         25   -1    0    0    0    0  0.00000000000E+00  0.00000000000E+00  0.99999998245E-14  0.12509000000E+03  0.12509000000E+03 0.  0.
        -13    1    3    3    0    0 -0.16009735429E+02  0.33670788079E+02  0.26483553891E+02  0.45732082711E+02  0.10566000000E+00 0. -1.
         23    2    1    0    0    0  0.24436405200E+02  0.94756603614E+01  0.21001626052E+01  0.98796717182E+02  0.95233684191E+02 0.  0.
         13    1    3    3    0    0  0.40446140628E+02 -0.24195127717E+02 -0.24383391285E+02  0.53064634472E+02  0.10566000000E+00 0.  1.
         22    1    1    0    0    0 -0.24436405200E+02 -0.94756603614E+01 -0.21001626052E+01  0.26293282818E+02  0.00000000000E+00 0.  1.
</event>
<event>
 5    1  0.1258624E-009  0.9118800E+02  0.7815553E-02  0.1125453E+00
         25   -1    0    0    0    0  0.00000000000E+00  0.00000000000E+00  0.99999998245E-14  0.12509000000E+03  0.12509000000E+03 0.  0.
        -13    1    3    3    0    0  0.75709024344E+01 -0.19961292978E+02 -0.23390843025E+02  0.31668825089E+02  0.10566000000E+00 0. -1.
         23    2    1    0    0    0 -0.12083374590E+02  0.25968363017E+02  0.13159035417E+02  0.93569783751E+02  0.88100967071E+02 0.  0.
         13    1    3    3    0    0 -0.19654277024E+02  0.45929655995E+02  0.36549878443E+02  0.61900958663E+02  0.10566000000E+00 0.  1.
         22    1    1    0    0    0  0.12083374590E+02 -0.25968363017E+02 -0.13159035417E+02  0.31520216249E+02  0.00000000000E+00 0.  1.
</event>
<event>
 5    1  0.1258624E-009  0.9118800E+02  0.7815553E-02  0.1125453E+00
         25   -1    0    0    0    0  0.00000000000E+00  0.00000000000E+00  0.99999998245E-14  0.12509000000E+03  0.12509000000E+03 0.  0.
        -13    1    3    3    0    0 -0.13224526264E+02 -0.20335642118E+02 -0.48534463385E+02  0.54258932309E+02  0.10566000000E+00 0.  1.
         23    2    1    0    0    0 -0.18146794654E+02 -0.26245499464E+02 -0.12968646259E+02  0.90647029976E+02  0.83848469630E+02 0.  0.
         13    1    3    3    0    0 -0.49222683895E+01 -0.59098573461E+01  0.35565817126E+02  0.36388097667E+02  0.10566000000E+00 0. -1.
         22    1    1    0    0    0  0.18146794654E+02  0.26245499464E+02  0.12968646259E+02  0.34442970024E+02  0.00000000000E+00 0.  1.
</event>
<event>
 5    1  0.1258624E-009  0.9118800E+02  0.7815553E-02  0.1125453E+00
         25   -1    0    0    0    0  0.00000000000E+00  0.00000000000E+00  0.99999998245E-14  0.12509000000E+03  0.12509000000E+03 0.  0.
        -13    1    3    3    0    0  0.14315031415E+02  0.31629910032E+02  0.94345307840E+01  0.35977671801E+02  0.10566000000E+00 0.  1.
         23    2    1    0    0    0 -0.16496174709E+02 -0.17729208454E+02  0.18167911980E+02  0.94815891621E+02  0.89852833377E+02 0.  0.
         13    1    3    3    0    0 -0.30811206124E+02 -0.49359118486E+02  0.87333811957E+01  0.58838219821E+02  0.10566000000E+00 0. -1.
         22    1    1    0    0    0  0.16496174709E+02  0.17729208454E+02 -0.18167911980E+02  0.30274108379E+02  0.00000000000E+00 0. -1.
</event>
<event>
 5    1  0.1258624E-009  0.9118800E+02  0.7815553E-02  0.1125453E+00
         25   -1    0    0    0    0  0.00000000000E+00  0.00000000000E+00  0.99999998245E-14  0.12509000000E+03  0.12509000000E+03 0.  0.
        -13    1    3    3    0    0 -0.25024616720E+01 -0.10904747410E+02  0.32657700222E+02  0.34521187383E+02  0.10566000000E+00 0.  1.
         23    2    1    0    0    0  0.29984776152E+02  0.11151092647E+02 -0.90884621031E+01  0.91832913364E+02  0.85599358440E+02 0.  0.
         13    1    3    3    0    0  0.32487237824E+02  0.22055840057E+02 -0.41746162325E+02  0.57311725981E+02  0.10566000000E+00 0. -1.
         22    1    1    0    0    0 -0.29984776152E+02 -0.11151092647E+02  0.90884621031E+01  0.33257086636E+02  0.00000000000E+00 0. -1.
</event>
<event>
 5    1  0.1258624E-009  0.9118800E+02  0.7815553E-02  0.1125453E+00
         25   -1    0    0    0    0  0.00000000000E+00  0.00000000000E+00  0.99999998245E-14  0.12509000000E+03  0.12509000000E+03 0.  0.
        -13    1    3    3    0    0  0.84922444205E+01  0.29749907275E+02  0.12396252316E+02  0.33329467948E+02  0.10566000000E+00 0. -1.
         23    2    1    0    0    0  0.93195380392E+01 -0.27966497248E+02 -0.79930248583E+01  0.94547125152E+02  0.89477883695E+02 0.  0.
         13    1    3    3    0    0  0.82729361870E+00 -0.57716404523E+02 -0.20389277174E+02  0.61217657204E+02  0.10566000000E+00 0.  1.
         22    1    1    0    0    0 -0.93195380392E+01  0.27966497248E+02  0.79930248583E+01  0.30542874848E+02  0.00000000000E+00 0.  1.
</event>
<event>
 5    1  0.1258624E-009  0.9118800E+02  0.7815553E-02  0.1125453E+00
         25   -1    0    0    0    0  0.00000000000E+00  0.00000000000E+00  0.99999998245E-14  0.12509000000E+03  0.12509000000E+03 0.  0.
        -13    1    3    3    0    0 -0.28423262179E+02 -0.79264802701E+01 -0.20035903386E+02  0.35667345162E+02  0.10566000000E+00 0.  1.
         23    2    1    0    0    0  0.23163977656E+02 -0.87339367553E+01  0.13195481420E+02  0.97036974459E+02  0.92893499073E+02 0.  0.
         13    1    3    3    0    0  0.51587239836E+02 -0.80745648523E+00  0.33231384806E+02  0.61369629297E+02  0.10566000000E+00 0. -1.
         22    1    1    0    0    0 -0.23163977656E+02  0.87339367553E+01 -0.13195481420E+02  0.28053025541E+02  0.00000000000E+00 0. -1.
</event>
<event>
 5    1  0.1258624E-009  0.9118800E+02  0.7815553E-02  0.1125453E+00
         25   -1    0    0    0    0  0.00000000000E+00  0.00000000000E+00  0.99999998245E-14  0.12509000000E+03  0.12509000000E+03 0.  0.
        -13    1    3    3    0    0 -0.51182557192E+02  0.73453507610E+01 -0.30855129568E+02  0.60213441383E+02  0.10566000000E+00 0.  1.
         23    2    1    0    0    0 -0.24515492601E+02  0.14859653125E+02 -0.10633030710E+02  0.94514192398E+02  0.89431831884E+02 0.  0.
         13    1    3    3    0    0  0.26667064591E+02  0.75143023637E+01  0.20222098858E+02  0.34300751015E+02  0.10566000000E+00 0. -1.
         22    1    1    0    0    0  0.24515492601E+02 -0.14859653125E+02  0.10633030710E+02  0.30575807602E+02  0.00000000000E+00 0.  1.
</event>
<event>
 5    1  0.1258624E-009  0.9118800E+02  0.7815553E-02  0.1125453E+00
         25   -1    0    0    0    0  0.00000000000E+00  0.00000000000E+00  0.99999998245E-14  0.12509000000E+03  0.12509000000E+03 0.  0.
        -13    1    3    3    0    0 -0.58511461721E+02 -0.13615380204E+02 -0.14201897663E+02  0.61730663305E+02  0.10566000000E+00 0.  1.
         23    2    1    0    0    0 -0.27332228858E+02 -0.10419296770E+02 -0.77355607582E+00  0.95828918876E+02  0.91252237367E+02 0.  0.
         13    1    3    3    0    0  0.31179232863E+02  0.31960834346E+01  0.13428341587E+02  0.34098255572E+02  0.10566000000E+00 0. -1.
         22    1    1    0    0    0  0.27332228858E+02  0.10419296770E+02  0.77355607582E+00  0.29261081124E+02  0.00000000000E+00 0.  1.
</event>
<event>
 5    1  0.1258624E-009  0.9118800E+02  0.7815553E-02  0.1125453E+00
         25   -1    0    0    0    0  0.00000000000E+00  0.00000000000E+00  0.99999998245E-14  0.12509000000E+03  0.12509000000E+03 0.  0.
        -13    1    3    3    0    0 -0.30073536012E+02 -0.73829129821E+01  0.28469494104E+02  0.42064809888E+02  0.10566000000E+00 0.  1.
         23    2    1    0    0    0 -0.15126330563E+02 -0.77992183336E+01 -0.23461564273E+02  0.96105889162E+02  0.91631125992E+02 0.  0.
         13    1    3    3    0    0  0.14947205449E+02 -0.41630535147E+00 -0.51931058377E+02  0.54041079274E+02  0.10566000000E+00 0. -1.
         22    1    1    0    0    0  0.15126330563E+02  0.77992183336E+01  0.23461564273E+02  0.28984110838E+02  0.00000000000E+00 0. -1.
</event>
<event>
 5    1  0.1258624E-009  0.9118800E+02  0.7815553E-02  0.1125453E+00
         25   -1    0    0    0    0  0.00000000000E+00  0.00000000000E+00  0.99999998245E-14  0.12509000000E+03  0.12509000000E+03 0.  0.
        -13    1    3    3    0    0 -0.41893216794E+01  0.73505917199E+01 -0.42202274406E+02  0.43042127547E+02  0.10566000000E+00 0.  1.
         23    2    1    0    0    0  0.13911055402E+02 -0.48214456790E+01  0.14884397439E+02  0.10415416737E+03  0.10202833671E+03 0.  0.
         13    1    3    3    0    0  0.18100377081E+02 -0.12172037399E+02  0.57086671844E+02  0.61112039822E+02  0.10566000000E+00 0. -1.
         22    1    1    0    0    0 -0.13911055402E+02  0.48214456790E+01 -0.14884397439E+02  0.20935832631E+02  0.00000000000E+00 0. -1.
</event>
<event>
 5    1  0.1258624E-009  0.9118800E+02  0.7815553E-02  0.1125453E+00
         25   -1    0    0    0    0  0.00000000000E+00  0.00000000000E+00  0.99999998245E-14  0.12509000000E+03  0.12509000000E+03 0.  0.
        -13    1    3    3    0    0  0.80055397244E+01 -0.33202857711E+02  0.21416461084E+02  0.40313699853E+02  0.10566000000E+00 0. -1.
         23    2    1    0    0    0  0.26308443727E+02  0.10896233058E+02 -0.68527370310E+01  0.95801399641E+02  0.91214505766E+02 0.  0.
         13    1    3    3    0    0  0.18302904003E+02  0.44099090769E+02 -0.28269198115E+02  0.55487699787E+02  0.10566000000E+00 0.  1.
         22    1    1    0    0    0 -0.26308443727E+02 -0.10896233058E+02  0.68527370310E+01  0.29288600359E+02  0.00000000000E+00 0.  1.
</event>
<event>
 5    1  0.1258624E-009  0.9118800E+02  0.7815553E-02  0.1125453E+00
         25   -1    0    0    0    0  0.00000000000E+00  0.00000000000E+00  0.99999998245E-14  0.12509000000E+03  0.12509000000E+03 0.  0.
        -13    1    3    3    0    0 -0.19638710646E+02  0.18709511227E+02  0.33453793387E+02  0.43068459715E+02  0.10566000000E+00 0.  1.
         23    2    1    0    0    0  0.11523315187E+02  0.27084826064E+02 -0.70192544471E+01  0.94830381218E+02  0.89873003027E+02 0.  0.
         13    1    3    3    0    0  0.31162025833E+02  0.83753148379E+01 -0.40473047834E+02  0.51761921503E+02  0.10566000000E+00 0. -1.
         22    1    1    0    0    0 -0.11523315187E+02 -0.27084826064E+02  0.70192544471E+01  0.30259618782E+02  0.00000000000E+00 0. -1.
</event>
<event>
 5    1  0.1258624E-009  0.9118800E+02  0.7815553E-02  0.1125453E+00
         25   -1    0    0    0    0  0.00000000000E+00  0.00000000000E+00  0.99999998245E-14  0.12509000000E+03  0.12509000000E+03 0.  0.
        -13    1    3    3    0    0  0.21288635280E+02 -0.24174651016E+02  0.46922774884E+02  0.56915531366E+02  0.10566000000E+00 0. -1.
         23    2    1    0    0    0  0.21088798477E+02  0.38099448664E+01  0.18971040365E+02  0.96469142682E+02  0.92125685974E+02 0.  0.
         13    1    3    3    0    0 -0.19983680249E+00  0.27984595882E+02 -0.27951734520E+02  0.39553611316E+02  0.10566000000E+00 0.  1.
         22    1    1    0    0    0 -0.21088798477E+02 -0.38099448664E+01 -0.18971040365E+02  0.28620857318E+02  0.00000000000E+00 0. -1.
</event>
<event>
 5    1  0.1258624E-009  0.9118800E+02  0.7815553E-02  0.1125453E+00
         25   -1    0    0    0    0  0.00000000000E+00  0.00000000000E+00  0.99999998245E-14  0.12509000000E+03  0.12509000000E+03 0.  0.
        -13    1    3    3    0    0 -0.16828532174E+01 -0.41103659141E+02 -0.32407611859E+02  0.52369907964E+02  0.10566000000E+00 0. -1.
         23    2    1    0    0    0 -0.24193118530E+02 -0.90298393454E+01 -0.14767789875E+02  0.95342183263E+02  0.90582555212E+02 0.  0.
         13    1    3    3    0    0 -0.22510265313E+02  0.32073819795E+02  0.17639821984E+02  0.42972275299E+02  0.10566000000E+00 0.  1.
         22    1    1    0    0    0  0.24193118530E+02  0.90298393454E+01  0.14767789875E+02  0.29747816737E+02  0.00000000000E+00 0. -1.
</event>
<event>
 5    1  0.1258624E-009  0.9118800E+02  0.7815553E-02  0.1125453E+00
         25   -1    0    0    0    0  0.00000000000E+00  0.00000000000E+00  0.99999998245E-14  0.12509000000E+03  0.12509000000E+03 0.  0.
        -13    1    3    3    0    0  0.45878094938E+02  0.34981251852E+02  0.15943031894E+01  0.57715167356E+02  0.10566000000E+00 0.  1.
         23    2    1    0    0    0  0.15955233545E+02  0.19116239700E+02  0.17017755615E+02  0.94930356369E+02  0.90012046174E+02 0.  0.
         13    1    3    3    0    0 -0.29922861392E+02 -0.15865012152E+02  0.15423452426E+02  0.37215189013E+02  0.10566000000E+00 0. -1.
         22    1    1    0    0    0 -0.15955233545E+02 -0.19116239700E+02 -0.17017755615E+02  0.30159643631E+02  0.00000000000E+00 0.  1.
</event>
<event>
 5    1  0.1258624E-009  0.9118800E+02  0.7815553E-02  0.1125453E+00
         25   -1    0    0    0    0  0.00000000000E+00  0.00000000000E+00  0.99999998245E-14  0.12509000000E+03  0.12509000000E+03 0.  0.
        -13    1    3    3    0    0 -0.41990689111E+02 -0.88979836038E+01  0.34501209592E+02  0.55070288828E+02  0.10566000000E+00 0.  1.
         23    2    1    0    0    0 -0.21472420747E+02  0.16665293000E+02  0.94966976073E+01  0.96297915863E+02  0.91892896846E+02 0.  0.
         13    1    3    3    0    0  0.20518268365E+02  0.25563276604E+02 -0.25004511984E+02  0.41227627036E+02  0.10566000000E+00 0. -1.
         22    1    1    0    0    0  0.21472420747E+02 -0.16665293000E+02 -0.94966976073E+01  0.28792084137E+02  0.00000000000E+00 0.  1.
</event>
<event>
 5    1  0.1258624E-009  0.9118800E+02  0.7815553E-02  0.1125453E+00
         25   -1    0    0    0    0  0.00000000000E+00  0.00000000000E+00  0.99999998245E-14  0.12509000000E+03  0.12509000000E+03 0.  0.
        -13    1    3    3    0    0  0.59037497288E+01 -0.23538280732E+02 -0.26631166886E+02  0.36029642441E+02  0.10566000000E+00 0.  1.
         23    2    1    0    0    0 -0.12905690596E+02  0.23881592983E+02  0.69050761117E+01  0.97079869524E+02  0.92951243443E+02 0.  0.
         13    1    3    3    0    0 -0.18809440325E+02  0.47419873715E+02  0.33536242998E+02  0.61050227083E+02  0.10566000000E+00 0. -1.
         22    1    1    0    0    0  0.12905690596E+02 -0.23881592983E+02 -0.69050761117E+01  0.28010130476E+02  0.00000000000E+00 0. -1.
</event>
<event>
 5    1  0.1258624E-009  0.9118800E+02  0.7815553E-02  0.1125453E+00
         25   -1    0    0    0    0  0.00000000000E+00  0.00000000000E+00  0.99999998245E-14  0.12509000000E+03  0.12509000000E+03 0.  0.
        -13    1    3    3    0    0  0.20039020847E+02 -0.11298506379E+02  0.27654230990E+02  0.35972020496E+02  0.10566000000E+00 0.  1.
         23    2    1    0    0    0 -0.18808144766E+02 -0.18179359996E+02 -0.15693912512E+02  0.94585339219E+02  0.89531290988E+02 0.  0.
         13    1    3    3    0    0 -0.38847165613E+02 -0.68808536165E+01 -0.43348143502E+02  0.58613318723E+02  0.10566000000E+00 0. -1.
         22    1    1    0    0    0  0.18808144766E+02  0.18179359996E+02  0.15693912512E+02  0.30504660781E+02  0.00000000000E+00 0. -1.
</event>
<event>
 5    1  0.1258624E-009  0.9118800E+02  0.7815553E-02  0.1125453E+00
         25   -1    0    0    0    0  0.00000000000E+00  0.00000000000E+00  0.99999998245E-14  0.12509000000E+03  0.12509000000E+03 0.  0.
        -13    1    3    3    0    0  0.20115803111E+02  0.29352806910E+02  0.70965629426E+01  0.36285054471E+02  0.10566000000E+00 0.  1.
         23    2    1    0    0    0  0.69834247812E+01 -0.16157655202E+02 -0.25729829573E+02  0.93915295941E+02  0.88590183647E+02 0.  0.
         13    1    3    3    0    0 -0.13132378330E+02 -0.45510462113E+02 -0.32826392516E+02  0.57630241470E+02  0.10566000000E+00 0. -1.
         22    1    1    0    0    0 -0.69834247812E+01  0.16157655202E+02  0.25729829573E+02  0.31174704059E+02  0.00000000000E+00 0. -1.
</event>
<event>
 5    1  0.1258624E-009  0.9118800E+02  0.7815553E-02  0.1125453E+00
         25   -1    0    0    0    0  0.00000000000E+00  0.00000000000E+00  0.99999998245E-14  0.12509000000E+03  0.12509000000E+03 0.  0.
        -13    1    3    3    0    0  0.32528630886E+02 -0.26897210430E+02  0.17493304550E+02  0.45690246490E+02  0.10566000000E+00 0.  1.
         23    2    1    0    0    0 -0.58966395505E+01 -0.26253507298E+02 -0.13429589626E+02  0.95017240217E+02  0.90132708034E+02 0.  0.
         13    1    3    3    0    0 -0.38425270436E+02  0.64370313158E+00 -0.30922894176E+02  0.49326993727E+02  0.10566000000E+00 0. -1.
         22    1    1    0    0    0  0.58966395505E+01  0.26253507298E+02  0.13429589626E+02  0.30072759783E+02  0.00000000000E+00 0.  1.
</event>
<event>
 5    1  0.1258624E-009  0.9118800E+02  0.7815553E-02  0.1125453E+00
         25   -1    0    0    0    0  0.00000000000E+00  0.00000000000E+00  0.99999998245E-14  0.12509000000E+03  0.12509000000E+03 0.  0.
        -13    1    3    3    0    0 -0.39685290532E+02 -0.10753911975E+02  0.71170095172E+01  0.41728070838E+02  0.10566000000E+00 0. -1.
         23    2    1    0    0    0  0.13913019875E+02 -0.21691092450E+02  0.12028942745E+02  0.96651099226E+02  0.92372419608E+02 0.  0.
         13    1    3    3    0    0  0.53598310407E+02 -0.10937180474E+02  0.49119332278E+01  0.54923028387E+02  0.10566000000E+00 0.  1.
         22    1    1    0    0    0 -0.13913019875E+02  0.21691092450E+02 -0.12028942745E+02  0.28438900774E+02  0.00000000000E+00 0.  1.
</event>
<event>
 5    1  0.1258624E-009  0.9118800E+02  0.7815553E-02  0.1125453E+00
         25   -1    0    0    0    0  0.00000000000E+00  0.00000000000E+00  0.99999998245E-14  0.12509000000E+03  0.12509000000E+03 0.  0.
        -13    1    3    3    0    0  0.17669412755E+02  0.59940391729E+01 -0.34081678125E+02  0.38854968801E+02  0.10566000000E+00 0.  1.
         23    2    1    0    0    0  0.14379637816E+02 -0.26658287367E+02  0.94405676467E+01  0.93363629477E+02  0.87807771425E+02 0.  0.
         13    1    3    3    0    0 -0.32897749388E+01 -0.32652326540E+02  0.43522245772E+02  0.54508660676E+02  0.10566000000E+00 0. -1.
         22    1    1    0    0    0 -0.14379637816E+02  0.26658287367E+02 -0.94405676467E+01  0.31726370523E+02  0.00000000000E+00 0. -1.
</event>
<event>
 5    1  0.1258624E-009  0.9118800E+02  0.7815553E-02  0.1125453E+00
         25   -1    0    0    0    0  0.00000000000E+00  0.00000000000E+00  0.99999998245E-14  0.12509000000E+03  0.12509000000E+03 0.  0.
        -13    1    3    3    0    0  0.26000140314E+02 -0.33083345836E+02 -0.13358959094E+01  0.42098822430E+02  0.10566000000E+00 0.  1.
         23    2    1    0    0    0  0.18609958481E+02  0.20450517318E+02  0.64463186579E+01  0.96697937069E+02  0.92435825284E+02 0.  0.
         13    1    3    3    0    0 -0.73901818332E+01  0.53533863155E+02  0.77822145673E+01  0.54599114639E+02  0.10566000000E+00 0. -1.
         22    1    1    0    0    0 -0.18609958481E+02 -0.20450517318E+02 -0.64463186579E+01  0.28392062931E+02  0.00000000000E+00 0. -1.
</event>
<event>
 5    1  0.1258624E-009  0.9118800E+02  0.7815553E-02  0.1125453E+00
         25   -1    0    0    0    0  0.00000000000E+00  0.00000000000E+00  0.99999998245E-14  0.12509000000E+03  0.12509000000E+03 0.  0.
        -13    1    3    3    0    0 -0.47592425795E+02 -0.19568251599E+02  0.61566081642E+01  0.51825384242E+02  0.10566000000E+00 0. -1.
         23    2    1    0    0    0 -0.59819853453E+01 -0.14036055300E+02  0.23358416798E+02  0.97189988667E+02  0.93099319357E+02 0.  0.
         13    1    3    3    0    0  0.41610440450E+02  0.55321962997E+01  0.17201808634E+02  0.45364604425E+02  0.10566000000E+00 0.  1.
         22    1    1    0    0    0  0.59819853453E+01  0.14036055300E+02 -0.23358416798E+02  0.27900011333E+02  0.00000000000E+00 0.  1.
</event>
<event>
 5    1  0.1258624E-009  0.9118800E+02  0.7815553E-02  0.1125453E+00
         25   -1    0    0    0    0  0.00000000000E+00  0.00000000000E+00  0.99999998245E-14  0.12509000000E+03  0.12509000000E+03 0.  0.
        -13    1    3    3    0    0  0.36653915952E+01 -0.41362257504E+02  0.25232700094E+02  0.48589831852E+02  0.10566000000E+00 0.  1.
         23    2    1    0    0    0  0.27669052274E+02 -0.10758375503E+02 -0.79956152199E+00  0.95392215641E+02  0.90651621106E+02 0.  0.
         13    1    3    3    0    0  0.24003660679E+02  0.30603882000E+02 -0.26032261616E+02  0.46802383789E+02  0.10566000000E+00 0. -1.
         22    1    1    0    0    0 -0.27669052274E+02  0.10758375503E+02  0.79956152199E+00  0.29697784359E+02  0.00000000000E+00 0.  1.
</event>
<event>
 5    1  0.1258624E-009  0.9118800E+02  0.7815553E-02  0.1125453E+00
         25   -1    0    0    0    0  0.00000000000E+00  0.00000000000E+00  0.99999998245E-14  0.12509000000E+03  0.12509000000E+03 0.  0.
        -13    1    3    3    0    0  0.56573408444E+00 -0.32914236140E+02  0.49752374753E+02  0.59657161794E+02  0.10566000000E+00 0. -1.
         23    2    1    0    0    0 -0.12598748799E+02 -0.17242178469E+02  0.19574022539E+02  0.96121680269E+02  0.91652680647E+02 0.  0.
         13    1    3    3    0    0 -0.13164482883E+02  0.15672057671E+02 -0.30178352214E+02  0.36464518475E+02  0.10566000000E+00 0.  1.
         22    1    1    0    0    0  0.12598748799E+02  0.17242178469E+02 -0.19574022539E+02  0.28968319731E+02  0.00000000000E+00 0. -1.
</event>
<event>
 5    1  0.1258624E-009  0.9118800E+02  0.7815553E-02  0.1125453E+00
         25   -1    0    0    0    0  0.00000000000E+00  0.00000000000E+00  0.99999998245E-14  0.12509000000E+03  0.12509000000E+03 0.  0.
        -13    1    3    3    0    0  0.24839529542E+01  0.20072286362E+02 -0.37711373459E+02  0.42792821293E+02  0.10566000000E+00 0. -1.
         23    2    1    0    0    0 -0.71248293687E+01 -0.25502315085E+02 -0.11689303914E+02  0.96145724328E+02  0.91685490740E+02 0.  0.
         13    1    3    3    0    0 -0.96087823229E+01 -0.45574601446E+02  0.26022069545E+02  0.53352903034E+02  0.10566000000E+00 0.  1.
         22    1    1    0    0    0  0.71248293687E+01  0.25502315085E+02  0.11689303914E+02  0.28944275672E+02  0.00000000000E+00 0. -1.
</event>
<event>
 5    1  0.1258624E-009  0.9118800E+02  0.7815553E-02  0.1125453E+00
         25   -1    0    0    0    0  0.00000000000E+00  0.00000000000E+00  0.99999998245E-14  0.12509000000E+03  0.12509000000E+03 0.  0.
        -13    1    3    3    0    0  0.32347358349E+02  0.21135133215E+02 -0.46788595386E+02  0.60681374988E+02  0.10566000000E+00 0.  1.
         23    2    1    0    0    0  0.13219407903E+02  0.19470065727E+02 -0.17252625011E+02  0.95909710856E+02  0.91362921156E+02 0.  0.
         13    1    3    3    0    0 -0.19127950446E+02 -0.16650674877E+01  0.29535970376E+02  0.35228335868E+02  0.10566000000E+00 0. -1.
         22    1    1    0    0    0 -0.13219407903E+02 -0.19470065727E+02  0.17252625011E+02  0.29180289144E+02  0.00000000000E+00 0.  1.
</event>
<event>
 5    1  0.1258624E-009  0.9118800E+02  0.7815553E-02  0.1125453E+00
         25   -1    0    0    0    0  0.00000000000E+00  0.00000000000E+00  0.99999998245E-14  0.12509000000E+03  0.12509000000E+03 0.  0.
        -13    1    3    3    0    0  0.24950071715E+02  0.14336092398E+02  0.99855337742E+01  0.30459016278E+02  0.10566000000E+00 0.  1.
         23    2    1    0    0    0 -0.20610453769E+02 -0.11914366231E+02 -0.22555138304E+02  0.92295531089E+02  0.86272752754E+02 0.  0.
         13    1    3    3    0    0 -0.45560525484E+02 -0.26250458629E+02 -0.32540672078E+02  0.61836514811E+02  0.10566000000E+00 0. -1.
         22    1    1    0    0    0  0.20610453769E+02  0.11914366231E+02  0.22555138304E+02  0.32794468911E+02  0.00000000000E+00 0. -1.
</event>
<event>
 5    1  0.1258624E-009  0.9118800E+02  0.7815553E-02  0.1125453E+00
         25   -1    0    0    0    0  0.00000000000E+00  0.00000000000E+00  0.99999998245E-14  0.12509000000E+03  0.12509000000E+03 0.  0.
        -13    1    3    3    0    0 -0.13602923408E+01 -0.37114360232E+02  0.68917365445E+01  0.37773447385E+02  0.10566000000E+00 0. -1.
         23    2    1    0    0    0  0.16478945800E+02  0.74191523634E+01 -0.24159287360E+02  0.94919308224E+02  0.89996691226E+02 0.  0.
         13    1    3    3    0    0  0.17839238140E+02  0.44533512595E+02 -0.31051023905E+02  0.57145860840E+02  0.10566000000E+00 0.  1.
         22    1    1    0    0    0 -0.16478945800E+02 -0.74191523634E+01  0.24159287360E+02  0.30170691776E+02  0.00000000000E+00 0.  1.
</event>
<event>
 5    1  0.1258624E-009  0.9118800E+02  0.7815553E-02  0.1125453E+00
         25   -1    0    0    0    0  0.00000000000E+00  0.00000000000E+00  0.99999998245E-14  0.12509000000E+03  0.12509000000E+03 0.  0.
        -13    1    3    3    0    0 -0.16005376420E+02 -0.24921653182E+02  0.17713709708E+02  0.34511556721E+02  0.10566000000E+00 0.  1.
         23    2    1    0    0    0  0.19503733831E+02  0.18425289375E+02 -0.92678197113E+01  0.96703746212E+02  0.92443686249E+02 0.  0.
         13    1    3    3    0    0  0.35509110251E+02  0.43346942557E+02 -0.26981529419E+02  0.62192189491E+02  0.10566000000E+00 0. -1.
         22    1    1    0    0    0 -0.19503733831E+02 -0.18425289375E+02  0.92678197113E+01  0.28386253788E+02  0.00000000000E+00 0. -1.
</event>
<event>
 5    1  0.1258624E-009  0.9118800E+02  0.7815553E-02  0.1125453E+00
         25   -1    0    0    0    0  0.00000000000E+00  0.00000000000E+00  0.99999998245E-14  0.12509000000E+03  0.12509000000E+03 0.  0.
        -13    1    3    3    0    0  0.30979337375E+02 -0.16177273281E+02 -0.45810456458E+02  0.57619724053E+02  0.10566000000E+00 0. -1.
         23    2    1    0    0    0  0.22318407905E+02 -0.86243812776E+00 -0.48001815285E+01  0.10224493765E+03  0.99660074262E+02 0.  0.
         13    1    3    3    0    0 -0.86609294702E+01  0.15314835153E+02  0.41010274929E+02  0.44625213600E+02  0.10566000000E+00 0.  1.
         22    1    1    0    0    0 -0.22318407905E+02  0.86243812776E+00  0.48001815285E+01  0.22845062347E+02  0.00000000000E+00 0. -1.
</event>
<event>
 5    1  0.1258624E-009  0.9118800E+02  0.7815553E-02  0.1125453E+00
         25   -1    0    0    0    0  0.00000000000E+00  0.00000000000E+00  0.99999998245E-14  0.12509000000E+03  0.12509000000E+03 0.  0.
        -13    1    3    3    0    0  0.13767223432E+02  0.47510401315E+02  0.16610428272E+02  0.52179422817E+02  0.10566000000E+00 0.  1.
         23    2    1    0    0    0  0.15261843881E+02  0.19668138523E+02 -0.16315390582E+02  0.95325062213E+02  0.90558908808E+02 0.  0.
         13    1    3    3    0    0  0.14946204486E+01 -0.27842262791E+02 -0.32925818854E+02  0.43145639396E+02  0.10566000000E+00 0. -1.
         22    1    1    0    0    0 -0.15261843881E+02 -0.19668138523E+02  0.16315390582E+02  0.29764937787E+02  0.00000000000E+00 0.  1.
</event>
<event>
 5    1  0.1258624E-009  0.9118800E+02  0.7815553E-02  0.1125453E+00
         25   -1    0    0    0    0  0.00000000000E+00  0.00000000000E+00  0.99999998245E-14  0.12509000000E+03  0.12509000000E+03 0.  0.
        -13    1    3    3    0    0 -0.36665728833E+02  0.22012146250E+02 -0.15358126733E+02  0.45439998615E+02  0.10566000000E+00 0.  1.
         23    2    1    0    0    0  0.10948214822E+02  0.89014261036E+01  0.15856930288E+02  0.10386404813E+03  0.10167201907E+03 0.  0.
         13    1    3    3    0    0  0.47613943656E+02 -0.13110720146E+02  0.31215057021E+02  0.58424049518E+02  0.10566000000E+00 0. -1.
         22    1    1    0    0    0 -0.10948214822E+02 -0.89014261036E+01 -0.15856930288E+02  0.21225951867E+02  0.00000000000E+00 0. -1.
</event>
<event>
 5    1  0.1258624E-009  0.9118800E+02  0.7815553E-02  0.1125453E+00
         25   -1    0    0    0    0  0.00000000000E+00  0.00000000000E+00  0.99999998245E-14  0.12509000000E+03  0.12509000000E+03 0.  0.
        -13    1    3    3    0    0 -0.88160482695E+01  0.21003045999E+02  0.47843634462E+02  0.52989387342E+02  0.10566000000E+00 0.  1.
         23    2    1    0    0    0  0.67140715450E+01 -0.12410395837E+02  0.25117236143E+02  0.96280761325E+02  0.91869542115E+02 0.  0.
         13    1    3    3    0    0  0.15530119814E+02 -0.33413441836E+02 -0.22726398318E+02  0.43291373983E+02  0.10566000000E+00 0. -1.
         22    1    1    0    0    0 -0.67140715450E+01  0.12410395837E+02 -0.25117236143E+02  0.28809238675E+02  0.00000000000E+00 0.  1.
</event>
<event>
 5    1  0.1258624E-009  0.9118800E+02  0.7815553E-02  0.1125453E+00
         25   -1    0    0    0    0  0.00000000000E+00  0.00000000000E+00  0.99999998245E-14  0.12509000000E+03  0.12509000000E+03 0.  0.
        -13    1    3    3    0    0 -0.35824787393E+02  0.21501613372E+02 -0.39135038458E+02  0.57247682647E+02  0.10566000000E+00 0. -1.
         23    2    1    0    0    0  0.24462076499E+01  0.15313281305E+02 -0.17739374411E+02  0.10152804081E+03  0.98756149939E+02 0.  0.
         13    1    3    3    0    0  0.38270995042E+02 -0.61883320664E+01  0.21395664047E+02  0.44280358166E+02  0.10566000000E+00 0.  1.
         22    1    1    0    0    0 -0.24462076499E+01 -0.15313281305E+02  0.17739374411E+02  0.23561959187E+02  0.00000000000E+00 0. -1.
</event>
<event>
 5    1  0.1258624E-009  0.9118800E+02  0.7815553E-02  0.1125453E+00
         25   -1    0    0    0    0  0.00000000000E+00  0.00000000000E+00  0.99999998245E-14  0.12509000000E+03  0.12509000000E+03 0.  0.
        -13    1    3    3    0    0 -0.52937232873E+01 -0.49465933179E+02  0.30620250853E+02  0.58416718308E+02  0.10566000000E+00 0.  1.
         23    2    1    0    0    0 -0.15724684043E+02 -0.24020035675E+02  0.51068460909E+01  0.95929964350E+02  0.91390647121E+02 0.  0.
         13    1    3    3    0    0 -0.10430960756E+02  0.25445897503E+02 -0.25513404762E+02  0.37513246043E+02  0.10566000000E+00 0. -1.
         22    1    1    0    0    0  0.15724684043E+02  0.24020035675E+02 -0.51068460909E+01  0.29160035650E+02  0.00000000000E+00 0.  1.
</event>
<event>
 5    1  0.1258624E-009  0.9118800E+02  0.7815553E-02  0.1125453E+00
         25   -1    0    0    0    0  0.00000000000E+00  0.00000000000E+00  0.99999998245E-14  0.12509000000E+03  0.12509000000E+03 0.  0.
        -13    1    3    3    0    0 -0.19649300700E+02 -0.39620869311E+02 -0.37611525477E+02  0.58056406328E+02  0.10566000000E+00 0.  1.
         23    2    1    0    0    0 -0.12487755699E+02 -0.26937302103E+02 -0.34433155421E+01  0.95199889446E+02  0.90385840936E+02 0.  0.
         13    1    3    3    0    0  0.71615450011E+01  0.12683567208E+02  0.34168209935E+02  0.37143483118E+02  0.10566000000E+00 0. -1.
         22    1    1    0    0    0  0.12487755699E+02  0.26937302103E+02  0.34433155421E+01  0.29890110554E+02  0.00000000000E+00 0.  1.
</event>
<event>
 5    1  0.1258624E-009  0.9118800E+02  0.7815553E-02  0.1125453E+00
         25   -1    0    0    0    0  0.00000000000E+00  0.00000000000E+00  0.99999998245E-14  0.12509000000E+03  0.12509000000E+03 0.  0.
        -13    1    3    3    0    0  0.40277948140E+02  0.92145444058E+01  0.80433841394E-01  0.41318743551E+02  0.10566000000E+00 0. -1.
         23    2    1    0    0    0 -0.27697987726E+01 -0.10829861720E+02 -0.26918110063E+02  0.95943090396E+02  0.91408611494E+02 0.  0.
         13    1    3    3    0    0 -0.43047746913E+02 -0.20044406126E+02 -0.26998543904E+02  0.54624346845E+02  0.10566000000E+00 0.  1.
         22    1    1    0    0    0  0.27697987726E+01  0.10829861720E+02  0.26918110063E+02  0.29146909604E+02  0.00000000000E+00 0.  1.
</event>
<event>
 5    1  0.1258624E-009  0.9118800E+02  0.7815553E-02  0.1125453E+00
         25   -1    0    0    0    0  0.00000000000E+00  0.00000000000E+00  0.99999998245E-14  0.12509000000E+03  0.12509000000E+03 0.  0.
        -13    1    3    3    0    0 -0.13947691967E+02  0.49768433361E+02 -0.19598316114E+02  0.55276941205E+02  0.10566000000E+00 0. -1.
         23    2    1    0    0    0  0.10874164740E+02  0.27879461030E+02  0.24831660418E+01  0.95062047694E+02  0.90194872315E+02 0.  0.
         13    1    3    3    0    0  0.24821856706E+02 -0.21888972331E+02  0.22081482156E+02  0.39785106488E+02  0.10566000000E+00 0.  1.
         22    1    1    0    0    0 -0.10874164740E+02 -0.27879461030E+02 -0.24831660418E+01  0.30027952306E+02  0.00000000000E+00 0. -1.
</event>
<event>
 5    1  0.1258624E-009  0.9118800E+02  0.7815553E-02  0.1125453E+00
         25   -1    0    0    0    0  0.00000000000E+00  0.00000000000E+00  0.99999998245E-14  0.12509000000E+03  0.12509000000E+03 0.  0.
        -13    1    3    3    0    0 -0.28561496028E+02  0.26561453808E+02 -0.21220167444E+02  0.44402438606E+02  0.10566000000E+00 0.  1.
         23    2    1    0    0    0 -0.21286307870E+02 -0.95753917066E+01  0.16003593455E+02  0.96789646071E+02  0.92559848498E+02 0.  0.
         13    1    3    3    0    0  0.72751881584E+01 -0.36136845515E+02  0.37223760899E+02  0.52387207465E+02  0.10566000000E+00 0. -1.
         22    1    1    0    0    0  0.21286307870E+02  0.95753917066E+01 -0.16003593455E+02  0.28300353929E+02  0.00000000000E+00 0.  1.
</event>
<event>
 5    1  0.1258624E-009  0.9118800E+02  0.7815553E-02  0.1125453E+00
         25   -1    0    0    0    0  0.00000000000E+00  0.00000000000E+00  0.99999998245E-14  0.12509000000E+03  0.12509000000E+03 0.  0.
        -13    1    3    3    0    0  0.88952886660E+01 -0.35770200166E+01 -0.58915123413E+02  0.59690235076E+02  0.10566000000E+00 0. -1.
         23    2    1    0    0    0 -0.21202348061E+01  0.10149909849E+02 -0.27504180205E+02  0.95696191224E+02  0.91070110467E+02 0.  0.
         13    1    3    3    0    0 -0.11015523472E+02  0.13726929865E+02  0.31410943208E+02  0.36005956148E+02  0.10566000000E+00 0.  1.
         22    1    1    0    0    0  0.21202348061E+01 -0.10149909849E+02  0.27504180205E+02  0.29393808776E+02  0.00000000000E+00 0. -1.
</event>
<event>
 5    1  0.1258624E-009  0.9118800E+02  0.7815553E-02  0.1125453E+00
         25   -1    0    0    0    0  0.00000000000E+00  0.00000000000E+00  0.99999998245E-14  0.12509000000E+03  0.12509000000E+03 0.  0.
        -13    1    3    3    0    0 -0.40562098236E+02 -0.79225904794E+00  0.27443617311E+01  0.40662687726E+02  0.10566000000E+00 0.  1.
         23    2    1    0    0    0  0.62468442434E+01 -0.25490114785E+02 -0.12893007985E+02  0.95849639714E+02  0.91280637397E+02 0.  0.
         13    1    3    3    0    0  0.46808942480E+02 -0.24697855737E+02 -0.15637369716E+02  0.55186951988E+02  0.10566000000E+00 0. -1.
         22    1    1    0    0    0 -0.62468442434E+01  0.25490114785E+02  0.12893007985E+02  0.29240360286E+02  0.00000000000E+00 0. -1.
</event>
<event>
 5    1  0.1258624E-009  0.9118800E+02  0.7815553E-02  0.1125453E+00
         25   -1    0    0    0    0  0.00000000000E+00  0.00000000000E+00  0.99999998245E-14  0.12509000000E+03  0.12509000000E+03 0.  0.
        -13    1    3    3    0    0  0.29193396618E+02 -0.16070926428E+02  0.68981195175E+01  0.34031225357E+02  0.10566000000E+00 0.  1.
         23    2    1    0    0    0 -0.11561441554E+02  0.23962970917E+02 -0.14200405674E+02  0.94931378890E+02  0.90013467163E+02 0.  0.
         13    1    3    3    0    0 -0.40754838172E+02  0.40033897345E+02 -0.21098525191E+02  0.60900153533E+02  0.10566000000E+00 0. -1.
         22    1    1    0    0    0  0.11561441554E+02 -0.23962970917E+02  0.14200405674E+02  0.30158621110E+02  0.00000000000E+00 0. -1.
</event>
<event>
 5    1  0.1258624E-009  0.9118800E+02  0.7815553E-02  0.1125453E+00
         25   -1    0    0    0    0  0.00000000000E+00  0.00000000000E+00  0.99999998245E-14  0.12509000000E+03  0.12509000000E+03 0.  0.
        -13    1    3    3    0    0  0.31363954030E+02  0.10977089323E+01 -0.84510730178E+01  0.32501298073E+02  0.10566000000E+00 0. -1.
         23    2    1    0    0    0 -0.29617216502E+02 -0.26547295691E+00  0.52303343273E+01  0.95013324878E+02  0.90127273996E+02 0.  0.
         13    1    3    3    0    0 -0.60981170531E+02 -0.13631818892E+01  0.13681407345E+02  0.62512026805E+02  0.10566000000E+00 0.  1.
         22    1    1    0    0    0  0.29617216502E+02  0.26547295691E+00 -0.52303343273E+01  0.30076675122E+02  0.00000000000E+00 0.  1.
</event>
<event>
 5    1  0.1258624E-009  0.9118800E+02  0.7815553E-02  0.1125453E+00
         25   -1    0    0    0    0  0.00000000000E+00  0.00000000000E+00  0.99999998245E-14  0.12509000000E+03  0.12509000000E+03 0.  0.
        -13    1    3    3    0    0  0.17359516642E+02  0.41006989875E+02  0.32020456303E+01  0.44645159837E+02  0.10566000000E+00 0.  1.
         23    2    1    0    0    0 -0.23368957958E+02  0.10790736059E+02 -0.10677048502E+02  0.97223397311E+02  0.93144197024E+02 0.  0.
         13    1    3    3    0    0 -0.40728474599E+02 -0.30216253816E+02 -0.13879094132E+02  0.52578237473E+02  0.10566000000E+00 0. -1.
         22    1    1    0    0    0  0.23368957958E+02 -0.10790736059E+02  0.10677048502E+02  0.27866602689E+02  0.00000000000E+00 0. -1.
</event>
<event>
 5    1  0.1258624E-009  0.9118800E+02  0.7815553E-02  0.1125453E+00
         25   -1    0    0    0    0  0.00000000000E+00  0.00000000000E+00  0.99999998245E-14  0.12509000000E+03  0.12509000000E+03 0.  0.
        -13    1    3    3    0    0 -0.28633292275E+02  0.31538014978E+01  0.23187834440E+02  0.36979706873E+02  0.10566000000E+00 0.  1.
         23    2    1    0    0    0  0.14838086685E+02  0.21837606922E+02 -0.12141122051E+02  0.96030462199E+02  0.91528099145E+02 0.  0.
         13    1    3    3    0    0  0.43471378959E+02  0.18683805424E+02 -0.35328956491E+02  0.59050755326E+02  0.10566000000E+00 0. -1.
         22    1    1    0    0    0 -0.14838086685E+02 -0.21837606922E+02  0.12141122051E+02  0.29059537801E+02  0.00000000000E+00 0. -1.
</event>
<event>
 5    1  0.1258624E-009  0.9118800E+02  0.7815553E-02  0.1125453E+00
         25   -1    0    0    0    0  0.00000000000E+00  0.00000000000E+00  0.99999998245E-14  0.12509000000E+03  0.12509000000E+03 0.  0.
        -13    1    3    3    0    0  0.13273959557E+02  0.26591495339E+02 -0.22905184829E+02  0.37522850142E+02  0.10566000000E+00 0.  1.
         23    2    1    0    0    0 -0.26756255124E+02  0.20465580065E+01  0.11662599930E+02  0.95830782221E+02  0.91254791633E+02 0.  0.
         13    1    3    3    0    0 -0.40030214681E+02 -0.24544937333E+02  0.34567784759E+02  0.58307932079E+02  0.10566000000E+00 0. -1.
         22    1    1    0    0    0  0.26756255124E+02 -0.20465580065E+01 -0.11662599930E+02  0.29259217779E+02  0.00000000000E+00 0.  1.
</event>
<event>
 5    1  0.1258624E-009  0.9118800E+02  0.7815553E-02  0.1125453E+00
         25   -1    0    0    0    0  0.00000000000E+00  0.00000000000E+00  0.99999998245E-14  0.12509000000E+03  0.12509000000E+03 0.  0.
        -13    1    3    3    0    0 -0.16068641824E+02 -0.45411773635E+02 -0.25208750457E+02  0.54368397975E+02  0.10566000000E+00 0. -1.
         23    2    1    0    0    0 -0.31804177694E+01 -0.27221569618E+02  0.98939593529E+01  0.95952063537E+02  0.91420890149E+02 0.  0.
         13    1    3    3    0    0  0.12888224054E+02  0.18190204017E+02  0.35102709810E+02  0.41583665562E+02  0.10566000000E+00 0.  1.
         22    1    1    0    0    0  0.31804177694E+01  0.27221569618E+02 -0.98939593529E+01  0.29137936463E+02  0.00000000000E+00 0. -1.
</event>
<event>
 5    1  0.1258624E-009  0.9118800E+02  0.7815553E-02  0.1125453E+00
         25   -1    0    0    0    0  0.00000000000E+00  0.00000000000E+00  0.99999998245E-14  0.12509000000E+03  0.12509000000E+03 0.  0.
        -13    1    3    3    0    0  0.18752732032E+02  0.18030983932E+01  0.28250022737E+02  0.33955722215E+02  0.10566000000E+00 0.  1.
         23    2    1    0    0    0 -0.22618252603E+02 -0.15340534047E+02 -0.12986177699E+02  0.94831808598E+02  0.89874989709E+02 0.  0.
         13    1    3    3    0    0 -0.41370984635E+02 -0.17143632440E+02 -0.41236200436E+02  0.60876086383E+02  0.10566000000E+00 0. -1.
         22    1    1    0    0    0  0.22618252603E+02  0.15340534047E+02  0.12986177699E+02  0.30258191402E+02  0.00000000000E+00 0. -1.
</event>
<event>
 5    1  0.1258624E-009  0.9118800E+02  0.7815553E-02  0.1125453E+00
         25   -1    0    0    0    0  0.00000000000E+00  0.00000000000E+00  0.99999998245E-14  0.12509000000E+03  0.12509000000E+03 0.  0.
        -13    1    3    3    0    0  0.23691050294E+02  0.49044515745E+02 -0.25914239124E+02  0.60317404968E+02  0.10566000000E+00 0. -1.
         23    2    1    0    0    0  0.12528353892E+02  0.15904151157E+02 -0.21488185121E+02  0.95566386145E+02  0.90891640902E+02 0.  0.
         13    1    3    3    0    0 -0.11162696402E+02 -0.33140364588E+02  0.44260540035E+01  0.35248981177E+02  0.10566000000E+00 0.  1.
         22    1    1    0    0    0 -0.12528353892E+02 -0.15904151157E+02  0.21488185121E+02  0.29523613855E+02  0.00000000000E+00 0. -1.
</event>
<event>
 5    1  0.1258624E-009  0.9118800E+02  0.7815553E-02  0.1125453E+00
         25   -1    0    0    0    0  0.00000000000E+00  0.00000000000E+00  0.99999998245E-14  0.12509000000E+03  0.12509000000E+03 0.  0.
        -13    1    3    3    0    0 -0.35785835246E+02 -0.61937305158E+01 -0.39223920412E+02  0.53455733074E+02  0.10566000000E+00 0. -1.
         23    2    1    0    0    0  0.52591836627E+01  0.73802707174E+01 -0.24241784861E+02  0.99209668822E+02  0.95774562624E+02 0.  0.
         13    1    3    3    0    0  0.41045018909E+02  0.13574001233E+02  0.14982135551E+02  0.45753935748E+02  0.10566000000E+00 0.  1.
         22    1    1    0    0    0 -0.52591836627E+01 -0.73802707174E+01  0.24241784861E+02  0.25880331178E+02  0.00000000000E+00 0. -1.
</event>
<event>
 5    1  0.1258624E-009  0.9118800E+02  0.7815553E-02  0.1125453E+00
         25   -1    0    0    0    0  0.00000000000E+00  0.00000000000E+00  0.99999998245E-14  0.12509000000E+03  0.12509000000E+03 0.  0.
        -13    1    3    3    0    0  0.29026410463E+02 -0.39974314090E+01 -0.27422617376E+02  0.40131322804E+02  0.10566000000E+00 0.  1.
         23    2    1    0    0    0 -0.17969265744E+02  0.18176576673E+02  0.12853570543E+01  0.99498310066E+02  0.96150814413E+02 0.  0.
         13    1    3    3    0    0 -0.46995676208E+02  0.22174008082E+02  0.28707974430E+02  0.59366987262E+02  0.10566000000E+00 0. -1.
         22    1    1    0    0    0  0.17969265744E+02 -0.18176576673E+02 -0.12853570543E+01  0.25591689934E+02  0.00000000000E+00 0. -1.
</event>
<event>
 5    1  0.1258624E-009  0.9118800E+02  0.7815553E-02  0.1125453E+00
         25   -1    0    0    0    0  0.00000000000E+00  0.00000000000E+00  0.99999998245E-14  0.12509000000E+03  0.12509000000E+03 0.  0.
        -13    1    3    3    0    0  0.29537639575E+02 -0.28027689397E+02  0.26941585838E+02  0.48825031860E+02  0.10566000000E+00 0. -1.
         23    2    1    0    0    0 -0.28623023728E+01  0.60681037522E+00  0.32533526201E+02  0.92425166911E+02  0.86460512130E+02 0.  0.
         13    1    3    3    0    0 -0.32399941948E+02  0.28634499772E+02  0.55919403628E+01  0.43600135051E+02  0.10566000000E+00 0.  1.
         22    1    1    0    0    0  0.28623023728E+01 -0.60681037522E+00 -0.32533526201E+02  0.32664833089E+02  0.00000000000E+00 0. -1.
</event>
<event>
 5    1  0.1258624E-009  0.9118800E+02  0.7815553E-02  0.1125453E+00
         25   -1    0    0    0    0  0.00000000000E+00  0.00000000000E+00  0.99999998245E-14  0.12509000000E+03  0.12509000000E+03 0.  0.
        -13    1    3    3    0    0 -0.67735948448E+01 -0.18509955389E+02  0.27824290169E+02  0.34098421123E+02  0.10566000000E+00 0.  1.
         23    2    1    0    0    0 -0.81751990072E+01  0.16491195254E+02 -0.22879424392E+02  0.95725711141E+02  0.91110648737E+02 0.  0.
         13    1    3    3    0    0 -0.14016041624E+01  0.35001150643E+02 -0.50703714561E+02  0.61627290018E+02  0.10566000000E+00 0. -1.
         22    1    1    0    0    0  0.81751990072E+01 -0.16491195254E+02  0.22879424392E+02  0.29364288859E+02  0.00000000000E+00 0. -1.
</event>
<event>
 5    1  0.1258624E-009  0.9118800E+02  0.7815553E-02  0.1125453E+00
         25   -1    0    0    0    0  0.00000000000E+00  0.00000000000E+00  0.99999998245E-14  0.12509000000E+03  0.12509000000E+03 0.  0.
        -13    1    3    3    0    0 -0.41375557181E+02  0.12910776313E+02  0.32616503229E+01  0.43465784290E+02  0.10566000000E+00 0. -1.
         23    2    1    0    0    0 -0.31206198969E+01 -0.13423372729E+02  0.26366973638E+02  0.95338655445E+02  0.90577683340E+02 0.  0.
         13    1    3    3    0    0  0.38254937284E+02 -0.26334149042E+02  0.23105323316E+02  0.51872871156E+02  0.10566000000E+00 0.  1.
         22    1    1    0    0    0  0.31206198969E+01  0.13423372729E+02 -0.26366973638E+02  0.29751344555E+02  0.00000000000E+00 0.  1.
</event>
<event>
 5    1  0.1258624E-009  0.9118800E+02  0.7815553E-02  0.1125453E+00
         25   -1    0    0    0    0  0.00000000000E+00  0.00000000000E+00  0.99999998245E-14  0.12509000000E+03  0.12509000000E+03 0.  0.
        -13    1    3    3    0    0  0.66178332516E+00  0.38301968456E+02  0.36349138815E+02  0.52808614840E+02  0.10566000000E+00 0. -1.
         23    2    1    0    0    0  0.21621460759E+02  0.23448445861E+02  0.58888503122E+01  0.92655516242E+02  0.86793138862E+02 0.  0.
         13    1    3    3    0    0  0.20959677434E+02 -0.14853522595E+02 -0.30460288503E+02  0.39846901402E+02  0.10566000000E+00 0.  1.
         22    1    1    0    0    0 -0.21621460759E+02 -0.23448445861E+02 -0.58888503122E+01  0.32434483758E+02  0.00000000000E+00 0. -1.
</event>
<event>
 5    1  0.1258624E-009  0.9118800E+02  0.7815553E-02  0.1125453E+00
         25   -1    0    0    0    0  0.00000000000E+00  0.00000000000E+00  0.99999998245E-14  0.12509000000E+03  0.12509000000E+03 0.  0.
        -13    1    3    3    0    0 -0.49184223027E+01  0.28003940068E+02  0.21672243769E+02  0.35750648264E+02  0.10566000000E+00 0.  1.
         23    2    1    0    0    0  0.26740571385E+02 -0.14680765705E+02 -0.31813355403E+01  0.94419102793E+02  0.89298729199E+02 0.  0.
         13    1    3    3    0    0  0.31658993688E+02 -0.42684705773E+02 -0.24853579309E+02  0.58668454529E+02  0.10566000000E+00 0. -1.
         22    1    1    0    0    0 -0.26740571385E+02  0.14680765705E+02  0.31813355403E+01  0.30670897207E+02  0.00000000000E+00 0. -1.
</event>
<event>
 5    1  0.1258624E-009  0.9118800E+02  0.7815553E-02  0.1125453E+00
         25   -1    0    0    0    0  0.00000000000E+00  0.00000000000E+00  0.99999998245E-14  0.12509000000E+03  0.12509000000E+03 0.  0.
        -13    1    3    3    0    0  0.19188450093E+02  0.27003264582E-01 -0.52971149551E+02  0.56339605917E+02  0.10566000000E+00 0.  1.
         23    2    1    0    0    0  0.24178668539E+02 -0.57535123819E+01 -0.12984982363E+02  0.97048589836E+02  0.92909138975E+02 0.  0.
         13    1    3    3    0    0  0.49902184456E+01 -0.57805156465E+01  0.39986167188E+02  0.40708983918E+02  0.10566000000E+00 0. -1.
         22    1    1    0    0    0 -0.24178668539E+02  0.57535123819E+01  0.12984982363E+02  0.28041410164E+02  0.00000000000E+00 0.  1.
</event>
<event>
 5    1  0.1258624E-009  0.9118800E+02  0.7815553E-02  0.1125453E+00
         25   -1    0    0    0    0  0.00000000000E+00  0.00000000000E+00  0.99999998245E-14  0.12509000000E+03  0.12509000000E+03 0.  0.
        -13    1    3    3    0    0 -0.44588941018E+02  0.16655916255E+02 -0.27541677349E+02  0.54992257297E+02  0.10566000000E+00 0.  1.
         23    2    1    0    0    0 -0.46107786591E+01  0.53738126964E+01 -0.27666069477E+02  0.96532189456E+02  0.92211252340E+02 0.  0.
         13    1    3    3    0    0  0.39978162359E+02 -0.11282103559E+02 -0.12439212852E+00  0.41539932159E+02  0.10566000000E+00 0. -1.
         22    1    1    0    0    0  0.46107786591E+01 -0.53738126964E+01  0.27666069477E+02  0.28557810544E+02  0.00000000000E+00 0.  1.
</event>
<event>
 5    1  0.1258624E-009  0.9118800E+02  0.7815553E-02  0.1125453E+00
         25   -1    0    0    0    0  0.00000000000E+00  0.00000000000E+00  0.99999998245E-14  0.12509000000E+03  0.12509000000E+03 0.  0.
        -13    1    3    3    0    0  0.34686773659E+02 -0.27099167284E+02 -0.36162193140E+02  0.56967117805E+02  0.10566000000E+00 0. -1.
         23    2    1    0    0    0  0.24461900032E+02  0.38880207681E+01 -0.19250216362E+02  0.93720076687E+02  0.88314102416E+02 0.  0.
         13    1    3    3    0    0 -0.10224873627E+02  0.30987188052E+02  0.16911976777E+02  0.36752958882E+02  0.10566000000E+00 0.  1.
         22    1    1    0    0    0 -0.24461900032E+02 -0.38880207681E+01  0.19250216362E+02  0.31369923313E+02  0.00000000000E+00 0. -1.
</event>
<event>
 5    1  0.1258624E-009  0.9118800E+02  0.7815553E-02  0.1125453E+00
         25   -1    0    0    0    0  0.00000000000E+00  0.00000000000E+00  0.99999998245E-14  0.12509000000E+03  0.12509000000E+03 0.  0.
        -13    1    3    3    0    0  0.35087661891E+02 -0.42703731002E+02  0.90271230822E+01  0.56002256862E+02  0.10566000000E+00 0. -1.
         23    2    1    0    0    0  0.27237026696E+02 -0.81558697496E+01  0.16509289970E+02  0.92212492644E+02  0.86152268164E+02 0.  0.
         13    1    3    3    0    0 -0.78506351950E+01  0.34547861252E+02  0.74821668880E+01  0.36210235783E+02  0.10566000000E+00 0.  1.
         22    1    1    0    0    0 -0.27237026696E+02  0.81558697496E+01 -0.16509289970E+02  0.32877507356E+02  0.00000000000E+00 0. -1.
</event>
<event>
 5    1  0.1258624E-009  0.9118800E+02  0.7815553E-02  0.1125453E+00
         25   -1    0    0    0    0  0.00000000000E+00  0.00000000000E+00  0.99999998245E-14  0.12509000000E+03  0.12509000000E+03 0.  0.
        -13    1    3    3    0    0 -0.12135601904E+01 -0.21151746563E+02 -0.27987207799E+02  0.35102194738E+02  0.10566000000E+00 0.  1.
         23    2    1    0    0    0 -0.21854212318E+02  0.15385724804E+02  0.14384775542E+02  0.94737917845E+02  0.89744215337E+02 0.  0.
         13    1    3    3    0    0 -0.20640652127E+02  0.36537471367E+02  0.42371983341E+02  0.59635723106E+02  0.10566000000E+00 0. -1.
         22    1    1    0    0    0  0.21854212318E+02 -0.15385724804E+02 -0.14384775542E+02  0.30352082155E+02  0.00000000000E+00 0. -1.
</event>
<event>
 5    1  0.1258624E-009  0.9118800E+02  0.7815553E-02  0.1125453E+00
         25   -1    0    0    0    0  0.00000000000E+00  0.00000000000E+00  0.99999998245E-14  0.12509000000E+03  0.12509000000E+03 0.  0.
        -13    1    3    3    0    0 -0.20779233465E+02  0.49745664194E+02 -0.21839598507E+02  0.58166888145E+02  0.10566000000E+00 0. -1.
         23    2    1    0    0    0 -0.20955667067E+02  0.18330326800E+02  0.13520941494E+01  0.97215835951E+02  0.93134041780E+02 0.  0.
         13    1    3    3    0    0 -0.17643360279E+00 -0.31415337394E+02  0.23191692657E+02  0.39048947806E+02  0.10566000000E+00 0.  1.
         22    1    1    0    0    0  0.20955667067E+02 -0.18330326800E+02 -0.13520941494E+01  0.27874164049E+02  0.00000000000E+00 0. -1.
</event>
<event>
 5    1  0.1258624E-009  0.9118800E+02  0.7815553E-02  0.1125453E+00
         25   -1    0    0    0    0  0.00000000000E+00  0.00000000000E+00  0.99999998245E-14  0.12509000000E+03  0.12509000000E+03 0.  0.
        -13    1    3    3    0    0  0.22122787050E+02 -0.26719442476E+02  0.42605686551E+02  0.54941805609E+02  0.10566000000E+00 0.  1.
         23    2    1    0    0    0 -0.84350665500E+01 -0.23436210830E+02  0.17149147469E+02  0.94849305817E+02  0.89899339426E+02 0.  0.
         13    1    3    3    0    0 -0.30557853600E+02  0.32832316456E+01 -0.25456539082E+02  0.39907500207E+02  0.10566000000E+00 0. -1.
         22    1    1    0    0    0  0.84350665500E+01  0.23436210830E+02 -0.17149147469E+02  0.30240694183E+02  0.00000000000E+00 0.  1.
</event>
<event>
 5    1  0.1258624E-009  0.9118800E+02  0.7815553E-02  0.1125453E+00
         25   -1    0    0    0    0  0.00000000000E+00  0.00000000000E+00  0.99999998245E-14  0.12509000000E+03  0.12509000000E+03 0.  0.
        -13    1    3    3    0    0  0.26760551548E+02 -0.54662693664E+01 -0.79211664514E+01  0.28438763369E+02  0.10566000000E+00 0. -1.
         23    2    1    0    0    0 -0.26194473989E+02  0.14282846477E+02  0.17598464253E+02  0.90451060711E+02  0.83555599864E+02 0.  0.
         13    1    3    3    0    0 -0.52955025538E+02  0.19749115843E+02  0.25519630704E+02  0.62012297342E+02  0.10566000000E+00 0.  1.
         22    1    1    0    0    0  0.26194473989E+02 -0.14282846477E+02 -0.17598464253E+02  0.34638939289E+02  0.00000000000E+00 0.  1.
</event>
<event>
 5    1  0.1258624E-009  0.9118800E+02  0.7815553E-02  0.1125453E+00
         25   -1    0    0    0    0  0.00000000000E+00  0.00000000000E+00  0.99999998245E-14  0.12509000000E+03  0.12509000000E+03 0.  0.
        -13    1    3    3    0    0  0.45851049793E+02 -0.40318610590E+02 -0.10794342710E+02  0.62003533170E+02  0.10566000000E+00 0.  1.
         23    2    1    0    0    0  0.18089223377E+02 -0.19752323025E+02 -0.98055393947E+01  0.96567677688E+02  0.92259381658E+02 0.  0.
         13    1    3    3    0    0 -0.27761826417E+02  0.20566287565E+02  0.98880331494E+00  0.34564144517E+02  0.10566000000E+00 0. -1.
         22    1    1    0    0    0 -0.18089223377E+02  0.19752323025E+02  0.98055393947E+01  0.28522322312E+02  0.00000000000E+00 0.  1.
</event>
<event>
 5    1  0.1258624E-009  0.9118800E+02  0.7815553E-02  0.1125453E+00
         25   -1    0    0    0    0  0.00000000000E+00  0.00000000000E+00  0.99999998245E-14  0.12509000000E+03  0.12509000000E+03 0.  0.
        -13    1    3    3    0    0 -0.32203270291E+02 -0.30850168434E+01  0.46921539975E+02  0.56993069965E+02  0.10566000000E+00 0. -1.
         23    2    1    0    0    0 -0.16935892919E+02 -0.18601705366E+02  0.14472302152E+02  0.96067673403E+02  0.91578940985E+02 0.  0.
         13    1    3    3    0    0  0.15267377372E+02 -0.15516688523E+02 -0.32449237823E+02  0.39074603438E+02  0.10566000000E+00 0.  1.
         22    1    1    0    0    0  0.16935892919E+02  0.18601705366E+02 -0.14472302152E+02  0.29022326597E+02  0.00000000000E+00 0. -1.
</event>
<event>
 5    1  0.1258624E-009  0.9118800E+02  0.7815553E-02  0.1125453E+00
         25   -1    0    0    0    0  0.00000000000E+00  0.00000000000E+00  0.99999998245E-14  0.12509000000E+03  0.12509000000E+03 0.  0.
        -13    1    3    3    0    0 -0.28995570529E+02  0.14589809222E+02 -0.46539495769E+02  0.56741003462E+02  0.10566000000E+00 0.  1.
         23    2    1    0    0    0  0.58441213886E+01  0.19356170013E+01 -0.24419897757E+02  0.99906041327E+02  0.96679808229E+02 0.  0.
         13    1    3    3    0    0  0.34839691917E+02 -0.12654192221E+02  0.22119598012E+02  0.43165037865E+02  0.10566000000E+00 0. -1.
         22    1    1    0    0    0 -0.58441213886E+01 -0.19356170013E+01  0.24419897757E+02  0.25183958673E+02  0.00000000000E+00 0.  1.
</event>
<event>
 5    1  0.1258624E-009  0.9118800E+02  0.7815553E-02  0.1125453E+00
         25   -1    0    0    0    0  0.00000000000E+00  0.00000000000E+00  0.99999998245E-14  0.12509000000E+03  0.12509000000E+03 0.  0.
        -13    1    3    3    0    0 -0.15144256346E+01 -0.57910417456E+02  0.14039946410E+02  0.59607392110E+02  0.10566000000E+00 0.  1.
         23    2    1    0    0    0 -0.77735346956E+01 -0.27944128270E+02 -0.49977697435E+01  0.95657367619E+02  0.91016768406E+02 0.  0.
         13    1    3    3    0    0 -0.62591090610E+01  0.29966289186E+02 -0.19037716154E+02  0.36049975509E+02  0.10566000000E+00 0. -1.
         22    1    1    0    0    0  0.77735346956E+01  0.27944128270E+02  0.49977697435E+01  0.29432632381E+02  0.00000000000E+00 0.  1.
</event>
<event>
 5    1  0.1258624E-009  0.9118800E+02  0.7815553E-02  0.1125453E+00
         25   -1    0    0    0    0  0.00000000000E+00  0.00000000000E+00  0.99999998245E-14  0.12509000000E+03  0.12509000000E+03 0.  0.
        -13    1    3    3    0    0  0.23456812463E+02 -0.13919310269E+02  0.54185348373E+02  0.60663270532E+02  0.10566000000E+00 0.  1.
         23    2    1    0    0    0  0.80782437984E+01  0.38393692814E+01  0.27279147877E+02  0.96381975194E+02  0.92007252182E+02 0.  0.
         13    1    3    3    0    0 -0.15378568664E+02  0.17758679551E+02 -0.26906200496E+02  0.35718704662E+02  0.10566000000E+00 0. -1.
         22    1    1    0    0    0 -0.80782437984E+01 -0.38393692814E+01 -0.27279147877E+02  0.28708024806E+02  0.00000000000E+00 0.  1.
</event>
<event>
 5    1  0.1258624E-009  0.9118800E+02  0.7815553E-02  0.1125453E+00
         25   -1    0    0    0    0  0.00000000000E+00  0.00000000000E+00  0.99999998245E-14  0.12509000000E+03  0.12509000000E+03 0.  0.
        -13    1    3    3    0    0  0.50568258300E+02  0.13883745821E+02 -0.32754682359E+02  0.61828695005E+02  0.10566000000E+00 0. -1.
         23    2    1    0    0    0  0.21346162239E+02  0.27570779418E+01 -0.20353410554E+02  0.95467011591E+02  0.90754773207E+02 0.  0.
         13    1    3    3    0    0 -0.29222096062E+02 -0.11126667879E+02  0.12401271805E+02  0.33638316586E+02  0.10566000000E+00 0.  1.
         22    1    1    0    0    0 -0.21346162239E+02 -0.27570779418E+01  0.20353410554E+02  0.29622988409E+02  0.00000000000E+00 0. -1.
</event>
<event>
 5    1  0.1258624E-009  0.9118800E+02  0.7815553E-02  0.1125453E+00
         25   -1    0    0    0    0  0.00000000000E+00  0.00000000000E+00  0.99999998245E-14  0.12509000000E+03  0.12509000000E+03 0.  0.
        -13    1    3    3    0    0 -0.79653183867E+01 -0.28300261117E+02 -0.24470426674E+02  0.38251327061E+02  0.10566000000E+00 0. -1.
         23    2    1    0    0    0 -0.22978035847E+02  0.19788711670E+02  0.10962737102E+01  0.94745559702E+02  0.89754866310E+02 0.  0.
         13    1    3    3    0    0 -0.15012717460E+02  0.48088972787E+02  0.25566700384E+02  0.56494232642E+02  0.10566000000E+00 0.  1.
         22    1    1    0    0    0  0.22978035847E+02 -0.19788711670E+02 -0.10962737102E+01  0.30344440298E+02  0.00000000000E+00 0. -1.
</event>
<event>
 5    1  0.1258624E-009  0.9118800E+02  0.7815553E-02  0.1125453E+00
         25   -1    0    0    0    0  0.00000000000E+00  0.00000000000E+00  0.99999998245E-14  0.12509000000E+03  0.12509000000E+03 0.  0.
        -13    1    3    3    0    0 -0.36418208815E+01 -0.42571170238E+02 -0.11428033548E+02  0.44228706849E+02  0.10566000000E+00 0. -1.
         23    2    1    0    0    0  0.26919421079E+02 -0.73021008714E+01  0.98378745174E+01  0.95513663455E+02  0.90819052094E+02 0.  0.
         13    1    3    3    0    0  0.30561241961E+02  0.35269069366E+02  0.21265908066E+02  0.51284956606E+02  0.10566000000E+00 0.  1.
         22    1    1    0    0    0 -0.26919421079E+02  0.73021008714E+01 -0.98378745174E+01  0.29576336545E+02  0.00000000000E+00 0. -1.
</event>
<event>
 5    1  0.1258624E-009  0.9118800E+02  0.7815553E-02  0.1125453E+00
         25   -1    0    0    0    0  0.00000000000E+00  0.00000000000E+00  0.99999998245E-14  0.12509000000E+03  0.12509000000E+03 0.  0.
        -13    1    3    3    0    0  0.34065381076E+02 -0.81306082561E+01  0.21963561028E+02  0.41339643873E+02  0.10566000000E+00 0. -1.
         23    2    1    0    0    0  0.24393683199E+01 -0.23521785534E+02 -0.18581859473E+02  0.95014920383E+02  0.90129488412E+02 0.  0.
         13    1    3    3    0    0 -0.31626012756E+02 -0.15391177278E+02 -0.40545420500E+02  0.53675276510E+02  0.10566000000E+00 0.  1.
         22    1    1    0    0    0 -0.24393683199E+01  0.23521785534E+02  0.18581859473E+02  0.30075079617E+02  0.00000000000E+00 0. -1.
</event>
<event>
 5    1  0.1258624E-009  0.9118800E+02  0.7815553E-02  0.1125453E+00
         25   -1    0    0    0    0  0.00000000000E+00  0.00000000000E+00  0.99999998245E-14  0.12509000000E+03  0.12509000000E+03 0.  0.
        -13    1    3    3    0    0 -0.44431954264E+02  0.33383291107E+02  0.15522332331E+02  0.57702657217E+02  0.10566000000E+00 0.  1.
         23    2    1    0    0    0 -0.29135462180E+02  0.14182584579E+01  0.12870716882E+01  0.95891658146E+02  0.91338200852E+02 0.  0.
         13    1    3    3    0    0  0.15296492084E+02 -0.31965032650E+02 -0.14235260643E+02  0.38189000929E+02  0.10566000000E+00 0. -1.
         22    1    1    0    0    0  0.29135462180E+02 -0.14182584579E+01 -0.12870716882E+01  0.29198341854E+02  0.00000000000E+00 0.  1.
</event>
<event>
 5    1  0.1258624E-009  0.9118800E+02  0.7815553E-02  0.1125453E+00
         25   -1    0    0    0    0  0.00000000000E+00  0.00000000000E+00  0.99999998245E-14  0.12509000000E+03  0.12509000000E+03 0.  0.
        -13    1    3    3    0    0  0.83062493425E+01  0.20576593067E+01  0.61189922508E+02  0.61785479852E+02  0.10566000000E+00 0. -1.
         23    2    1    0    0    0 -0.19391964848E+01 -0.22070513402E+01  0.31007405178E+02  0.93943720375E+02  0.88630310072E+02 0.  0.
         13    1    3    3    0    0 -0.10245445827E+02 -0.42647106469E+01 -0.30182517330E+02  0.32158240523E+02  0.10566000000E+00 0.  1.
         22    1    1    0    0    0  0.19391964848E+01  0.22070513402E+01 -0.31007405178E+02  0.31146279625E+02  0.00000000000E+00 0. -1.
</event>
<event>
 5    1  0.1258624E-009  0.9118800E+02  0.7815553E-02  0.1125453E+00
         25   -1    0    0    0    0  0.00000000000E+00  0.00000000000E+00  0.99999998245E-14  0.12509000000E+03  0.12509000000E+03 0.  0.
        -13    1    3    3    0    0  0.32823078454E+02 -0.97513774624E+01  0.68993909440E+01  0.34929308625E+02  0.10566000000E+00 0.  1.
         23    2    1    0    0    0 -0.24758122258E+02 -0.62385071331E+01 -0.13612584485E+02  0.96155832562E+02  0.91699280751E+02 0.  0.
         13    1    3    3    0    0 -0.57581200711E+02  0.35128703292E+01 -0.20511975429E+02  0.61226523937E+02  0.10566000000E+00 0. -1.
         22    1    1    0    0    0  0.24758122258E+02  0.62385071331E+01  0.13612584485E+02  0.28934167438E+02  0.00000000000E+00 0. -1.
</event>
<event>
 5    1  0.1258624E-009  0.9118800E+02  0.7815553E-02  0.1125453E+00
         25   -1    0    0    0    0  0.00000000000E+00  0.00000000000E+00  0.99999998245E-14  0.12509000000E+03  0.12509000000E+03 0.  0.
        -13    1    3    3    0    0 -0.17009567739E+02  0.17037915679E+01 -0.33918701008E+02  0.37983124443E+02  0.10566000000E+00 0. -1.
         23    2    1    0    0    0 -0.14331912890E+02 -0.16167782879E+02  0.20489408514E+02  0.95313888911E+02  0.90543473690E+02 0.  0.
         13    1    3    3    0    0  0.26776548492E+01 -0.17871574446E+02  0.54408109522E+02  0.57330764468E+02  0.10566000000E+00 0.  1.
         22    1    1    0    0    0  0.14331912890E+02  0.16167782879E+02 -0.20489408514E+02  0.29776111089E+02  0.00000000000E+00 0.  1.
</event>
<event>
 5    1  0.1258624E-009  0.9118800E+02  0.7815553E-02  0.1125453E+00
         25   -1    0    0    0    0  0.00000000000E+00  0.00000000000E+00  0.99999998245E-14  0.12509000000E+03  0.12509000000E+03 0.  0.
        -13    1    3    3    0    0 -0.27748316842E+02  0.24667380165E+02 -0.10863408983E+02  0.38684280406E+02  0.10566000000E+00 0. -1.
         23    2    1    0    0    0  0.26789213635E+02  0.10088752818E+02  0.13086230001E+01  0.96434156011E+02  0.92078168155E+02 0.  0.
         13    1    3    3    0    0  0.54537530477E+02 -0.14578627347E+02  0.12172031983E+02  0.57749875605E+02  0.10566000000E+00 0.  1.
         22    1    1    0    0    0 -0.26789213635E+02 -0.10088752818E+02 -0.13086230001E+01  0.28655843989E+02  0.00000000000E+00 0.  1.
</event>
<event>
 5    1  0.1258624E-009  0.9118800E+02  0.7815553E-02  0.1125453E+00
         25   -1    0    0    0    0  0.00000000000E+00  0.00000000000E+00  0.99999998245E-14  0.12509000000E+03  0.12509000000E+03 0.  0.
        -13    1    3    3    0    0  0.29088543159E+02  0.71447379548E+01 -0.25003192365E+02  0.39017450148E+02  0.10566000000E+00 0. -1.
         23    2    1    0    0    0  0.96040616553E+00  0.99647989273E+01  0.25943673131E+02  0.97281839809E+02  0.93222650592E+02 0.  0.
         13    1    3    3    0    0 -0.28128136994E+02  0.28200609726E+01  0.50946865496E+02  0.58264389661E+02  0.10566000000E+00 0.  1.
         22    1    1    0    0    0 -0.96040616553E+00 -0.99647989273E+01 -0.25943673131E+02  0.27808160191E+02  0.00000000000E+00 0.  1.
</event>
<event>
 5    1  0.1258624E-009  0.9118800E+02  0.7815553E-02  0.1125453E+00
         25   -1    0    0    0    0  0.00000000000E+00  0.00000000000E+00  0.99999998245E-14  0.12509000000E+03  0.12509000000E+03 0.  0.
        -13    1    3    3    0    0 -0.23035988558E+02  0.17487656568E+02  0.34100512691E+02  0.44713879622E+02  0.10566000000E+00 0.  1.
         23    2    1    0    0    0  0.15561739166E+02  0.25386128901E+02  0.25185609672E+01  0.95207456337E+02  0.90396312570E+02 0.  0.
         13    1    3    3    0    0  0.38597727724E+02  0.78984723330E+01 -0.31581951724E+02  0.50493576714E+02  0.10566000000E+00 0. -1.
         22    1    1    0    0    0 -0.15561739166E+02 -0.25386128901E+02 -0.25185609672E+01  0.29882543663E+02  0.00000000000E+00 0. -1.
</event>
<event>
 5    1  0.1258624E-009  0.9118800E+02  0.7815553E-02  0.1125453E+00
         25   -1    0    0    0    0  0.00000000000E+00  0.00000000000E+00  0.99999998245E-14  0.12509000000E+03  0.12509000000E+03 0.  0.
        -13    1    3    3    0    0 -0.22782961874E+02 -0.24064288594E+02  0.15446739249E+02  0.36561814161E+02  0.10566000000E+00 0.  1.
         23    2    1    0    0    0  0.18265265173E+02  0.19241398366E+02  0.10914650167E+02  0.96402356123E+02  0.92034957244E+02 0.  0.
         13    1    3    3    0    0  0.41048227047E+02  0.43305686960E+02 -0.45320890824E+01  0.59840541962E+02  0.10566000000E+00 0. -1.
         22    1    1    0    0    0 -0.18265265173E+02 -0.19241398366E+02 -0.10914650167E+02  0.28687643877E+02  0.00000000000E+00 0. -1.
</event>
<event>
 5    1  0.1258624E-009  0.9118800E+02  0.7815553E-02  0.1125453E+00
         25   -1    0    0    0    0  0.00000000000E+00  0.00000000000E+00  0.99999998245E-14  0.12509000000E+03  0.12509000000E+03 0.  0.
        -13    1    3    3    0    0  0.48896306252E+01 -0.42104691489E+02 -0.25961537238E+02  0.49706399113E+02  0.10566000000E+00 0.  1.
         23    2    1    0    0    0 -0.16531909053E+00  0.46364728976E+01 -0.27945438086E+02  0.96762068181E+02  0.92522570855E+02 0.  0.
         13    1    3    3    0    0 -0.50549497158E+01  0.46741164386E+02 -0.19839008479E+01  0.47055669068E+02  0.10566000000E+00 0. -1.
         22    1    1    0    0    0  0.16531909053E+00 -0.46364728976E+01  0.27945438086E+02  0.28327931819E+02  0.00000000000E+00 0. -1.
</event>
<event>
 5    1  0.1258624E-009  0.9118800E+02  0.7815553E-02  0.1125453E+00
         25   -1    0    0    0    0  0.00000000000E+00  0.00000000000E+00  0.99999998245E-14  0.12509000000E+03  0.12509000000E+03 0.  0.
        -13    1    3    3    0    0 -0.47348314909E+02 -0.11745310662E+02  0.20244655057E+02  0.52817350081E+02  0.10566000000E+00 0. -1.
         23    2    1    0    0    0 -0.25504568653E+02 -0.61491338768E+01 -0.15157286659E+02  0.94790854657E+02  0.89817971020E+02 0.  0.
         13    1    3    3    0    0  0.21843746255E+02  0.55961767849E+01 -0.35401941716E+02  0.41973504576E+02  0.10566000000E+00 0.  1.
         22    1    1    0    0    0  0.25504568653E+02  0.61491338768E+01  0.15157286659E+02  0.30299145343E+02  0.00000000000E+00 0. -1.
</event>
<event>
 5    1  0.1258624E-009  0.9118800E+02  0.7815553E-02  0.1125453E+00
         25   -1    0    0    0    0  0.00000000000E+00  0.00000000000E+00  0.99999998245E-14  0.12509000000E+03  0.12509000000E+03 0.  0.
        -13    1    3    3    0    0  0.22973050911E+01 -0.17382747718E+02 -0.53313923215E+02  0.56123284843E+02  0.10566000000E+00 0.  1.
         23    2    1    0    0    0  0.47563793456E+00  0.11242214042E+02 -0.29878389469E+02  0.93163024489E+02  0.87521525162E+02 0.  0.
         13    1    3    3    0    0 -0.18216671566E+01  0.28624961761E+02  0.23435533747E+02  0.37039739646E+02  0.10566000000E+00 0. -1.
         22    1    1    0    0    0 -0.47563793456E+00 -0.11242214042E+02  0.29878389469E+02  0.31926975511E+02  0.00000000000E+00 0.  1.
</event>
<event>
 5    1  0.1258624E-009  0.9118800E+02  0.7815553E-02  0.1125453E+00
         25   -1    0    0    0    0  0.00000000000E+00  0.00000000000E+00  0.99999998245E-14  0.12509000000E+03  0.12509000000E+03 0.  0.
        -13    1    3    3    0    0 -0.41973591961E+02  0.44192805817E+02 -0.41003227599E+01  0.61086907917E+02  0.10566000000E+00 0.  1.
         23    2    1    0    0    0 -0.14300867207E+02  0.25585408645E+02  0.42733587640E+01  0.95469238134E+02  0.90757842065E+02 0.  0.
         13    1    3    3    0    0  0.27672724753E+02 -0.18607397172E+02  0.83736815238E+01  0.34382330216E+02  0.10566000000E+00 0. -1.
         22    1    1    0    0    0  0.14300867207E+02 -0.25585408645E+02 -0.42733587640E+01  0.29620761866E+02  0.00000000000E+00 0.  1.
</event>
<event>
 5    1  0.1258624E-009  0.9118800E+02  0.7815553E-02  0.1125453E+00
         25   -1    0    0    0    0  0.00000000000E+00  0.00000000000E+00  0.99999998245E-14  0.12509000000E+03  0.12509000000E+03 0.  0.
        -13    1    3    3    0    0  0.26973607964E+02 -0.18293901286E+02 -0.50331488633E+02  0.59962590529E+02  0.10566000000E+00 0.  1.
         23    2    1    0    0    0  0.22991285981E+02 -0.38426769281E+01 -0.17869633992E+02  0.95718428438E+02  0.91100649430E+02 0.  0.
         13    1    3    3    0    0 -0.39823219832E+01  0.14451224358E+02  0.32461854641E+02  0.35755837909E+02  0.10566000000E+00 0. -1.
         22    1    1    0    0    0 -0.22991285981E+02  0.38426769281E+01  0.17869633992E+02  0.29371571562E+02  0.00000000000E+00 0.  1.
</event>
<event>
 5    1  0.1258624E-009  0.9118800E+02  0.7815553E-02  0.1125453E+00
         25   -1    0    0    0    0  0.00000000000E+00  0.00000000000E+00  0.99999998245E-14  0.12509000000E+03  0.12509000000E+03 0.  0.
        -13    1    3    3    0    0  0.41080533313E+02 -0.38276953108E+02 -0.14362229315E+01  0.56167688727E+02  0.10566000000E+00 0.  1.
         23    2    1    0    0    0  0.26455300639E+02 -0.54252433978E+00 -0.86002889715E+01  0.97266588366E+02  0.93202183330E+02 0.  0.
         13    1    3    3    0    0 -0.14625232674E+02  0.37734428769E+02 -0.71640660400E+01  0.41098899639E+02  0.10566000000E+00 0. -1.
         22    1    1    0    0    0 -0.26455300639E+02  0.54252433978E+00  0.86002889715E+01  0.27823411634E+02  0.00000000000E+00 0.  1.
</event>
<event>
 5    1  0.1258624E-009  0.9118800E+02  0.7815553E-02  0.1125453E+00
         25   -1    0    0    0    0  0.00000000000E+00  0.00000000000E+00  0.99999998245E-14  0.12509000000E+03  0.12509000000E+03 0.  0.
        -13    1    3    3    0    0  0.33922809738E+02  0.22507371826E+02 -0.42182040980E+02  0.58623157133E+02  0.10566000000E+00 0. -1.
         23    2    1    0    0    0  0.14426296319E+02  0.23893284223E+02 -0.11716387467E+02  0.94819869645E+02  0.89858371273E+02 0.  0.
         13    1    3    3    0    0 -0.19496513419E+02  0.13859123972E+01  0.30465653513E+02  0.36196712512E+02  0.10566000000E+00 0.  1.
         22    1    1    0    0    0 -0.14426296319E+02 -0.23893284223E+02  0.11716387467E+02  0.30270130355E+02  0.00000000000E+00 0. -1.
</event>
<event>
 5    1  0.1258624E-009  0.9118800E+02  0.7815553E-02  0.1125453E+00
         25   -1    0    0    0    0  0.00000000000E+00  0.00000000000E+00  0.99999998245E-14  0.12509000000E+03  0.12509000000E+03 0.  0.
        -13    1    3    3    0    0 -0.28043069400E+02 -0.16327317855E+02 -0.26234007109E+01  0.32555927955E+02  0.10566000000E+00 0. -1.
         23    2    1    0    0    0  0.25889518152E+02  0.75295392686E+01  0.15167137415E+02  0.94154532182E+02  0.88927345408E+02 0.  0.
         13    1    3    3    0    0  0.53932587552E+02  0.23856857123E+02  0.17790538126E+02  0.61598604227E+02  0.10566000000E+00 0.  1.
         22    1    1    0    0    0 -0.25889518152E+02 -0.75295392686E+01 -0.15167137415E+02  0.30935467818E+02  0.00000000000E+00 0.  1.
</event>
<event>
 5    1  0.1258624E-009  0.9118800E+02  0.7815553E-02  0.1125453E+00
         25   -1    0    0    0    0  0.00000000000E+00  0.00000000000E+00  0.99999998245E-14  0.12509000000E+03  0.12509000000E+03 0.  0.
        -13    1    3    3    0    0 -0.36884614171E+02 -0.12813497871E+02  0.46683343291E+02  0.60860547114E+02  0.10566000000E+00 0.  1.
         23    2    1    0    0    0 -0.18665485606E+02  0.42185307094E+01  0.21586236762E+02  0.96242782252E+02  0.91817815068E+02 0.  0.
         13    1    3    3    0    0  0.18219128565E+02  0.17032028580E+02 -0.25097106528E+02  0.35382235138E+02  0.10566000000E+00 0. -1.
         22    1    1    0    0    0  0.18665485606E+02 -0.42185307094E+01 -0.21586236762E+02  0.28847217748E+02  0.00000000000E+00 0.  1.
</event>
<event>
 5    1  0.1258624E-009  0.9118800E+02  0.7815553E-02  0.1125453E+00
         25   -1    0    0    0    0  0.00000000000E+00  0.00000000000E+00  0.99999998245E-14  0.12509000000E+03  0.12509000000E+03 0.  0.
        -13    1    3    3    0    0 -0.14082465624E+02 -0.49800264322E+02 -0.23027985511E+02  0.56645224382E+02  0.10566000000E+00 0.  1.
         23    2    1    0    0    0  0.91912352784E+01 -0.15457063313E+02 -0.19927998549E+02  0.98247408129E+02  0.94509409403E+02 0.  0.
         13    1    3    3    0    0  0.23273700903E+02  0.34343201009E+02  0.30999869620E+01  0.41602183746E+02  0.10566000000E+00 0. -1.
         22    1    1    0    0    0 -0.91912352784E+01  0.15457063313E+02  0.19927998549E+02  0.26842591871E+02  0.00000000000E+00 0.  1.
</event>
<event>
 5    1  0.1258624E-009  0.9118800E+02  0.7815553E-02  0.1125453E+00
         25   -1    0    0    0    0  0.00000000000E+00  0.00000000000E+00  0.99999998245E-14  0.12509000000E+03  0.12509000000E+03 0.  0.
        -13    1    3    3    0    0  0.13587614054E+01 -0.30905190474E+02 -0.14275700984E+02  0.34070277859E+02  0.10566000000E+00 0. -1.
         23    2    1    0    0    0  0.11752886950E+02  0.22593059182E+02  0.14588046059E+02  0.95740591783E+02  0.91131076765E+02 0.  0.
         13    1    3    3    0    0  0.10394125544E+02  0.53498249656E+02  0.28863747043E+02  0.61670313924E+02  0.10566000000E+00 0.  1.
         22    1    1    0    0    0 -0.11752886950E+02 -0.22593059182E+02 -0.14588046059E+02  0.29349408217E+02  0.00000000000E+00 0.  1.
</event>
<event>
 5    1  0.1258624E-009  0.9118800E+02  0.7815553E-02  0.1125453E+00
         25   -1    0    0    0    0  0.00000000000E+00  0.00000000000E+00  0.99999998245E-14  0.12509000000E+03  0.12509000000E+03 0.  0.
        -13    1    3    3    0    0  0.85166878585E+01 -0.38778460639E+02  0.12709150462E+02  0.41687368004E+02  0.10566000000E+00 0.  1.
         23    2    1    0    0    0 -0.99911227459E+01  0.68601388135E+01  0.29079879345E+02  0.93585660283E+02  0.88123506454E+02 0.  0.
         13    1    3    3    0    0 -0.18507810604E+02  0.45638599452E+02  0.16370728883E+02  0.51898292280E+02  0.10566000000E+00 0. -1.
         22    1    1    0    0    0  0.99911227459E+01 -0.68601388135E+01 -0.29079879345E+02  0.31504339717E+02  0.00000000000E+00 0. -1.
</event>
<event>
 5    1  0.1258624E-009  0.9118800E+02  0.7815553E-02  0.1125453E+00
         25   -1    0    0    0    0  0.00000000000E+00  0.00000000000E+00  0.99999998245E-14  0.12509000000E+03  0.12509000000E+03 0.  0.
        -13    1    3    3    0    0  0.24181362163E+02 -0.75109163786E+01  0.36506885299E+02  0.44428774225E+02  0.10566000000E+00 0.  1.
         23    2    1    0    0    0 -0.22750929207E+02  0.22682119790E+01  0.18641766821E+02  0.95589745161E+02  0.90923783161E+02 0.  0.
         13    1    3    3    0    0 -0.46932291371E+02  0.97791283575E+01 -0.17865118478E+02  0.51160970935E+02  0.10566000000E+00 0. -1.
         22    1    1    0    0    0  0.22750929207E+02 -0.22682119790E+01 -0.18641766821E+02  0.29500254839E+02  0.00000000000E+00 0. -1.
</event>
<event>
 5    1  0.1258624E-009  0.9118800E+02  0.7815553E-02  0.1125453E+00
         25   -1    0    0    0    0  0.00000000000E+00  0.00000000000E+00  0.99999998245E-14  0.12509000000E+03  0.12509000000E+03 0.  0.
        -13    1    3    3    0    0  0.23260878760E+02 -0.13900109905E+02 -0.38691240475E+02  0.47236689021E+02  0.10566000000E+00 0. -1.
         23    2    1    0    0    0 -0.20277165557E+02 -0.12769378914E+02 -0.12417266547E+02  0.98100946860E+02  0.94315358163E+02 0.  0.
         13    1    3    3    0    0 -0.43538044318E+02  0.11307309912E+01  0.26273973928E+02  0.50864257839E+02  0.10566000000E+00 0.  1.
         22    1    1    0    0    0  0.20277165557E+02  0.12769378914E+02  0.12417266547E+02  0.26989053140E+02  0.00000000000E+00 0.  1.
</event>
<event>
 5    1  0.1258624E-009  0.9118800E+02  0.7815553E-02  0.1125453E+00
         25   -1    0    0    0    0  0.00000000000E+00  0.00000000000E+00  0.99999998245E-14  0.12509000000E+03  0.12509000000E+03 0.  0.
        -13    1    3    3    0    0 -0.53085345144E+01 -0.12076145566E+02 -0.51365646346E+02  0.53032580731E+02  0.10566000000E+00 0.  1.
         23    2    1    0    0    0  0.29204481926E+01 -0.26369378906E+02 -0.11502065456E+02  0.96173384166E+02  0.91723220347E+02 0.  0.
         13    1    3    3    0    0  0.82289827070E+01 -0.14293233339E+02  0.39863580890E+02  0.43140803436E+02  0.10566000000E+00 0. -1.
         22    1    1    0    0    0 -0.29204481926E+01  0.26369378906E+02  0.11502065456E+02  0.28916615834E+02  0.00000000000E+00 0.  1.
</event>
<event>
 5    1  0.1258624E-009  0.9118800E+02  0.7815553E-02  0.1125453E+00
         25   -1    0    0    0    0  0.00000000000E+00  0.00000000000E+00  0.99999998245E-14  0.12509000000E+03  0.12509000000E+03 0.  0.
        -13    1    3    3    0    0 -0.29555514081E+02 -0.67250450133E+01 -0.18167955128E+01  0.30365548785E+02  0.10566000000E+00 0. -1.
         23    2    1    0    0    0  0.14922051411E+02  0.99683533619E+01  0.31808465774E+02  0.88568579136E+02  0.80688159157E+02 0.  0.
         13    1    3    3    0    0  0.44477565492E+02  0.16693398375E+02  0.33625261287E+02  0.58203030351E+02  0.10566000000E+00 0.  1.
         22    1    1    0    0    0 -0.14922051411E+02 -0.99683533619E+01 -0.31808465774E+02  0.36521420864E+02  0.00000000000E+00 0.  1.
</event>
<event>
 5    1  0.1258624E-009  0.9118800E+02  0.7815553E-02  0.1125453E+00
         25   -1    0    0    0    0  0.00000000000E+00  0.00000000000E+00  0.99999998245E-14  0.12509000000E+03  0.12509000000E+03 0.  0.
        -13    1    3    3    0    0 -0.28030703672E+02 -0.54056603576E+02  0.23855990836E+01  0.60938813457E+02  0.10566000000E+00 0. -1.
         23    2    1    0    0    0 -0.52819039338E+01 -0.28873026553E+02 -0.39843851888E+01  0.95468631078E+02  0.90757005367E+02 0.  0.
         13    1    3    3    0    0  0.22748799738E+02  0.25183577024E+02 -0.63699842725E+01  0.34529817621E+02  0.10566000000E+00 0.  1.
         22    1    1    0    0    0  0.52819039338E+01  0.28873026553E+02  0.39843851888E+01  0.29621368922E+02  0.00000000000E+00 0. -1.
</event>
<event>
 5    1  0.1258624E-009  0.9118800E+02  0.7815553E-02  0.1125453E+00
         25   -1    0    0    0    0  0.00000000000E+00  0.00000000000E+00  0.99999998245E-14  0.12509000000E+03  0.12509000000E+03 0.  0.
        -13    1    3    3    0    0 -0.77120848418E+01  0.59027162202E+02 -0.16209823225E+02  0.61696447736E+02  0.10566000000E+00 0.  1.
         23    2    1    0    0    0 -0.28087468845E+00  0.26036520876E+02 -0.13853786590E+02  0.95595819001E+02  0.90932138970E+02 0.  0.
         13    1    3    3    0    0  0.74312101534E+01 -0.32990641327E+02  0.23560366346E+01  0.33899371265E+02  0.10566000000E+00 0. -1.
         22    1    1    0    0    0  0.28087468845E+00 -0.26036520876E+02  0.13853786590E+02  0.29494180999E+02  0.00000000000E+00 0.  1.
</event>
<event>
 5    1  0.1258624E-009  0.9118800E+02  0.7815553E-02  0.1125453E+00
         25   -1    0    0    0    0  0.00000000000E+00  0.00000000000E+00  0.99999998245E-14  0.12509000000E+03  0.12509000000E+03 0.  0.
        -13    1    3    3    0    0  0.14237114249E+02 -0.32014167805E+01  0.57000365981E+02  0.58838740448E+02  0.10566000000E+00 0.  1.
         23    2    1    0    0    0 -0.86227454891E+01 -0.31763575748E+01  0.27085024792E+02  0.96488609209E+02  0.92152114202E+02 0.  0.
         13    1    3    3    0    0 -0.22859859738E+02  0.25059205742E-01 -0.29915341189E+02  0.37649868761E+02  0.10566000000E+00 0. -1.
         22    1    1    0    0    0  0.86227454891E+01  0.31763575748E+01 -0.27085024792E+02  0.28601390791E+02  0.00000000000E+00 0.  1.
</event>
<event>
 5    1  0.1258624E-009  0.9118800E+02  0.7815553E-02  0.1125453E+00
         25   -1    0    0    0    0  0.00000000000E+00  0.00000000000E+00  0.99999998245E-14  0.12509000000E+03  0.12509000000E+03 0.  0.
        -13    1    3    3    0    0 -0.20551349687E+02 -0.59803726524E+01  0.45990782480E+02  0.50727567143E+02  0.10566000000E+00 0.  1.
         23    2    1    0    0    0  0.12263871118E+02  0.13780992427E+02  0.23732194046E+02  0.95031135728E+02  0.90151990752E+02 0.  0.
         13    1    3    3    0    0  0.32815220805E+02  0.19761365080E+02 -0.22258588434E+02  0.44303568586E+02  0.10566000000E+00 0. -1.
         22    1    1    0    0    0 -0.12263871118E+02 -0.13780992427E+02 -0.23732194046E+02  0.30058864272E+02  0.00000000000E+00 0.  1.
</event>
<event>
 5    1  0.1258624E-009  0.9118800E+02  0.7815553E-02  0.1125453E+00
         25   -1    0    0    0    0  0.00000000000E+00  0.00000000000E+00  0.99999998245E-14  0.12509000000E+03  0.12509000000E+03 0.  0.
        -13    1    3    3    0    0 -0.31564266975E+02 -0.24389133813E+02 -0.38512559511E+01  0.40074632054E+02  0.10566000000E+00 0. -1.
         23    2    1    0    0    0  0.24331883516E+02 -0.13687066235E+02 -0.31997498769E+01  0.96989915715E+02  0.92830108336E+02 0.  0.
         13    1    3    3    0    0  0.55896150490E+02  0.10702067578E+02  0.65150607417E+00  0.56915283662E+02  0.10566000000E+00 0.  1.
         22    1    1    0    0    0 -0.24331883516E+02  0.13687066235E+02  0.31997498769E+01  0.28100084285E+02  0.00000000000E+00 0.  1.
</event>
<event>
 5    1  0.1258624E-009  0.9118800E+02  0.7815553E-02  0.1125453E+00
         25   -1    0    0    0    0  0.00000000000E+00  0.00000000000E+00  0.99999998245E-14  0.12509000000E+03  0.12509000000E+03 0.  0.
        -13    1    3    3    0    0  0.25652516172E+02  0.14757112394E+02  0.36662699202E+02  0.47116755289E+02  0.10566000000E+00 0.  1.
         23    2    1    0    0    0 -0.19067972159E+02  0.10419030893E+02  0.21461755742E+02  0.94549031997E+02  0.89480549424E+02 0.  0.
         13    1    3    3    0    0 -0.44720488331E+02 -0.43380815009E+01 -0.15200943460E+02  0.47432276709E+02  0.10566000000E+00 0. -1.
         22    1    1    0    0    0  0.19067972159E+02 -0.10419030893E+02 -0.21461755742E+02  0.30540968003E+02  0.00000000000E+00 0.  1.
</event>
<event>
 5    1  0.1258624E-009  0.9118800E+02  0.7815553E-02  0.1125453E+00
         25   -1    0    0    0    0  0.00000000000E+00  0.00000000000E+00  0.99999998245E-14  0.12509000000E+03  0.12509000000E+03 0.  0.
        -13    1    3    3    0    0 -0.98668229727E+01  0.40775905088E+02 -0.32311112380E+02  0.52953260321E+02  0.10566000000E+00 0.  1.
         23    2    1    0    0    0  0.54102858282E+00  0.36411655877E+02  0.15455305380E+01  0.88641542416E+02  0.80801194184E+02 0.  0.
         13    1    3    3    0    0  0.10407851556E+02 -0.43642492107E+01  0.33856642918E+02  0.35688282095E+02  0.10566000000E+00 0. -1.
         22    1    1    0    0    0 -0.54102858282E+00 -0.36411655877E+02 -0.15455305380E+01  0.36448457584E+02  0.00000000000E+00 0.  1.
</event>
<event>
 5    1  0.1258624E-009  0.9118800E+02  0.7815553E-02  0.1125453E+00
         25   -1    0    0    0    0  0.00000000000E+00  0.00000000000E+00  0.99999998245E-14  0.12509000000E+03  0.12509000000E+03 0.  0.
        -13    1    3    3    0    0 -0.12949829364E+02 -0.13301498374E+02  0.33472294859E+02  0.38275757689E+02  0.10566000000E+00 0. -1.
         23    2    1    0    0    0  0.25427048839E+02  0.91348052715E+01 -0.56430149154E+01  0.97488856956E+02  0.93500022102E+02 0.  0.
         13    1    3    3    0    0  0.38376878204E+02  0.22436303646E+02 -0.39115309774E+02  0.59213099266E+02  0.10566000000E+00 0.  1.
         22    1    1    0    0    0 -0.25427048839E+02 -0.91348052715E+01  0.56430149154E+01  0.27601143044E+02  0.00000000000E+00 0.  1.
</event>
<event>
 5    1  0.1258624E-009  0.9118800E+02  0.7815553E-02  0.1125453E+00
         25   -1    0    0    0    0  0.00000000000E+00  0.00000000000E+00  0.99999998245E-14  0.12509000000E+03  0.12509000000E+03 0.  0.
        -13    1    3    3    0    0  0.20687128771E+02  0.46294621200E+02 -0.71651947019E+01  0.51210354695E+02  0.10566000000E+00 0. -1.
         23    2    1    0    0    0  0.16381826094E+02  0.12363617873E+02  0.21154226830E+02  0.95615865816E+02  0.90959712016E+02 0.  0.
         13    1    3    3    0    0 -0.43053026767E+01 -0.33931003328E+02  0.28319421532E+02  0.44405511121E+02  0.10566000000E+00 0.  1.
         22    1    1    0    0    0 -0.16381826094E+02 -0.12363617873E+02 -0.21154226830E+02  0.29474134184E+02  0.00000000000E+00 0. -1.
</event>
<event>
 5    1  0.1258624E-009  0.9118800E+02  0.7815553E-02  0.1125453E+00
         25   -1    0    0    0    0  0.00000000000E+00  0.00000000000E+00  0.99999998245E-14  0.12509000000E+03  0.12509000000E+03 0.  0.
        -13    1    3    3    0    0  0.58646077412E+00  0.22936241511E+02 -0.39775087199E+02  0.45918229895E+02  0.10566000000E+00 0.  1.
         23    2    1    0    0    0 -0.87543529770E+01  0.26839040788E+02  0.87862276094E+01  0.95523623792E+02  0.90832769969E+02 0.  0.
         13    1    3    3    0    0 -0.93408137511E+01  0.39027992769E+01  0.48561314809E+02  0.49605393897E+02  0.10566000000E+00 0. -1.
         22    1    1    0    0    0  0.87543529770E+01 -0.26839040788E+02 -0.87862276094E+01  0.29566376208E+02  0.00000000000E+00 0. -1.
</event>
<event>
 5    1  0.1258624E-009  0.9118800E+02  0.7815553E-02  0.1125453E+00
         25   -1    0    0    0    0  0.00000000000E+00  0.00000000000E+00  0.99999998245E-14  0.12509000000E+03  0.12509000000E+03 0.  0.
        -13    1    3    3    0    0  0.37699653586E+02 -0.24006927234E+01  0.34899717058E+02  0.51429841734E+02  0.10566000000E+00 0. -1.
         23    2    1    0    0    0  0.25923180505E+01  0.20497379241E+02  0.21102916742E+02  0.95557039369E+02  0.90878776451E+02 0.  0.
         13    1    3    3    0    0 -0.35107335536E+02  0.22898071964E+02 -0.13796800316E+02  0.44127197635E+02  0.10566000000E+00 0.  1.
         22    1    1    0    0    0 -0.25923180505E+01 -0.20497379241E+02 -0.21102916742E+02  0.29532960631E+02  0.00000000000E+00 0. -1.
</event>
<event>
 5    1  0.1258624E-009  0.9118800E+02  0.7815553E-02  0.1125453E+00
         25   -1    0    0    0    0  0.00000000000E+00  0.00000000000E+00  0.99999998245E-14  0.12509000000E+03  0.12509000000E+03 0.  0.
        -13    1    3    3    0    0  0.14284468171E+02  0.20121947900E+00  0.43434412645E+02  0.45723581291E+02  0.10566000000E+00 0. -1.
         23    2    1    0    0    0 -0.19264264534E+01 -0.29085505786E+02  0.71775234531E+01  0.95070096459E+02  0.90206034344E+02 0.  0.
         13    1    3    3    0    0 -0.16210894624E+02 -0.29286725265E+02 -0.36256889192E+02  0.49346515168E+02  0.10566000000E+00 0.  1.
         22    1    1    0    0    0  0.19264264534E+01  0.29085505786E+02 -0.71775234531E+01  0.30019903541E+02  0.00000000000E+00 0.  1.
</event>
<event>
 5    1  0.1258624E-009  0.9118800E+02  0.7815553E-02  0.1125453E+00
         25   -1    0    0    0    0  0.00000000000E+00  0.00000000000E+00  0.99999998245E-14  0.12509000000E+03  0.12509000000E+03 0.  0.
        -13    1    3    3    0    0  0.24341968360E+02  0.49113441662E+02 -0.91222268307E+00  0.54822485258E+02  0.10566000000E+00 0. -1.
         23    2    1    0    0    0  0.29610555426E+02  0.15424744998E+02 -0.10229356416E+02  0.90170843602E+02  0.83135032040E+02 0.  0.
         13    1    3    3    0    0  0.52685870655E+01 -0.33688696664E+02 -0.93171337332E+01  0.35348358344E+02  0.10566000000E+00 0.  1.
         22    1    1    0    0    0 -0.29610555426E+02 -0.15424744998E+02  0.10229356416E+02  0.34919156398E+02  0.00000000000E+00 0. -1.
</event>
<event>
 5    1  0.1258624E-009  0.9118800E+02  0.7815553E-02  0.1125453E+00
         25   -1    0    0    0    0  0.00000000000E+00  0.00000000000E+00  0.99999998245E-14  0.12509000000E+03  0.12509000000E+03 0.  0.
        -13    1    3    3    0    0 -0.35861888299E+02 -0.15847352546E+02  0.15853446471E+02  0.42291329421E+02  0.10566000000E+00 0.  1.
         23    2    1    0    0    0  0.15941037505E+02 -0.23581638039E+02  0.15635708935E+01  0.96582894162E+02  0.92280010627E+02 0.  0.
         13    1    3    3    0    0  0.51802925805E+02 -0.77342854927E+01 -0.14289875577E+02  0.54291564741E+02  0.10566000000E+00 0. -1.
         22    1    1    0    0    0 -0.15941037505E+02  0.23581638039E+02 -0.15635708935E+01  0.28507105838E+02  0.00000000000E+00 0. -1.
</event>
<event>
 5    1  0.1258624E-009  0.9118800E+02  0.7815553E-02  0.1125453E+00
         25   -1    0    0    0    0  0.00000000000E+00  0.00000000000E+00  0.99999998245E-14  0.12509000000E+03  0.12509000000E+03 0.  0.
        -13    1    3    3    0    0  0.17385223970E+02 -0.37803788659E+02 -0.26342012804E+02  0.49247185220E+02  0.10566000000E+00 0.  1.
         23    2    1    0    0    0  0.11802994398E+02  0.88076538693E+01 -0.24835938307E+02  0.96215975773E+02  0.91781287412E+02 0.  0.
         13    1    3    3    0    0 -0.55822295727E+01  0.46611442529E+02  0.15060744970E+01  0.46968790553E+02  0.10566000000E+00 0. -1.
         22    1    1    0    0    0 -0.11802994398E+02 -0.88076538693E+01  0.24835938307E+02  0.28874024227E+02  0.00000000000E+00 0.  1.
</event>
<event>
 5    1  0.1258624E-009  0.9118800E+02  0.7815553E-02  0.1125453E+00
         25   -1    0    0    0    0  0.00000000000E+00  0.00000000000E+00  0.99999998245E-14  0.12509000000E+03  0.12509000000E+03 0.  0.
        -13    1    3    3    0    0  0.50235443676E+02 -0.61172981780E+01 -0.11690651596E+02  0.51939422765E+02  0.10566000000E+00 0.  1.
         23    2    1    0    0    0  0.19148700952E+02 -0.15166725243E+02  0.17104874233E+02  0.95269218232E+02  0.90481738031E+02 0.  0.
         13    1    3    3    0    0 -0.31086742724E+02 -0.90494270650E+01  0.28795525829E+02  0.43329795467E+02  0.10566000000E+00 0. -1.
         22    1    1    0    0    0 -0.19148700952E+02  0.15166725243E+02 -0.17104874233E+02  0.29820781768E+02  0.00000000000E+00 0.  1.
</event>
<event>
 5    1  0.1258624E-009  0.9118800E+02  0.7815553E-02  0.1125453E+00
         25   -1    0    0    0    0  0.00000000000E+00  0.00000000000E+00  0.99999998245E-14  0.12509000000E+03  0.12509000000E+03 0.  0.
        -13    1    3    3    0    0 -0.29109381764E+02 -0.84397700794E+01  0.48238376898E+01  0.30689841964E+02  0.10566000000E+00 0.  1.
         23    2    1    0    0    0  0.31995235423E+02 -0.82174761401E+01  0.41325093769E+01  0.91798865480E+02  0.85549588344E+02 0.  0.
         13    1    3    3    0    0  0.61104617187E+02  0.22229393934E+00 -0.69132831283E+00  0.61109023516E+02  0.10566000000E+00 0. -1.
         22    1    1    0    0    0 -0.31995235423E+02  0.82174761401E+01 -0.41325093769E+01  0.33291134520E+02  0.00000000000E+00 0. -1.
</event>
<event>
 5    1  0.1258624E-009  0.9118800E+02  0.7815553E-02  0.1125453E+00
         25   -1    0    0    0    0  0.00000000000E+00  0.00000000000E+00  0.99999998245E-14  0.12509000000E+03  0.12509000000E+03 0.  0.
        -13    1    3    3    0    0  0.29809291295E+02 -0.99786466705E+01 -0.49676145107E+02  0.58786884537E+02  0.10566000000E+00 0. -1.
         23    2    1    0    0    0  0.69517503540E+00 -0.70969312278E+01 -0.30499023480E+02  0.93768439783E+02  0.88382578402E+02 0.  0.
         13    1    3    3    0    0 -0.29114116260E+02  0.28817154427E+01  0.19177121627E+02  0.34981555246E+02  0.10566000000E+00 0.  1.
         22    1    1    0    0    0 -0.69517503540E+00  0.70969312278E+01  0.30499023480E+02  0.31321560217E+02  0.00000000000E+00 0. -1.
</event>
<event>
 5    1  0.1258624E-009  0.9118800E+02  0.7815553E-02  0.1125453E+00
         25   -1    0    0    0    0  0.00000000000E+00  0.00000000000E+00  0.99999998245E-14  0.12509000000E+03  0.12509000000E+03 0.  0.
        -13    1    3    3    0    0  0.28315280078E+02  0.41983420572E+02 -0.24199718631E+02  0.56124862892E+02  0.10566000000E+00 0. -1.
         23    2    1    0    0    0  0.17062905609E+02  0.37701436138E+01 -0.23293077925E+02  0.95970861793E+02  0.91446607938E+02 0.  0.
         13    1    3    3    0    0 -0.11252374468E+02 -0.38213276958E+02  0.90664070549E+00  0.39845998901E+02  0.10566000000E+00 0.  1.
         22    1    1    0    0    0 -0.17062905609E+02 -0.37701436138E+01  0.23293077925E+02  0.29119138207E+02  0.00000000000E+00 0. -1.
</event>
<event>
 5    1  0.1258624E-009  0.9118800E+02  0.7815553E-02  0.1125453E+00
         25   -1    0    0    0    0  0.00000000000E+00  0.00000000000E+00  0.99999998245E-14  0.12509000000E+03  0.12509000000E+03 0.  0.
        -13    1    3    3    0    0  0.27244148011E+02 -0.16966867025E+02 -0.47176561165E+02  0.57059243466E+02  0.10566000000E+00 0.  1.
         23    2    1    0    0    0  0.17103880594E+02 -0.21355834896E+02 -0.98127095160E+01  0.96022773033E+02  0.91517589880E+02 0.  0.
         13    1    3    3    0    0 -0.10140267417E+02 -0.43889678712E+01  0.37363851649E+02  0.38963529568E+02  0.10566000000E+00 0. -1.
         22    1    1    0    0    0 -0.17103880594E+02  0.21355834896E+02  0.98127095160E+01  0.29067226967E+02  0.00000000000E+00 0.  1.
</event>
<event>
 5    1  0.1258624E-009  0.9118800E+02  0.7815553E-02  0.1125453E+00
         25   -1    0    0    0    0  0.00000000000E+00  0.00000000000E+00  0.99999998245E-14  0.12509000000E+03  0.12509000000E+03 0.  0.
        -13    1    3    3    0    0  0.12488510497E+02  0.28199374139E+02  0.20016451015E+02  0.36767337020E+02  0.10566000000E+00 0. -1.
         23    2    1    0    0    0 -0.13296305363E+02 -0.23167170322E+02  0.14984923171E+02  0.94462276619E+02  0.89359186795E+02 0.  0.
         13    1    3    3    0    0 -0.25784815860E+02 -0.51366544462E+02 -0.50315278446E+01  0.57694939599E+02  0.10566000000E+00 0.  1.
         22    1    1    0    0    0  0.13296305363E+02  0.23167170322E+02 -0.14984923171E+02  0.30627723381E+02  0.00000000000E+00 0.  1.
</event>
<event>
 5    1  0.1258624E-009  0.9118800E+02  0.7815553E-02  0.1125453E+00
         25   -1    0    0    0    0  0.00000000000E+00  0.00000000000E+00  0.99999998245E-14  0.12509000000E+03  0.12509000000E+03 0.  0.
        -13    1    3    3    0    0  0.29387515763E+02 -0.76556895358E+01  0.40036054058E+01  0.30631286053E+02  0.10566000000E+00 0.  1.
         23    2    1    0    0    0 -0.32154872324E+02  0.63719870579E+00  0.35678633723E+01  0.92731516021E+02  0.86902603978E+02 0.  0.
         13    1    3    3    0    0 -0.61542388087E+02  0.82928882416E+01 -0.43574203357E+00  0.62100229968E+02  0.10566000000E+00 0. -1.
         22    1    1    0    0    0  0.32154872324E+02 -0.63719870579E+00 -0.35678633723E+01  0.32358483979E+02  0.00000000000E+00 0. -1.
</event>
<event>
 5    1  0.1258624E-009  0.9118800E+02  0.7815553E-02  0.1125453E+00
         25   -1    0    0    0    0  0.00000000000E+00  0.00000000000E+00  0.99999998245E-14  0.12509000000E+03  0.12509000000E+03 0.  0.
        -13    1    3    3    0    0 -0.23069548516E+02  0.58621569868E+01  0.26660806699E+02  0.35740435520E+02  0.10566000000E+00 0.  1.
         23    2    1    0    0    0  0.92843195834E+01  0.19779013830E+02 -0.20854268201E+02  0.94885555287E+02  0.89949764434E+02 0.  0.
         13    1    3    3    0    0  0.32353868100E+02  0.13916856843E+02 -0.47515074900E+02  0.59145119767E+02  0.10566000000E+00 0. -1.
         22    1    1    0    0    0 -0.92843195834E+01 -0.19779013830E+02  0.20854268201E+02  0.30204444713E+02  0.00000000000E+00 0. -1.
</event>
<event>
 5    1  0.1258624E-009  0.9118800E+02  0.7815553E-02  0.1125453E+00
         25   -1    0    0    0    0  0.00000000000E+00  0.00000000000E+00  0.99999998245E-14  0.12509000000E+03  0.12509000000E+03 0.  0.
        -13    1    3    3    0    0  0.32008704782E+02 -0.27725540950E+02  0.43590619240E+02  0.60773481491E+02  0.10566000000E+00 0.  1.
         23    2    1    0    0    0  0.10045364766E+02 -0.22170897865E+02  0.18978325975E+02  0.94225215500E+02  0.89026716854E+02 0.  0.
         13    1    3    3    0    0 -0.21963340015E+02  0.55546430846E+01 -0.24612293265E+02  0.33451734009E+02  0.10566000000E+00 0. -1.
         22    1    1    0    0    0 -0.10045364766E+02  0.22170897865E+02 -0.18978325975E+02  0.30864784500E+02  0.00000000000E+00 0.  1.
</event>
<event>
 5    1  0.1258624E-009  0.9118800E+02  0.7815553E-02  0.1125453E+00
         25   -1    0    0    0    0  0.00000000000E+00  0.00000000000E+00  0.99999998245E-14  0.12509000000E+03  0.12509000000E+03 0.  0.
        -13    1    3    3    0    0 -0.49147742152E+02  0.62987095150E+01 -0.19024887710E+02  0.53076659810E+02  0.10566000000E+00 0. -1.
         23    2    1    0    0    0 -0.20218324112E+02  0.15548725182E+02  0.12356248042E+02  0.96748857638E+02  0.92504708550E+02 0.  0.
         13    1    3    3    0    0  0.28929418040E+02  0.92500156674E+01  0.31381135752E+02  0.43672197828E+02  0.10566000000E+00 0.  1.
         22    1    1    0    0    0  0.20218324112E+02 -0.15548725182E+02 -0.12356248042E+02  0.28341142362E+02  0.00000000000E+00 0. -1.
</event>
<event>
 5    1  0.1258624E-009  0.9118800E+02  0.7815553E-02  0.1125453E+00
         25   -1    0    0    0    0  0.00000000000E+00  0.00000000000E+00  0.99999998245E-14  0.12509000000E+03  0.12509000000E+03 0.  0.
        -13    1    3    3    0    0 -0.34029731564E+02  0.86241003951E+01 -0.80271125270E+01  0.36011712504E+02  0.10566000000E+00 0. -1.
         23    2    1    0    0    0  0.18783313354E+02  0.65944062405E+01  0.20870201050E+02  0.96247941369E+02  0.91824843434E+02 0.  0.
         13    1    3    3    0    0  0.52813044918E+02 -0.20296941546E+01  0.28897313577E+02  0.60236228865E+02  0.10566000000E+00 0.  1.
         22    1    1    0    0    0 -0.18783313354E+02 -0.65944062405E+01 -0.20870201050E+02  0.28842058631E+02  0.00000000000E+00 0.  1.
</event>
<event>
 5    1  0.1258624E-009  0.9118800E+02  0.7815553E-02  0.1125453E+00
         25   -1    0    0    0    0  0.00000000000E+00  0.00000000000E+00  0.99999998245E-14  0.12509000000E+03  0.12509000000E+03 0.  0.
        -13    1    3    3    0    0 -0.11255741904E+02 -0.48048411818E+02 -0.37776425518E+02  0.62148299196E+02  0.10566000000E+00 0. -1.
         23    2    1    0    0    0 -0.20054545313E+01 -0.24904191153E+02 -0.14780472882E+02  0.96060653410E+02  0.91569351696E+02 0.  0.
         13    1    3    3    0    0  0.92502873723E+01  0.23144220665E+02  0.22995952636E+02  0.33912354214E+02  0.10566000000E+00 0.  1.
         22    1    1    0    0    0  0.20054545313E+01  0.24904191153E+02  0.14780472882E+02  0.29029346590E+02  0.00000000000E+00 0. -1.
</event>
<event>
 5    1  0.1258624E-009  0.9118800E+02  0.7815553E-02  0.1125453E+00
         25   -1    0    0    0    0  0.00000000000E+00  0.00000000000E+00  0.99999998245E-14  0.12509000000E+03  0.12509000000E+03 0.  0.
        -13    1    3    3    0    0 -0.25651686838E+02 -0.31602623445E+02  0.10220089888E+02  0.41966608721E+02  0.10566000000E+00 0.  1.
         23    2    1    0    0    0 -0.99992994146E+01 -0.34662994829E+00 -0.28946027059E+02  0.94463563321E+02  0.89360987974E+02 0.  0.
         13    1    3    3    0    0  0.15652387423E+02  0.31255993496E+02 -0.39166116948E+02  0.52496954600E+02  0.10566000000E+00 0. -1.
         22    1    1    0    0    0  0.99992994146E+01  0.34662994829E+00  0.28946027059E+02  0.30626436679E+02  0.00000000000E+00 0. -1.
</event>
<event>
 5    1  0.1258624E-009  0.9118800E+02  0.7815553E-02  0.1125453E+00
         25   -1    0    0    0    0  0.00000000000E+00  0.00000000000E+00  0.99999998245E-14  0.12509000000E+03  0.12509000000E+03 0.  0.
        -13    1    3    3    0    0  0.13097299781E+02 -0.51306414843E+02  0.32848260633E+02  0.62312975023E+02  0.10566000000E+00 0.  1.
         23    2    1    0    0    0  0.97132523407E+01 -0.26809898022E+02  0.14542142282E+02  0.93080754380E+02  0.87403861648E+02 0.  0.
         13    1    3    3    0    0 -0.33840474400E+01  0.24496516821E+02 -0.18306118351E+02  0.30767779357E+02  0.10566000000E+00 0. -1.
         22    1    1    0    0    0 -0.97132523407E+01  0.26809898022E+02 -0.14542142282E+02  0.32009245620E+02  0.00000000000E+00 0.  1.
</event>
<event>
 5    1  0.1258624E-009  0.9118800E+02  0.7815553E-02  0.1125453E+00
         25   -1    0    0    0    0  0.00000000000E+00  0.00000000000E+00  0.99999998245E-14  0.12509000000E+03  0.12509000000E+03 0.  0.
        -13    1    3    3    0    0  0.32429137187E+02 -0.51723837677E+02  0.12268005783E+02  0.62269731432E+02  0.10566000000E+00 0. -1.
         23    2    1    0    0    0  0.77715878218E+01 -0.19815507622E+02  0.43137402397E+01  0.10337225899E+03  0.10106514560E+03 0.  0.
         13    1    3    3    0    0 -0.24657549365E+02  0.31908330054E+02 -0.79542655438E+01  0.41102527561E+02  0.10566000000E+00 0.  1.
         22    1    1    0    0    0 -0.77715878218E+01  0.19815507622E+02 -0.43137402397E+01  0.21717741007E+02  0.00000000000E+00 0. -1.
</event>
<event>
 5    1  0.1258624E-009  0.9118800E+02  0.7815553E-02  0.1125453E+00
         25   -1    0    0    0    0  0.00000000000E+00  0.00000000000E+00  0.99999998245E-14  0.12509000000E+03  0.12509000000E+03 0.  0.
        -13    1    3    3    0    0 -0.23464423647E+01 -0.46269755042E+02  0.26302465249E+02  0.53275011643E+02  0.10566000000E+00 0. -1.
         23    2    1    0    0    0 -0.21070203146E+02 -0.13167968401E+02 -0.12103154161E+01  0.10021403337E+03  0.97077488473E+02 0.  0.
         13    1    3    3    0    0 -0.18723760781E+02  0.33101786641E+02 -0.27512780665E+02  0.46939021726E+02  0.10566000000E+00 0.  1.
         22    1    1    0    0    0  0.21070203146E+02  0.13167968401E+02  0.12103154161E+01  0.24875966631E+02  0.00000000000E+00 0. -1.
</event>
<event>
 5    1  0.1258624E-009  0.9118800E+02  0.7815553E-02  0.1125453E+00
         25   -1    0    0    0    0  0.00000000000E+00  0.00000000000E+00  0.99999998245E-14  0.12509000000E+03  0.12509000000E+03 0.  0.
        -13    1    3    3    0    0 -0.13700073458E+02  0.42102261352E+02 -0.60919487746E+01  0.44692453811E+02  0.10566000000E+00 0.  1.
         23    2    1    0    0    0 -0.23213428644E+02 -0.12729660547E+01  0.18432735553E+02  0.95421001838E+02  0.90691334425E+02 0.  0.
         13    1    3    3    0    0 -0.95133551856E+01 -0.43375227407E+02  0.24524684328E+02  0.50728548027E+02  0.10566000000E+00 0. -1.
         22    1    1    0    0    0  0.23213428644E+02  0.12729660547E+01 -0.18432735553E+02  0.29668998162E+02  0.00000000000E+00 0.  1.
</event>
<event>
 5    1  0.1258624E-009  0.9118800E+02  0.7815553E-02  0.1125453E+00
         25   -1    0    0    0    0  0.00000000000E+00  0.00000000000E+00  0.99999998245E-14  0.12509000000E+03  0.12509000000E+03 0.  0.
        -13    1    3    3    0    0  0.28152481310E+02 -0.45355145704E+02  0.17764545994E+02  0.56260480838E+02  0.10566000000E+00 0. -1.
         23    2    1    0    0    0 -0.84970975966E+00 -0.29850093242E+02 -0.28786010727E+01  0.95089393050E+02  0.90232789236E+02 0.  0.
         13    1    3    3    0    0 -0.29002191070E+02  0.15505052462E+02 -0.20643147067E+02  0.38828912212E+02  0.10566000000E+00 0.  1.
         22    1    1    0    0    0  0.84970975966E+00  0.29850093242E+02  0.28786010727E+01  0.30000606950E+02  0.00000000000E+00 0. -1.
</event>
<event>
 5    1  0.1258624E-009  0.9118800E+02  0.7815553E-02  0.1125453E+00
         25   -1    0    0    0    0  0.00000000000E+00  0.00000000000E+00  0.99999998245E-14  0.12509000000E+03  0.12509000000E+03 0.  0.
        -13    1    3    3    0    0  0.19744236669E+02 -0.10900601285E+02 -0.34755487511E+02  0.41432029472E+02  0.10566000000E+00 0.  1.
         23    2    1    0    0    0 -0.26927515353E+02 -0.51914353120E+01 -0.46197761230E+01  0.97280210085E+02  0.93220463736E+02 0.  0.
         13    1    3    3    0    0 -0.46671752022E+02  0.57091659725E+01  0.30135711388E+02  0.55848180613E+02  0.10566000000E+00 0. -1.
         22    1    1    0    0    0  0.26927515353E+02  0.51914353120E+01  0.46197761230E+01  0.27809789915E+02  0.00000000000E+00 0. -1.
</event>
<event>
 5    1  0.1258624E-009  0.9118800E+02  0.7815553E-02  0.1125453E+00
         25   -1    0    0    0    0  0.00000000000E+00  0.00000000000E+00  0.99999998245E-14  0.12509000000E+03  0.12509000000E+03 0.  0.
        -13    1    3    3    0    0  0.16233742339E+02 -0.99499485538E+01  0.26640505556E+02  0.32745435818E+02  0.10566000000E+00 0.  1.
         23    2    1    0    0    0 -0.17618018344E+02  0.28248180979E+02 -0.28225097103E+01  0.91678611821E+02  0.85373573225E+02 0.  0.
         13    1    3    3    0    0 -0.33851760683E+02  0.38198129533E+02 -0.29463015267E+02  0.58933176003E+02  0.10566000000E+00 0. -1.
         22    1    1    0    0    0  0.17618018344E+02 -0.28248180979E+02  0.28225097103E+01  0.33411388179E+02  0.00000000000E+00 0. -1.
</event>
<event>
 5    1  0.1258624E-009  0.9118800E+02  0.7815553E-02  0.1125453E+00
         25   -1    0    0    0    0  0.00000000000E+00  0.00000000000E+00  0.99999998245E-14  0.12509000000E+03  0.12509000000E+03 0.  0.
        -13    1    3    3    0    0 -0.10266942574E+02  0.28516979768E+02 -0.22766742368E+02  0.37907307567E+02  0.10566000000E+00 0.  1.
         23    2    1    0    0    0 -0.20064438807E+02 -0.87536322405E+01  0.19973944827E+02  0.95456129953E+02  0.90739773482E+02 0.  0.
         13    1    3    3    0    0 -0.97974962332E+01 -0.37270612009E+02  0.42740687195E+02  0.57548822385E+02  0.10566000000E+00 0. -1.
         22    1    1    0    0    0  0.20064438807E+02  0.87536322405E+01 -0.19973944827E+02  0.29633870047E+02  0.00000000000E+00 0. -1.
</event>
<event>
 5    1  0.1258624E-009  0.9118800E+02  0.7815553E-02  0.1125453E+00
         25   -1    0    0    0    0  0.00000000000E+00  0.00000000000E+00  0.99999998245E-14  0.12509000000E+03  0.12509000000E+03 0.  0.
        -13    1    3    3    0    0 -0.16635924719E+02 -0.20125958616E+02 -0.47908831738E+02  0.54562583553E+02  0.10566000000E+00 0. -1.
         23    2    1    0    0    0 -0.73570510890E+01 -0.29408925268E+02 -0.12548703242E+02  0.92280229516E+02  0.86250563594E+02 0.  0.
         13    1    3    3    0    0  0.92788736303E+01 -0.92829666525E+01  0.35360128495E+02  0.37717645963E+02  0.10566000000E+00 0.  1.
         22    1    1    0    0    0  0.73570510890E+01  0.29408925268E+02  0.12548703242E+02  0.32809770484E+02  0.00000000000E+00 0. -1.
</event>
<event>
 5    1  0.1258624E-009  0.9118800E+02  0.7815553E-02  0.1125453E+00
         25   -1    0    0    0    0  0.00000000000E+00  0.00000000000E+00  0.99999998245E-14  0.12509000000E+03  0.12509000000E+03 0.  0.
        -13    1    3    3    0    0  0.28502530296E+02  0.39465593192E+00 -0.18455015686E+02  0.33958044034E+02  0.10566000000E+00 0. -1.
         23    2    1    0    0    0 -0.19202757078E+02 -0.12621871155E+02  0.18417042098E+02  0.95640977088E+02  0.90994239091E+02 0.  0.
         13    1    3    3    0    0 -0.47705287374E+02 -0.13016527087E+02  0.36872057784E+02  0.61682933054E+02  0.10566000000E+00 0.  1.
         22    1    1    0    0    0  0.19202757078E+02  0.12621871155E+02 -0.18417042098E+02  0.29449022912E+02  0.00000000000E+00 0.  1.
</event>
<event>
 5    1  0.1258624E-009  0.9118800E+02  0.7815553E-02  0.1125453E+00
         25   -1    0    0    0    0  0.00000000000E+00  0.00000000000E+00  0.99999998245E-14  0.12509000000E+03  0.12509000000E+03 0.  0.
        -13    1    3    3    0    0 -0.30792497540E+02  0.36934908902E+02  0.34035936326E+02  0.58913678598E+02  0.10566000000E+00 0.  1.
         23    2    1    0    0    0 -0.76011912623E+01  0.90757752126E+01  0.26680148058E+02  0.95901336024E+02  0.91351453992E+02 0.  0.
         13    1    3    3    0    0  0.23191306278E+02 -0.27859133689E+02 -0.73557882680E+01  0.36987657426E+02  0.10566000000E+00 0. -1.
         22    1    1    0    0    0  0.76011912623E+01 -0.90757752126E+01 -0.26680148058E+02  0.29188663976E+02  0.00000000000E+00 0.  1.
</event>
<event>
 5    1  0.1258624E-009  0.9118800E+02  0.7815553E-02  0.1125453E+00
         25   -1    0    0    0    0  0.00000000000E+00  0.00000000000E+00  0.99999998245E-14  0.12509000000E+03  0.12509000000E+03 0.  0.
        -13    1    3    3    0    0 -0.23472742929E+02  0.11492949396E+02  0.25253367779E+02  0.36342830031E+02  0.10566000000E+00 0.  1.
         23    2    1    0    0    0  0.23157257878E+02 -0.16772174172E+02 -0.14709016426E+00  0.96496538258E+02  0.92162876698E+02 0.  0.
         13    1    3    3    0    0  0.46630000808E+02 -0.28265123568E+02 -0.25400457944E+02  0.60153708227E+02  0.10566000000E+00 0. -1.
         22    1    1    0    0    0 -0.23157257878E+02  0.16772174172E+02  0.14709016426E+00  0.28593461742E+02  0.00000000000E+00 0. -1.
</event>
<event>
 5    1  0.1258624E-009  0.9118800E+02  0.7815553E-02  0.1125453E+00
         25   -1    0    0    0    0  0.00000000000E+00  0.00000000000E+00  0.99999998245E-14  0.12509000000E+03  0.12509000000E+03 0.  0.
        -13    1    3    3    0    0 -0.21577687728E+02  0.37123824305E+02 -0.35105287081E+02  0.55463206577E+02  0.10566000000E+00 0.  1.
         23    2    1    0    0    0 -0.15211861056E+02  0.23594845904E+02  0.34396366543E+01  0.96806637924E+02  0.92582809289E+02 0.  0.
         13    1    3    3    0    0  0.63658266713E+01 -0.13528978402E+02  0.38544923735E+02  0.41343431347E+02  0.10566000000E+00 0. -1.
         22    1    1    0    0    0  0.15211861056E+02 -0.23594845904E+02 -0.34396366543E+01  0.28283362076E+02  0.00000000000E+00 0.  1.
</event>
<event>
 5    1  0.1258624E-009  0.9118800E+02  0.7815553E-02  0.1125453E+00
         25   -1    0    0    0    0  0.00000000000E+00  0.00000000000E+00  0.99999998245E-14  0.12509000000E+03  0.12509000000E+03 0.  0.
        -13    1    3    3    0    0  0.45282937220E+02  0.25269414218E+02  0.59826555896E+01  0.52200488792E+02  0.10566000000E+00 0.  1.
         23    2    1    0    0    0  0.21956146948E+02 -0.13073417710E+02  0.10816838128E+02  0.97341295048E+02  0.93302395978E+02 0.  0.
         13    1    3    3    0    0 -0.23326790272E+02 -0.38342831928E+02  0.48341825380E+01  0.45140806256E+02  0.10566000000E+00 0. -1.
         22    1    1    0    0    0 -0.21956146948E+02  0.13073417710E+02 -0.10816838128E+02  0.27748704952E+02  0.00000000000E+00 0. -1.
</event>
<event>
 5    1  0.1258624E-009  0.9118800E+02  0.7815553E-02  0.1125453E+00
         25   -1    0    0    0    0  0.00000000000E+00  0.00000000000E+00  0.99999998245E-14  0.12509000000E+03  0.12509000000E+03 0.  0.
        -13    1    3    3    0    0 -0.21214185103E+02 -0.11561091339E+02  0.31569614592E+02  0.39753644010E+02  0.10566000000E+00 0. -1.
         23    2    1    0    0    0  0.27550379611E+02  0.45485884173E+01  0.11410276399E+02  0.94925327272E+02  0.90005056952E+02 0.  0.
         13    1    3    3    0    0  0.48764564714E+02  0.16109679757E+02 -0.20159338193E+02  0.55171683262E+02  0.10566000000E+00 0.  1.
         22    1    1    0    0    0 -0.27550379611E+02 -0.45485884173E+01 -0.11410276399E+02  0.30164672728E+02  0.00000000000E+00 0.  1.
</event>
<event>
 5    1  0.1258624E-009  0.9118800E+02  0.7815553E-02  0.1125453E+00
         25   -1    0    0    0    0  0.00000000000E+00  0.00000000000E+00  0.99999998245E-14  0.12509000000E+03  0.12509000000E+03 0.  0.
        -13    1    3    3    0    0  0.74990177992E+01 -0.36402620544E+02  0.20905317621E+02  0.42643047725E+02  0.10566000000E+00 0. -1.
         23    2    1    0    0    0 -0.79436384783E+01  0.14915074295E+02  0.23323030479E+02  0.96288531561E+02  0.91880121495E+02 0.  0.
         13    1    3    3    0    0 -0.15442656278E+02  0.51317694839E+02  0.24177128588E+01  0.53645483836E+02  0.10566000000E+00 0.  1.
         22    1    1    0    0    0  0.79436384783E+01 -0.14915074295E+02 -0.23323030479E+02  0.28801468439E+02  0.00000000000E+00 0. -1.
</event>
<event>
 5    1  0.1258624E-009  0.9118800E+02  0.7815553E-02  0.1125453E+00
         25   -1    0    0    0    0  0.00000000000E+00  0.00000000000E+00  0.99999998245E-14  0.12509000000E+03  0.12509000000E+03 0.  0.
        -13    1    3    3    0    0 -0.86046212572E+01  0.49370534913E+02  0.62960218282E+01  0.50508813879E+02  0.10566000000E+00 0.  1.
         23    2    1    0    0    0  0.20086895926E+02  0.17522009029E+02 -0.10352590158E+02  0.96494890080E+02  0.92160639648E+02 0.  0.
         13    1    3    3    0    0  0.28691517183E+02 -0.31848525884E+02 -0.16648611986E+02  0.45986076201E+02  0.10566000000E+00 0. -1.
         22    1    1    0    0    0 -0.20086895926E+02 -0.17522009029E+02  0.10352590158E+02  0.28595109920E+02  0.00000000000E+00 0. -1.
</event>
<event>
 5    1  0.1258624E-009  0.9118800E+02  0.7815553E-02  0.1125453E+00
         25   -1    0    0    0    0  0.00000000000E+00  0.00000000000E+00  0.99999998245E-14  0.12509000000E+03  0.12509000000E+03 0.  0.
        -13    1    3    3    0    0 -0.76606700465E+01  0.28270863227E+02  0.28299448932E+02  0.40728338378E+02  0.10566000000E+00 0.  1.
         23    2    1    0    0    0 -0.10717909771E-01  0.12647742899E+02 -0.25150779750E+02  0.96938139718E+02  0.92760313144E+02 0.  0.
         13    1    3    3    0    0  0.76499521367E+01 -0.15623120328E+02 -0.53450228682E+02  0.56209801340E+02  0.10566000000E+00 0. -1.
         22    1    1    0    0    0  0.10717909771E-01 -0.12647742899E+02  0.25150779750E+02  0.28151860282E+02  0.00000000000E+00 0. -1.
</event>
<event>
 5    1  0.1258624E-009  0.9118800E+02  0.7815553E-02  0.1125453E+00
         25   -1    0    0    0    0  0.00000000000E+00  0.00000000000E+00  0.99999998245E-14  0.12509000000E+03  0.12509000000E+03 0.  0.
        -13    1    3    3    0    0 -0.42027911938E+02  0.41881785361E+01 -0.36610656118E+02  0.55894879253E+02  0.10566000000E+00 0. -1.
         23    2    1    0    0    0 -0.35075740972E+01 -0.14354570457E+01 -0.29351621489E+02  0.95494708195E+02  0.90792940234E+02 0.  0.
         13    1    3    3    0    0  0.38520337840E+02 -0.56236355818E+01  0.72590346289E+01  0.39599828942E+02  0.10566000000E+00 0.  1.
         22    1    1    0    0    0  0.35075740972E+01  0.14354570457E+01  0.29351621489E+02  0.29595291805E+02  0.00000000000E+00 0. -1.
</event>
<event>
 5    1  0.1258624E-009  0.9118800E+02  0.7815553E-02  0.1125453E+00
         25   -1    0    0    0    0  0.00000000000E+00  0.00000000000E+00  0.99999998245E-14  0.12509000000E+03  0.12509000000E+03 0.  0.
        -13    1    3    3    0    0  0.16202529980E+02  0.25489218853E+02  0.35415133264E+02  0.46545301413E+02  0.10566000000E+00 0.  1.
         23    2    1    0    0    0 -0.18440032985E+02  0.24000250491E+02  0.19088840858E+01  0.94763597666E+02  0.89780002027E+02 0.  0.
         13    1    3    3    0    0 -0.34642562964E+02 -0.14889683625E+01 -0.33506249178E+02  0.48218296253E+02  0.10566000000E+00 0. -1.
         22    1    1    0    0    0  0.18440032985E+02 -0.24000250491E+02 -0.19088840858E+01  0.30326402334E+02  0.00000000000E+00 0. -1.
</event>
<event>
 5    1  0.1258624E-009  0.9118800E+02  0.7815553E-02  0.1125453E+00
         25   -1    0    0    0    0  0.00000000000E+00  0.00000000000E+00  0.99999998245E-14  0.12509000000E+03  0.12509000000E+03 0.  0.
        -13    1    3    3    0    0 -0.17198098145E+02 -0.56614075737E+02  0.39697395304E+01  0.59301755011E+02  0.10566000000E+00 0. -1.
         23    2    1    0    0    0  0.60411346119E+01 -0.28600606777E+02  0.64853528784E+00  0.95851145484E+02  0.91282700864E+02 0.  0.
         13    1    3    3    0    0  0.23239232757E+02  0.28013468960E+02 -0.33212042426E+01  0.36549390473E+02  0.10566000000E+00 0.  1.
         22    1    1    0    0    0 -0.60411346119E+01  0.28600606777E+02 -0.64853528784E+00  0.29238854516E+02  0.00000000000E+00 0. -1.
</event>
<event>
 5    1  0.1258624E-009  0.9118800E+02  0.7815553E-02  0.1125453E+00
         25   -1    0    0    0    0  0.00000000000E+00  0.00000000000E+00  0.99999998245E-14  0.12509000000E+03  0.12509000000E+03 0.  0.
        -13    1    3    3    0    0  0.41227622310E+01 -0.33319474214E+02  0.85186184407E+01  0.34637588751E+02  0.10566000000E+00 0.  1.
         23    2    1    0    0    0 -0.29444054869E+01  0.27671707737E+02  0.83470625129E+01  0.96037179391E+02  0.91537278963E+02 0.  0.
         13    1    3    3    0    0 -0.70671677179E+01  0.60991181951E+02 -0.17155592778E+00  0.61399590640E+02  0.10566000000E+00 0. -1.
         22    1    1    0    0    0  0.29444054869E+01 -0.27671707737E+02 -0.83470625129E+01  0.29052820609E+02  0.00000000000E+00 0. -1.
</event>
<event>
 5    1  0.1258624E-009  0.9118800E+02  0.7815553E-02  0.1125453E+00
         25   -1    0    0    0    0  0.00000000000E+00  0.00000000000E+00  0.99999998245E-14  0.12509000000E+03  0.12509000000E+03 0.  0.
        -13    1    3    3    0    0 -0.50974035138E+02  0.24866838359E+02  0.26080487538E+02  0.62425274548E+02  0.10566000000E+00 0. -1.
         23    2    1    0    0    0 -0.21833433354E+02  0.12466796753E+02  0.13941249385E+02  0.96341464946E+02  0.91952159301E+02 0.  0.
         13    1    3    3    0    0  0.29140601783E+02 -0.12400041606E+02 -0.12139238153E+02  0.33916190397E+02  0.10566000000E+00 0.  1.
         22    1    1    0    0    0  0.21833433354E+02 -0.12466796753E+02 -0.13941249385E+02  0.28748535054E+02  0.00000000000E+00 0. -1.
</event>
<event>
 5    1  0.1258624E-009  0.9118800E+02  0.7815553E-02  0.1125453E+00
         25   -1    0    0    0    0  0.00000000000E+00  0.00000000000E+00  0.99999998245E-14  0.12509000000E+03  0.12509000000E+03 0.  0.
        -13    1    3    3    0    0 -0.13648816120E+02  0.27665646006E+02  0.29787096250E+02  0.42883101770E+02  0.10566000000E+00 0. -1.
         23    2    1    0    0    0  0.21255705319E+02  0.23524335354E+02 -0.57512427797E+01  0.92867707158E+02  0.87098420634E+02 0.  0.
         13    1    3    3    0    0  0.34904521438E+02 -0.41413106513E+01 -0.35538339030E+02  0.49984605388E+02  0.10566000000E+00 0.  1.
         22    1    1    0    0    0 -0.21255705319E+02 -0.23524335354E+02  0.57512427797E+01  0.32222292842E+02  0.00000000000E+00 0.  1.
</event>
<event>
 5    1  0.1258624E-009  0.9118800E+02  0.7815553E-02  0.1125453E+00
         25   -1    0    0    0    0  0.00000000000E+00  0.00000000000E+00  0.99999998245E-14  0.12509000000E+03  0.12509000000E+03 0.  0.
        -13    1    3    3    0    0 -0.44697859724E+02 -0.13778433580E+02  0.22762714511E+02  0.52018229802E+02  0.10566000000E+00 0.  1.
         23    2    1    0    0    0 -0.32898130403E+01 -0.76836971052E+01  0.29515545422E+02  0.94413795987E+02  0.89291295097E+02 0.  0.
         13    1    3    3    0    0  0.41408046683E+02  0.60947364745E+01  0.67528309111E+01  0.42395566185E+02  0.10566000000E+00 0. -1.
         22    1    1    0    0    0  0.32898130403E+01  0.76836971052E+01 -0.29515545422E+02  0.30676204013E+02  0.00000000000E+00 0.  1.
</event>
<event>
 5    1  0.1258624E-009  0.9118800E+02  0.7815553E-02  0.1125453E+00
         25   -1    0    0    0    0  0.00000000000E+00  0.00000000000E+00  0.99999998245E-14  0.12509000000E+03  0.12509000000E+03 0.  0.
        -13    1    3    3    0    0  0.35317707048E+02  0.23431669937E+02 -0.10374927057E+01  0.42396593522E+02  0.10566000000E+00 0. -1.
         23    2    1    0    0    0  0.34169726458E-01  0.89036870649E+01 -0.32212171749E+02  0.91669933876E+02  0.85360857290E+02 0.  0.
         13    1    3    3    0    0 -0.35283537321E+02 -0.14527982872E+02 -0.31174679043E+02  0.49273340355E+02  0.10566000000E+00 0.  1.
         22    1    1    0    0    0 -0.34169726458E-01 -0.89036870649E+01  0.32212171749E+02  0.33420066124E+02  0.00000000000E+00 0.  1.
</event>
<event>
 5    1  0.1258624E-009  0.9118800E+02  0.7815553E-02  0.1125453E+00
         25   -1    0    0    0    0  0.00000000000E+00  0.00000000000E+00  0.99999998245E-14  0.12509000000E+03  0.12509000000E+03 0.  0.
        -13    1    3    3    0    0  0.40647974043E+02 -0.30087545488E+02 -0.30547675526E+02  0.59082060148E+02  0.10566000000E+00 0.  1.
         23    2    1    0    0    0  0.18895556100E+02 -0.93590060309E+00 -0.21278025541E+02  0.96617692030E+02  0.92327168764E+02 0.  0.
         13    1    3    3    0    0 -0.21752417943E+02  0.29151644885E+02  0.92696499851E+01  0.37535631882E+02  0.10566000000E+00 0. -1.
         22    1    1    0    0    0 -0.18895556100E+02  0.93590060309E+00  0.21278025541E+02  0.28472307970E+02  0.00000000000E+00 0.  1.
</event>
<event>
 5    1  0.1258624E-009  0.9118800E+02  0.7815553E-02  0.1125453E+00
         25   -1    0    0    0    0  0.00000000000E+00  0.00000000000E+00  0.99999998245E-14  0.12509000000E+03  0.12509000000E+03 0.  0.
        -13    1    3    3    0    0  0.24933810164E+01  0.14210567977E+02  0.54172604929E+02  0.56061033525E+02  0.10566000000E+00 0. -1.
         23    2    1    0    0    0  0.16307096439E+02  0.17012016844E+02  0.16395428034E+02  0.96382158358E+02  0.92007501204E+02 0.  0.
         13    1    3    3    0    0  0.13813715422E+02  0.28014488668E+01 -0.37777176895E+02  0.40321124832E+02  0.10566000000E+00 0.  1.
         22    1    1    0    0    0 -0.16307096439E+02 -0.17012016844E+02 -0.16395428034E+02  0.28707841642E+02  0.00000000000E+00 0. -1.
</event>
<event>
 5    1  0.1258624E-009  0.9118800E+02  0.7815553E-02  0.1125453E+00
         25   -1    0    0    0    0  0.00000000000E+00  0.00000000000E+00  0.99999998245E-14  0.12509000000E+03  0.12509000000E+03 0.  0.
        -13    1    3    3    0    0 -0.16866533250E+02 -0.20897370892E+02 -0.30504932272E+02  0.40641630271E+02  0.10566000000E+00 0. -1.
         23    2    1    0    0    0  0.15064581937E+02 -0.10644129607E+02  0.17806055737E+02  0.99452239861E+02  0.96090859443E+02 0.  0.
         13    1    3    3    0    0  0.31931115187E+02  0.10253241286E+02  0.48310988009E+02  0.58810609591E+02  0.10566000000E+00 0.  1.
         22    1    1    0    0    0 -0.15064581937E+02  0.10644129607E+02 -0.17806055737E+02  0.25637760139E+02  0.00000000000E+00 0.  1.
</event>
<event>
 5    1  0.1258624E-009  0.9118800E+02  0.7815553E-02  0.1125453E+00
         25   -1    0    0    0    0  0.00000000000E+00  0.00000000000E+00  0.99999998245E-14  0.12509000000E+03  0.12509000000E+03 0.  0.
        -13    1    3    3    0    0  0.24133634298E+02  0.27077747507E+02 -0.29281223347E+02  0.46615854805E+02  0.10566000000E+00 0.  1.
         23    2    1    0    0    0 -0.21328992874E+02  0.10131661854E+02 -0.14688486185E+02  0.97281221974E+02  0.93221821551E+02 0.  0.
         13    1    3    3    0    0 -0.45462627172E+02 -0.16946085654E+02  0.14592737163E+02  0.50665367168E+02  0.10566000000E+00 0. -1.
         22    1    1    0    0    0  0.21328992874E+02 -0.10131661854E+02  0.14688486185E+02  0.27808778026E+02  0.00000000000E+00 0. -1.
</event>
<event>
 5    1  0.1258624E-009  0.9118800E+02  0.7815553E-02  0.1125453E+00
         25   -1    0    0    0    0  0.00000000000E+00  0.00000000000E+00  0.99999998245E-14  0.12509000000E+03  0.12509000000E+03 0.  0.
        -13    1    3    3    0    0 -0.25491754292E+02  0.14933267500E+02  0.33458846717E+02  0.44635609134E+02  0.10566000000E+00 0. -1.
         23    2    1    0    0    0 -0.15781041650E+01  0.29743513285E+02 -0.75484664828E+01  0.94363035596E+02  0.89220155488E+02 0.  0.
         13    1    3    3    0    0  0.23913650127E+02  0.14810245785E+02 -0.41007313199E+02  0.49727426462E+02  0.10566000000E+00 0.  1.
         22    1    1    0    0    0  0.15781041650E+01 -0.29743513285E+02  0.75484664828E+01  0.30726964404E+02  0.00000000000E+00 0.  1.
</event>
<event>
 5    1  0.1258624E-009  0.9118800E+02  0.7815553E-02  0.1125453E+00
         25   -1    0    0    0    0  0.00000000000E+00  0.00000000000E+00  0.99999998245E-14  0.12509000000E+03  0.12509000000E+03 0.  0.
        -13    1    3    3    0    0 -0.15775477083E+02  0.23427019965E+02  0.17252767146E+02  0.33096224556E+02  0.10566000000E+00 0.  1.
         23    2    1    0    0    0  0.10455650804E+02 -0.24298100299E+02 -0.13238432296E+02  0.95510033781E+02  0.90814052609E+02 0.  0.
         13    1    3    3    0    0  0.26231127888E+02 -0.47725120264E+02 -0.30491199442E+02  0.62413809224E+02  0.10566000000E+00 0. -1.
         22    1    1    0    0    0 -0.10455650804E+02  0.24298100299E+02  0.13238432296E+02  0.29579966219E+02  0.00000000000E+00 0. -1.
</event>
<event>
 5    1  0.1258624E-009  0.9118800E+02  0.7815553E-02  0.1125453E+00
         25   -1    0    0    0    0  0.00000000000E+00  0.00000000000E+00  0.99999998245E-14  0.12509000000E+03  0.12509000000E+03 0.  0.
        -13    1    3    3    0    0 -0.23819295860E+02 -0.43000653932E+02 -0.30734932236E+01  0.49253148310E+02  0.10566000000E+00 0.  1.
         23    2    1    0    0    0  0.93852873792E+01 -0.67383939367E+01 -0.20616134077E+02  0.10145708744E+03  0.98666235534E+02 0.  0.
         13    1    3    3    0    0  0.33204583239E+02  0.36262259995E+02 -0.17542640853E+02  0.52203939125E+02  0.10566000000E+00 0. -1.
         22    1    1    0    0    0 -0.93852873792E+01  0.67383939367E+01  0.20616134077E+02  0.23632912565E+02  0.00000000000E+00 0. -1.
</event>
<event>
 5    1  0.1258624E-009  0.9118800E+02  0.7815553E-02  0.1125453E+00
         25   -1    0    0    0    0  0.00000000000E+00  0.00000000000E+00  0.99999998245E-14  0.12509000000E+03  0.12509000000E+03 0.  0.
        -13    1    3    3    0    0  0.45324114908E-01 -0.31872420106E+02 -0.25788085016E+02  0.40998654985E+02  0.10566000000E+00 0.  1.
         23    2    1    0    0    0  0.21816718298E+02  0.16238553479E+02 -0.99478120558E+01  0.96131084601E+02  0.91665515029E+02 0.  0.
         13    1    3    3    0    0  0.21771394183E+02  0.48110973585E+02  0.15840272961E+02  0.55132429617E+02  0.10566000000E+00 0. -1.
         22    1    1    0    0    0 -0.21816718298E+02 -0.16238553479E+02  0.99478120558E+01  0.28958915399E+02  0.00000000000E+00 0. -1.
</event>
<event>
 5    1  0.1258624E-009  0.9118800E+02  0.7815553E-02  0.1125453E+00
         25   -1    0    0    0    0  0.00000000000E+00  0.00000000000E+00  0.99999998245E-14  0.12509000000E+03  0.12509000000E+03 0.  0.
        -13    1    3    3    0    0 -0.21859178627E+02  0.20228707238E+02 -0.22825885783E+02  0.37524079104E+02  0.10566000000E+00 0.  1.
         23    2    1    0    0    0 -0.12327138766E+02 -0.15983740026E+02  0.21533225896E+02  0.95575289890E+02  0.90903893892E+02 0.  0.
         13    1    3    3    0    0  0.95320398603E+01 -0.36212447264E+02  0.44359111679E+02  0.58051210786E+02  0.10566000000E+00 0. -1.
         22    1    1    0    0    0  0.12327138766E+02  0.15983740026E+02 -0.21533225896E+02  0.29514710110E+02  0.00000000000E+00 0. -1.
</event>
<event>
 5    1  0.1258624E-009  0.9118800E+02  0.7815553E-02  0.1125453E+00
         25   -1    0    0    0    0  0.00000000000E+00  0.00000000000E+00  0.99999998245E-14  0.12509000000E+03  0.12509000000E+03 0.  0.
        -13    1    3    3    0    0 -0.81967420505E+01 -0.30920959924E+02  0.22125679570E+02  0.38895362234E+02  0.10566000000E+00 0.  1.
         23    2    1    0    0    0  0.23516594077E+02  0.59654230253E+01 -0.11709642930E+02  0.98150582664E+02  0.94381166929E+02 0.  0.
         13    1    3    3    0    0  0.31713336128E+02  0.36886382950E+02 -0.33835322500E+02  0.59255220430E+02  0.10566000000E+00 0. -1.
         22    1    1    0    0    0 -0.23516594077E+02 -0.59654230253E+01  0.11709642930E+02  0.26939417336E+02  0.00000000000E+00 0. -1.
</event>
<event>
 5    1  0.1258624E-009  0.9118800E+02  0.7815553E-02  0.1125453E+00
         25   -1    0    0    0    0  0.00000000000E+00  0.00000000000E+00  0.99999998245E-14  0.12509000000E+03  0.12509000000E+03 0.  0.
        -13    1    3    3    0    0 -0.34769878123E+01  0.14974156081E+02  0.41624281564E+02  0.44372364985E+02  0.10566000000E+00 0. -1.
         23    2    1    0    0    0  0.23464463490E+02 -0.14774699125E+02  0.95049736214E+01  0.95777591286E+02  0.91181849553E+02 0.  0.
         13    1    3    3    0    0  0.26941451302E+02 -0.29748855205E+02 -0.32119307943E+02  0.51405226301E+02  0.10566000000E+00 0.  1.
         22    1    1    0    0    0 -0.23464463490E+02  0.14774699125E+02 -0.95049736214E+01  0.29312408714E+02  0.00000000000E+00 0.  1.
</event>
<event>
 5    1  0.1258624E-009  0.9118800E+02  0.7815553E-02  0.1125453E+00
         25   -1    0    0    0    0  0.00000000000E+00  0.00000000000E+00  0.99999998245E-14  0.12509000000E+03  0.12509000000E+03 0.  0.
        -13    1    3    3    0    0  0.38757740466E+02  0.23822366520E+02  0.97924876224E+01  0.46535702106E+02  0.10566000000E+00 0.  1.
         23    2    1    0    0    0  0.19090852907E+02 -0.17240275484E+02 -0.11637741467E+02  0.96856601516E+02  0.92650291243E+02 0.  0.
         13    1    3    3    0    0 -0.19666887559E+02 -0.41062642004E+02 -0.21430229090E+02  0.50320899411E+02  0.10566000000E+00 0. -1.
         22    1    1    0    0    0 -0.19090852907E+02  0.17240275484E+02  0.11637741467E+02  0.28233398484E+02  0.00000000000E+00 0.  1.
</event>
<event>
 4    1  0.1258624E-009  0.9118800E+02  0.7815553E-02  0.1125453E+00
         25   -1    0    0    0    0  0.00000000000E+00  0.00000000000E+00  0.99999998245E-14  0.12509000000E+03  0.12509000000E+03 0.  0.
        -13    1    1    0    0    0 -0.47996817872E+02  0.20440676584E+02 -0.29580261323E+02  0.59970983059E+02  0.10566000000E+00 0.  1.
         13    1    1    0    0    0  0.11141520613E+01 -0.98948985686E+01  0.49503597232E+01  0.11120592517E+02  0.10566000000E+00 0. -1.
         22    1    1    0    0    0  0.46882665811E+02 -0.10545778016E+02  0.24629901600E+02  0.53998424424E+02  0.00000000000E+00 0.  1.
</event>
<event>
 5    1  0.1258624E-009  0.9118800E+02  0.7815553E-02  0.1125453E+00
         25   -1    0    0    0    0  0.00000000000E+00  0.00000000000E+00  0.99999998245E-14  0.12509000000E+03  0.12509000000E+03 0.  0.
        -13    1    3    3    0    0  0.34572082214E+02  0.41838375856E+02  0.19201061582E+02  0.57570569676E+02  0.10566000000E+00 0.  1.
         23    2    1    0    0    0  0.15892407628E+02  0.24955585079E+02 -0.78030520081E+01  0.94492002230E+02  0.89400788688E+02 0.  0.
         13    1    3    3    0    0 -0.18679674586E+02 -0.16882790776E+02 -0.27004113590E+02  0.36921432555E+02  0.10566000000E+00 0. -1.
         22    1    1    0    0    0 -0.15892407628E+02 -0.24955585079E+02  0.78030520081E+01  0.30597997770E+02  0.00000000000E+00 0.  1.
</event>
<event>
 5    1  0.1258624E-009  0.9118800E+02  0.7815553E-02  0.1125453E+00
         25   -1    0    0    0    0  0.00000000000E+00  0.00000000000E+00  0.99999998245E-14  0.12509000000E+03  0.12509000000E+03 0.  0.
        -13    1    3    3    0    0 -0.43281207987E+02 -0.15807422774E+02 -0.41925143525E+02  0.62296600254E+02  0.10566000000E+00 0.  1.
         23    2    1    0    0    0 -0.18761733956E+02 -0.10801908306E+02 -0.21195556799E+02  0.94792549412E+02  0.89820331284E+02 0.  0.
         13    1    3    3    0    0  0.24519474031E+02  0.50055144678E+01  0.20729586725E+02  0.32495949158E+02  0.10566000000E+00 0. -1.
         22    1    1    0    0    0  0.18761733956E+02  0.10801908306E+02  0.21195556799E+02  0.30297450588E+02  0.00000000000E+00 0.  1.
</event>
<event>
 5    1  0.1258624E-009  0.9118800E+02  0.7815553E-02  0.1125453E+00
         25   -1    0    0    0    0  0.00000000000E+00  0.00000000000E+00  0.99999998245E-14  0.12509000000E+03  0.12509000000E+03 0.  0.
        -13    1    3    3    0    0  0.20226948960E+02  0.19478957269E+02  0.28150230186E+02  0.39761864444E+02  0.10566000000E+00 0. -1.
         23    2    1    0    0    0  0.53067950995E+01  0.12899433225E+02 -0.25602947723E+02  0.95934067776E+02  0.91396263469E+02 0.  0.
         13    1    3    3    0    0 -0.14920153860E+02 -0.65795240436E+01 -0.53753177909E+02  0.56172203332E+02  0.10566000000E+00 0.  1.
         22    1    1    0    0    0 -0.53067950995E+01 -0.12899433225E+02  0.25602947723E+02  0.29155932224E+02  0.00000000000E+00 0.  1.
</event>
<event>
 5    1  0.1258624E-009  0.9118800E+02  0.7815553E-02  0.1125453E+00
         25   -1    0    0    0    0  0.00000000000E+00  0.00000000000E+00  0.99999998245E-14  0.12509000000E+03  0.12509000000E+03 0.  0.
        -13    1    3    3    0    0 -0.30172364529E+02 -0.12529332531E+02  0.14734357248E+02  0.35839478268E+02  0.10566000000E+00 0.  1.
         23    2    1    0    0    0  0.28283331721E+02 -0.19978137359E+01  0.80763931731E+01  0.95608374542E+02  0.90949409250E+02 0.  0.
         13    1    3    3    0    0  0.58455696250E+02  0.10531518795E+02 -0.66579640748E+01  0.59768896274E+02  0.10566000000E+00 0. -1.
         22    1    1    0    0    0 -0.28283331721E+02  0.19978137359E+01 -0.80763931731E+01  0.29481625458E+02  0.00000000000E+00 0. -1.
</event>
<event>
 5    1  0.1258624E-009  0.9118800E+02  0.7815553E-02  0.1125453E+00
         25   -1    0    0    0    0  0.00000000000E+00  0.00000000000E+00  0.99999998245E-14  0.12509000000E+03  0.12509000000E+03 0.  0.
        -13    1    3    3    0    0 -0.40087157209E+02  0.34170704929E+02  0.22589952248E+02  0.57314346852E+02  0.10566000000E+00 0.  1.
         23    2    1    0    0    0 -0.10885973129E+02  0.75789520515E+01  0.24900690754E+02  0.96876717221E+02  0.92677446093E+02 0.  0.
         13    1    3    3    0    0  0.29201184080E+02 -0.26591752877E+02  0.23107385057E+01  0.39562370369E+02  0.10566000000E+00 0. -1.
         22    1    1    0    0    0  0.10885973129E+02 -0.75789520515E+01 -0.24900690754E+02  0.28213282779E+02  0.00000000000E+00 0.  1.
</event>
<event>
 5    1  0.1258624E-009  0.9118800E+02  0.7815553E-02  0.1125453E+00
         25   -1    0    0    0    0  0.00000000000E+00  0.00000000000E+00  0.99999998245E-14  0.12509000000E+03  0.12509000000E+03 0.  0.
        -13    1    3    3    0    0  0.26338504987E+02 -0.12826777753E+02 -0.37831205118E+02  0.47848242572E+02  0.10566000000E+00 0.  1.
         23    2    1    0    0    0 -0.18914204011E+01 -0.31203074453E+02 -0.80501987309E+01  0.92809742472E+02  0.87015132430E+02 0.  0.
         13    1    3    3    0    0 -0.28229925388E+02 -0.18376296700E+02  0.29781006388E+02  0.44961499901E+02  0.10566000000E+00 0. -1.
         22    1    1    0    0    0  0.18914204011E+01  0.31203074453E+02  0.80501987309E+01  0.32280257528E+02  0.00000000000E+00 0.  1.
</event>
<event>
 5    1  0.1258624E-009  0.9118800E+02  0.7815553E-02  0.1125453E+00
         25   -1    0    0    0    0  0.00000000000E+00  0.00000000000E+00  0.99999998245E-14  0.12509000000E+03  0.12509000000E+03 0.  0.
        -13    1    3    3    0    0 -0.44939656831E+02  0.39800739399E+02 -0.15651160868E+02  0.62037421072E+02  0.10566000000E+00 0. -1.
         23    2    1    0    0    0 -0.21382299737E+02  0.17540142937E+02 -0.12923576447E+02  0.94563320120E+02  0.89500521382E+02 0.  0.
         13    1    3    3    0    0  0.23557357093E+02 -0.22260596462E+02  0.27275844211E+01  0.32525899048E+02  0.10566000000E+00 0.  1.
         22    1    1    0    0    0  0.21382299737E+02 -0.17540142937E+02  0.12923576447E+02  0.30526679880E+02  0.00000000000E+00 0. -1.
</event>
<event>
 5    1  0.1258624E-009  0.9118800E+02  0.7815553E-02  0.1125453E+00
         25   -1    0    0    0    0  0.00000000000E+00  0.00000000000E+00  0.99999998245E-14  0.12509000000E+03  0.12509000000E+03 0.  0.
        -13    1    3    3    0    0  0.52018650848E-01  0.57980774290E+02  0.17991491718E+02  0.60708136452E+02  0.10566000000E+00 0. -1.
         23    2    1    0    0    0  0.78038968791E+01  0.38660626926E+02  0.47873542185E+01  0.85360116522E+02  0.75550551629E+02 0.  0.
         13    1    3    3    0    0  0.77518782282E+01 -0.19320147364E+02 -0.13204137500E+02  0.24651980070E+02  0.10566000000E+00 0.  1.
         22    1    1    0    0    0 -0.78038968791E+01 -0.38660626926E+02 -0.47873542185E+01  0.39729883478E+02  0.00000000000E+00 0. -1.
</event>
<event>
 5    1  0.1258624E-009  0.9118800E+02  0.7815553E-02  0.1125453E+00
         25   -1    0    0    0    0  0.00000000000E+00  0.00000000000E+00  0.99999998245E-14  0.12509000000E+03  0.12509000000E+03 0.  0.
        -13    1    3    3    0    0 -0.36769289390E+02 -0.26640988668E+01  0.48143460643E+02  0.60637299014E+02  0.10566000000E+00 0. -1.
         23    2    1    0    0    0 -0.74801951013E+01 -0.47255285452E+01  0.26606488967E+02  0.97050934503E+02  0.92912295710E+02 0.  0.
         13    1    3    3    0    0  0.29289094289E+02 -0.20614296784E+01 -0.21536971676E+02  0.36413635489E+02  0.10566000000E+00 0.  1.
         22    1    1    0    0    0  0.74801951013E+01  0.47255285452E+01 -0.26606488967E+02  0.28039065497E+02  0.00000000000E+00 0. -1.
</event>
<event>
 5    1  0.1258624E-009  0.9118800E+02  0.7815553E-02  0.1125453E+00
         25   -1    0    0    0    0  0.00000000000E+00  0.00000000000E+00  0.99999998245E-14  0.12509000000E+03  0.12509000000E+03 0.  0.
        -13    1    3    3    0    0 -0.44691110139E+02 -0.38354665156E+02  0.15753759346E+02  0.60963659357E+02  0.10566000000E+00 0. -1.
         23    2    1    0    0    0 -0.25798308310E+02 -0.11418603576E+02  0.14482879374E+01  0.96840491027E+02  0.92628537423E+02 0.  0.
         13    1    3    3    0    0  0.18892801829E+02  0.26936061580E+02 -0.14305471408E+02  0.35876831670E+02  0.10566000000E+00 0.  1.
         22    1    1    0    0    0  0.25798308310E+02  0.11418603576E+02 -0.14482879374E+01  0.28249508973E+02  0.00000000000E+00 0. -1.
</event>
<event>
 5    1  0.1258624E-009  0.9118800E+02  0.7815553E-02  0.1125453E+00
         25   -1    0    0    0    0  0.00000000000E+00  0.00000000000E+00  0.99999998245E-14  0.12509000000E+03  0.12509000000E+03 0.  0.
        -13    1    3    3    0    0 -0.12070331047E+02  0.31227994374E+02  0.32486872316E+01  0.33636968606E+02  0.10566000000E+00 0.  1.
         23    2    1    0    0    0  0.45804396003E+01 -0.26208816103E+02 -0.12814922512E+02  0.95558581012E+02  0.90880898420E+02 0.  0.
         13    1    3    3    0    0  0.16650770647E+02 -0.57436810477E+02 -0.16063609744E+02  0.61921612406E+02  0.10566000000E+00 0. -1.
         22    1    1    0    0    0 -0.45804396003E+01  0.26208816103E+02  0.12814922512E+02  0.29531418988E+02  0.00000000000E+00 0. -1.
</event>
<event>
 5    1  0.1258624E-009  0.9118800E+02  0.7815553E-02  0.1125453E+00
         25   -1    0    0    0    0  0.00000000000E+00  0.00000000000E+00  0.99999998245E-14  0.12509000000E+03  0.12509000000E+03 0.  0.
        -13    1    3    3    0    0 -0.71285889281E+01 -0.55287654900E+02 -0.20216176975E+01  0.55782072986E+02  0.10566000000E+00 0. -1.
         23    2    1    0    0    0 -0.16833696892E+02 -0.20229335033E+02  0.13710813138E+02  0.95415334983E+02  0.90683517831E+02 0.  0.
         13    1    3    3    0    0 -0.97051079639E+01  0.35058319867E+02  0.15732430836E+02  0.39633261997E+02  0.10566000000E+00 0.  1.
         22    1    1    0    0    0  0.16833696892E+02  0.20229335033E+02 -0.13710813138E+02  0.29674665017E+02  0.00000000000E+00 0. -1.
</event>
<event>
 5    1  0.1258624E-009  0.9118800E+02  0.7815553E-02  0.1125453E+00
         25   -1    0    0    0    0  0.00000000000E+00  0.00000000000E+00  0.99999998245E-14  0.12509000000E+03  0.12509000000E+03 0.  0.
        -13    1    3    3    0    0  0.32304207966E+01  0.21689012246E+02 -0.54709739726E+02  0.58940780922E+02  0.10566000000E+00 0. -1.
         23    2    1    0    0    0 -0.93282913099E+00 -0.49815975760E+01 -0.26974112680E+02  0.97643884802E+02  0.93707198228E+02 0.  0.
         13    1    3    3    0    0 -0.41632499276E+01 -0.26670609822E+02  0.27735627047E+02  0.38703103880E+02  0.10566000000E+00 0.  1.
         22    1    1    0    0    0  0.93282913099E+00  0.49815975760E+01  0.26974112680E+02  0.27446115198E+02  0.00000000000E+00 0. -1.
</event>
<event>
 5    1  0.1258624E-009  0.9118800E+02  0.7815553E-02  0.1125453E+00
         25   -1    0    0    0    0  0.00000000000E+00  0.00000000000E+00  0.99999998245E-14  0.12509000000E+03  0.12509000000E+03 0.  0.
        -13    1    3    3    0    0 -0.21532627667E+02 -0.22755066157E+02 -0.12985679518E+01  0.31355135669E+02  0.10566000000E+00 0. -1.
         23    2    1    0    0    0  0.20723779343E+02 -0.17085089711E+02 -0.31567590871E+02  0.83642586160E+02  0.72651181033E+02 0.  0.
         13    1    3    3    0    0  0.42256407010E+02  0.56699764461E+01 -0.30269022919E+02  0.52287450490E+02  0.10566000000E+00 0.  1.
         22    1    1    0    0    0 -0.20723779343E+02  0.17085089711E+02  0.31567590871E+02  0.41447413840E+02  0.00000000000E+00 0.  1.
</event>
<event>
 5    1  0.1258624E-009  0.9118800E+02  0.7815553E-02  0.1125453E+00
         25   -1    0    0    0    0  0.00000000000E+00  0.00000000000E+00  0.99999998245E-14  0.12509000000E+03  0.12509000000E+03 0.  0.
        -13    1    3    3    0    0  0.14549629727E+02 -0.27557480903E+02  0.43072524638E+02  0.53163521531E+02  0.10566000000E+00 0. -1.
         23    2    1    0    0    0 -0.54697744346E+01  0.71273039448E+01  0.27546218159E+02  0.96115683291E+02  0.91644495447E+02 0.  0.
         13    1    3    3    0    0 -0.20019404161E+02  0.34684784848E+02 -0.15526306479E+02  0.42952161760E+02  0.10566000000E+00 0.  1.
         22    1    1    0    0    0  0.54697744346E+01 -0.71273039448E+01 -0.27546218159E+02  0.28974316709E+02  0.00000000000E+00 0. -1.
</event>
<event>
 5    1  0.1258624E-009  0.9118800E+02  0.7815553E-02  0.1125453E+00
         25   -1    0    0    0    0  0.00000000000E+00  0.00000000000E+00  0.99999998245E-14  0.12509000000E+03  0.12509000000E+03 0.  0.
        -13    1    3    3    0    0 -0.37313726707E+02  0.16233905985E+01  0.39828349972E+02  0.54600899474E+02  0.10566000000E+00 0.  1.
         23    2    1    0    0    0 -0.77298150585E+01  0.21242164602E+02  0.17005741865E+02  0.96802637907E+02  0.92577404649E+02 0.  0.
         13    1    3    3    0    0  0.29583911649E+02  0.19618774004E+02 -0.22822608108E+02  0.42201738433E+02  0.10566000000E+00 0. -1.
         22    1    1    0    0    0  0.77298150585E+01 -0.21242164602E+02 -0.17005741865E+02  0.28287362093E+02  0.00000000000E+00 0.  1.
</event>
<event>
 5    1  0.1258624E-009  0.9118800E+02  0.7815553E-02  0.1125453E+00
         25   -1    0    0    0    0  0.00000000000E+00  0.00000000000E+00  0.99999998245E-14  0.12509000000E+03  0.12509000000E+03 0.  0.
        -13    1    3    3    0    0  0.33685461511E+02  0.12068021141E+02  0.10024294852E+02  0.37159724203E+02  0.10566000000E+00 0.  1.
         23    2    1    0    0    0 -0.10622598022E+02  0.10282809171E+02 -0.26589959597E+02  0.94666296994E+02  0.89644331009E+02 0.  0.
         13    1    3    3    0    0 -0.44308059533E+02 -0.17852119696E+01 -0.36614254449E+02  0.57506572792E+02  0.10566000000E+00 0. -1.
         22    1    1    0    0    0  0.10622598022E+02 -0.10282809171E+02  0.26589959597E+02  0.30423703006E+02  0.00000000000E+00 0.  1.
</event>
<event>
 5    1  0.1258624E-009  0.9118800E+02  0.7815553E-02  0.1125453E+00
         25   -1    0    0    0    0  0.00000000000E+00  0.00000000000E+00  0.99999998245E-14  0.12509000000E+03  0.12509000000E+03 0.  0.
        -13    1    3    3    0    0  0.43001528634E+02 -0.14182059672E+02 -0.36194373174E+02  0.57968147244E+02  0.10566000000E+00 0.  1.
         23    2    1    0    0    0  0.12585951291E+02 -0.42198604085E+01 -0.32248609007E+02  0.90216139092E+02  0.83203158462E+02 0.  0.
         13    1    3    3    0    0 -0.30415577343E+02  0.99621992634E+01  0.39457641674E+01  0.32247991847E+02  0.10566000000E+00 0. -1.
         22    1    1    0    0    0 -0.12585951291E+02  0.42198604085E+01  0.32248609007E+02  0.34873860908E+02  0.00000000000E+00 0.  1.
</event>
<event>
 5    1  0.1258624E-009  0.9118800E+02  0.7815553E-02  0.1125453E+00
         25   -1    0    0    0    0  0.00000000000E+00  0.00000000000E+00  0.99999998245E-14  0.12509000000E+03  0.12509000000E+03 0.  0.
        -13    1    3    3    0    0 -0.71468045675E+01  0.29681904332E+02 -0.46491728804E+02  0.55619998845E+02  0.10566000000E+00 0. -1.
         23    2    1    0    0    0 -0.69843203201E+01 -0.45229393855E+01 -0.30677229066E+02  0.93304309915E+02  0.87723224715E+02 0.  0.
         13    1    3    3    0    0  0.16248424744E+00 -0.34204843717E+02  0.15814499737E+02  0.37684311070E+02  0.10566000000E+00 0.  1.
         22    1    1    0    0    0  0.69843203201E+01  0.45229393855E+01  0.30677229066E+02  0.31785690085E+02  0.00000000000E+00 0. -1.
</event>
<event>
 5    1  0.1258624E-009  0.9118800E+02  0.7815553E-02  0.1125453E+00
         25   -1    0    0    0    0  0.00000000000E+00  0.00000000000E+00  0.99999998245E-14  0.12509000000E+03  0.12509000000E+03 0.  0.
        -13    1    3    3    0    0  0.32941010617E+02 -0.52691379572E+01  0.27596510621E+02  0.43294948409E+02  0.10566000000E+00 0.  1.
         23    2    1    0    0    0  0.73656753294E+01 -0.10166626183E+02 -0.22255137082E+02  0.99538002279E+02  0.96202439211E+02 0.  0.
         13    1    3    3    0    0 -0.25575335287E+02 -0.48974882254E+01 -0.49851647702E+02  0.56243053870E+02  0.10566000000E+00 0. -1.
         22    1    1    0    0    0 -0.73656753294E+01  0.10166626183E+02  0.22255137082E+02  0.25551997721E+02  0.00000000000E+00 0. -1.
</event>
<event>
 5    1  0.1258624E-009  0.9118800E+02  0.7815553E-02  0.1125453E+00
         25   -1    0    0    0    0  0.00000000000E+00  0.00000000000E+00  0.99999998245E-14  0.12509000000E+03  0.12509000000E+03 0.  0.
        -13    1    3    3    0    0  0.57015123002E-01  0.34231382517E+02 -0.31508180395E+01  0.34376294421E+02  0.10566000000E+00 0.  1.
         23    2    1    0    0    0 -0.14725087415E+02 -0.23704823275E+02  0.97225487783E+01  0.95538776665E+02  0.90853635293E+02 0.  0.
         13    1    3    3    0    0 -0.14782102538E+02 -0.57936205792E+02  0.12873366818E+02  0.61162482244E+02  0.10566000000E+00 0. -1.
         22    1    1    0    0    0  0.14725087415E+02  0.23704823275E+02 -0.97225487783E+01  0.29551223335E+02  0.00000000000E+00 0. -1.
</event>
<event>
 5    1  0.1258624E-009  0.9118800E+02  0.7815553E-02  0.1125453E+00
         25   -1    0    0    0    0  0.00000000000E+00  0.00000000000E+00  0.99999998245E-14  0.12509000000E+03  0.12509000000E+03 0.  0.
        -13    1    3    3    0    0 -0.35575244966E+02 -0.16199900377E+02 -0.45714976604E+02  0.60149023903E+02  0.10566000000E+00 0.  1.
         23    2    1    0    0    0 -0.24884117362E+02  0.11035868438E+01 -0.18811940177E+02  0.93875799801E+02  0.88534397238E+02 0.  0.
         13    1    3    3    0    0  0.10691127604E+02  0.17303487221E+02  0.26903036426E+02  0.33726775898E+02  0.10566000000E+00 0. -1.
         22    1    1    0    0    0  0.24884117362E+02 -0.11035868438E+01  0.18811940177E+02  0.31214200199E+02  0.00000000000E+00 0.  1.
</event>
<event>
 5    1  0.1258624E-009  0.9118800E+02  0.7815553E-02  0.1125453E+00
         25   -1    0    0    0    0  0.00000000000E+00  0.00000000000E+00  0.99999998245E-14  0.12509000000E+03  0.12509000000E+03 0.  0.
        -13    1    3    3    0    0  0.21904429187E+02  0.26924457187E+01 -0.26327813992E+02  0.34354304470E+02  0.10566000000E+00 0.  1.
         23    2    1    0    0    0 -0.16228020700E+02 -0.19543704266E+02  0.15636549379E+02  0.95260371964E+02  0.90469507338E+02 0.  0.
         13    1    3    3    0    0 -0.38132449887E+02 -0.22236149985E+02  0.41964363371E+02  0.60906067495E+02  0.10566000000E+00 0. -1.
         22    1    1    0    0    0  0.16228020700E+02  0.19543704266E+02 -0.15636549379E+02  0.29829628036E+02  0.00000000000E+00 0. -1.
</event>
<event>
 5    1  0.1258624E-009  0.9118800E+02  0.7815553E-02  0.1125453E+00
         25   -1    0    0    0    0  0.00000000000E+00  0.00000000000E+00  0.99999998245E-14  0.12509000000E+03  0.12509000000E+03 0.  0.
        -13    1    3    3    0    0 -0.10792279387E+02 -0.39638559396E+02  0.14961491126E+01  0.41108859283E+02  0.10566000000E+00 0.  1.
         23    2    1    0    0    0 -0.17915281983E+02  0.12601599579E+02  0.18408144196E+02  0.96478509070E+02  0.92138402955E+02 0.  0.
         13    1    3    3    0    0 -0.71230025963E+01  0.52240158975E+02  0.16911995084E+02  0.55369649787E+02  0.10566000000E+00 0. -1.
         22    1    1    0    0    0  0.17915281983E+02 -0.12601599579E+02 -0.18408144196E+02  0.28611490930E+02  0.00000000000E+00 0. -1.
</event>
<event>
 5    1  0.1258624E-009  0.9118800E+02  0.7815553E-02  0.1125453E+00
         25   -1    0    0    0    0  0.00000000000E+00  0.00000000000E+00  0.99999998245E-14  0.12509000000E+03  0.12509000000E+03 0.  0.
        -13    1    3    3    0    0  0.39536002464E+01 -0.90768689498E+01 -0.48439652257E+02  0.49441193146E+02  0.10566000000E+00 0.  1.
         23    2    1    0    0    0  0.25835511945E+02 -0.17688347528E+02 -0.14870204068E+02  0.90427710913E+02  0.83520635870E+02 0.  0.
         13    1    3    3    0    0  0.21881911699E+02 -0.86114785780E+01  0.33569448189E+02  0.40986517767E+02  0.10566000000E+00 0. -1.
         22    1    1    0    0    0 -0.25835511945E+02  0.17688347528E+02  0.14870204068E+02  0.34662289087E+02  0.00000000000E+00 0.  1.
</event>
<event>
 5    1  0.1258624E-009  0.9118800E+02  0.7815553E-02  0.1125453E+00
         25   -1    0    0    0    0  0.00000000000E+00  0.00000000000E+00  0.99999998245E-14  0.12509000000E+03  0.12509000000E+03 0.  0.
        -13    1    3    3    0    0 -0.46246502696E+02 -0.52410624153E+00  0.10622401009E+02  0.47453769778E+02  0.10566000000E+00 0.  1.
         23    2    1    0    0    0 -0.13545911881E+02 -0.10113511537E+02 -0.23803893381E+02  0.95894106720E+02  0.91341554176E+02 0.  0.
         13    1    3    3    0    0  0.32700590815E+02 -0.95894052955E+01 -0.34426294390E+02  0.48440336942E+02  0.10566000000E+00 0. -1.
         22    1    1    0    0    0  0.13545911881E+02  0.10113511537E+02  0.23803893381E+02  0.29195893280E+02  0.00000000000E+00 0. -1.
</event>
<event>
 5    1  0.1258624E-009  0.9118800E+02  0.7815553E-02  0.1125453E+00
         25   -1    0    0    0    0  0.00000000000E+00  0.00000000000E+00  0.99999998245E-14  0.12509000000E+03  0.12509000000E+03 0.  0.
        -13    1    3    3    0    0 -0.80103252631E+01 -0.16596371018E+01  0.39555322020E+02  0.40392503887E+02  0.10566000000E+00 0. -1.
         23    2    1    0    0    0 -0.26535130598E+02  0.16008270695E+02 -0.68147019269E+01  0.93359603708E+02  0.87802036170E+02 0.  0.
         13    1    3    3    0    0 -0.18524805335E+02  0.17667907796E+02 -0.46370023947E+02  0.52967099821E+02  0.10566000000E+00 0.  1.
         22    1    1    0    0    0  0.26535130598E+02 -0.16008270695E+02  0.68147019269E+01  0.31730396292E+02  0.00000000000E+00 0.  1.
</event>
<event>
 5    1  0.1258624E-009  0.9118800E+02  0.7815553E-02  0.1125453E+00
         25   -1    0    0    0    0  0.00000000000E+00  0.00000000000E+00  0.99999998245E-14  0.12509000000E+03  0.12509000000E+03 0.  0.
        -13    1    3    3    0    0 -0.10294265264E+02 -0.19438192168E+02 -0.24966363579E+02  0.33273798798E+02  0.10566000000E+00 0.  1.
         23    2    1    0    0    0  0.15492422768E+01  0.24334883008E+02  0.17242876752E+02  0.95225246840E+02  0.90420927636E+02 0.  0.
         13    1    3    3    0    0  0.11843507541E+02  0.43773075175E+02  0.42209240331E+02  0.61951448042E+02  0.10566000000E+00 0. -1.
         22    1    1    0    0    0 -0.15492422768E+01 -0.24334883008E+02 -0.17242876752E+02  0.29864753160E+02  0.00000000000E+00 0. -1.
</event>
<event>
 5    1  0.1258624E-009  0.9118800E+02  0.7815553E-02  0.1125453E+00
         25   -1    0    0    0    0  0.00000000000E+00  0.00000000000E+00  0.99999998245E-14  0.12509000000E+03  0.12509000000E+03 0.  0.
        -13    1    3    3    0    0  0.10103648571E+02  0.45844460458E+02 -0.49968684019E+00  0.46947408023E+02  0.10566000000E+00 0.  1.
         23    2    1    0    0    0 -0.33238889804E+01  0.12919176018E+02  0.29012695140E+02  0.93157417483E+02  0.87513510990E+02 0.  0.
         13    1    3    3    0    0 -0.13427537552E+02 -0.32925284439E+02  0.29512381980E+02  0.46210009460E+02  0.10566000000E+00 0. -1.
         22    1    1    0    0    0  0.33238889804E+01 -0.12919176018E+02 -0.29012695140E+02  0.31932582517E+02  0.00000000000E+00 0.  1.
</event>
<event>
 5    1  0.1258624E-009  0.9118800E+02  0.7815553E-02  0.1125453E+00
         25   -1    0    0    0    0  0.00000000000E+00  0.00000000000E+00  0.99999998245E-14  0.12509000000E+03  0.12509000000E+03 0.  0.
        -13    1    3    3    0    0  0.87533858526E+01 -0.85481483198E+01  0.32378069961E+02  0.34612760393E+02  0.10566000000E+00 0.  1.
         23    2    1    0    0    0 -0.71491435735E+01  0.23198353432E+02 -0.17016364638E+02  0.95444924165E+02  0.90724324343E+02 0.  0.
         13    1    3    3    0    0 -0.15902529426E+02  0.31746501752E+02 -0.49394434600E+02  0.60832163771E+02  0.10566000000E+00 0. -1.
         22    1    1    0    0    0  0.71491435735E+01 -0.23198353432E+02  0.17016364638E+02  0.29645075835E+02  0.00000000000E+00 0. -1.
</event>
<event>
 5    1  0.1258624E-009  0.9118800E+02  0.7815553E-02  0.1125453E+00
         25   -1    0    0    0    0  0.00000000000E+00  0.00000000000E+00  0.99999998245E-14  0.12509000000E+03  0.12509000000E+03 0.  0.
        -13    1    3    3    0    0  0.32803183899E+02  0.27467336658E+02  0.39822913547E+02  0.58449799525E+02  0.10566000000E+00 0.  1.
         23    2    1    0    0    0  0.16384380667E+01  0.13331258457E+02  0.26888008376E+02  0.95033853777E+02  0.90155762090E+02 0.  0.
         13    1    3    3    0    0 -0.31164745833E+02 -0.14136078202E+02 -0.12934905171E+02  0.36584054253E+02  0.10566000000E+00 0. -1.
         22    1    1    0    0    0 -0.16384380667E+01 -0.13331258457E+02 -0.26888008376E+02  0.30056146223E+02  0.00000000000E+00 0. -1.
</event>
<event>
 5    1  0.1258624E-009  0.9118800E+02  0.7815553E-02  0.1125453E+00
         25   -1    0    0    0    0  0.00000000000E+00  0.00000000000E+00  0.99999998245E-14  0.12509000000E+03  0.12509000000E+03 0.  0.
        -13    1    3    3    0    0  0.47961488913E+01  0.14563518016E+02  0.33224509261E+02  0.36592052154E+02  0.10566000000E+00 0. -1.
         23    2    1    0    0    0 -0.23770895143E+02  0.89510191571E+01 -0.16916342721E+02  0.94572155205E+02  0.89512868847E+02 0.  0.
         13    1    3    3    0    0 -0.28567044034E+02 -0.56124988586E+01 -0.50140851982E+02  0.57980103051E+02  0.10566000000E+00 0.  1.
         22    1    1    0    0    0  0.23770895143E+02 -0.89510191571E+01  0.16916342721E+02  0.30517844795E+02  0.00000000000E+00 0.  1.
</event>
<event>
 5    1  0.1258624E-009  0.9118800E+02  0.7815553E-02  0.1125453E+00
         25   -1    0    0    0    0  0.00000000000E+00  0.00000000000E+00  0.99999998245E-14  0.12509000000E+03  0.12509000000E+03 0.  0.
        -13    1    3    3    0    0 -0.32191950324E+01  0.12135400172E+02 -0.49867631124E+02  0.51423953095E+02  0.10566000000E+00 0. -1.
         23    2    1    0    0    0  0.87113918837E+01 -0.18958246520E+02 -0.20801086229E+02  0.95628352932E+02  0.90976882979E+02 0.  0.
         13    1    3    3    0    0  0.11930586916E+02 -0.31093646692E+02  0.29066544895E+02  0.44204399837E+02  0.10566000000E+00 0.  1.
         22    1    1    0    0    0 -0.87113918837E+01  0.18958246520E+02  0.20801086229E+02  0.29461647068E+02  0.00000000000E+00 0. -1.
</event>
<event>
 5    1  0.1258624E-009  0.9118800E+02  0.7815553E-02  0.1125453E+00
         25   -1    0    0    0    0  0.00000000000E+00  0.00000000000E+00  0.99999998245E-14  0.12509000000E+03  0.12509000000E+03 0.  0.
        -13    1    3    3    0    0 -0.22528046620E+02  0.14642430376E+02  0.20705662182E+02  0.33921221415E+02  0.10566000000E+00 0. -1.
         23    2    1    0    0    0  0.84404573090E+01 -0.31383509975E+02  0.17534512818E+01  0.92544023147E+02  0.86632301198E+02 0.  0.
         13    1    3    3    0    0  0.30968503929E+02 -0.46025940351E+02 -0.18952210900E+02  0.58622801732E+02  0.10566000000E+00 0.  1.
         22    1    1    0    0    0 -0.84404573090E+01  0.31383509975E+02 -0.17534512818E+01  0.32545976853E+02  0.00000000000E+00 0. -1.
</event>
<event>
 5    1  0.1258624E-009  0.9118800E+02  0.7815553E-02  0.1125453E+00
         25   -1    0    0    0    0  0.00000000000E+00  0.00000000000E+00  0.99999998245E-14  0.12509000000E+03  0.12509000000E+03 0.  0.
        -13    1    3    3    0    0 -0.15726945647E+02 -0.21947250678E+02 -0.35998414859E+02  0.44999062969E+02  0.10566000000E+00 0.  1.
         23    2    1    0    0    0 -0.14245142575E+02  0.22732707720E+02 -0.14242218424E+02  0.94716642054E+02  0.89714555169E+02 0.  0.
         13    1    3    3    0    0  0.14818030721E+01  0.44679958398E+02  0.21756196435E+02  0.49717579086E+02  0.10566000000E+00 0. -1.
         22    1    1    0    0    0  0.14245142575E+02 -0.22732707720E+02  0.14242218424E+02  0.30373357946E+02  0.00000000000E+00 0.  1.
</event>
<event>
 5    1  0.1258624E-009  0.9118800E+02  0.7815553E-02  0.1125453E+00
         25   -1    0    0    0    0  0.00000000000E+00  0.00000000000E+00  0.99999998245E-14  0.12509000000E+03  0.12509000000E+03 0.  0.
        -13    1    3    3    0    0  0.26206836781E+02  0.78112739038E+01  0.24297906707E+02  0.36581603688E+02  0.10566000000E+00 0. -1.
         23    2    1    0    0    0  0.23948149676E+01 -0.12560963937E+02 -0.26155982803E+02  0.95975598235E+02  0.91453086697E+02 0.  0.
         13    1    3    3    0    0 -0.23812021813E+02 -0.20372237841E+02 -0.50453889510E+02  0.59393994546E+02  0.10566000000E+00 0.  1.
         22    1    1    0    0    0 -0.23948149676E+01  0.12560963937E+02  0.26155982803E+02  0.29114401765E+02  0.00000000000E+00 0.  1.
</event>
<event>
 5    1  0.1258624E-009  0.9118800E+02  0.7815553E-02  0.1125453E+00
         25   -1    0    0    0    0  0.00000000000E+00  0.00000000000E+00  0.99999998245E-14  0.12509000000E+03  0.12509000000E+03 0.  0.
        -13    1    3    3    0    0  0.70646229188E+01  0.50069352929E+02 -0.54405010591E+01  0.50857243492E+02  0.10566000000E+00 0. -1.
         23    2    1    0    0    0  0.14347257079E+02  0.98993886875E+01 -0.23774523717E+02  0.95610012550E+02  0.90951662105E+02 0.  0.
         13    1    3    3    0    0  0.72826341602E+01 -0.40169964242E+02 -0.18334022658E+02  0.44752769058E+02  0.10566000000E+00 0.  1.
         22    1    1    0    0    0 -0.14347257079E+02 -0.98993886875E+01  0.23774523717E+02  0.29479987450E+02  0.00000000000E+00 0. -1.
</event>
<event>
 5    1  0.1258624E-009  0.9118800E+02  0.7815553E-02  0.1125453E+00
         25   -1    0    0    0    0  0.00000000000E+00  0.00000000000E+00  0.99999998245E-14  0.12509000000E+03  0.12509000000E+03 0.  0.
        -13    1    3    3    0    0 -0.21960948015E+02 -0.50759234487E+02  0.86791310310E+01  0.55983226085E+02  0.10566000000E+00 0.  1.
         23    2    1    0    0    0 -0.22958485734E+02 -0.11330803859E+02  0.14207154874E+02  0.95809931132E+02  0.91226204956E+02 0.  0.
         13    1    3    3    0    0 -0.99753771874E+00  0.39428430628E+02  0.55280238425E+01  0.39826705047E+02  0.10566000000E+00 0. -1.
         22    1    1    0    0    0  0.22958485734E+02  0.11330803859E+02 -0.14207154874E+02  0.29280068868E+02  0.00000000000E+00 0.  1.
</event>
<event>
 5    1  0.1258624E-009  0.9118800E+02  0.7815553E-02  0.1125453E+00
         25   -1    0    0    0    0  0.00000000000E+00  0.00000000000E+00  0.99999998245E-14  0.12509000000E+03  0.12509000000E+03 0.  0.
        -13    1    3    3    0    0  0.85464140086E+01  0.18842433955E+01  0.34135776065E+02  0.35239948030E+02  0.10566000000E+00 0.  1.
         23    2    1    0    0    0 -0.48662908627E+01 -0.15142537290E+02 -0.23441430898E+02  0.96761959035E+02  0.92522423290E+02 0.  0.
         13    1    3    3    0    0 -0.13412704871E+02 -0.17026780686E+02 -0.57577206963E+02  0.61522011005E+02  0.10566000000E+00 0. -1.
         22    1    1    0    0    0  0.48662908627E+01  0.15142537290E+02  0.23441430898E+02  0.28328040965E+02  0.00000000000E+00 0. -1.
</event>
<event>
 5    1  0.1258624E-009  0.9118800E+02  0.7815553E-02  0.1125453E+00
         25   -1    0    0    0    0  0.00000000000E+00  0.00000000000E+00  0.99999998245E-14  0.12509000000E+03  0.12509000000E+03 0.  0.
        -13    1    3    3    0    0  0.17079822713E+02  0.18561090776E+02  0.29973137536E+02  0.39174412216E+02  0.10566000000E+00 0.  1.
         23    2    1    0    0    0  0.18628770419E+02  0.16832797223E+02 -0.22306095607E+02  0.91505240794E+02  0.85119169650E+02 0.  0.
         13    1    3    3    0    0  0.15489477057E+01 -0.17282935528E+01 -0.52279233143E+02  0.52330828578E+02  0.10566000000E+00 0. -1.
         22    1    1    0    0    0 -0.18628770419E+02 -0.16832797223E+02  0.22306095607E+02  0.33584759206E+02  0.00000000000E+00 0. -1.
</event>
<event>
 5    1  0.1258624E-009  0.9118800E+02  0.7815553E-02  0.1125453E+00
         25   -1    0    0    0    0  0.00000000000E+00  0.00000000000E+00  0.99999998245E-14  0.12509000000E+03  0.12509000000E+03 0.  0.
        -13    1    3    3    0    0 -0.26350527546E+02 -0.22829501630E+02  0.18624439505E+01  0.34914414045E+02  0.10566000000E+00 0. -1.
         23    2    1    0    0    0  0.16487388969E+02  0.20619926989E+02  0.10769096763E+02  0.96577041032E+02  0.92272076087E+02 0.  0.
         13    1    3    3    0    0  0.42837916515E+02  0.43449428618E+02  0.89066528121E+01  0.61662626987E+02  0.10566000000E+00 0.  1.
         22    1    1    0    0    0 -0.16487388969E+02 -0.20619926989E+02 -0.10769096763E+02  0.28512958968E+02  0.00000000000E+00 0.  1.
</event>
<event>
 5    1  0.1258624E-009  0.9118800E+02  0.7815553E-02  0.1125453E+00
         25   -1    0    0    0    0  0.00000000000E+00  0.00000000000E+00  0.99999998245E-14  0.12509000000E+03  0.12509000000E+03 0.  0.
        -13    1    3    3    0    0 -0.45577179020E+02  0.65642472602E+00  0.17298613914E+02  0.48754111091E+02  0.10566000000E+00 0.  1.
         23    2    1    0    0    0 -0.33482826362E+01 -0.21408282536E+02  0.18769184717E+02  0.96422808775E+02  0.92062751422E+02 0.  0.
         13    1    3    3    0    0  0.42228896384E+02 -0.22064707262E+02  0.14705708030E+01  0.47668697684E+02  0.10566000000E+00 0. -1.
         22    1    1    0    0    0  0.33482826362E+01  0.21408282536E+02 -0.18769184717E+02  0.28667191225E+02  0.00000000000E+00 0.  1.
</event>
<event>
 5    1  0.1258624E-009  0.9118800E+02  0.7815553E-02  0.1125453E+00
         25   -1    0    0    0    0  0.00000000000E+00  0.00000000000E+00  0.99999998245E-14  0.12509000000E+03  0.12509000000E+03 0.  0.
        -13    1    3    3    0    0 -0.32107033846E+02 -0.19625931377E+02  0.83954005464E+01  0.38555579612E+02  0.10566000000E+00 0. -1.
         23    2    1    0    0    0  0.25339604558E+02 -0.12435198964E+02  0.23239424909E+01  0.96768092558E+02  0.92530715421E+02 0.  0.
         13    1    3    3    0    0  0.57446638405E+02  0.71907324132E+01 -0.60714580556E+01  0.58212512947E+02  0.10566000000E+00 0.  1.
         22    1    1    0    0    0 -0.25339604558E+02  0.12435198964E+02 -0.23239424909E+01  0.28321907442E+02  0.00000000000E+00 0.  1.
</event>
<event>
 5    1  0.1258624E-009  0.9118800E+02  0.7815553E-02  0.1125453E+00
         25   -1    0    0    0    0  0.00000000000E+00  0.00000000000E+00  0.99999998245E-14  0.12509000000E+03  0.12509000000E+03 0.  0.
        -13    1    3    3    0    0 -0.18782145747E+02  0.15474903411E+02 -0.41739820882E+02  0.48316306210E+02  0.10566000000E+00 0. -1.
         23    2    1    0    0    0 -0.41089568428E-01  0.28965087848E+02  0.12199969436E+00  0.96124626080E+02  0.91656701079E+02 0.  0.
         13    1    3    3    0    0  0.18741056178E+02  0.13490184437E+02  0.41861820577E+02  0.47808319870E+02  0.10566000000E+00 0.  1.
         22    1    1    0    0    0  0.41089568428E-01 -0.28965087848E+02 -0.12199969436E+00  0.28965373920E+02  0.00000000000E+00 0. -1.
</event>
<event>
 5    1  0.1258624E-009  0.9118800E+02  0.7815553E-02  0.1125453E+00
         25   -1    0    0    0    0  0.00000000000E+00  0.00000000000E+00  0.99999998245E-14  0.12509000000E+03  0.12509000000E+03 0.  0.
        -13    1    3    3    0    0  0.15533463556E+02  0.24961860896E+02 -0.14859122903E+02  0.32942187039E+02  0.10566000000E+00 0. -1.
         23    2    1    0    0    0 -0.26605098024E+02 -0.15178432845E+02  0.41828006909E+01  0.94175409818E+02  0.88956708169E+02 0.  0.
         13    1    3    3    0    0 -0.42138561581E+02 -0.40140293741E+02  0.19041923594E+02  0.61233222779E+02  0.10566000000E+00 0.  1.
         22    1    1    0    0    0  0.26605098024E+02  0.15178432845E+02 -0.41828006909E+01  0.30914590182E+02  0.00000000000E+00 0.  1.
</event>
<event>
 5    1  0.1258624E-009  0.9118800E+02  0.7815553E-02  0.1125453E+00
         25   -1    0    0    0    0  0.00000000000E+00  0.00000000000E+00  0.99999998245E-14  0.12509000000E+03  0.12509000000E+03 0.  0.
        -13    1    3    3    0    0 -0.25344857159E+02  0.41387128669E+01  0.31784932103E+02  0.40862988161E+02  0.10566000000E+00 0.  1.
         23    2    1    0    0    0  0.51858507685E+01 -0.27827000081E+02 -0.23129370719E+01  0.96689565856E+02  0.92424496135E+02 0.  0.
         13    1    3    3    0    0  0.30530707928E+02 -0.31965712948E+02 -0.34097869175E+02  0.55826577695E+02  0.10566000000E+00 0. -1.
         22    1    1    0    0    0 -0.51858507685E+01  0.27827000081E+02  0.23129370719E+01  0.28400434144E+02  0.00000000000E+00 0. -1.
</event>
<event>
 5    1  0.1258624E-009  0.9118800E+02  0.7815553E-02  0.1125453E+00
         25   -1    0    0    0    0  0.00000000000E+00  0.00000000000E+00  0.99999998245E-14  0.12509000000E+03  0.12509000000E+03 0.  0.
        -13    1    3    3    0    0  0.22716839795E+02  0.21123893362E+02 -0.17011241233E+02  0.35378908594E+02  0.10566000000E+00 0. -1.
         23    2    1    0    0    0 -0.63195504182E+01 -0.28661412562E+02  0.88233141771E+00  0.95726897366E+02  0.91112277345E+02 0.  0.
         13    1    3    3    0    0 -0.29036390213E+02 -0.49785305924E+02  0.17893572650E+02  0.60347988772E+02  0.10566000000E+00 0.  1.
         22    1    1    0    0    0  0.63195504182E+01  0.28661412562E+02 -0.88233141771E+00  0.29363102634E+02  0.00000000000E+00 0.  1.
</event>
<event>
 5    1  0.1258624E-009  0.9118800E+02  0.7815553E-02  0.1125453E+00
         25   -1    0    0    0    0  0.00000000000E+00  0.00000000000E+00  0.99999998245E-14  0.12509000000E+03  0.12509000000E+03 0.  0.
        -13    1    3    3    0    0  0.35537905432E+02 -0.73269568370E+01  0.55376862915E+01  0.36705641971E+02  0.10566000000E+00 0.  1.
         23    2    1    0    0    0  0.85668518550E+01  0.32770842966E+01 -0.36327131060E+02  0.87622805239E+02  0.79208366444E+02 0.  0.
         13    1    3    3    0    0 -0.26971053577E+02  0.10604041134E+02 -0.41864817352E+02  0.50917163269E+02  0.10566000000E+00 0. -1.
         22    1    1    0    0    0 -0.85668518550E+01 -0.32770842966E+01  0.36327131060E+02  0.37467194761E+02  0.00000000000E+00 0. -1.
</event>
<event>
 4    1  0.1258624E-009  0.9118800E+02  0.7815553E-02  0.1125453E+00
         25   -1    0    0    0    0  0.00000000000E+00  0.00000000000E+00  0.99999998245E-14  0.12509000000E+03  0.12509000000E+03 0.  0.
        -13    1    1    0    0    0  0.16034022761E+01  0.12801514632E+01 -0.72542077886E+01  0.75395212914E+01  0.10566000000E+00 0.  1.
         13    1    1    0    0    0  0.25284124899E+02  0.31554677912E+02  0.45181822704E+02  0.60633265927E+02  0.10566000000E+00 0. -1.
         22    1    1    0    0    0 -0.26887527175E+02 -0.32834829375E+02 -0.37927614915E+02  0.56917212782E+02  0.00000000000E+00 0. -1.
</event>
<event>
 5    1  0.1258624E-009  0.9118800E+02  0.7815553E-02  0.1125453E+00
         25   -1    0    0    0    0  0.00000000000E+00  0.00000000000E+00  0.99999998245E-14  0.12509000000E+03  0.12509000000E+03 0.  0.
        -13    1    3    3    0    0  0.34586606527E+02 -0.23890036356E+02  0.40537548913E+02  0.58397527551E+02  0.10566000000E+00 0. -1.
         23    2    1    0    0    0  0.24535902122E+02  0.23732705754E+01  0.16151207547E+02  0.95619601099E+02  0.90964848722E+02 0.  0.
         13    1    3    3    0    0 -0.10050704405E+02  0.26263306932E+02 -0.24386341365E+02  0.37222073549E+02  0.10566000000E+00 0.  1.
         22    1    1    0    0    0 -0.24535902122E+02 -0.23732705754E+01 -0.16151207547E+02  0.29470398901E+02  0.00000000000E+00 0. -1.
</event>
<event>
 5    1  0.1258624E-009  0.9118800E+02  0.7815553E-02  0.1125453E+00
         25   -1    0    0    0    0  0.00000000000E+00  0.00000000000E+00  0.99999998245E-14  0.12509000000E+03  0.12509000000E+03 0.  0.
        -13    1    3    3    0    0  0.35671286133E+02  0.58332356485E+01  0.17066032994E+01  0.36185507477E+02  0.10566000000E+00 0. -1.
         23    2    1    0    0    0 -0.22504148690E+02  0.12393952221E+02 -0.12633411485E+02  0.96460472486E+02  0.92113912666E+02 0.  0.
         13    1    3    3    0    0 -0.58175434823E+02  0.65607165726E+01 -0.14340014785E+02  0.60274965009E+02  0.10566000000E+00 0.  1.
         22    1    1    0    0    0  0.22504148690E+02 -0.12393952221E+02  0.12633411485E+02  0.28629527514E+02  0.00000000000E+00 0.  1.
</event>
<event>
 5    1  0.1258624E-009  0.9118800E+02  0.7815553E-02  0.1125453E+00
         25   -1    0    0    0    0  0.00000000000E+00  0.00000000000E+00  0.99999998245E-14  0.12509000000E+03  0.12509000000E+03 0.  0.
        -13    1    3    3    0    0 -0.44195265485E+02 -0.95158886257E+01 -0.41606259446E+02  0.61439935032E+02  0.10566000000E+00 0. -1.
         23    2    1    0    0    0 -0.26881199304E+02 -0.45008745103E+01 -0.13898095247E+02  0.94495657404E+02  0.89405902878E+02 0.  0.
         13    1    3    3    0    0  0.17314066181E+02  0.50150141154E+01  0.27708164198E+02  0.33055722373E+02  0.10566000000E+00 0.  1.
         22    1    1    0    0    0  0.26881199304E+02  0.45008745103E+01  0.13898095247E+02  0.30594342596E+02  0.00000000000E+00 0. -1.
</event>
<event>
 5    1  0.1258624E-009  0.9118800E+02  0.7815553E-02  0.1125453E+00
         25   -1    0    0    0    0  0.00000000000E+00  0.00000000000E+00  0.99999998245E-14  0.12509000000E+03  0.12509000000E+03 0.  0.
        -13    1    3    3    0    0  0.45813777288E+02  0.41373929276E+02  0.95844010352E+01  0.62470602049E+02  0.10566000000E+00 0.  1.
         23    2    1    0    0    0  0.24394018379E+02  0.24051779599E+02  0.68602517430E+01  0.90152637642E+02  0.83107633736E+02 0.  0.
         13    1    3    3    0    0 -0.21419758909E+02 -0.17322149677E+02 -0.27241492922E+01  0.27682035593E+02  0.10566000000E+00 0. -1.
         22    1    1    0    0    0 -0.24394018379E+02 -0.24051779599E+02 -0.68602517430E+01  0.34937362358E+02  0.00000000000E+00 0.  1.
</event>
<event>
 5    1  0.1258624E-009  0.9118800E+02  0.7815553E-02  0.1125453E+00
         25   -1    0    0    0    0  0.00000000000E+00  0.00000000000E+00  0.99999998245E-14  0.12509000000E+03  0.12509000000E+03 0.  0.
        -13    1    3    3    0    0  0.64763758416E+01  0.46283574341E+02 -0.24325498420E+02  0.52686371437E+02  0.10566000000E+00 0. -1.
         23    2    1    0    0    0  0.17994225512E+02  0.45089492153E+01 -0.22321745285E+02  0.96066163462E+02  0.91576878495E+02 0.  0.
         13    1    3    3    0    0  0.11517849671E+02 -0.41774625126E+02  0.20037531349E+01  0.43379792024E+02  0.10566000000E+00 0.  1.
         22    1    1    0    0    0 -0.17994225512E+02 -0.45089492153E+01  0.22321745285E+02  0.29023836538E+02  0.00000000000E+00 0. -1.
</event>
<event>
 5    1  0.1258624E-009  0.9118800E+02  0.7815553E-02  0.1125453E+00
         25   -1    0    0    0    0  0.00000000000E+00  0.00000000000E+00  0.99999998245E-14  0.12509000000E+03  0.12509000000E+03 0.  0.
        -13    1    3    3    0    0 -0.21286329314E+02 -0.28175548774E+02 -0.21775388009E+02  0.41486721386E+02  0.10566000000E+00 0.  1.
         23    2    1    0    0    0  0.96866573280E+01 -0.16260073229E+02  0.21774268200E+02  0.96239695543E+02  0.91813609726E+02 0.  0.
         13    1    3    3    0    0  0.30972986642E+02  0.11915475545E+02  0.43549656209E+02  0.54752974156E+02  0.10566000000E+00 0. -1.
         22    1    1    0    0    0 -0.96866573280E+01  0.16260073229E+02 -0.21774268200E+02  0.28850304457E+02  0.00000000000E+00 0. -1.
</event>
<event>
 5    1  0.1258624E-009  0.9118800E+02  0.7815553E-02  0.1125453E+00
         25   -1    0    0    0    0  0.00000000000E+00  0.00000000000E+00  0.99999998245E-14  0.12509000000E+03  0.12509000000E+03 0.  0.
        -13    1    3    3    0    0  0.34368777882E+01  0.32193690500E+02  0.15281028068E+02  0.35801771182E+02  0.10566000000E+00 0. -1.
         23    2    1    0    0    0  0.12432146742E+02 -0.25528612752E+02  0.11850390740E+02  0.94321507961E+02  0.89161913179E+02 0.  0.
         13    1    3    3    0    0  0.89952689538E+01 -0.57722303252E+02 -0.34306373275E+01  0.58519736779E+02  0.10566000000E+00 0.  1.
         22    1    1    0    0    0 -0.12432146742E+02  0.25528612752E+02 -0.11850390740E+02  0.30768492039E+02  0.00000000000E+00 0. -1.
</event>
<event>
 5    1  0.1258624E-009  0.9118800E+02  0.7815553E-02  0.1125453E+00
         25   -1    0    0    0    0  0.00000000000E+00  0.00000000000E+00  0.99999998245E-14  0.12509000000E+03  0.12509000000E+03 0.  0.
        -13    1    3    3    0    0  0.15471594005E+02 -0.19514253907E+02  0.53527659549E+02  0.59037257960E+02  0.10566000000E+00 0. -1.
         23    2    1    0    0    0  0.18171876948E+02 -0.16524474539E+02  0.18386489817E+02  0.94408761785E+02  0.89284242301E+02 0.  0.
         13    1    3    3    0    0  0.27002829438E+01  0.29897793682E+01 -0.35141169732E+02  0.35371503825E+02  0.10566000000E+00 0.  1.
         22    1    1    0    0    0 -0.18171876948E+02  0.16524474539E+02 -0.18386489817E+02  0.30681238215E+02  0.00000000000E+00 0. -1.
</event>
<event>
 5    1  0.1258624E-009  0.9118800E+02  0.7815553E-02  0.1125453E+00
         25   -1    0    0    0    0  0.00000000000E+00  0.00000000000E+00  0.99999998245E-14  0.12509000000E+03  0.12509000000E+03 0.  0.
        -13    1    3    3    0    0  0.99991239333E+01 -0.43508015695E+02  0.12643544416E+02  0.46398278940E+02  0.10566000000E+00 0. -1.
         23    2    1    0    0    0 -0.26636882449E+02 -0.11491894968E+02  0.42938394720E+01  0.95763830561E+02  0.91162969619E+02 0.  0.
         13    1    3    3    0    0 -0.36636006383E+02  0.32016120727E+02 -0.83497049439E+01  0.49365551620E+02  0.10566000000E+00 0.  1.
         22    1    1    0    0    0  0.26636882449E+02  0.11491894968E+02 -0.42938394720E+01  0.29326169439E+02  0.00000000000E+00 0.  1.
</event>
<event>
 5    1  0.1258624E-009  0.9118800E+02  0.7815553E-02  0.1125453E+00
         25   -1    0    0    0    0  0.00000000000E+00  0.00000000000E+00  0.99999998245E-14  0.12509000000E+03  0.12509000000E+03 0.  0.
        -13    1    3    3    0    0  0.69747356174E+01  0.20156095118E+02 -0.32538326264E+02  0.38905898620E+02  0.10566000000E+00 0. -1.
         23    2    1    0    0    0 -0.39098913888E+01  0.18972093660E+02  0.22716936805E+02  0.95235573086E+02  0.90435212029E+02 0.  0.
         13    1    3    3    0    0 -0.10884627006E+02 -0.11840014584E+01  0.55255263070E+02  0.56329674466E+02  0.10566000000E+00 0.  1.
         22    1    1    0    0    0  0.39098913888E+01 -0.18972093660E+02 -0.22716936805E+02  0.29854426914E+02  0.00000000000E+00 0.  1.
</event>
