<event>
 4    1  0.9856522E-003  0.9118800E+02  0.7818608E-02  0.1130116E+00
         25   -1    0    0    0    0  0.00000000000E+00  0.00000000000E+00  0.99999998245E-14  0.12500000000E+03  0.12500000000E+03 0.  0.
        -13    1    1    0    0    0 -0.46022803347E+01 -0.74770498846E+01 -0.35269173428E+02  0.36345742772E+02  0.10566000000E+00 0. -1.
         13    1    1    0    0    0 -0.38927329979E+01 -0.85343243208E+01 -0.24480272724E+02  0.26216082439E+02  0.10566000000E+00 0.  1.
         22    1    1    0    0    0  0.84950133326E+01  0.16011374205E+02  0.59749446152E+02  0.62438174789E+02  0.00000000000E+00 0.  1.
</event>
<event>
 4    1  0.9856522E-003  0.9118800E+02  0.7818608E-02  0.1130116E+00
         25   -1    0    0    0    0  0.00000000000E+00  0.00000000000E+00  0.99999998245E-14  0.12500000000E+03  0.12500000000E+03 0.  0.
        -13    1    1    0    0    0  0.18554045930E+02  0.57503086744E+01  0.91129923811E+01  0.21456385167E+02  0.10566000000E+00 0. -1.
         13    1    1    0    0    0  0.34373099633E+02  0.13245653168E+02  0.18132600121E+02  0.41058003573E+02  0.10566000000E+00 0.  1.
         22    1    1    0    0    0 -0.52927145563E+02 -0.18995961843E+02 -0.27245592502E+02  0.62485611260E+02  0.00000000000E+00 0.  1.
</event>
<event>
 4    1  0.9856522E-003  0.9118800E+02  0.7818608E-02  0.1130116E+00
         25   -1    0    0    0    0  0.00000000000E+00  0.00000000000E+00  0.99999998245E-14  0.12500000000E+03  0.12500000000E+03 0.  0.
        -13    1    1    0    0    0  0.42457840701E+02  0.43666677654E+02 -0.72846932078E+01  0.61339423648E+02  0.10566000000E+00 0. -1.
         13    1    1    0    0    0  0.89024239634E+00  0.70496179639E+00  0.54526755149E+00  0.12641136804E+01  0.10566000000E+00 0.  1.
         22    1    1    0    0    0 -0.43348083098E+02 -0.44371639450E+02  0.67394256563E+01  0.62396462671E+02  0.00000000000E+00 0. -1.
</event>
<event>
 4    1  0.9856522E-003  0.9118800E+02  0.7818608E-02  0.1130116E+00
         25   -1    0    0    0    0  0.00000000000E+00  0.00000000000E+00  0.99999998245E-14  0.12500000000E+03  0.12500000000E+03 0.  0.
        -13    1    1    0    0    0 -0.21493783197E+02 -0.26591475129E+02  0.52179506702E+01  0.34587966678E+02  0.10566000000E+00 0.  1.
         13    1    1    0    0    0 -0.14657241221E+02 -0.80358074593E+01  0.26368449670E+02  0.31220429590E+02  0.10566000000E+00 0. -1.
         22    1    1    0    0    0  0.36151024418E+02  0.34627282588E+02 -0.31586400340E+02  0.59191603732E+02  0.00000000000E+00 0. -1.
</event>
<event>
 4    1  0.9856522E-003  0.9118800E+02  0.7818608E-02  0.1130116E+00
         25   -1    0    0    0    0  0.00000000000E+00  0.00000000000E+00  0.99999998245E-14  0.12500000000E+03  0.12500000000E+03 0.  0.
        -13    1    1    0    0    0  0.27899646511E+02  0.25022408287E+02  0.39511997804E+02  0.54458427506E+02  0.10566000000E+00 0. -1.
         13    1    1    0    0    0 -0.96405407234E+01  0.11072033595E+02 -0.10405671102E+01  0.14718148570E+02  0.10566000000E+00 0.  1.
         22    1    1    0    0    0 -0.18259105787E+02 -0.36094441882E+02 -0.38471430694E+02  0.55823423924E+02  0.00000000000E+00 0. -1.
</event>
<event>
 4    1  0.9856522E-003  0.9118800E+02  0.7818608E-02  0.1130116E+00
         25   -1    0    0    0    0  0.00000000000E+00  0.00000000000E+00  0.99999998245E-14  0.12500000000E+03  0.12500000000E+03 0.  0.
        -13    1    1    0    0    0  0.18078218104E+01  0.50971586270E+01 -0.15946017654E+01  0.56394294563E+01  0.10566000000E+00 0.  1.
         13    1    1    0    0    0  0.18425902049E+02  0.50923263612E+02 -0.17336832967E+02  0.56861846476E+02  0.10566000000E+00 0.  1.
         22    1    1    0    0    0 -0.20233723860E+02 -0.56020422239E+02  0.18931434733E+02  0.62498724068E+02  0.00000000000E+00 0.  1.
</event>
<event>
 4    1  0.9856522E-003  0.9118800E+02  0.7818608E-02  0.1130116E+00
         25   -1    0    0    0    0  0.00000000000E+00  0.00000000000E+00  0.99999998245E-14  0.12500000000E+03  0.12500000000E+03 0.  0.
        -13    1    1    0    0    0 -0.17415716781E+02  0.15314710663E+00 -0.71237015683E+01  0.18817250945E+02  0.10566000000E+00 0.  1.
         13    1    1    0    0    0 -0.40150865889E+02  0.37562121432E+00 -0.17205691904E+02  0.43683865681E+02  0.10566000000E+00 0. -1.
         22    1    1    0    0    0  0.57566582670E+02 -0.52876832095E+00  0.24329393473E+02  0.62498883374E+02  0.00000000000E+00 0. -1.
</event>
<event>
 4    1  0.9856522E-003  0.9118800E+02  0.7818608E-02  0.1130116E+00
         25   -1    0    0    0    0  0.00000000000E+00  0.00000000000E+00  0.99999998245E-14  0.12500000000E+03  0.12500000000E+03 0.  0.
        -13    1    1    0    0    0 -0.13776507904E+02 -0.14405200443E+02 -0.35994082215E+01  0.20255094999E+02  0.10566000000E+00 0. -1.
         13    1    1    0    0    0 -0.29015614969E+02 -0.29761990246E+02 -0.75486564205E+01  0.42245418133E+02  0.10566000000E+00 0. -1.
         22    1    1    0    0    0  0.42792122874E+02  0.44167190689E+02  0.11148064642E+02  0.62499486867E+02  0.00000000000E+00 0. -1.
</event>
<event>
 4    1  0.9856522E-003  0.9118800E+02  0.7818608E-02  0.1130116E+00
         25   -1    0    0    0    0  0.00000000000E+00  0.00000000000E+00  0.99999998245E-14  0.12500000000E+03  0.12500000000E+03 0.  0.
        -13    1    1    0    0    0  0.10041531628E+02  0.23604597500E+02 -0.33175323381E+01  0.25865547847E+02  0.10566000000E+00 0. -1.
         13    1    1    0    0    0  0.25918032229E+01  0.37018558658E+02 -0.18798284351E+00  0.37109805047E+02  0.10566000000E+00 0.  1.
         22    1    1    0    0    0 -0.12633334851E+02 -0.60623156158E+02  0.35055151816E+01  0.62024647106E+02  0.00000000000E+00 0.  1.
</event>
<event>
 4    1  0.9856522E-003  0.9118800E+02  0.7818608E-02  0.1130116E+00
         25   -1    0    0    0    0  0.00000000000E+00  0.00000000000E+00  0.99999998245E-14  0.12500000000E+03  0.12500000000E+03 0.  0.
        -13    1    1    0    0    0  0.16879865187E+02 -0.82901136023E+01 -0.13059314772E+02  0.22895691704E+02  0.10566000000E+00 0. -1.
         13    1    1    0    0    0  0.28559089681E+02 -0.15539413501E+02 -0.22621867339E+02  0.39608774549E+02  0.10566000000E+00 0.  1.
         22    1    1    0    0    0 -0.45438954868E+02  0.23829527103E+02  0.35681182111E+02  0.62495533747E+02  0.00000000000E+00 0.  1.
</event>
<event>
 4    1  0.9856522E-003  0.9118800E+02  0.7818608E-02  0.1130116E+00
         25   -1    0    0    0    0  0.00000000000E+00  0.00000000000E+00  0.99999998245E-14  0.12500000000E+03  0.12500000000E+03 0.  0.
        -13    1    1    0    0    0  0.22523245095E+02  0.48656932275E+02  0.15805095877E+02  0.55898173922E+02  0.10566000000E+00 0. -1.
         13    1    1    0    0    0  0.28105122642E+01  0.56848646075E+01  0.18370452116E+01  0.66032237535E+01  0.10566000000E+00 0.  1.
         22    1    1    0    0    0 -0.25333757359E+02 -0.54341796883E+02 -0.17642141089E+02  0.62498602325E+02  0.00000000000E+00 0. -1.
</event>
<event>
 4    1  0.9856522E-003  0.9118800E+02  0.7818608E-02  0.1130116E+00
         25   -1    0    0    0    0  0.00000000000E+00  0.00000000000E+00  0.99999998245E-14  0.12500000000E+03  0.12500000000E+03 0.  0.
        -13    1    1    0    0    0  0.19812650776E+02  0.43228230543E+02 -0.20805939075E+01  0.47597910476E+02  0.10566000000E+00 0. -1.
         13    1    1    0    0    0  0.67833397214E+01  0.13201683188E+02 -0.14850499612E+01  0.14916925762E+02  0.10566000000E+00 0.  1.
         22    1    1    0    0    0 -0.26595990497E+02 -0.56429913731E+02  0.35656438687E+01  0.62485163762E+02  0.00000000000E+00 0. -1.
</event>
<event>
 4    1  0.9856522E-003  0.9118800E+02  0.7818608E-02  0.1130116E+00
         25   -1    0    0    0    0  0.00000000000E+00  0.00000000000E+00  0.99999998245E-14  0.12500000000E+03  0.12500000000E+03 0.  0.
        -13    1    1    0    0    0  0.33035350401E+02 -0.32883428104E+02  0.18103376379E+02  0.50003976045E+02  0.10566000000E+00 0. -1.
         13    1    1    0    0    0  0.82195800802E+01 -0.83301299456E+01  0.43826305511E+01  0.12496846650E+02  0.10566000000E+00 0.  1.
         22    1    1    0    0    0 -0.41254930481E+02  0.41213558050E+02 -0.22486006930E+02  0.62499177305E+02  0.00000000000E+00 0. -1.
</event>
<event>
 4    1  0.9856522E-003  0.9118800E+02  0.7818608E-02  0.1130116E+00
         25   -1    0    0    0    0  0.00000000000E+00  0.00000000000E+00  0.99999998245E-14  0.12500000000E+03  0.12500000000E+03 0.  0.
        -13    1    1    0    0    0  0.57690922847E+02  0.74635622801E+01  0.14064405480E+02  0.59847857158E+02  0.10566000000E+00 0. -1.
         13    1    1    0    0    0  0.25436481548E+01  0.64770846313E+00  0.44905688691E+00  0.26650494014E+01  0.10566000000E+00 0.  1.
         22    1    1    0    0    0 -0.60234571002E+02 -0.81112707433E+01 -0.14513462367E+02  0.62487093441E+02  0.00000000000E+00 0. -1.
</event>
<event>
 4    1  0.9856522E-003  0.9118800E+02  0.7818608E-02  0.1130116E+00
         25   -1    0    0    0    0  0.00000000000E+00  0.00000000000E+00  0.99999998245E-14  0.12500000000E+03  0.12500000000E+03 0.  0.
        -13    1    1    0    0    0 -0.31028250056E+00  0.28153370482E+02 -0.12805283862E+02  0.30930486636E+02  0.10566000000E+00 0. -1.
         13    1    1    0    0    0 -0.37979121412E+00  0.29029780122E+02 -0.12405387863E+02  0.31571778337E+02  0.10566000000E+00 0.  1.
         22    1    1    0    0    0  0.69007371468E+00 -0.57183150604E+02  0.25210671725E+02  0.62497735027E+02  0.00000000000E+00 0.  1.
</event>
<event>
 4    1  0.9856522E-003  0.9118800E+02  0.7818608E-02  0.1130116E+00
         25   -1    0    0    0    0  0.00000000000E+00  0.00000000000E+00  0.99999998245E-14  0.12500000000E+03  0.12500000000E+03 0.  0.
        -13    1    1    0    0    0 -0.30659250216E+02 -0.12611971033E+02  0.58316369252E+01  0.33661113921E+02  0.10566000000E+00 0. -1.
         13    1    1    0    0    0 -0.26489776315E+02 -0.96412505743E+01  0.61442509736E+01  0.28851775438E+02  0.10566000000E+00 0.  1.
         22    1    1    0    0    0  0.57149026531E+02  0.22253221608E+02 -0.11975887899E+02  0.62487110641E+02  0.00000000000E+00 0. -1.
</event>
<event>
 4    1  0.9856522E-003  0.9118800E+02  0.7818608E-02  0.1130116E+00
         25   -1    0    0    0    0  0.00000000000E+00  0.00000000000E+00  0.99999998245E-14  0.12500000000E+03  0.12500000000E+03 0.  0.
        -13    1    1    0    0    0  0.45991529717E+01 -0.42351736799E+01  0.61159772065E+01  0.87467276956E+01  0.10566000000E+00 0. -1.
         13    1    1    0    0    0  0.27742014776E+02 -0.29236019460E+02  0.35582288814E+02  0.53763134758E+02  0.10566000000E+00 0.  1.
         22    1    1    0    0    0 -0.32341167748E+02  0.33471193140E+02 -0.41698266020E+02  0.62490137547E+02  0.00000000000E+00 0.  1.
</event>
<event>
 4    1  0.9856522E-003  0.9118800E+02  0.7818608E-02  0.1130116E+00
         25   -1    0    0    0    0  0.00000000000E+00  0.00000000000E+00  0.99999998245E-14  0.12500000000E+03  0.12500000000E+03 0.  0.
        -13    1    1    0    0    0 -0.17862946363E+02  0.25055401430E+02 -0.91622365534E+01  0.32106319258E+02  0.10566000000E+00 0.  1.
         13    1    1    0    0    0 -0.54258541583E+01  0.29528469380E+02 -0.80871187449E+01  0.31093135109E+02  0.10566000000E+00 0. -1.
         22    1    1    0    0    0  0.23288800521E+02 -0.54583870810E+02  0.17249355298E+02  0.61800545633E+02  0.00000000000E+00 0.  1.
</event>
<event>
 4    1  0.9856522E-003  0.9118800E+02  0.7818608E-02  0.1130116E+00
         25   -1    0    0    0    0  0.00000000000E+00  0.00000000000E+00  0.99999998245E-14  0.12500000000E+03  0.12500000000E+03 0.  0.
        -13    1    1    0    0    0 -0.14439726103E+01  0.13136938748E+02  0.69574817935E+01  0.14935927608E+02  0.10566000000E+00 0.  1.
         13    1    1    0    0    0 -0.63147338943E+01  0.42875879729E+02  0.19631092860E+02  0.47577388512E+02  0.10566000000E+00 0. -1.
         22    1    1    0    0    0  0.77587065046E+01 -0.56012818476E+02 -0.26588574654E+02  0.62486683881E+02  0.00000000000E+00 0. -1.
</event>
<event>
 4    1  0.9856522E-003  0.9118800E+02  0.7818608E-02  0.1130116E+00
         25   -1    0    0    0    0  0.00000000000E+00  0.00000000000E+00  0.99999998245E-14  0.12500000000E+03  0.12500000000E+03 0.  0.
        -13    1    1    0    0    0  0.23959673531E+02 -0.10589306102E+02 -0.51175313485E+02  0.57490201198E+02  0.10566000000E+00 0.  1.
         13    1    1    0    0    0  0.23594197968E+01 -0.17867470961E+01 -0.40954717733E+01  0.50540459085E+01  0.10566000000E+00 0. -1.
         22    1    1    0    0    0 -0.26319093328E+02  0.12376053199E+02  0.55270785259E+02  0.62455752893E+02  0.00000000000E+00 0.  1.
</event>
<event>
 4    1  0.9856522E-003  0.9118800E+02  0.7818608E-02  0.1130116E+00
         25   -1    0    0    0    0  0.00000000000E+00  0.00000000000E+00  0.99999998245E-14  0.12500000000E+03  0.12500000000E+03 0.  0.
        -13    1    1    0    0    0  0.13219731679E+02 -0.63534885002E+00 -0.11137938720E+02  0.17298260514E+02  0.10566000000E+00 0.  1.
         13    1    1    0    0    0  0.34285854307E+02 -0.26067879016E+01 -0.29343351003E+02  0.45203523766E+02  0.10566000000E+00 0. -1.
         22    1    1    0    0    0 -0.47505585986E+02  0.32421367516E+01  0.40481289723E+02  0.62498215721E+02  0.00000000000E+00 0. -1.
</event>
<event>
 4    1  0.9856522E-003  0.9118800E+02  0.7818608E-02  0.1130116E+00
         25   -1    0    0    0    0  0.00000000000E+00  0.00000000000E+00  0.99999998245E-14  0.12500000000E+03  0.12500000000E+03 0.  0.
        -13    1    1    0    0    0 -0.14879941507E+02 -0.72746863631E+01 -0.48979694424E+01  0.17272376490E+02  0.10566000000E+00 0. -1.
         13    1    1    0    0    0 -0.39136513715E+02 -0.18624875686E+02 -0.12923799177E+02  0.45228182025E+02  0.10566000000E+00 0.  1.
         22    1    1    0    0    0  0.54016455222E+02  0.25899562049E+02  0.17821768619E+02  0.62499441484E+02  0.00000000000E+00 0.  1.
</event>
<event>
 4    1  0.9856522E-003  0.9118800E+02  0.7818608E-02  0.1130116E+00
         25   -1    0    0    0    0  0.00000000000E+00  0.00000000000E+00  0.99999998245E-14  0.12500000000E+03  0.12500000000E+03 0.  0.
        -13    1    1    0    0    0 -0.86483799233E+01 -0.90480298256E+01  0.42372724668E+01  0.13214649485E+02  0.10566000000E+00 0.  1.
         13    1    1    0    0    0 -0.30058344374E+02 -0.29862392486E+02  0.25409999997E+02  0.49405928950E+02  0.10566000000E+00 0. -1.
         22    1    1    0    0    0  0.38706724297E+02  0.38910422312E+02 -0.29647272463E+02  0.62379421565E+02  0.00000000000E+00 0. -1.
</event>
<event>
 4    1  0.9856522E-003  0.9118800E+02  0.7818608E-02  0.1130116E+00
         25   -1    0    0    0    0  0.00000000000E+00  0.00000000000E+00  0.99999998245E-14  0.12500000000E+03  0.12500000000E+03 0.  0.
        -13    1    1    0    0    0  0.79386630685E+01  0.70748338620E+01 -0.12113338163E+01  0.10702996736E+02  0.10566000000E+00 0. -1.
         13    1    1    0    0    0 -0.21412436739E+02  0.16295188000E+02  0.51003922857E+02  0.57666601339E+02  0.10566000000E+00 0.  1.
         22    1    1    0    0    0  0.13473773671E+02 -0.23370021862E+02 -0.49792589041E+02  0.56630401925E+02  0.00000000000E+00 0.  1.
</event>
<event>
 4    1  0.9856522E-003  0.9118800E+02  0.7818608E-02  0.1130116E+00
         25   -1    0    0    0    0  0.00000000000E+00  0.00000000000E+00  0.99999998245E-14  0.12500000000E+03  0.12500000000E+03 0.  0.
        -13    1    1    0    0    0 -0.24201814325E+01 -0.27990360190E+01 -0.44370217301E+01  0.57784259683E+01  0.10566000000E+00 0. -1.
         13    1    1    0    0    0 -0.25166590836E+02 -0.27898909493E+02 -0.42495079219E+02  0.56723446361E+02  0.10566000000E+00 0.  1.
         22    1    1    0    0    0  0.27586772269E+02  0.30697945512E+02  0.46932100949E+02  0.62498127671E+02  0.00000000000E+00 0.  1.
</event>
<event>
 4    1  0.9856522E-003  0.9118800E+02  0.7818608E-02  0.1130116E+00
         25   -1    0    0    0    0  0.00000000000E+00  0.00000000000E+00  0.99999998245E-14  0.12500000000E+03  0.12500000000E+03 0.  0.
        -13    1    1    0    0    0  0.21123695680E+02  0.41345552817E+01 -0.17562227766E+01  0.21596308691E+02  0.10566000000E+00 0.  1.
         13    1    1    0    0    0  0.18422472771E+02  0.28255665952E+02  0.29878240076E+02  0.45060964875E+02  0.10566000000E+00 0. -1.
         22    1    1    0    0    0 -0.39546168452E+02 -0.32390221234E+02 -0.28122017300E+02  0.58342726434E+02  0.00000000000E+00 0. -1.
</event>
<event>
 4    1  0.9856522E-003  0.9118800E+02  0.7818608E-02  0.1130116E+00
         25   -1    0    0    0    0  0.00000000000E+00  0.00000000000E+00  0.99999998245E-14  0.12500000000E+03  0.12500000000E+03 0.  0.
        -13    1    1    0    0    0 -0.75093321383E+01 -0.49899295041E+02 -0.24122494161E+02  0.55930632066E+02  0.10566000000E+00 0. -1.
         13    1    1    0    0    0  0.17878412676E+02  0.19358311342E+02 -0.35276725760E+01  0.26586415623E+02  0.10566000000E+00 0.  1.
         22    1    1    0    0    0 -0.10369080538E+02  0.30540983699E+02  0.27650166737E+02  0.42482952311E+02  0.00000000000E+00 0. -1.
</event>
<event>
 4    1  0.9856522E-003  0.9118800E+02  0.7818608E-02  0.1130116E+00
         25   -1    0    0    0    0  0.00000000000E+00  0.00000000000E+00  0.99999998245E-14  0.12500000000E+03  0.12500000000E+03 0.  0.
        -13    1    1    0    0    0  0.81872135719E+01 -0.90003618978E+01 -0.25401694968E+02  0.28165479787E+02  0.10566000000E+00 0. -1.
         13    1    1    0    0    0  0.93549523872E+01 -0.97404950475E+01 -0.31575015823E+02  0.34342177657E+02  0.10566000000E+00 0.  1.
         22    1    1    0    0    0 -0.17542165959E+02  0.18740856945E+02  0.56976710791E+02  0.62492342556E+02  0.00000000000E+00 0. -1.
</event>
<event>
 4    1  0.9856522E-003  0.9118800E+02  0.7818608E-02  0.1130116E+00
         25   -1    0    0    0    0  0.00000000000E+00  0.00000000000E+00  0.99999998245E-14  0.12500000000E+03  0.12500000000E+03 0.  0.
        -13    1    1    0    0    0  0.35285145289E+01 -0.21278792257E+02 -0.42322204712E+02  0.47501764077E+02  0.10566000000E+00 0.  1.
         13    1    1    0    0    0  0.18950641361E+02  0.21779496360E+01 -0.67564106131E+01  0.20236860454E+02  0.10566000000E+00 0. -1.
         22    1    1    0    0    0 -0.22479155890E+02  0.19100842621E+02  0.49078615325E+02  0.57261375469E+02  0.00000000000E+00 0.  1.
</event>
<event>
 4    1  0.9856522E-003  0.9118800E+02  0.7818608E-02  0.1130116E+00
         25   -1    0    0    0    0  0.00000000000E+00  0.00000000000E+00  0.99999998245E-14  0.12500000000E+03  0.12500000000E+03 0.  0.
        -13    1    1    0    0    0  0.94825236807E+01 -0.25299692759E+02  0.35216556511E+01  0.27247127035E+02  0.10566000000E+00 0.  1.
         13    1    1    0    0    0  0.12380625903E+02 -0.32704072941E+02  0.44648796615E+01  0.35253121835E+02  0.10566000000E+00 0.  1.
         22    1    1    0    0    0 -0.21863149584E+02  0.58003765700E+02 -0.79865353126E+01  0.62499751131E+02  0.00000000000E+00 0.  1.
</event>
<event>
 4    1  0.9856522E-003  0.9118800E+02  0.7818608E-02  0.1130116E+00
         25   -1    0    0    0    0  0.00000000000E+00  0.00000000000E+00  0.99999998245E-14  0.12500000000E+03  0.12500000000E+03 0.  0.
        -13    1    1    0    0    0  0.80642989156E+01  0.33818393782E+01 -0.45495423763E+00  0.87571628952E+01  0.10566000000E+00 0.  1.
         13    1    1    0    0    0  0.46494042436E+02  0.26796541246E+02  0.38542489414E+01  0.53801644991E+02  0.10566000000E+00 0. -1.
         22    1    1    0    0    0 -0.54558341352E+02 -0.30178380624E+02 -0.33992947037E+01  0.62441192114E+02  0.00000000000E+00 0. -1.
</event>
<event>
 4    1  0.9856522E-003  0.9118800E+02  0.7818608E-02  0.1130116E+00
         25   -1    0    0    0    0  0.00000000000E+00  0.00000000000E+00  0.99999998245E-14  0.12500000000E+03  0.12500000000E+03 0.  0.
        -13    1    1    0    0    0 -0.26779999005E+02  0.12905303332E+02 -0.10464679343E+02  0.31515644981E+02  0.10566000000E+00 0. -1.
         13    1    1    0    0    0 -0.27434284467E+02  0.10220924435E+02 -0.10235563980E+02  0.31014274046E+02  0.10566000000E+00 0.  1.
         22    1    1    0    0    0  0.54214283472E+02 -0.23126227768E+02  0.20700243323E+02  0.62470080973E+02  0.00000000000E+00 0.  1.
</event>
<event>
 4    1  0.9856522E-003  0.9118800E+02  0.7818608E-02  0.1130116E+00
         25   -1    0    0    0    0  0.00000000000E+00  0.00000000000E+00  0.99999998245E-14  0.12500000000E+03  0.12500000000E+03 0.  0.
        -13    1    1    0    0    0 -0.14905748458E+02  0.15764146341E+02 -0.13542234056E+02  0.25575240258E+02  0.10566000000E+00 0.  1.
         13    1    1    0    0    0 -0.21815517341E+02  0.25750450927E+02 -0.15172803900E+02  0.37003076386E+02  0.10566000000E+00 0. -1.
         22    1    1    0    0    0  0.36721265799E+02 -0.41514597269E+02  0.28715037956E+02  0.62421683357E+02  0.00000000000E+00 0.  1.
</event>
<event>
 4    1  0.9856522E-003  0.9118800E+02  0.7818608E-02  0.1130116E+00
         25   -1    0    0    0    0  0.00000000000E+00  0.00000000000E+00  0.99999998245E-14  0.12500000000E+03  0.12500000000E+03 0.  0.
        -13    1    1    0    0    0  0.10303237566E+02 -0.38420216620E+02  0.40032156286E+02  0.56434514709E+02  0.10566000000E+00 0.  1.
         13    1    1    0    0    0  0.78972061410E+00 -0.55374519940E+01  0.27470924598E+01  0.62325527878E+01  0.10566000000E+00 0. -1.
         22    1    1    0    0    0 -0.11092958180E+02  0.43957668614E+02 -0.42779248746E+02  0.62332932503E+02  0.00000000000E+00 0.  1.
</event>
<event>
 4    1  0.9856522E-003  0.9118800E+02  0.7818608E-02  0.1130116E+00
         25   -1    0    0    0    0  0.00000000000E+00  0.00000000000E+00  0.99999998245E-14  0.12500000000E+03  0.12500000000E+03 0.  0.
        -13    1    1    0    0    0  0.58120917053E+01  0.34485996665E+00 -0.18617002461E+00  0.58262476519E+01  0.10566000000E+00 0. -1.
         13    1    1    0    0    0  0.56671285298E+02  0.71704463255E+00 -0.47207266554E+00  0.56677885872E+02  0.10566000000E+00 0.  1.
         22    1    1    0    0    0 -0.62483377003E+02 -0.10619045992E+01  0.65824269015E+00  0.62495866476E+02  0.00000000000E+00 0.  1.
</event>
<event>
 4    1  0.9856522E-003  0.9118800E+02  0.7818608E-02  0.1130116E+00
         25   -1    0    0    0    0  0.00000000000E+00  0.00000000000E+00  0.99999998245E-14  0.12500000000E+03  0.12500000000E+03 0.  0.
        -13    1    1    0    0    0 -0.16193926752E+02  0.40421686268E+02  0.31369715418E+02  0.53667738856E+02  0.10566000000E+00 0.  1.
         13    1    1    0    0    0 -0.26029851765E+01  0.67335738710E+01  0.50886602438E+01  0.88330162468E+01  0.10566000000E+00 0.  1.
         22    1    1    0    0    0  0.18796911929E+02 -0.47155260139E+02 -0.36458375662E+02  0.62499244898E+02  0.00000000000E+00 0.  1.
</event>
<event>
 4    1  0.9856522E-003  0.9118800E+02  0.7818608E-02  0.1130116E+00
         25   -1    0    0    0    0  0.00000000000E+00  0.00000000000E+00  0.99999998245E-14  0.12500000000E+03  0.12500000000E+03 0.  0.
        -13    1    1    0    0    0  0.43625393599E+02  0.74714388619E+01  0.35311123916E+02  0.56620526327E+02  0.10566000000E+00 0.  1.
         13    1    1    0    0    0  0.42644070164E+01  0.12408890266E+01  0.38713342670E+01  0.58926535466E+01  0.10566000000E+00 0. -1.
         22    1    1    0    0    0 -0.47889800616E+02 -0.87123278885E+01 -0.39182458183E+02  0.62486820126E+02  0.00000000000E+00 0.  1.
</event>
<event>
 4    1  0.9856522E-003  0.9118800E+02  0.7818608E-02  0.1130116E+00
         25   -1    0    0    0    0  0.00000000000E+00  0.00000000000E+00  0.99999998245E-14  0.12500000000E+03  0.12500000000E+03 0.  0.
        -13    1    1    0    0    0  0.32619955586E+01  0.11732653591E+02 -0.11812287877E+02  0.16965762118E+02  0.10566000000E+00 0. -1.
         13    1    1    0    0    0  0.86964843893E+01  0.31327836331E+02 -0.31879810101E+02  0.45534554198E+02  0.10566000000E+00 0.  1.
         22    1    1    0    0    0 -0.11958479948E+02 -0.43060489921E+02  0.43692097978E+02  0.62499683684E+02  0.00000000000E+00 0.  1.
</event>
<event>
 4    1  0.9856522E-003  0.9118800E+02  0.7818608E-02  0.1130116E+00
         25   -1    0    0    0    0  0.00000000000E+00  0.00000000000E+00  0.99999998245E-14  0.12500000000E+03  0.12500000000E+03 0.  0.
        -13    1    1    0    0    0  0.78811997299E+01  0.41808744444E+02 -0.10328182781E+02  0.43780897030E+02  0.10566000000E+00 0.  1.
         13    1    1    0    0    0 -0.69619363406E+01  0.15753969462E+02 -0.10295432234E+02  0.20066469554E+02  0.10566000000E+00 0. -1.
         22    1    1    0    0    0 -0.91926338937E+00 -0.57562713906E+02  0.20623615015E+02  0.61152633416E+02  0.00000000000E+00 0.  1.
</event>
<event>
 4    1  0.9856522E-003  0.9118800E+02  0.7818608E-02  0.1130116E+00
         25   -1    0    0    0    0  0.00000000000E+00  0.00000000000E+00  0.99999998245E-14  0.12500000000E+03  0.12500000000E+03 0.  0.
        -13    1    1    0    0    0  0.31120154075E+02 -0.30557112237E+02  0.15359662554E+01  0.43641396109E+02  0.10566000000E+00 0.  1.
         13    1    1    0    0    0  0.13403304017E+02 -0.13257087541E+02  0.50524145825E+00  0.18859092280E+02  0.10566000000E+00 0.  1.
         22    1    1    0    0    0 -0.44523458093E+02  0.43814199778E+02 -0.20412077137E+01  0.62499511611E+02  0.00000000000E+00 0.  1.
</event>
<event>
 4    1  0.9856522E-003  0.9118800E+02  0.7818608E-02  0.1130116E+00
         25   -1    0    0    0    0  0.00000000000E+00  0.00000000000E+00  0.99999998245E-14  0.12500000000E+03  0.12500000000E+03 0.  0.
        -13    1    1    0    0    0 -0.12546615962E+01  0.27554776338E-01  0.66206383590E+01  0.67393583747E+01  0.10566000000E+00 0.  1.
         13    1    1    0    0    0 -0.11377830429E+02 -0.37897133847E+01  0.54464686297E+02  0.55769437600E+02  0.10566000000E+00 0. -1.
         22    1    1    0    0    0  0.12632492025E+02  0.37621586084E+01 -0.61085324656E+02  0.62491204025E+02  0.00000000000E+00 0. -1.
</event>
<event>
 4    1  0.9856522E-003  0.9118800E+02  0.7818608E-02  0.1130116E+00
         25   -1    0    0    0    0  0.00000000000E+00  0.00000000000E+00  0.99999998245E-14  0.12500000000E+03  0.12500000000E+03 0.  0.
        -13    1    1    0    0    0  0.18193290611E+02 -0.97859039712E+01 -0.43850560665E+02  0.48473111871E+02  0.10566000000E+00 0. -1.
         13    1    1    0    0    0  0.52409403421E+01 -0.27091919008E+01 -0.12725919083E+02  0.14027378835E+02  0.10566000000E+00 0.  1.
         22    1    1    0    0    0 -0.23434230953E+02  0.12495095872E+02  0.56576479749E+02  0.62499509294E+02  0.00000000000E+00 0. -1.
</event>
<event>
 4    1  0.9856522E-003  0.9118800E+02  0.7818608E-02  0.1130116E+00
         25   -1    0    0    0    0  0.00000000000E+00  0.00000000000E+00  0.99999998245E-14  0.12500000000E+03  0.12500000000E+03 0.  0.
        -13    1    1    0    0    0  0.10036096883E+02  0.12107300234E+02 -0.17692228946E+02  0.23671419237E+02  0.10566000000E+00 0. -1.
         13    1    1    0    0    0  0.10637970503E+02  0.17166954025E+02 -0.33333592985E+02  0.38974482835E+02  0.10566000000E+00 0.  1.
         22    1    1    0    0    0 -0.20674067386E+02 -0.29274254259E+02  0.51025821931E+02  0.62354097928E+02  0.00000000000E+00 0.  1.
</event>
<event>
 4    1  0.9856522E-003  0.9118800E+02  0.7818608E-02  0.1130116E+00
         25   -1    0    0    0    0  0.00000000000E+00  0.00000000000E+00  0.99999998245E-14  0.12500000000E+03  0.12500000000E+03 0.  0.
        -13    1    1    0    0    0 -0.76310724538E+01  0.13647802060E+01  0.91022541946E+01  0.11956508155E+02  0.10566000000E+00 0.  1.
         13    1    1    0    0    0 -0.13807023313E+02  0.22537959857E+02  0.43801648573E+02  0.51158470550E+02  0.10566000000E+00 0. -1.
         22    1    1    0    0    0  0.21438095767E+02 -0.23902740063E+02 -0.52903902767E+02  0.61885021295E+02  0.00000000000E+00 0. -1.
</event>
<event>
 4    1  0.9856522E-003  0.9118800E+02  0.7818608E-02  0.1130116E+00
         25   -1    0    0    0    0  0.00000000000E+00  0.00000000000E+00  0.99999998245E-14  0.12500000000E+03  0.12500000000E+03 0.  0.
        -13    1    1    0    0    0  0.17323291631E+02  0.14901709561E+02 -0.12882679713E+02  0.26232269848E+02  0.10566000000E+00 0.  1.
         13    1    1    0    0    0  0.22377784428E+02  0.21296444912E+02 -0.19025678264E+02  0.36280730413E+02  0.10566000000E+00 0. -1.
         22    1    1    0    0    0 -0.39701076059E+02 -0.36198154473E+02  0.31908357977E+02  0.62486999739E+02  0.00000000000E+00 0.  1.
</event>
<event>
 4    1  0.9856522E-003  0.9118800E+02  0.7818608E-02  0.1130116E+00
         25   -1    0    0    0    0  0.00000000000E+00  0.00000000000E+00  0.99999998245E-14  0.12500000000E+03  0.12500000000E+03 0.  0.
        -13    1    1    0    0    0  0.13809175407E-01 -0.37282501657E+00 -0.85010636028E-01  0.39696351235E+00  0.10566000000E+00 0.  1.
         13    1    1    0    0    0  0.61206286918E+02 -0.54110066135E+01  0.10193926333E+02  0.62284956843E+02  0.10566000000E+00 0.  1.
         22    1    1    0    0    0 -0.61220096093E+02  0.57838316300E+01 -0.10108915697E+02  0.62318079644E+02  0.00000000000E+00 0.  1.
</event>
<event>
 4    1  0.9856522E-003  0.9118800E+02  0.7818608E-02  0.1130116E+00
         25   -1    0    0    0    0  0.00000000000E+00  0.00000000000E+00  0.99999998245E-14  0.12500000000E+03  0.12500000000E+03 0.  0.
        -13    1    1    0    0    0 -0.21696217498E+01 -0.16128744186E+01  0.98788301586E+01  0.10242610593E+02  0.10566000000E+00 0. -1.
         13    1    1    0    0    0 -0.20424779700E+02 -0.31186979178E+01  0.48101070263E+02  0.52350950584E+02  0.10566000000E+00 0.  1.
         22    1    1    0    0    0  0.22594401450E+02  0.47315723364E+01 -0.57979900422E+02  0.62406438823E+02  0.00000000000E+00 0.  1.
</event>
<event>
 4    1  0.9856522E-003  0.9118800E+02  0.7818608E-02  0.1130116E+00
         25   -1    0    0    0    0  0.00000000000E+00  0.00000000000E+00  0.99999998245E-14  0.12500000000E+03  0.12500000000E+03 0.  0.
        -13    1    1    0    0    0  0.19070471954E+02  0.87691824899E+01  0.28307065802E+02  0.35240354715E+02  0.10566000000E+00 0.  1.
         13    1    1    0    0    0  0.14956226883E+02  0.68497857509E+01  0.21737040322E+02  0.27260197604E+02  0.10566000000E+00 0.  1.
         22    1    1    0    0    0 -0.34026698837E+02 -0.15618968241E+02 -0.50044106124E+02  0.62499447681E+02  0.00000000000E+00 0.  1.
</event>
<event>
 4    1  0.9856522E-003  0.9118800E+02  0.7818608E-02  0.1130116E+00
         25   -1    0    0    0    0  0.00000000000E+00  0.00000000000E+00  0.99999998245E-14  0.12500000000E+03  0.12500000000E+03 0.  0.
        -13    1    1    0    0    0 -0.65203623656E+01  0.12798376947E+02  0.50937271099E+02  0.52923816273E+02  0.10566000000E+00 0.  1.
         13    1    1    0    0    0 -0.15326366452E+01  0.17539645581E+01  0.92985261874E+01  0.95864028734E+01  0.10566000000E+00 0. -1.
         22    1    1    0    0    0  0.80529990108E+01 -0.14552341505E+02 -0.60235797287E+02  0.62489780853E+02  0.00000000000E+00 0.  1.
</event>
<event>
 4    1  0.9856522E-003  0.9118800E+02  0.7818608E-02  0.1130116E+00
         25   -1    0    0    0    0  0.00000000000E+00  0.00000000000E+00  0.99999998245E-14  0.12500000000E+03  0.12500000000E+03 0.  0.
        -13    1    1    0    0    0  0.12159808422E+02  0.58135911493E+02 -0.40570474761E+01  0.59532478062E+02  0.10566000000E+00 0. -1.
         13    1    1    0    0    0  0.64471986906E+00  0.29008502177E+01  0.58672509128E-01  0.29740884644E+01  0.10566000000E+00 0.  1.
         22    1    1    0    0    0 -0.12804528291E+02 -0.61036761711E+02  0.39983749670E+01  0.62493433473E+02  0.00000000000E+00 0. -1.
</event>
<event>
 4    1  0.9856522E-003  0.9118800E+02  0.7818608E-02  0.1130116E+00
         25   -1    0    0    0    0  0.00000000000E+00  0.00000000000E+00  0.99999998245E-14  0.12500000000E+03  0.12500000000E+03 0.  0.
        -13    1    1    0    0    0 -0.33955205516E+01  0.32350470258E+02  0.28941833021E+02  0.43539905241E+02  0.10566000000E+00 0.  1.
         13    1    1    0    0    0 -0.19545580457E+01  0.14179428394E+02  0.12437722184E+02  0.18962715626E+02  0.10566000000E+00 0. -1.
         22    1    1    0    0    0  0.53500785973E+01 -0.46529898652E+02 -0.41379555205E+02  0.62497379133E+02  0.00000000000E+00 0. -1.
</event>
<event>
 4    1  0.9856522E-003  0.9118800E+02  0.7818608E-02  0.1130116E+00
         25   -1    0    0    0    0  0.00000000000E+00  0.00000000000E+00  0.99999998245E-14  0.12500000000E+03  0.12500000000E+03 0.  0.
        -13    1    1    0    0    0  0.14701463360E+02  0.57085560551E+01  0.51028939870E+02  0.53410528040E+02  0.10566000000E+00 0.  1.
         13    1    1    0    0    0  0.25053631910E+01  0.17673101143E+01  0.85726140474E+01  0.91050044151E+01  0.10566000000E+00 0. -1.
         22    1    1    0    0    0 -0.17206826551E+02 -0.74758661694E+01 -0.59601553918E+02  0.62484467545E+02  0.00000000000E+00 0.  1.
</event>
<event>
 4    1  0.9856522E-003  0.9118800E+02  0.7818608E-02  0.1130116E+00
         25   -1    0    0    0    0  0.00000000000E+00  0.00000000000E+00  0.99999998245E-14  0.12500000000E+03  0.12500000000E+03 0.  0.
        -13    1    1    0    0    0  0.30815111042E+01  0.75492036049E+01  0.69579376539E+01  0.10719619685E+02  0.10566000000E+00 0. -1.
         13    1    1    0    0    0  0.13675074209E+02  0.36530083344E+02  0.34057563283E+02  0.51782076287E+02  0.10566000000E+00 0.  1.
         22    1    1    0    0    0 -0.16756585313E+02 -0.44079286949E+02 -0.41015500937E+02  0.62498304028E+02  0.00000000000E+00 0.  1.
</event>
<event>
 4    1  0.9856522E-003  0.9118800E+02  0.7818608E-02  0.1130116E+00
         25   -1    0    0    0    0  0.00000000000E+00  0.00000000000E+00  0.99999998245E-14  0.12500000000E+03  0.12500000000E+03 0.  0.
        -13    1    1    0    0    0 -0.33801029887E+02 -0.27083001162E+01 -0.20445718945E+02  0.39596503610E+02  0.10566000000E+00 0. -1.
         13    1    1    0    0    0 -0.17817290845E+02  0.93712134447E+01 -0.12602507293E+02  0.23750996792E+02  0.10566000000E+00 0.  1.
         22    1    1    0    0    0  0.51618320732E+02 -0.66629133285E+01  0.33048226238E+02  0.61652499598E+02  0.00000000000E+00 0. -1.
</event>
<event>
 4    1  0.9856522E-003  0.9118800E+02  0.7818608E-02  0.1130116E+00
         25   -1    0    0    0    0  0.00000000000E+00  0.00000000000E+00  0.99999998245E-14  0.12500000000E+03  0.12500000000E+03 0.  0.
        -13    1    1    0    0    0  0.42271277023E+00  0.30333217790E+02 -0.20212268686E+02  0.36453117247E+02  0.10566000000E+00 0.  1.
         13    1    1    0    0    0 -0.25466813984E+00  0.22964902647E+02 -0.12362274585E+02  0.26082342809E+02  0.10566000000E+00 0. -1.
         22    1    1    0    0    0 -0.16804463039E+00 -0.53298120436E+02  0.32574543272E+02  0.62464539944E+02  0.00000000000E+00 0.  1.
</event>
<event>
 4    1  0.9856522E-003  0.9118800E+02  0.7818608E-02  0.1130116E+00
         25   -1    0    0    0    0  0.00000000000E+00  0.00000000000E+00  0.99999998245E-14  0.12500000000E+03  0.12500000000E+03 0.  0.
        -13    1    1    0    0    0  0.39649894876E+01  0.48540971333E+02 -0.16812215106E+02  0.51522895692E+02  0.10566000000E+00 0. -1.
         13    1    1    0    0    0  0.33831479455E+00  0.10545712997E+02 -0.30657219331E+01  0.10988008669E+02  0.10566000000E+00 0.  1.
         22    1    1    0    0    0 -0.43033042821E+01 -0.59086684330E+02  0.19877937039E+02  0.62489095639E+02  0.00000000000E+00 0. -1.
</event>
<event>
 4    1  0.9856522E-003  0.9118800E+02  0.7818608E-02  0.1130116E+00
         25   -1    0    0    0    0  0.00000000000E+00  0.00000000000E+00  0.99999998245E-14  0.12500000000E+03  0.12500000000E+03 0.  0.
        -13    1    1    0    0    0  0.31784311379E+02  0.57713401307E+01 -0.23971747524E+02  0.40226939483E+02  0.10566000000E+00 0. -1.
         13    1    1    0    0    0  0.17954528205E+02  0.40577250956E+01 -0.12557909637E+02  0.22283233035E+02  0.10566000000E+00 0.  1.
         22    1    1    0    0    0 -0.49738839584E+02 -0.98290652263E+01  0.36529657161E+02  0.62489827482E+02  0.00000000000E+00 0. -1.
</event>
<event>
 4    1  0.9856522E-003  0.9118800E+02  0.7818608E-02  0.1130116E+00
         25   -1    0    0    0    0  0.00000000000E+00  0.00000000000E+00  0.99999998245E-14  0.12500000000E+03  0.12500000000E+03 0.  0.
        -13    1    1    0    0    0  0.83100396656E-01  0.58553328993E+02 -0.99220450225E+01  0.59388192288E+02  0.10566000000E+00 0.  1.
         13    1    1    0    0    0  0.22575768090E-01  0.30899288770E+01 -0.37457790570E+00  0.31144249507E+01  0.10566000000E+00 0. -1.
         22    1    1    0    0    0 -0.10567616475E+00 -0.61643257870E+02  0.10296622928E+02  0.62497382761E+02  0.00000000000E+00 0.  1.
</event>
<event>
 4    1  0.9856522E-003  0.9118800E+02  0.7818608E-02  0.1130116E+00
         25   -1    0    0    0    0  0.00000000000E+00  0.00000000000E+00  0.99999998245E-14  0.12500000000E+03  0.12500000000E+03 0.  0.
        -13    1    1    0    0    0  0.72598679114E+00  0.10948595931E+02  0.69909743771E+01  0.13010906827E+02  0.10566000000E+00 0. -1.
         13    1    1    0    0    0  0.36447071744E+01  0.39830293174E+02  0.29164413477E+02  0.49500609311E+02  0.10566000000E+00 0.  1.
         22    1    1    0    0    0 -0.43706939656E+01 -0.50778889105E+02 -0.36155387854E+02  0.62488483862E+02  0.00000000000E+00 0.  1.
</event>
<event>
 4    1  0.9856522E-003  0.9118800E+02  0.7818608E-02  0.1130116E+00
         25   -1    0    0    0    0  0.00000000000E+00  0.00000000000E+00  0.99999998245E-14  0.12500000000E+03  0.12500000000E+03 0.  0.
        -13    1    1    0    0    0  0.16450917601E+02 -0.37041205896E+02  0.12912318937E+02  0.42537310311E+02  0.10566000000E+00 0. -1.
         13    1    1    0    0    0  0.79828425562E+01 -0.17294787330E+02  0.59748753246E+01  0.19963610476E+02  0.10566000000E+00 0. -1.
         22    1    1    0    0    0 -0.24433760157E+02  0.54335993226E+02 -0.18887194262E+02  0.62499079212E+02  0.00000000000E+00 0. -1.
</event>
<event>
 4    1  0.9856522E-003  0.9118800E+02  0.7818608E-02  0.1130116E+00
         25   -1    0    0    0    0  0.00000000000E+00  0.00000000000E+00  0.99999998245E-14  0.12500000000E+03  0.12500000000E+03 0.  0.
        -13    1    1    0    0    0 -0.41526762934E-01 -0.25963701904E+00  0.37100623178E-01  0.28579073732E+00  0.10566000000E+00 0.  1.
         13    1    1    0    0    0  0.61921267049E+02  0.41482222922E+01 -0.63877198446E+01  0.62388021205E+02  0.10566000000E+00 0.  1.
         22    1    1    0    0    0 -0.61879740286E+02 -0.38885852731E+01  0.63506192215E+01  0.62326188057E+02  0.00000000000E+00 0.  1.
</event>
<event>
 4    1  0.9856522E-003  0.9118800E+02  0.7818608E-02  0.1130116E+00
         25   -1    0    0    0    0  0.00000000000E+00  0.00000000000E+00  0.99999998245E-14  0.12500000000E+03  0.12500000000E+03 0.  0.
        -13    1    1    0    0    0 -0.40735114097E+00  0.38959068152E+02  0.29699381042E+02  0.48990196209E+02  0.10566000000E+00 0. -1.
         13    1    1    0    0    0 -0.61793261916E+00  0.10300214293E+02  0.87366403536E+01  0.13520957951E+02  0.10566000000E+00 0.  1.
         22    1    1    0    0    0  0.10252837601E+01 -0.49259282445E+02 -0.38436021395E+02  0.62488845841E+02  0.00000000000E+00 0. -1.
</event>
<event>
 4    1  0.9856522E-003  0.9118800E+02  0.7818608E-02  0.1130116E+00
         25   -1    0    0    0    0  0.00000000000E+00  0.00000000000E+00  0.99999998245E-14  0.12500000000E+03  0.12500000000E+03 0.  0.
        -13    1    1    0    0    0  0.55401567765E+02 -0.66275351376E+01 -0.25586825119E+02  0.61383668158E+02  0.10566000000E+00 0. -1.
         13    1    1    0    0    0 -0.12360767640E+02 -0.54869743099E+01  0.55456436049E+01  0.14617140307E+02  0.10566000000E+00 0.  1.
         22    1    1    0    0    0 -0.43040800125E+02  0.12114509447E+02  0.20041181514E+02  0.48999191535E+02  0.00000000000E+00 0. -1.
</event>
<event>
 4    1  0.9856522E-003  0.9118800E+02  0.7818608E-02  0.1130116E+00
         25   -1    0    0    0    0  0.00000000000E+00  0.00000000000E+00  0.99999998245E-14  0.12500000000E+03  0.12500000000E+03 0.  0.
        -13    1    1    0    0    0  0.17229505911E+02  0.69219674678E+01  0.30417722831E+02  0.35637319397E+02  0.10566000000E+00 0. -1.
         13    1    1    0    0    0  0.12934382555E+02  0.49188109541E+01  0.23024729979E+02  0.26863400900E+02  0.10566000000E+00 0.  1.
         22    1    1    0    0    0 -0.30163888466E+02 -0.11840778422E+02 -0.53442452810E+02  0.62499279703E+02  0.00000000000E+00 0. -1.
</event>
<event>
 4    1  0.9856522E-003  0.9118800E+02  0.7818608E-02  0.1130116E+00
         25   -1    0    0    0    0  0.00000000000E+00  0.00000000000E+00  0.99999998245E-14  0.12500000000E+03  0.12500000000E+03 0.  0.
        -13    1    1    0    0    0 -0.34074478125E+02  0.56108664330E+01 -0.38104975907E+02  0.51425210107E+02  0.10566000000E+00 0. -1.
         13    1    1    0    0    0  0.19722412982E+01  0.16390056312E+02  0.29365496643E+02  0.33687790649E+02  0.10566000000E+00 0.  1.
         22    1    1    0    0    0  0.32102236827E+02 -0.22000922745E+02  0.87394792640E+01  0.39886999244E+02  0.00000000000E+00 0. -1.
</event>
<event>
 4    1  0.9856522E-003  0.9118800E+02  0.7818608E-02  0.1130116E+00
         25   -1    0    0    0    0  0.00000000000E+00  0.00000000000E+00  0.99999998245E-14  0.12500000000E+03  0.12500000000E+03 0.  0.
        -13    1    1    0    0    0  0.31490393557E-01 -0.29330145269E+00  0.57596256513E-01  0.31858868686E+00  0.10566000000E+00 0. -1.
         13    1    1    0    0    0  0.47131464417E+02 -0.24188822376E+02  0.32701430792E+02  0.62256476016E+02  0.10566000000E+00 0.  1.
         22    1    1    0    0    0 -0.47162954811E+02  0.24482123828E+02 -0.32759027049E+02  0.62424935297E+02  0.00000000000E+00 0.  1.
</event>
<event>
 4    1  0.9856522E-003  0.9118800E+02  0.7818608E-02  0.1130116E+00
         25   -1    0    0    0    0  0.00000000000E+00  0.00000000000E+00  0.99999998245E-14  0.12500000000E+03  0.12500000000E+03 0.  0.
        -13    1    1    0    0    0 -0.20154961548E+02  0.14905255388E+02  0.26127905742E+02  0.36208669344E+02  0.10566000000E+00 0. -1.
         13    1    1    0    0    0 -0.14624012415E+02  0.11011347561E+02  0.18871519777E+02  0.26291765574E+02  0.10566000000E+00 0.  1.
         22    1    1    0    0    0  0.34778973963E+02 -0.25916602949E+02 -0.44999425520E+02  0.62499565082E+02  0.00000000000E+00 0. -1.
</event>
<event>
 4    1  0.9856522E-003  0.9118800E+02  0.7818608E-02  0.1130116E+00
         25   -1    0    0    0    0  0.00000000000E+00  0.00000000000E+00  0.99999998245E-14  0.12500000000E+03  0.12500000000E+03 0.  0.
        -13    1    1    0    0    0 -0.87312993350E+01  0.70027370691E+01  0.86122897569E+01  0.14122910940E+02  0.10566000000E+00 0.  1.
         13    1    1    0    0    0 -0.40264271478E+02  0.23762327734E+02 -0.21727546788E+02  0.51555380228E+02  0.10566000000E+00 0. -1.
         22    1    1    0    0    0  0.48995570813E+02 -0.30765064803E+02  0.13115257031E+02  0.59321708831E+02  0.00000000000E+00 0. -1.
</event>
<event>
 4    1  0.9856522E-003  0.9118800E+02  0.7818608E-02  0.1130116E+00
         25   -1    0    0    0    0  0.00000000000E+00  0.00000000000E+00  0.99999998245E-14  0.12500000000E+03  0.12500000000E+03 0.  0.
        -13    1    1    0    0    0  0.50461504940E+02  0.92803199326E+01 -0.18263675924E+02  0.54461553789E+02  0.10566000000E+00 0.  1.
         13    1    1    0    0    0  0.74423279418E+01  0.14396545750E+01 -0.26745739751E+01  0.80389900156E+01  0.10566000000E+00 0. -1.
         22    1    1    0    0    0 -0.57903832882E+02 -0.10719974508E+02  0.20938249899E+02  0.62499456195E+02  0.00000000000E+00 0.  1.
</event>
<event>
 4    1  0.9856522E-003  0.9118800E+02  0.7818608E-02  0.1130116E+00
         25   -1    0    0    0    0  0.00000000000E+00  0.00000000000E+00  0.99999998245E-14  0.12500000000E+03  0.12500000000E+03 0.  0.
        -13    1    1    0    0    0  0.26062175522E+02  0.45554146156E+01 -0.46043451969E+02  0.53103666808E+02  0.10566000000E+00 0. -1.
         13    1    1    0    0    0  0.45178305603E+01  0.22214453739E+00 -0.82449393485E+01  0.94048035633E+01  0.10566000000E+00 0.  1.
         22    1    1    0    0    0 -0.30580006082E+02 -0.47775591530E+01  0.54288391318E+02  0.62491529628E+02  0.00000000000E+00 0. -1.
</event>
<event>
 4    1  0.9856522E-003  0.9118800E+02  0.7818608E-02  0.1130116E+00
         25   -1    0    0    0    0  0.00000000000E+00  0.00000000000E+00  0.99999998245E-14  0.12500000000E+03  0.12500000000E+03 0.  0.
        -13    1    1    0    0    0  0.67518815469E+01 -0.31136840234E+02  0.46241586825E+02  0.56155019725E+02  0.10566000000E+00 0.  1.
         13    1    1    0    0    0  0.16134058919E+01  0.17515493821E+00  0.67284542219E+01  0.69222119352E+01  0.10566000000E+00 0. -1.
         22    1    1    0    0    0 -0.83652874389E+01  0.30961685296E+02 -0.52970041047E+02  0.61922768340E+02  0.00000000000E+00 0.  1.
</event>
<event>
 4    1  0.9856522E-003  0.9118800E+02  0.7818608E-02  0.1130116E+00
         25   -1    0    0    0    0  0.00000000000E+00  0.00000000000E+00  0.99999998245E-14  0.12500000000E+03  0.12500000000E+03 0.  0.
        -13    1    1    0    0    0  0.80672536586E+00 -0.20157377588E+01  0.10775641818E+01  0.24261725267E+01  0.10566000000E+00 0.  1.
         13    1    1    0    0    0  0.20583255591E+02 -0.49282083410E+02  0.27506932156E+02  0.60075258107E+02  0.10566000000E+00 0.  1.
         22    1    1    0    0    0 -0.21389980957E+02  0.51297821168E+02 -0.28584496338E+02  0.62498569366E+02  0.00000000000E+00 0.  1.
</event>
<event>
 4    1  0.9856522E-003  0.9118800E+02  0.7818608E-02  0.1130116E+00
         25   -1    0    0    0    0  0.00000000000E+00  0.00000000000E+00  0.99999998245E-14  0.12500000000E+03  0.12500000000E+03 0.  0.
        -13    1    1    0    0    0  0.98997309603E+01 -0.33985864210E+02  0.45757635419E+02  0.57851672425E+02  0.10566000000E+00 0.  1.
         13    1    1    0    0    0 -0.14580227986E+01 -0.43225657386E+01  0.23028025847E+01  0.51112101136E+01  0.10566000000E+00 0. -1.
         22    1    1    0    0    0 -0.84417081617E+01  0.38308429949E+02 -0.48060438004E+02  0.62037117461E+02  0.00000000000E+00 0.  1.
</event>
<event>
 4    1  0.9856522E-003  0.9118800E+02  0.7818608E-02  0.1130116E+00
         25   -1    0    0    0    0  0.00000000000E+00  0.00000000000E+00  0.99999998245E-14  0.12500000000E+03  0.12500000000E+03 0.  0.
        -13    1    1    0    0    0  0.14324637949E+02 -0.44864889401E+02  0.16472894539E+02  0.49894097565E+02  0.10566000000E+00 0.  1.
         13    1    1    0    0    0  0.59688208342E+01 -0.11722790790E+02 -0.33076883868E+01  0.13564756266E+02  0.10566000000E+00 0. -1.
         22    1    1    0    0    0 -0.20293458783E+02  0.56587680191E+02 -0.13165206153E+02  0.61541146169E+02  0.00000000000E+00 0.  1.
</event>
<event>
 4    1  0.9856522E-003  0.9118800E+02  0.7818608E-02  0.1130116E+00
         25   -1    0    0    0    0  0.00000000000E+00  0.00000000000E+00  0.99999998245E-14  0.12500000000E+03  0.12500000000E+03 0.  0.
        -13    1    1    0    0    0 -0.11262364918E+02  0.21822773182E+01  0.35922553354E+01  0.12021591420E+02  0.10566000000E+00 0. -1.
         13    1    1    0    0    0 -0.48720206653E+02  0.83433873386E+01  0.10355151684E+02  0.50502583884E+02  0.10566000000E+00 0.  1.
         22    1    1    0    0    0  0.59982571571E+02 -0.10525664657E+02 -0.13947407020E+02  0.62475824695E+02  0.00000000000E+00 0.  1.
</event>
<event>
 4    1  0.9856522E-003  0.9118800E+02  0.7818608E-02  0.1130116E+00
         25   -1    0    0    0    0  0.00000000000E+00  0.00000000000E+00  0.99999998245E-14  0.12500000000E+03  0.12500000000E+03 0.  0.
        -13    1    1    0    0    0 -0.22395938271E+02  0.79758518516E+01 -0.21715696401E+01  0.23872979340E+02  0.10566000000E+00 0. -1.
         13    1    1    0    0    0  0.49822855657E+02 -0.21034671761E+02  0.28318345855E+02  0.61046820048E+02  0.10566000000E+00 0.  1.
         22    1    1    0    0    0 -0.27426917386E+02  0.13058819910E+02 -0.26146776214E+02  0.40080200613E+02  0.00000000000E+00 0.  1.
</event>
<event>
 4    1  0.9856522E-003  0.9118800E+02  0.7818608E-02  0.1130116E+00
         25   -1    0    0    0    0  0.00000000000E+00  0.00000000000E+00  0.99999998245E-14  0.12500000000E+03  0.12500000000E+03 0.  0.
        -13    1    1    0    0    0  0.39899675791E+02  0.26760151967E+02  0.33863215663E+02  0.58777703261E+02  0.10566000000E+00 0.  1.
         13    1    1    0    0    0  0.25308330160E+01  0.17335186564E+01  0.21074687088E+01  0.37232769278E+01  0.10566000000E+00 0. -1.
         22    1    1    0    0    0 -0.42430508807E+02 -0.28493670623E+02 -0.35970684372E+02  0.62499019811E+02  0.00000000000E+00 0.  1.
</event>
<event>
 4    1  0.9856522E-003  0.9118800E+02  0.7818608E-02  0.1130116E+00
         25   -1    0    0    0    0  0.00000000000E+00  0.00000000000E+00  0.99999998245E-14  0.12500000000E+03  0.12500000000E+03 0.  0.
        -13    1    1    0    0    0  0.50118065381E+02 -0.14424851736E+02  0.19499618409E+02  0.55678928754E+02  0.10566000000E+00 0.  1.
         13    1    1    0    0    0  0.62723808428E+01 -0.30552374114E+01  0.48037255429E+00  0.69942232523E+01  0.10566000000E+00 0. -1.
         22    1    1    0    0    0 -0.56390446223E+02  0.17480089148E+02 -0.19979990964E+02  0.62326847993E+02  0.00000000000E+00 0.  1.
</event>
<event>
 4    1  0.9856522E-003  0.9118800E+02  0.7818608E-02  0.1130116E+00
         25   -1    0    0    0    0  0.00000000000E+00  0.00000000000E+00  0.99999998245E-14  0.12500000000E+03  0.12500000000E+03 0.  0.
        -13    1    1    0    0    0  0.20164015156E+02  0.36685566357E+02 -0.13614232034E+02  0.44020185870E+02  0.10566000000E+00 0. -1.
         13    1    1    0    0    0  0.83449398638E+01  0.15478097566E+02 -0.56831600128E+01  0.18480232611E+02  0.10566000000E+00 0. -1.
         22    1    1    0    0    0 -0.28508955020E+02 -0.52163663923E+02  0.19297392047E+02  0.62499581519E+02  0.00000000000E+00 0. -1.
</event>
<event>
 4    1  0.9856522E-003  0.9118800E+02  0.7818608E-02  0.1130116E+00
         25   -1    0    0    0    0  0.00000000000E+00  0.00000000000E+00  0.99999998245E-14  0.12500000000E+03  0.12500000000E+03 0.  0.
        -13    1    1    0    0    0 -0.12034425562E+01  0.69029175216E+01  0.11628168314E+01  0.71036505625E+01  0.10566000000E+00 0.  1.
         13    1    1    0    0    0 -0.93834223236E+01  0.53838408886E+02  0.90647999035E+01  0.55396792752E+02  0.10566000000E+00 0.  1.
         22    1    1    0    0    0  0.10586864880E+02 -0.60741326408E+02 -0.10227616735E+02  0.62499556685E+02  0.00000000000E+00 0.  1.
</event>
<event>
 4    1  0.9856522E-003  0.9118800E+02  0.7818608E-02  0.1130116E+00
         25   -1    0    0    0    0  0.00000000000E+00  0.00000000000E+00  0.99999998245E-14  0.12500000000E+03  0.12500000000E+03 0.  0.
        -13    1    1    0    0    0 -0.18489449587E+02  0.55634488625E+00  0.13799837337E+02  0.23078473525E+02  0.10566000000E+00 0.  1.
         13    1    1    0    0    0 -0.32039028772E+02  0.10714532217E+01  0.22946172450E+02  0.39423157798E+02  0.10566000000E+00 0. -1.
         22    1    1    0    0    0  0.50528478359E+02 -0.16277981079E+01 -0.36746009788E+02  0.62498368677E+02  0.00000000000E+00 0. -1.
</event>
<event>
 4    1  0.9856522E-003  0.9118800E+02  0.7818608E-02  0.1130116E+00
         25   -1    0    0    0    0  0.00000000000E+00  0.00000000000E+00  0.99999998245E-14  0.12500000000E+03  0.12500000000E+03 0.  0.
        -13    1    1    0    0    0  0.90017999551E+00  0.31700090334E+01 -0.13657844306E+01  0.35687270059E+01  0.10566000000E+00 0. -1.
         13    1    1    0    0    0  0.11802620802E+02  0.55790591670E+02 -0.14944865252E+02  0.58951269181E+02  0.10566000000E+00 0.  1.
         22    1    1    0    0    0 -0.12702800797E+02 -0.58960600703E+02  0.16310649682E+02  0.62480003813E+02  0.00000000000E+00 0.  1.
</event>
<event>
 4    1  0.9856522E-003  0.9118800E+02  0.7818608E-02  0.1130116E+00
         25   -1    0    0    0    0  0.00000000000E+00  0.00000000000E+00  0.99999998245E-14  0.12500000000E+03  0.12500000000E+03 0.  0.
        -13    1    1    0    0    0  0.36820840999E+01  0.26135851506E+01  0.17990527496E+01  0.48617204249E+01  0.10566000000E+00 0.  1.
         13    1    1    0    0    0  0.32215902573E+02  0.46661648056E+02 -0.12948553331E+02  0.58162272783E+02  0.10566000000E+00 0. -1.
         22    1    1    0    0    0 -0.35897986673E+02 -0.49275233206E+02  0.11149500581E+02  0.61976006792E+02  0.00000000000E+00 0. -1.
</event>
<event>
 4    1  0.9856522E-003  0.9118800E+02  0.7818608E-02  0.1130116E+00
         25   -1    0    0    0    0  0.00000000000E+00  0.00000000000E+00  0.99999998245E-14  0.12500000000E+03  0.12500000000E+03 0.  0.
        -13    1    1    0    0    0  0.13125903573E+02 -0.37690308084E+01  0.62807801893E-01  0.13656868114E+02  0.10566000000E+00 0.  1.
         13    1    1    0    0    0  0.44887482573E+02 -0.16667915075E+02  0.10275445980E+02  0.48972455920E+02  0.10566000000E+00 0. -1.
         22    1    1    0    0    0 -0.58013386146E+02  0.20436945883E+02 -0.10338253782E+02  0.62370675966E+02  0.00000000000E+00 0. -1.
</event>
<event>
 4    1  0.9856522E-003  0.9118800E+02  0.7818608E-02  0.1130116E+00
         25   -1    0    0    0    0  0.00000000000E+00  0.00000000000E+00  0.99999998245E-14  0.12500000000E+03  0.12500000000E+03 0.  0.
        -13    1    1    0    0    0 -0.25637887175E+01  0.16112585909E+02  0.22683856595E+02  0.27942028404E+02  0.10566000000E+00 0. -1.
         13    1    1    0    0    0 -0.16295638804E+02  0.28730690559E+02  0.14255210126E+02  0.35975305471E+02  0.10566000000E+00 0.  1.
         22    1    1    0    0    0  0.18859427521E+02 -0.44843276468E+02 -0.36939066720E+02  0.61082666125E+02  0.00000000000E+00 0.  1.
</event>
<event>
 4    1  0.9856522E-003  0.9118800E+02  0.7818608E-02  0.1130116E+00
         25   -1    0    0    0    0  0.00000000000E+00  0.00000000000E+00  0.99999998245E-14  0.12500000000E+03  0.12500000000E+03 0.  0.
        -13    1    1    0    0    0  0.40216540191E+01 -0.50036983115E+01  0.26824449292E+00  0.64260265317E+01  0.10566000000E+00 0. -1.
         13    1    1    0    0    0  0.38357718949E+02  0.26951604339E+02 -0.35873125067E+02  0.59030465402E+02  0.10566000000E+00 0.  1.
         22    1    1    0    0    0 -0.42379372968E+02 -0.21947906028E+02  0.35604880575E+02  0.59543508067E+02  0.00000000000E+00 0.  1.
</event>
<event>
 4    1  0.9856522E-003  0.9118800E+02  0.7818608E-02  0.1130116E+00
         25   -1    0    0    0    0  0.00000000000E+00  0.00000000000E+00  0.99999998245E-14  0.12500000000E+03  0.12500000000E+03 0.  0.
        -13    1    1    0    0    0 -0.21113480284E+02  0.27416450285E+02  0.71403205550E+01  0.35333215784E+02  0.10566000000E+00 0.  1.
         13    1    1    0    0    0 -0.16009433096E+02  0.21165657102E+02  0.58130607713E+01  0.27167808675E+02  0.10566000000E+00 0. -1.
         22    1    1    0    0    0  0.37122913380E+02 -0.48582107387E+02 -0.12953381326E+02  0.62498975542E+02  0.00000000000E+00 0.  1.
</event>
<event>
 4    1  0.9856522E-003  0.9118800E+02  0.7818608E-02  0.1130116E+00
         25   -1    0    0    0    0  0.00000000000E+00  0.00000000000E+00  0.99999998245E-14  0.12500000000E+03  0.12500000000E+03 0.  0.
        -13    1    1    0    0    0  0.14511714386E+02  0.16687304199E+02 -0.59853473689E+01  0.22910511190E+02  0.10566000000E+00 0. -1.
         13    1    1    0    0    0  0.24233067767E+02  0.29470416891E+02 -0.10573484111E+02  0.39592382795E+02  0.10566000000E+00 0.  1.
         22    1    1    0    0    0 -0.38744782153E+02 -0.46157721089E+02  0.16558831480E+02  0.62497106015E+02  0.00000000000E+00 0.  1.
</event>
<event>
 4    1  0.9856522E-003  0.9118800E+02  0.7818608E-02  0.1130116E+00
         25   -1    0    0    0    0  0.00000000000E+00  0.00000000000E+00  0.99999998245E-14  0.12500000000E+03  0.12500000000E+03 0.  0.
        -13    1    1    0    0    0 -0.22668016340E+02 -0.18296275827E+02 -0.11311198348E+02  0.31249752736E+02  0.10566000000E+00 0. -1.
         13    1    1    0    0    0 -0.22205182096E+02 -0.18868155713E+02 -0.11297606318E+02  0.31252591644E+02  0.10566000000E+00 0.  1.
         22    1    1    0    0    0  0.44873198436E+02  0.37164431541E+02  0.22608804666E+02  0.62497655620E+02  0.00000000000E+00 0. -1.
</event>
<event>
 4    1  0.9856522E-003  0.9118800E+02  0.7818608E-02  0.1130116E+00
         25   -1    0    0    0    0  0.00000000000E+00  0.00000000000E+00  0.99999998245E-14  0.12500000000E+03  0.12500000000E+03 0.  0.
        -13    1    1    0    0    0 -0.22635361418E+02  0.54300419452E+02 -0.95026141793E+01  0.59591995934E+02  0.10566000000E+00 0. -1.
         13    1    1    0    0    0  0.41264909536E+00  0.30921581405E+01  0.10062569444E+01  0.32795484926E+01  0.10566000000E+00 0.  1.
         22    1    1    0    0    0  0.22222712323E+02 -0.57392577592E+02  0.84963572349E+01  0.62128455573E+02  0.00000000000E+00 0. -1.
</event>
<event>
 4    1  0.9856522E-003  0.9118800E+02  0.7818608E-02  0.1130116E+00
         25   -1    0    0    0    0  0.00000000000E+00  0.00000000000E+00  0.99999998245E-14  0.12500000000E+03  0.12500000000E+03 0.  0.
        -13    1    1    0    0    0  0.83028709884E+01 -0.17516506495E+02  0.19500573938E+01  0.19482801500E+02  0.10566000000E+00 0.  1.
         13    1    1    0    0    0  0.17391670336E+02 -0.39178532017E+02  0.36473857719E+01  0.43020252848E+02  0.10566000000E+00 0. -1.
         22    1    1    0    0    0 -0.25694541325E+02  0.56695038512E+02 -0.55974431657E+01  0.62496945651E+02  0.00000000000E+00 0. -1.
</event>
<event>
 4    1  0.9856522E-003  0.9118800E+02  0.7818608E-02  0.1130116E+00
         25   -1    0    0    0    0  0.00000000000E+00  0.00000000000E+00  0.99999998245E-14  0.12500000000E+03  0.12500000000E+03 0.  0.
        -13    1    1    0    0    0  0.55807065669E+02  0.26238554909E+01  0.91346960812E+01  0.56610661829E+02  0.10566000000E+00 0.  1.
         13    1    1    0    0    0  0.58826333604E+01  0.25023081645E+00  0.39340549686E+00  0.59020269938E+01  0.10566000000E+00 0. -1.
         22    1    1    0    0    0 -0.61689699029E+02 -0.28740863074E+01 -0.95281015781E+01  0.62487311177E+02  0.00000000000E+00 0.  1.
</event>
<event>
 4    1  0.9856522E-003  0.9118800E+02  0.7818608E-02  0.1130116E+00
         25   -1    0    0    0    0  0.00000000000E+00  0.00000000000E+00  0.99999998245E-14  0.12500000000E+03  0.12500000000E+03 0.  0.
        -13    1    1    0    0    0  0.36887618081E+00 -0.15212667043E+02  0.10859653857E+02  0.18695040897E+02  0.10566000000E+00 0.  1.
         13    1    1    0    0    0  0.40847802070E+01 -0.35123245536E+02  0.25887749379E+02  0.43823675545E+02  0.10566000000E+00 0. -1.
         22    1    1    0    0    0 -0.44536563878E+01  0.50335912580E+02 -0.36747403236E+02  0.62481283558E+02  0.00000000000E+00 0. -1.
</event>
<event>
 4    1  0.9856522E-003  0.9118800E+02  0.7818608E-02  0.1130116E+00
         25   -1    0    0    0    0  0.00000000000E+00  0.00000000000E+00  0.99999998245E-14  0.12500000000E+03  0.12500000000E+03 0.  0.
        -13    1    1    0    0    0  0.85114893395E+01  0.16391117506E+02 -0.45228413169E+01  0.19015294936E+02  0.10566000000E+00 0.  1.
         13    1    1    0    0    0  0.18787534080E+02  0.36194551965E+02 -0.15227039516E+02  0.43530344878E+02  0.10566000000E+00 0. -1.
         22    1    1    0    0    0 -0.27299023420E+02 -0.52585669471E+02  0.19749880833E+02  0.62454360186E+02  0.00000000000E+00 0. -1.
</event>
<event>
 4    1  0.9856522E-003  0.9118800E+02  0.7818608E-02  0.1130116E+00
         25   -1    0    0    0    0  0.00000000000E+00  0.00000000000E+00  0.99999998245E-14  0.12500000000E+03  0.12500000000E+03 0.  0.
        -13    1    1    0    0    0 -0.75510342826E+01 -0.11311788403E+02  0.31660264138E+02  0.34458063859E+02  0.10566000000E+00 0. -1.
         13    1    1    0    0    0 -0.77019613607E+01 -0.60994319403E+01  0.26329530378E+02  0.28103000067E+02  0.10566000000E+00 0.  1.
         22    1    1    0    0    0  0.15252995643E+02  0.17411220344E+02 -0.57989794516E+02  0.62438936073E+02  0.00000000000E+00 0. -1.
</event>
<event>
 4    1  0.9856522E-003  0.9118800E+02  0.7818608E-02  0.1130116E+00
         25   -1    0    0    0    0  0.00000000000E+00  0.00000000000E+00  0.99999998245E-14  0.12500000000E+03  0.12500000000E+03 0.  0.
        -13    1    1    0    0    0 -0.21449917368E+01  0.12111024001E+01 -0.33320926212E+02  0.33412019487E+02  0.10566000000E+00 0. -1.
         13    1    1    0    0    0 -0.17038223717E+01  0.10320754086E+01 -0.29019803849E+02  0.29088285783E+02  0.10566000000E+00 0.  1.
         22    1    1    0    0    0  0.38488141084E+01 -0.22431778087E+01  0.62340730061E+02  0.62499694729E+02  0.00000000000E+00 0. -1.
</event>
<event>
 4    1  0.9856522E-003  0.9118800E+02  0.7818608E-02  0.1130116E+00
         25   -1    0    0    0    0  0.00000000000E+00  0.00000000000E+00  0.99999998245E-14  0.12500000000E+03  0.12500000000E+03 0.  0.
        -13    1    1    0    0    0  0.59388341899E+01  0.89976970095E+01  0.12824909948E+01  0.10857451367E+02  0.10566000000E+00 0. -1.
         13    1    1    0    0    0  0.27924240269E+02  0.43007694088E+02  0.61287737646E+01  0.51642985751E+02  0.10566000000E+00 0. -1.
         22    1    1    0    0    0 -0.33863074459E+02 -0.52005391098E+02 -0.74112647594E+01  0.62499562881E+02  0.00000000000E+00 0. -1.
</event>
<event>
 4    1  0.9856522E-003  0.9118800E+02  0.7818608E-02  0.1130116E+00
         25   -1    0    0    0    0  0.00000000000E+00  0.00000000000E+00  0.99999998245E-14  0.12500000000E+03  0.12500000000E+03 0.  0.
        -13    1    1    0    0    0  0.25123357619E+01  0.22178786944E+02  0.33655351476E+02  0.40384455776E+02  0.10566000000E+00 0. -1.
         13    1    1    0    0    0 -0.99667346851E+01  0.10224791003E+02  0.18127988124E+02  0.23076335689E+02  0.10566000000E+00 0.  1.
         22    1    1    0    0    0  0.74543989232E+01 -0.32403577947E+02 -0.51783339600E+02  0.61539208536E+02  0.00000000000E+00 0. -1.
</event>
<event>
 4    1  0.9856522E-003  0.9118800E+02  0.7818608E-02  0.1130116E+00
         25   -1    0    0    0    0  0.00000000000E+00  0.00000000000E+00  0.99999998245E-14  0.12500000000E+03  0.12500000000E+03 0.  0.
        -13    1    1    0    0    0  0.20211130442E+02  0.36179638931E+02  0.13819631618E+02  0.43685803747E+02  0.10566000000E+00 0. -1.
         13    1    1    0    0    0  0.89297319896E+01  0.15451266659E+02  0.59592575826E+01  0.18815038393E+02  0.10566000000E+00 0.  1.
         22    1    1    0    0    0 -0.29140862431E+02 -0.51630905590E+02 -0.19778889201E+02  0.62499157860E+02  0.00000000000E+00 0. -1.
</event>
<event>
 4    1  0.9856522E-003  0.9118800E+02  0.7818608E-02  0.1130116E+00
         25   -1    0    0    0    0  0.00000000000E+00  0.00000000000E+00  0.99999998245E-14  0.12500000000E+03  0.12500000000E+03 0.  0.
        -13    1    1    0    0    0 -0.15155067220E+02  0.58879688941E+01  0.37077341282E+02  0.40485610292E+02  0.10566000000E+00 0.  1.
         13    1    1    0    0    0 -0.80924695919E+01  0.32080366386E+01  0.20220274657E+02  0.22014773095E+02  0.10566000000E+00 0.  1.
         22    1    1    0    0    0  0.23247536812E+02 -0.90960055327E+01 -0.57297615939E+02  0.62499616613E+02  0.00000000000E+00 0.  1.
</event>
<event>
 4    1  0.9856522E-003  0.9118800E+02  0.7818608E-02  0.1130116E+00
         25   -1    0    0    0    0  0.00000000000E+00  0.00000000000E+00  0.99999998245E-14  0.12500000000E+03  0.12500000000E+03 0.  0.
        -13    1    1    0    0    0  0.20408501986E+01 -0.16912426773E+01 -0.62186152074E+01  0.67607477737E+01  0.10566000000E+00 0.  1.
         13    1    1    0    0    0  0.50316920351E+02  0.26072007498E+02 -0.11501662687E+02  0.57825958334E+02  0.10566000000E+00 0. -1.
         22    1    1    0    0    0 -0.52357770550E+02 -0.24380764821E+02  0.17720277895E+02  0.60413293892E+02  0.00000000000E+00 0. -1.
</event>
<event>
 4    1  0.9856522E-003  0.9118800E+02  0.7818608E-02  0.1130116E+00
         25   -1    0    0    0    0  0.00000000000E+00  0.00000000000E+00  0.99999998245E-14  0.12500000000E+03  0.12500000000E+03 0.  0.
        -13    1    1    0    0    0 -0.39478438928E+02  0.75833843915E+01  0.28109041128E+01  0.40298476460E+02  0.10566000000E+00 0. -1.
         13    1    1    0    0    0 -0.21722983093E+02  0.42516049060E+01  0.17182139298E+01  0.22201972027E+02  0.10566000000E+00 0. -1.
         22    1    1    0    0    0  0.61201422021E+02 -0.11834989297E+02 -0.45291180425E+01  0.62499551513E+02  0.00000000000E+00 0. -1.
</event>
<event>
 4    1  0.9856522E-003  0.9118800E+02  0.7818608E-02  0.1130116E+00
         25   -1    0    0    0    0  0.00000000000E+00  0.00000000000E+00  0.99999998245E-14  0.12500000000E+03  0.12500000000E+03 0.  0.
        -13    1    1    0    0    0 -0.10957074723E+02 -0.17448365313E+02  0.17092406343E+02  0.26770589408E+02  0.10566000000E+00 0.  1.
         13    1    1    0    0    0 -0.22819793580E+02 -0.26662424508E+02  0.98965006283E+01  0.36463402864E+02  0.10566000000E+00 0. -1.
         22    1    1    0    0    0  0.33776868304E+02  0.44110789822E+02 -0.26988906972E+02  0.61766007728E+02  0.00000000000E+00 0. -1.
</event>
<event>
 4    1  0.9856522E-003  0.9118800E+02  0.7818608E-02  0.1130116E+00
         25   -1    0    0    0    0  0.00000000000E+00  0.00000000000E+00  0.99999998245E-14  0.12500000000E+03  0.12500000000E+03 0.  0.
        -13    1    1    0    0    0  0.81622406581E+01 -0.18970729025E+02 -0.75913179327E+00  0.20666353752E+02  0.10566000000E+00 0.  1.
         13    1    1    0    0    0  0.39114482844E+01 -0.41957326089E+02  0.22951306107E+01  0.42201841533E+02  0.10566000000E+00 0. -1.
         22    1    1    0    0    0 -0.12073688942E+02  0.60928055114E+02 -0.15359988174E+01  0.62131804714E+02  0.00000000000E+00 0. -1.
</event>
<event>
 4    1  0.9856522E-003  0.9118800E+02  0.7818608E-02  0.1130116E+00
         25   -1    0    0    0    0  0.00000000000E+00  0.00000000000E+00  0.99999998245E-14  0.12500000000E+03  0.12500000000E+03 0.  0.
        -13    1    1    0    0    0  0.15574653281E+02 -0.16127732173E+02  0.38527085682E+00  0.22423941838E+02  0.10566000000E+00 0.  1.
         13    1    1    0    0    0  0.28914464681E+02 -0.27747623197E+02  0.73143203451E+00  0.40081454786E+02  0.10566000000E+00 0. -1.
         22    1    1    0    0    0 -0.44489117962E+02  0.43875355370E+02 -0.11167028913E+01  0.62494603377E+02  0.00000000000E+00 0. -1.
</event>
<event>
 4    1  0.9856522E-003  0.9118800E+02  0.7818608E-02  0.1130116E+00
         25   -1    0    0    0    0  0.00000000000E+00  0.00000000000E+00  0.99999998245E-14  0.12500000000E+03  0.12500000000E+03 0.  0.
        -13    1    1    0    0    0  0.52067834428E+02  0.17594806860E+02 -0.21379761173E+02  0.58972383047E+02  0.10566000000E+00 0. -1.
         13    1    1    0    0    0  0.25725819646E+01  0.78620861972E+00 -0.24569404161E+01  0.36447252574E+01  0.10566000000E+00 0.  1.
         22    1    1    0    0    0 -0.54640416393E+02 -0.18381015480E+02  0.23836701589E+02  0.62382891695E+02  0.00000000000E+00 0. -1.
</event>
<event>
 4    1  0.9856522E-003  0.9118800E+02  0.7818608E-02  0.1130116E+00
         25   -1    0    0    0    0  0.00000000000E+00  0.00000000000E+00  0.99999998245E-14  0.12500000000E+03  0.12500000000E+03 0.  0.
        -13    1    1    0    0    0 -0.24271816626E+01 -0.19460964081E+02  0.25017235317E+02  0.31788261367E+02  0.10566000000E+00 0. -1.
         13    1    1    0    0    0 -0.40570768125E+01 -0.18736885931E+02  0.24009022342E+02  0.30724177523E+02  0.10566000000E+00 0.  1.
         22    1    1    0    0    0  0.64842584751E+01  0.38197850011E+02 -0.49026257659E+02  0.62487561110E+02  0.00000000000E+00 0. -1.
</event>
<event>
 4    1  0.9856522E-003  0.9118800E+02  0.7818608E-02  0.1130116E+00
         25   -1    0    0    0    0  0.00000000000E+00  0.00000000000E+00  0.99999998245E-14  0.12500000000E+03  0.12500000000E+03 0.  0.
        -13    1    1    0    0    0  0.89337963440E+01 -0.10201664444E+02  0.53704520055E+02  0.55390191486E+02  0.10566000000E+00 0.  1.
         13    1    1    0    0    0  0.28993078161E+01 -0.82504347744E+00  0.65558906666E+01  0.72164776048E+01  0.10566000000E+00 0. -1.
         22    1    1    0    0    0 -0.11833104160E+02  0.11026707922E+02 -0.60260410721E+02  0.62393330909E+02  0.00000000000E+00 0.  1.
</event>
<event>
 4    1  0.9856522E-003  0.9118800E+02  0.7818608E-02  0.1130116E+00
         25   -1    0    0    0    0  0.00000000000E+00  0.00000000000E+00  0.99999998245E-14  0.12500000000E+03  0.12500000000E+03 0.  0.
        -13    1    1    0    0    0  0.64229647175E+01  0.38641122338E+02  0.29899809465E+02  0.49278804586E+02  0.10566000000E+00 0.  1.
         13    1    1    0    0    0  0.14502201845E+02  0.93060529907E+01 -0.82351092192E+01  0.19098289675E+02  0.10566000000E+00 0. -1.
         22    1    1    0    0    0 -0.20925166562E+02 -0.47947175329E+02 -0.21664700246E+02  0.56622905740E+02  0.00000000000E+00 0.  1.
</event>
<event>
 4    1  0.9856522E-003  0.9118800E+02  0.7818608E-02  0.1130116E+00
         25   -1    0    0    0    0  0.00000000000E+00  0.00000000000E+00  0.99999998245E-14  0.12500000000E+03  0.12500000000E+03 0.  0.
        -13    1    1    0    0    0 -0.79297532024E+01 -0.33903523253E+02 -0.28790497636E+02  0.45180015416E+02  0.10566000000E+00 0. -1.
         13    1    1    0    0    0 -0.23731606347E+01 -0.13431466659E+02 -0.10687159976E+02  0.17328091078E+02  0.10566000000E+00 0.  1.
         22    1    1    0    0    0  0.10302913837E+02  0.47334989912E+02  0.39477657612E+02  0.62491893506E+02  0.00000000000E+00 0. -1.
</event>
<event>
 4    1  0.9856522E-003  0.9118800E+02  0.7818608E-02  0.1130116E+00
         25   -1    0    0    0    0  0.00000000000E+00  0.00000000000E+00  0.99999998245E-14  0.12500000000E+03  0.12500000000E+03 0.  0.
        -13    1    1    0    0    0 -0.52511182876E+02 -0.51460996311E+01  0.19498044390E+02  0.56250258377E+02  0.10566000000E+00 0.  1.
         13    1    1    0    0    0 -0.56587275350E+01 -0.10476348206E+00  0.26944088383E+01  0.62692244916E+01  0.10566000000E+00 0. -1.
         22    1    1    0    0    0  0.58169910411E+02  0.52508631131E+01 -0.22192453228E+02  0.62480517131E+02  0.00000000000E+00 0. -1.
</event>
<event>
 4    1  0.9856522E-003  0.9118800E+02  0.7818608E-02  0.1130116E+00
         25   -1    0    0    0    0  0.00000000000E+00  0.00000000000E+00  0.99999998245E-14  0.12500000000E+03  0.12500000000E+03 0.  0.
        -13    1    1    0    0    0  0.68247226109E+01  0.21538423663E+02  0.11309547186E+02  0.25266530315E+02  0.10566000000E+00 0.  1.
         13    1    1    0    0    0  0.99601958483E+01  0.31983974046E+02  0.16254293331E+02  0.37234302905E+02  0.10566000000E+00 0.  1.
         22    1    1    0    0    0 -0.16784918459E+02 -0.53522397708E+02 -0.27563840517E+02  0.62499166780E+02  0.00000000000E+00 0.  1.
</event>
<event>
 4    1  0.9856522E-003  0.9118800E+02  0.7818608E-02  0.1130116E+00
         25   -1    0    0    0    0  0.00000000000E+00  0.00000000000E+00  0.99999998245E-14  0.12500000000E+03  0.12500000000E+03 0.  0.
        -13    1    1    0    0    0 -0.33650089630E+02  0.38762804970E+02 -0.22236478213E+02  0.55940644513E+02  0.10566000000E+00 0.  1.
         13    1    1    0    0    0 -0.25911680760E+01  0.14320109708E+01 -0.69609568821E+01  0.75651101888E+01  0.10566000000E+00 0. -1.
         22    1    1    0    0    0  0.36241257706E+02 -0.40194815941E+02  0.29197435095E+02  0.61494245298E+02  0.00000000000E+00 0.  1.
</event>
<event>
 4    1  0.9856522E-003  0.9118800E+02  0.7818608E-02  0.1130116E+00
         25   -1    0    0    0    0  0.00000000000E+00  0.00000000000E+00  0.99999998245E-14  0.12500000000E+03  0.12500000000E+03 0.  0.
        -13    1    1    0    0    0 -0.21856878497E+02  0.48438276341E+02 -0.32766113251E+02  0.62430914571E+02  0.10566000000E+00 0. -1.
         13    1    1    0    0    0  0.26599560469E+00 -0.65530743009E-01  0.38232255567E+00  0.48206069344E+00  0.10566000000E+00 0.  1.
         22    1    1    0    0    0  0.21590882892E+02 -0.48372745598E+02  0.32383790696E+02  0.62087024736E+02  0.00000000000E+00 0. -1.
</event>
<event>
 4    1  0.9856522E-003  0.9118800E+02  0.7818608E-02  0.1130116E+00
         25   -1    0    0    0    0  0.00000000000E+00  0.00000000000E+00  0.99999998245E-14  0.12500000000E+03  0.12500000000E+03 0.  0.
        -13    1    1    0    0    0 -0.40753668694E+01 -0.19209617539E+02 -0.75384198948E+01  0.21034660911E+02  0.10566000000E+00 0.  1.
         13    1    1    0    0    0 -0.84565374377E+01 -0.36707841660E+02 -0.17370020737E+02  0.41481410887E+02  0.10566000000E+00 0. -1.
         22    1    1    0    0    0  0.12531904307E+02  0.55917459199E+02  0.24908440632E+02  0.62483928202E+02  0.00000000000E+00 0. -1.
</event>
<event>
 4    1  0.9856522E-003  0.9118800E+02  0.7818608E-02  0.1130116E+00
         25   -1    0    0    0    0  0.00000000000E+00  0.00000000000E+00  0.99999998245E-14  0.12500000000E+03  0.12500000000E+03 0.  0.
        -13    1    1    0    0    0  0.40044067594E+01 -0.36135129051E+02  0.59402405036E+01  0.36838572805E+02  0.10566000000E+00 0. -1.
         13    1    1    0    0    0  0.27238652448E+01 -0.25201691681E+02  0.39962357270E+01  0.25661756944E+02  0.10566000000E+00 0. -1.
         22    1    1    0    0    0 -0.67282720042E+01  0.61336820732E+02 -0.99364762306E+01  0.62499670251E+02  0.00000000000E+00 0. -1.
</event>
<event>
 4    1  0.9856522E-003  0.9118800E+02  0.7818608E-02  0.1130116E+00
         25   -1    0    0    0    0  0.00000000000E+00  0.00000000000E+00  0.99999998245E-14  0.12500000000E+03  0.12500000000E+03 0.  0.
        -13    1    1    0    0    0  0.19746986868E+02  0.27229532148E+02 -0.11780233561E+02  0.35639528310E+02  0.10566000000E+00 0.  1.
         13    1    1    0    0    0  0.18755210385E+02  0.13001692743E+02 -0.15262927022E+02  0.27454872720E+02  0.10566000000E+00 0. -1.
         22    1    1    0    0    0 -0.38502197253E+02 -0.40231224891E+02  0.27043160582E+02  0.61905598970E+02  0.00000000000E+00 0.  1.
</event>
<event>
 4    1  0.9856522E-003  0.9118800E+02  0.7818608E-02  0.1130116E+00
         25   -1    0    0    0    0  0.00000000000E+00  0.00000000000E+00  0.99999998245E-14  0.12500000000E+03  0.12500000000E+03 0.  0.
        -13    1    1    0    0    0 -0.15732046825E+02 -0.34895348329E+02  0.39859743125E+01  0.38484825420E+02  0.10566000000E+00 0.  1.
         13    1    1    0    0    0 -0.10245160415E+02 -0.21376513528E+02  0.39456575866E+01  0.24031188493E+02  0.10566000000E+00 0. -1.
         22    1    1    0    0    0  0.25977207240E+02  0.56271861857E+02 -0.79316318992E+01  0.62483986088E+02  0.00000000000E+00 0.  1.
</event>
<event>
 4    1  0.9856522E-003  0.9118800E+02  0.7818608E-02  0.1130116E+00
         25   -1    0    0    0    0  0.00000000000E+00  0.00000000000E+00  0.99999998245E-14  0.12500000000E+03  0.12500000000E+03 0.  0.
        -13    1    1    0    0    0  0.30983542405E+02  0.10632098507E+02 -0.48658916763E+02  0.58657674376E+02  0.10566000000E+00 0. -1.
         13    1    1    0    0    0 -0.27203057582E+00  0.66957732785E+01  0.59246199989E+00  0.67282654294E+01  0.10566000000E+00 0.  1.
         22    1    1    0    0    0 -0.30711511829E+02 -0.17327871786E+02  0.48066454763E+02  0.59614060195E+02  0.00000000000E+00 0. -1.
</event>
<event>
 4    1  0.9856522E-003  0.9118800E+02  0.7818608E-02  0.1130116E+00
         25   -1    0    0    0    0  0.00000000000E+00  0.00000000000E+00  0.99999998245E-14  0.12500000000E+03  0.12500000000E+03 0.  0.
        -13    1    1    0    0    0 -0.15606211036E+02  0.13661905326E+02  0.23119130802E+01  0.20870016439E+02  0.10566000000E+00 0. -1.
         13    1    1    0    0    0 -0.31098564806E+02  0.27446423135E+02  0.35802659788E+01  0.41632395372E+02  0.10566000000E+00 0. -1.
         22    1    1    0    0    0  0.46704775842E+02 -0.41108328461E+02 -0.58921790589E+01  0.62497588189E+02  0.00000000000E+00 0. -1.
</event>
<event>
 4    1  0.9856522E-003  0.9118800E+02  0.7818608E-02  0.1130116E+00
         25   -1    0    0    0    0  0.00000000000E+00  0.00000000000E+00  0.99999998245E-14  0.12500000000E+03  0.12500000000E+03 0.  0.
        -13    1    1    0    0    0 -0.36854751535E+01 -0.14482993655E+02  0.57717750920E+01  0.16020748549E+02  0.10566000000E+00 0. -1.
         13    1    1    0    0    0  0.15819756507E+02 -0.44335037074E+02 -0.12062635938E+02  0.48594017719E+02  0.10566000000E+00 0.  1.
         22    1    1    0    0    0 -0.12134281353E+02  0.58818030729E+02  0.62908608459E+01  0.60385233732E+02  0.00000000000E+00 0.  1.
</event>
<event>
 4    1  0.9856522E-003  0.9118800E+02  0.7818608E-02  0.1130116E+00
         25   -1    0    0    0    0  0.00000000000E+00  0.00000000000E+00  0.99999998245E-14  0.12500000000E+03  0.12500000000E+03 0.  0.
        -13    1    1    0    0    0  0.13492645591E+02 -0.21436237031E+02  0.13715297738E+02  0.28804240993E+02  0.10566000000E+00 0.  1.
         13    1    1    0    0    0  0.15142784727E+02 -0.23028103472E+02  0.19483242109E+02  0.33752116466E+02  0.10566000000E+00 0. -1.
         22    1    1    0    0    0 -0.28635430318E+02  0.44464340503E+02 -0.33198539847E+02  0.62443642541E+02  0.00000000000E+00 0. -1.
</event>
<event>
 4    1  0.9856522E-003  0.9118800E+02  0.7818608E-02  0.1130116E+00
         25   -1    0    0    0    0  0.00000000000E+00  0.00000000000E+00  0.99999998245E-14  0.12500000000E+03  0.12500000000E+03 0.  0.
        -13    1    1    0    0    0  0.37167381992E+02 -0.30460163318E+02 -0.34797675472E+02  0.59330643144E+02  0.10566000000E+00 0.  1.
         13    1    1    0    0    0  0.27468042568E+01 -0.21024558151E+01 -0.78398880586E-01  0.34615841026E+01  0.10566000000E+00 0. -1.
         22    1    1    0    0    0 -0.39914186248E+02  0.32562619134E+02  0.34876074353E+02  0.62207772754E+02  0.00000000000E+00 0.  1.
</event>
<event>
 4    1  0.9856522E-003  0.9118800E+02  0.7818608E-02  0.1130116E+00
         25   -1    0    0    0    0  0.00000000000E+00  0.00000000000E+00  0.99999998245E-14  0.12500000000E+03  0.12500000000E+03 0.  0.
        -13    1    1    0    0    0  0.57169480105E+02  0.66505466641E+01  0.17111730766E+02  0.60044997462E+02  0.10566000000E+00 0.  1.
         13    1    1    0    0    0 -0.39847127632E+01  0.67046268971E+01 -0.27360925965E+01  0.82660343797E+01  0.10566000000E+00 0. -1.
         22    1    1    0    0    0 -0.53184767342E+02 -0.13355173561E+02 -0.14375638169E+02  0.56688968158E+02  0.00000000000E+00 0.  1.
</event>
<event>
 4    1  0.9856522E-003  0.9118800E+02  0.7818608E-02  0.1130116E+00
         25   -1    0    0    0    0  0.00000000000E+00  0.00000000000E+00  0.99999998245E-14  0.12500000000E+03  0.12500000000E+03 0.  0.
        -13    1    1    0    0    0 -0.12894205979E+02 -0.27729626365E+02 -0.13348199834E+02  0.33367324272E+02  0.10566000000E+00 0. -1.
         13    1    1    0    0    0 -0.11145135128E+02 -0.24228008718E+02 -0.11726316687E+02  0.29132938584E+02  0.10566000000E+00 0. -1.
         22    1    1    0    0    0  0.24039341107E+02  0.51957635083E+02  0.25074516522E+02  0.62499737144E+02  0.00000000000E+00 0. -1.
</event>
<event>
 4    1  0.9856522E-003  0.9118800E+02  0.7818608E-02  0.1130116E+00
         25   -1    0    0    0    0  0.00000000000E+00  0.00000000000E+00  0.99999998245E-14  0.12500000000E+03  0.12500000000E+03 0.  0.
        -13    1    1    0    0    0  0.83975275087E+00 -0.69531673513E+00  0.51925355930E+01  0.53068107151E+01  0.10566000000E+00 0.  1.
         13    1    1    0    0    0  0.16725372503E+02 -0.92294443101E+01  0.53935132127E+02  0.57218269541E+02  0.10566000000E+00 0. -1.
         22    1    1    0    0    0 -0.17565125254E+02  0.99247610452E+01 -0.59127667720E+02  0.62474919744E+02  0.00000000000E+00 0. -1.
</event>
<event>
 4    1  0.9856522E-003  0.9118800E+02  0.7818608E-02  0.1130116E+00
         25   -1    0    0    0    0  0.00000000000E+00  0.00000000000E+00  0.99999998245E-14  0.12500000000E+03  0.12500000000E+03 0.  0.
        -13    1    1    0    0    0  0.38244003303E+00 -0.21118959501E+02  0.17686161891E+02  0.27549377439E+02  0.10566000000E+00 0.  1.
         13    1    1    0    0    0 -0.36544815722E+01 -0.28429477548E+02  0.20136929679E+02  0.35029951900E+02  0.10566000000E+00 0. -1.
         22    1    1    0    0    0  0.32720415392E+01  0.49548437049E+02 -0.37823091570E+02  0.62420670661E+02  0.00000000000E+00 0. -1.
</event>
<event>
 4    1  0.9856522E-003  0.9118800E+02  0.7818608E-02  0.1130116E+00
         25   -1    0    0    0    0  0.00000000000E+00  0.00000000000E+00  0.99999998245E-14  0.12500000000E+03  0.12500000000E+03 0.  0.
        -13    1    1    0    0    0  0.10843548025E+02 -0.30006971720E+02 -0.67302461201E+01  0.32608407849E+02  0.10566000000E+00 0.  1.
         13    1    1    0    0    0 -0.41236298756E+02 -0.61907019470E+01 -0.88450796813E+01  0.42626326657E+02  0.10566000000E+00 0. -1.
         22    1    1    0    0    0  0.30392750731E+02  0.36197673667E+02  0.15575325801E+02  0.49765265494E+02  0.00000000000E+00 0. -1.
</event>
<event>
 4    1  0.9856522E-003  0.9118800E+02  0.7818608E-02  0.1130116E+00
         25   -1    0    0    0    0  0.00000000000E+00  0.00000000000E+00  0.99999998245E-14  0.12500000000E+03  0.12500000000E+03 0.  0.
        -13    1    1    0    0    0 -0.24197039657E+02  0.17315142185E+02 -0.53973195084E+02  0.61631386717E+02  0.10566000000E+00 0. -1.
         13    1    1    0    0    0  0.92824740022E+00 -0.26009202288E+01 -0.17668885182E-01  0.27636760841E+01  0.10566000000E+00 0.  1.
         22    1    1    0    0    0  0.23268792257E+02 -0.14714221956E+02  0.53990863969E+02  0.60604937199E+02  0.00000000000E+00 0. -1.
</event>
<event>
 4    1  0.9856522E-003  0.9118800E+02  0.7818608E-02  0.1130116E+00
         25   -1    0    0    0    0  0.00000000000E+00  0.00000000000E+00  0.99999998245E-14  0.12500000000E+03  0.12500000000E+03 0.  0.
        -13    1    1    0    0    0  0.13881570462E+01 -0.78404689641E+00  0.11801003202E+01  0.19863308692E+01  0.10566000000E+00 0.  1.
         13    1    1    0    0    0 -0.26890347894E+01 -0.56900161263E+02  0.21681830731E+02  0.60950571841E+02  0.10566000000E+00 0. -1.
         22    1    1    0    0    0  0.13008777432E+01  0.57684208159E+02 -0.22861931051E+02  0.62063097290E+02  0.00000000000E+00 0. -1.
</event>
<event>
 4    1  0.9856522E-003  0.9118800E+02  0.7818608E-02  0.1130116E+00
         25   -1    0    0    0    0  0.00000000000E+00  0.00000000000E+00  0.99999998245E-14  0.12500000000E+03  0.12500000000E+03 0.  0.
        -13    1    1    0    0    0 -0.10320314053E+02  0.16742503675E+02  0.29119403092E+02  0.35139310066E+02  0.10566000000E+00 0.  1.
         13    1    1    0    0    0 -0.81232538056E+01  0.13194442451E+02  0.22550808423E+02  0.27361116362E+02  0.10566000000E+00 0. -1.
         22    1    1    0    0    0  0.18443567858E+02 -0.29936946126E+02 -0.51670211515E+02  0.62499573572E+02  0.00000000000E+00 0.  1.
</event>
<event>
 4    1  0.9856522E-003  0.9118800E+02  0.7818608E-02  0.1130116E+00
         25   -1    0    0    0    0  0.00000000000E+00  0.00000000000E+00  0.99999998245E-14  0.12500000000E+03  0.12500000000E+03 0.  0.
        -13    1    1    0    0    0 -0.15678274201E+02 -0.17318076010E+01  0.30255228233E+01  0.16061518978E+02  0.10566000000E+00 0.  1.
         13    1    1    0    0    0 -0.65609819454E+01  0.31561170089E+02 -0.43381809949E+02  0.54047632140E+02  0.10566000000E+00 0. -1.
         22    1    1    0    0    0  0.22239256147E+02 -0.29829362488E+02  0.40356287126E+02  0.54890848882E+02  0.00000000000E+00 0. -1.
</event>
<event>
 4    1  0.9856522E-003  0.9118800E+02  0.7818608E-02  0.1130116E+00
         25   -1    0    0    0    0  0.00000000000E+00  0.00000000000E+00  0.99999998245E-14  0.12500000000E+03  0.12500000000E+03 0.  0.
        -13    1    1    0    0    0  0.17503746766E+02  0.33974315402E+01 -0.29421684773E+01  0.18071834752E+02  0.10566000000E+00 0. -1.
         13    1    1    0    0    0  0.44247601107E+02 -0.19700170894E+00 -0.52302784698E+01  0.44556211580E+02  0.10566000000E+00 0.  1.
         22    1    1    0    0    0 -0.61751347873E+02 -0.32004298313E+01  0.81724469470E+01  0.62371953668E+02  0.00000000000E+00 0. -1.
</event>
<event>
 4    1  0.9856522E-003  0.9118800E+02  0.7818608E-02  0.1130116E+00
         25   -1    0    0    0    0  0.00000000000E+00  0.00000000000E+00  0.99999998245E-14  0.12500000000E+03  0.12500000000E+03 0.  0.
        -13    1    1    0    0    0 -0.12940313050E+01 -0.35223017513E+02  0.30813838905E+02  0.46817083547E+02  0.10566000000E+00 0.  1.
         13    1    1    0    0    0 -0.12926488995E+02 -0.13960379343E+02 -0.12614576627E+01  0.19068003267E+02  0.10566000000E+00 0. -1.
         22    1    1    0    0    0  0.14220520300E+02  0.49183396856E+02 -0.29552381243E+02  0.59114913186E+02  0.00000000000E+00 0.  1.
</event>
<event>
 4    1  0.9856522E-003  0.9118800E+02  0.7818608E-02  0.1130116E+00
         25   -1    0    0    0    0  0.00000000000E+00  0.00000000000E+00  0.99999998245E-14  0.12500000000E+03  0.12500000000E+03 0.  0.
        -13    1    1    0    0    0 -0.25796564399E+02  0.12268947057E+02 -0.43816593724E+02  0.52305782150E+02  0.10566000000E+00 0.  1.
         13    1    1    0    0    0  0.10684503360E+02 -0.92605075984E+01 -0.96059692317E+01  0.17093900139E+02  0.10566000000E+00 0. -1.
         22    1    1    0    0    0  0.15112061039E+02 -0.30084394588E+01  0.53422562956E+02  0.55600317711E+02  0.00000000000E+00 0.  1.
</event>
<event>
 4    1  0.9856522E-003  0.9118800E+02  0.7818608E-02  0.1130116E+00
         25   -1    0    0    0    0  0.00000000000E+00  0.00000000000E+00  0.99999998245E-14  0.12500000000E+03  0.12500000000E+03 0.  0.
        -13    1    1    0    0    0 -0.73786010044E+01 -0.13195886961E+02  0.20716012870E+02  0.25646433256E+02  0.10566000000E+00 0. -1.
         13    1    1    0    0    0  0.50828388375E+01 -0.32630016338E+02  0.19490715072E+02  0.38346477739E+02  0.10566000000E+00 0.  1.
         22    1    1    0    0    0  0.22957621670E+01  0.45825903300E+02 -0.40206727942E+02  0.61007089006E+02  0.00000000000E+00 0. -1.
</event>
<event>
 4    1  0.9856522E-003  0.9118800E+02  0.7818608E-02  0.1130116E+00
         25   -1    0    0    0    0  0.00000000000E+00  0.00000000000E+00  0.99999998245E-14  0.12500000000E+03  0.12500000000E+03 0.  0.
        -13    1    1    0    0    0  0.70267471178E+01  0.36607221785E+01  0.62007667504E+01  0.10061646697E+02  0.10566000000E+00 0. -1.
         13    1    1    0    0    0  0.27684325022E+02  0.18799710186E+02  0.40519335385E+02  0.52551676082E+02  0.10566000000E+00 0.  1.
         22    1    1    0    0    0 -0.34711072140E+02 -0.22460432365E+02 -0.46720102135E+02  0.62386677221E+02  0.00000000000E+00 0.  1.
</event>
<event>
 4    1  0.9856522E-003  0.9118800E+02  0.7818608E-02  0.1130116E+00
         25   -1    0    0    0    0  0.00000000000E+00  0.00000000000E+00  0.99999998245E-14  0.12500000000E+03  0.12500000000E+03 0.  0.
        -13    1    1    0    0    0 -0.35024415878E+01 -0.17559932199E+00 -0.12905507401E+00  0.35108049570E+01  0.10566000000E+00 0.  1.
         13    1    1    0    0    0 -0.58133756297E+02 -0.99038615008E+01 -0.18888948285E+01  0.59001687955E+02  0.10566000000E+00 0. -1.
         22    1    1    0    0    0  0.61636197885E+02  0.10079460823E+02  0.20179499025E+01  0.62487507088E+02  0.00000000000E+00 0. -1.
</event>
<event>
 4    1  0.9856522E-003  0.9118800E+02  0.7818608E-02  0.1130116E+00
         25   -1    0    0    0    0  0.00000000000E+00  0.00000000000E+00  0.99999998245E-14  0.12500000000E+03  0.12500000000E+03 0.  0.
        -13    1    1    0    0    0 -0.54203999460E+01  0.45207257310E+01 -0.21842652025E+02  0.22954962605E+02  0.10566000000E+00 0.  1.
         13    1    1    0    0    0 -0.82426087847E+01  0.75024425523E+01 -0.37945229213E+02  0.39548436479E+02  0.10566000000E+00 0. -1.
         22    1    1    0    0    0  0.13663008731E+02 -0.12023168283E+02  0.59787881238E+02  0.62496600916E+02  0.00000000000E+00 0. -1.
</event>
<event>
 4    1  0.9856522E-003  0.9118800E+02  0.7818608E-02  0.1130116E+00
         25   -1    0    0    0    0  0.00000000000E+00  0.00000000000E+00  0.99999998245E-14  0.12500000000E+03  0.12500000000E+03 0.  0.
        -13    1    1    0    0    0 -0.53988348263E+01 -0.96140541661E+01 -0.12120245336E+01  0.11093134025E+02  0.10566000000E+00 0. -1.
         13    1    1    0    0    0 -0.24442493710E+02 -0.44602071694E+02  0.85959114750E+01  0.51581790937E+02  0.10566000000E+00 0.  1.
         22    1    1    0    0    0  0.29841328536E+02  0.54216125860E+02 -0.73838869414E+01  0.62325075038E+02  0.00000000000E+00 0.  1.
</event>
<event>
 4    1  0.9856522E-003  0.9118800E+02  0.7818608E-02  0.1130116E+00
         25   -1    0    0    0    0  0.00000000000E+00  0.00000000000E+00  0.99999998245E-14  0.12500000000E+03  0.12500000000E+03 0.  0.
        -13    1    1    0    0    0  0.52749579745E+02 -0.65792675176E+01  0.77359738332E+01  0.53718352353E+02  0.10566000000E+00 0. -1.
         13    1    1    0    0    0  0.59330618490E+01 -0.71975438174E+01 -0.57758294890E+01  0.10971655765E+02  0.10566000000E+00 0.  1.
         22    1    1    0    0    0 -0.58682641594E+02  0.13776811335E+02 -0.19601443442E+01  0.60309991882E+02  0.00000000000E+00 0. -1.
</event>
<event>
 4    1  0.9856522E-003  0.9118800E+02  0.7818608E-02  0.1130116E+00
         25   -1    0    0    0    0  0.00000000000E+00  0.00000000000E+00  0.99999998245E-14  0.12500000000E+03  0.12500000000E+03 0.  0.
        -13    1    1    0    0    0 -0.66730721191E+01 -0.45545902275E+02  0.39119594308E+02  0.60409543355E+02  0.10566000000E+00 0.  1.
         13    1    1    0    0    0 -0.35109903043E+00 -0.13655377493E+01  0.15572985545E+01  0.21034035983E+01  0.10566000000E+00 0. -1.
         22    1    1    0    0    0  0.70241711495E+01  0.46911440024E+02 -0.40676892862E+02  0.62487053046E+02  0.00000000000E+00 0.  1.
</event>
<event>
 4    1  0.9856522E-003  0.9118800E+02  0.7818608E-02  0.1130116E+00
         25   -1    0    0    0    0  0.00000000000E+00  0.00000000000E+00  0.99999998245E-14  0.12500000000E+03  0.12500000000E+03 0.  0.
        -13    1    1    0    0    0 -0.41643691511E+02  0.18848013328E+02  0.21651288716E+02  0.50578988880E+02  0.10566000000E+00 0. -1.
         13    1    1    0    0    0 -0.70497757024E+01 -0.66529647298E+01  0.10904800575E+02  0.14590651691E+02  0.10566000000E+00 0.  1.
         22    1    1    0    0    0  0.48693467213E+02 -0.12195048598E+02 -0.32556089290E+02  0.59830359429E+02  0.00000000000E+00 0. -1.
</event>
<event>
 4    1  0.9856522E-003  0.9118800E+02  0.7818608E-02  0.1130116E+00
         25   -1    0    0    0    0  0.00000000000E+00  0.00000000000E+00  0.99999998245E-14  0.12500000000E+03  0.12500000000E+03 0.  0.
        -13    1    1    0    0    0  0.15501337066E+02  0.18762258662E+01 -0.13429974802E+02  0.20595802037E+02  0.10566000000E+00 0.  1.
         13    1    1    0    0    0  0.43848724694E+02  0.21036270547E+01  0.28904083951E+01  0.43994335190E+02  0.10566000000E+00 0. -1.
         22    1    1    0    0    0 -0.59350061760E+02 -0.39798529209E+01  0.10539566407E+02  0.60409862773E+02  0.00000000000E+00 0.  1.
</event>
<event>
 4    1  0.9856522E-003  0.9118800E+02  0.7818608E-02  0.1130116E+00
         25   -1    0    0    0    0  0.00000000000E+00  0.00000000000E+00  0.99999998245E-14  0.12500000000E+03  0.12500000000E+03 0.  0.
        -13    1    1    0    0    0  0.46968500257E+02  0.33667103767E+02  0.47628057824E+01  0.57984561527E+02  0.10566000000E+00 0. -1.
         13    1    1    0    0    0 -0.19512947229E+01  0.46668687098E+01 -0.60339361200E+01  0.78744373631E+01  0.10566000000E+00 0.  1.
         22    1    1    0    0    0 -0.45017205534E+02 -0.38333972477E+02  0.12711303375E+01  0.59141001110E+02  0.00000000000E+00 0. -1.
</event>
<event>
 4    1  0.9856522E-003  0.9118800E+02  0.7818608E-02  0.1130116E+00
         25   -1    0    0    0    0  0.00000000000E+00  0.00000000000E+00  0.99999998245E-14  0.12500000000E+03  0.12500000000E+03 0.  0.
        -13    1    1    0    0    0 -0.71565851866E+00  0.23849552177E+00 -0.48119554266E+00  0.90097747758E+00  0.10566000000E+00 0.  1.
         13    1    1    0    0    0 -0.45881577378E+02  0.22436114336E+02 -0.34448111901E+02  0.61605048062E+02  0.10566000000E+00 0.  1.
         22    1    1    0    0    0  0.46597235896E+02 -0.22674609858E+02  0.34929307443E+02  0.62493974460E+02  0.00000000000E+00 0.  1.
</event>
<event>
 4    1  0.9856522E-003  0.9118800E+02  0.7818608E-02  0.1130116E+00
         25   -1    0    0    0    0  0.00000000000E+00  0.00000000000E+00  0.99999998245E-14  0.12500000000E+03  0.12500000000E+03 0.  0.
        -13    1    1    0    0    0 -0.24978108185E+02  0.26309041724E+02  0.36385222727E+01  0.36459862497E+02  0.10566000000E+00 0. -1.
         13    1    1    0    0    0 -0.17962914282E+02  0.18203000330E+02  0.50991507959E+01  0.26077346748E+02  0.10566000000E+00 0.  1.
         22    1    1    0    0    0  0.42941022467E+02 -0.44512042054E+02 -0.87376730686E+01  0.62462790756E+02  0.00000000000E+00 0. -1.
</event>
<event>
 4    1  0.9856522E-003  0.9118800E+02  0.7818608E-02  0.1130116E+00
         25   -1    0    0    0    0  0.00000000000E+00  0.00000000000E+00  0.99999998245E-14  0.12500000000E+03  0.12500000000E+03 0.  0.
        -13    1    1    0    0    0  0.12075703138E+02  0.67169041741E+01 -0.34155627323E+02  0.36845046476E+02  0.10566000000E+00 0. -1.
         13    1    1    0    0    0  0.81709602171E+01  0.69505594472E+01 -0.23338789109E+02  0.25686282498E+02  0.10566000000E+00 0.  1.
         22    1    1    0    0    0 -0.20246663355E+02 -0.13667463621E+02  0.57494416432E+02  0.62468671025E+02  0.00000000000E+00 0.  1.
</event>
<event>
 4    1  0.9856522E-003  0.9118800E+02  0.7818608E-02  0.1130116E+00
         25   -1    0    0    0    0  0.00000000000E+00  0.00000000000E+00  0.99999998245E-14  0.12500000000E+03  0.12500000000E+03 0.  0.
        -13    1    1    0    0    0 -0.29975103474E+02  0.32600018225E+02 -0.37737642749E+02  0.58184266437E+02  0.10566000000E+00 0.  1.
         13    1    1    0    0    0 -0.64365182150E+01 -0.95461942884E+01  0.43838435943E+01  0.12320220810E+02  0.10566000000E+00 0. -1.
         22    1    1    0    0    0  0.36411621689E+02 -0.23053823937E+02  0.33353799155E+02  0.54495512752E+02  0.00000000000E+00 0.  1.
</event>
<event>
 4    1  0.9856522E-003  0.9118800E+02  0.7818608E-02  0.1130116E+00
         25   -1    0    0    0    0  0.00000000000E+00  0.00000000000E+00  0.99999998245E-14  0.12500000000E+03  0.12500000000E+03 0.  0.
        -13    1    1    0    0    0 -0.58551355421E+02  0.11203291637E+02 -0.86401596216E+01  0.60236521210E+02  0.10566000000E+00 0.  1.
         13    1    1    0    0    0 -0.15669836283E+01 -0.25622272770E+01 -0.11987877520E+01  0.32355374238E+01  0.10566000000E+00 0. -1.
         22    1    1    0    0    0  0.60118339050E+02 -0.86410643598E+01  0.98389473737E+01  0.61527941366E+02  0.00000000000E+00 0.  1.
</event>
<event>
 4    1  0.9856522E-003  0.9118800E+02  0.7818608E-02  0.1130116E+00
         25   -1    0    0    0    0  0.00000000000E+00  0.00000000000E+00  0.99999998245E-14  0.12500000000E+03  0.12500000000E+03 0.  0.
        -13    1    1    0    0    0  0.87173496980E+00 -0.37335673814E+01  0.11852750731E+02  0.12457861421E+02  0.10566000000E+00 0.  1.
         13    1    1    0    0    0  0.26275216943E+01 -0.16754321184E+02  0.47085376883E+02  0.50046528639E+02  0.10566000000E+00 0. -1.
         22    1    1    0    0    0 -0.34992566641E+01  0.20487888566E+02 -0.58938127614E+02  0.62495609940E+02  0.00000000000E+00 0. -1.
</event>
<event>
 4    1  0.9856522E-003  0.9118800E+02  0.7818608E-02  0.1130116E+00
         25   -1    0    0    0    0  0.00000000000E+00  0.00000000000E+00  0.99999998245E-14  0.12500000000E+03  0.12500000000E+03 0.  0.
        -13    1    1    0    0    0  0.50124439955E+00 -0.88128099935E+01 -0.14231909614E+02  0.16747396253E+02  0.10566000000E+00 0. -1.
         13    1    1    0    0    0 -0.82047270737E+01 -0.28280407461E+02 -0.35251289266E+02  0.45932162495E+02  0.10566000000E+00 0.  1.
         22    1    1    0    0    0  0.77034826741E+01  0.37093217455E+02  0.49483198881E+02  0.62320441252E+02  0.00000000000E+00 0.  1.
</event>
<event>
 4    1  0.9856522E-003  0.9118800E+02  0.7818608E-02  0.1130116E+00
         25   -1    0    0    0    0  0.00000000000E+00  0.00000000000E+00  0.99999998245E-14  0.12500000000E+03  0.12500000000E+03 0.  0.
        -13    1    1    0    0    0  0.18169191282E+02 -0.47781171059E+01 -0.32346256421E+02  0.37406435054E+02  0.10566000000E+00 0.  1.
         13    1    1    0    0    0  0.13541572998E+02 -0.18909546150E+01 -0.21069387914E+02  0.25117328276E+02  0.10566000000E+00 0. -1.
         22    1    1    0    0    0 -0.31710764279E+02  0.66690717209E+01  0.53415644335E+02  0.62476236671E+02  0.00000000000E+00 0. -1.
</event>
<event>
 4    1  0.9856522E-003  0.9118800E+02  0.7818608E-02  0.1130116E+00
         25   -1    0    0    0    0  0.00000000000E+00  0.00000000000E+00  0.99999998245E-14  0.12500000000E+03  0.12500000000E+03 0.  0.
        -13    1    1    0    0    0 -0.18235359595E+02  0.13163010235E+01  0.38116396283E+02  0.42274481872E+02  0.10566000000E+00 0. -1.
         13    1    1    0    0    0 -0.13973239719E+02  0.13954360897E+02  0.10559279762E+02  0.22393864548E+02  0.10566000000E+00 0.  1.
         22    1    1    0    0    0  0.32208599313E+02 -0.15270661921E+02 -0.48675676045E+02  0.60331653579E+02  0.00000000000E+00 0. -1.
</event>
<event>
 4    1  0.9856522E-003  0.9118800E+02  0.7818608E-02  0.1130116E+00
         25   -1    0    0    0    0  0.00000000000E+00  0.00000000000E+00  0.99999998245E-14  0.12500000000E+03  0.12500000000E+03 0.  0.
        -13    1    1    0    0    0  0.10284983122E+02 -0.25006510192E+02 -0.47503819999E+02  0.54660136373E+02  0.10566000000E+00 0.  1.
         13    1    1    0    0    0 -0.51840925693E+01  0.28736882980E+01 -0.82373789757E+01  0.10148816514E+02  0.10566000000E+00 0. -1.
         22    1    1    0    0    0 -0.51008905526E+01  0.22132821894E+02  0.55741198975E+02  0.60191047113E+02  0.00000000000E+00 0.  1.
</event>
<event>
 4    1  0.9856522E-003  0.9118800E+02  0.7818608E-02  0.1130116E+00
         25   -1    0    0    0    0  0.00000000000E+00  0.00000000000E+00  0.99999998245E-14  0.12500000000E+03  0.12500000000E+03 0.  0.
        -13    1    1    0    0    0  0.47729259228E+02 -0.89501250283E+01 -0.56627376267E+01  0.48890333257E+02  0.10566000000E+00 0. -1.
         13    1    1    0    0    0  0.13264924180E+02 -0.29242372520E+01 -0.96419322381E+00  0.13618010486E+02  0.10566000000E+00 0.  1.
         22    1    1    0    0    0 -0.60994183408E+02  0.11874362280E+02  0.66269308505E+01  0.62491656257E+02  0.00000000000E+00 0. -1.
</event>
<event>
 4    1  0.9856522E-003  0.9118800E+02  0.7818608E-02  0.1130116E+00
         25   -1    0    0    0    0  0.00000000000E+00  0.00000000000E+00  0.99999998245E-14  0.12500000000E+03  0.12500000000E+03 0.  0.
        -13    1    1    0    0    0 -0.34807238914E+01  0.15505066627E+02 -0.45861996023E+02  0.48537164866E+02  0.10566000000E+00 0. -1.
         13    1    1    0    0    0 -0.49067840566E-01  0.11376751574E+02 -0.94975783828E+01  0.14820527764E+02  0.10566000000E+00 0.  1.
         22    1    1    0    0    0  0.35297917320E+01 -0.26881818202E+02  0.55359574406E+02  0.61642307370E+02  0.00000000000E+00 0. -1.
</event>
<event>
 4    1  0.9856522E-003  0.9118800E+02  0.7818608E-02  0.1130116E+00
         25   -1    0    0    0    0  0.00000000000E+00  0.00000000000E+00  0.99999998245E-14  0.12500000000E+03  0.12500000000E+03 0.  0.
        -13    1    1    0    0    0  0.57531506508E+01  0.52235034343E+02 -0.24773417185E+02  0.58097598214E+02  0.10566000000E+00 0.  1.
         13    1    1    0    0    0 -0.87404927373E+00  0.31561207124E+01 -0.32667903990E+01  0.46268935184E+01  0.10566000000E+00 0. -1.
         22    1    1    0    0    0 -0.48791013771E+01 -0.55391155055E+02  0.28040207584E+02  0.62275508267E+02  0.00000000000E+00 0.  1.
</event>
<event>
 4    1  0.9856522E-003  0.9118800E+02  0.7818608E-02  0.1130116E+00
         25   -1    0    0    0    0  0.00000000000E+00  0.00000000000E+00  0.99999998245E-14  0.12500000000E+03  0.12500000000E+03 0.  0.
        -13    1    1    0    0    0  0.45948703731E+02 -0.10511153418E+01 -0.76181863935E+01  0.46587939920E+02  0.10566000000E+00 0. -1.
         13    1    1    0    0    0  0.10191003179E+02  0.50694485369E+01 -0.14067183212E+02  0.18095653120E+02  0.10566000000E+00 0.  1.
         22    1    1    0    0    0 -0.56139706910E+02 -0.40183331951E+01  0.21685369606E+02  0.60316406960E+02  0.00000000000E+00 0. -1.
</event>
<event>
 4    1  0.9856522E-003  0.9118800E+02  0.7818608E-02  0.1130116E+00
         25   -1    0    0    0    0  0.00000000000E+00  0.00000000000E+00  0.99999998245E-14  0.12500000000E+03  0.12500000000E+03 0.  0.
        -13    1    1    0    0    0 -0.20401103826E+02 -0.22511714973E+02  0.85791238837E+01  0.31568891000E+02  0.10566000000E+00 0. -1.
         13    1    1    0    0    0 -0.12644448795E+02 -0.22012314413E+02  0.18803210065E+02  0.31591073802E+02  0.10566000000E+00 0.  1.
         22    1    1    0    0    0  0.33045552622E+02  0.44524029385E+02 -0.27382333949E+02  0.61840035198E+02  0.00000000000E+00 0. -1.
</event>
<event>
 4    1  0.9856522E-003  0.9118800E+02  0.7818608E-02  0.1130116E+00
         25   -1    0    0    0    0  0.00000000000E+00  0.00000000000E+00  0.99999998245E-14  0.12500000000E+03  0.12500000000E+03 0.  0.
        -13    1    1    0    0    0 -0.42394986670E+02 -0.10335044705E+02 -0.26274119603E+02  0.50936122435E+02  0.10566000000E+00 0. -1.
         13    1    1    0    0    0 -0.96733026989E+01 -0.20019349375E+01 -0.60157099456E+01  0.11566350279E+02  0.10566000000E+00 0.  1.
         22    1    1    0    0    0  0.52068289369E+02  0.12336979643E+02  0.32289829549E+02  0.62497527285E+02  0.00000000000E+00 0. -1.
</event>
<event>
 4    1  0.9856522E-003  0.9118800E+02  0.7818608E-02  0.1130116E+00
         25   -1    0    0    0    0  0.00000000000E+00  0.00000000000E+00  0.99999998245E-14  0.12500000000E+03  0.12500000000E+03 0.  0.
        -13    1    1    0    0    0  0.24116776234E+02  0.11645903196E+01 -0.35965576132E+02  0.43318691082E+02  0.10566000000E+00 0.  1.
         13    1    1    0    0    0  0.10801713089E+02  0.29644979564E+00 -0.15848613426E+02  0.19182142729E+02  0.10566000000E+00 0. -1.
         22    1    1    0    0    0 -0.34918489323E+02 -0.14610401153E+01  0.51814189557E+02  0.62499166189E+02  0.00000000000E+00 0.  1.
</event>
<event>
 4    1  0.9856522E-003  0.9118800E+02  0.7818608E-02  0.1130116E+00
         25   -1    0    0    0    0  0.00000000000E+00  0.00000000000E+00  0.99999998245E-14  0.12500000000E+03  0.12500000000E+03 0.  0.
        -13    1    1    0    0    0  0.24686556434E+02  0.30768101816E+02  0.44798450093E+02  0.59690991387E+02  0.10566000000E+00 0.  1.
         13    1    1    0    0    0  0.13536523953E+01  0.32639436005E+01 -0.32480763687E+00  0.35499812212E+01  0.10566000000E+00 0. -1.
         22    1    1    0    0    0 -0.26040208829E+02 -0.34032045416E+02 -0.44473642457E+02  0.61759027392E+02  0.00000000000E+00 0.  1.
</event>
<event>
 4    1  0.9856522E-003  0.9118800E+02  0.7818608E-02  0.1130116E+00
         25   -1    0    0    0    0  0.00000000000E+00  0.00000000000E+00  0.99999998245E-14  0.12500000000E+03  0.12500000000E+03 0.  0.
        -13    1    1    0    0    0 -0.86087011173E+01  0.20410901567E+02  0.18615046090E+02  0.28935199026E+02  0.10566000000E+00 0. -1.
         13    1    1    0    0    0 -0.33371420619E+01 -0.34902771543E+02 -0.49055149997E+02  0.60297254364E+02  0.10566000000E+00 0.  1.
         22    1    1    0    0    0  0.11945843179E+02  0.14491869977E+02  0.30440103907E+02  0.35767546611E+02  0.00000000000E+00 0.  1.
</event>
<event>
 4    1  0.9856522E-003  0.9118800E+02  0.7818608E-02  0.1130116E+00
         25   -1    0    0    0    0  0.00000000000E+00  0.00000000000E+00  0.99999998245E-14  0.12500000000E+03  0.12500000000E+03 0.  0.
        -13    1    1    0    0    0 -0.51728259867E+01 -0.45839625915E+01  0.85021571397E+01  0.10957585582E+02  0.10566000000E+00 0. -1.
         13    1    1    0    0    0 -0.50949390721E+02  0.99146527670E+01 -0.21511092956E+02  0.56186110725E+02  0.10566000000E+00 0.  1.
         22    1    1    0    0    0  0.56122216707E+02 -0.53306901755E+01  0.13008935816E+02  0.57856303692E+02  0.00000000000E+00 0.  1.
</event>
<event>
 4    1  0.9856522E-003  0.9118800E+02  0.7818608E-02  0.1130116E+00
         25   -1    0    0    0    0  0.00000000000E+00  0.00000000000E+00  0.99999998245E-14  0.12500000000E+03  0.12500000000E+03 0.  0.
        -13    1    1    0    0    0  0.26757553027E+02 -0.95968350077E+01  0.13596324976E+02  0.31510904510E+02  0.10566000000E+00 0.  1.
         13    1    1    0    0    0  0.25166961603E+02 -0.71113460486E+01  0.16762349503E+02  0.31063398459E+02  0.10566000000E+00 0. -1.
         22    1    1    0    0    0 -0.51924514630E+02  0.16708181056E+02 -0.30358674478E+02  0.62425697031E+02  0.00000000000E+00 0. -1.
</event>
<event>
 4    1  0.9856522E-003  0.9118800E+02  0.7818608E-02  0.1130116E+00
         25   -1    0    0    0    0  0.00000000000E+00  0.00000000000E+00  0.99999998245E-14  0.12500000000E+03  0.12500000000E+03 0.  0.
        -13    1    1    0    0    0 -0.14586756418E+02 -0.25772383195E+01  0.22213590152E+02  0.26699632426E+02  0.10566000000E+00 0. -1.
         13    1    1    0    0    0 -0.19782115318E+02 -0.33019620977E+01  0.29655564043E+02  0.35800819584E+02  0.10566000000E+00 0. -1.
         22    1    1    0    0    0  0.34368871737E+02  0.58792004172E+01 -0.51869154196E+02  0.62499547990E+02  0.00000000000E+00 0. -1.
</event>
<event>
 4    1  0.9856522E-003  0.9118800E+02  0.7818608E-02  0.1130116E+00
         25   -1    0    0    0    0  0.00000000000E+00  0.00000000000E+00  0.99999998245E-14  0.12500000000E+03  0.12500000000E+03 0.  0.
        -13    1    1    0    0    0  0.22468630184E+02  0.18824894906E+02  0.21277567105E+02  0.36221016502E+02  0.10566000000E+00 0.  1.
         13    1    1    0    0    0  0.21855497480E+01  0.24506479203E+02  0.13432366231E+02  0.28031835067E+02  0.10566000000E+00 0. -1.
         22    1    1    0    0    0 -0.24654179932E+02 -0.43331374109E+02 -0.34709933336E+02  0.60747148430E+02  0.00000000000E+00 0.  1.
</event>
<event>
 4    1  0.9856522E-003  0.9118800E+02  0.7818608E-02  0.1130116E+00
         25   -1    0    0    0    0  0.00000000000E+00  0.00000000000E+00  0.99999998245E-14  0.12500000000E+03  0.12500000000E+03 0.  0.
        -13    1    1    0    0    0 -0.27463387483E+02 -0.18829350370E+02  0.10616606859E+02  0.34950044243E+02  0.10566000000E+00 0.  1.
         13    1    1    0    0    0 -0.20916429974E+02 -0.15431200575E+02  0.91541876665E+01  0.27557745008E+02  0.10566000000E+00 0. -1.
         22    1    1    0    0    0  0.48379817457E+02  0.34260550945E+02 -0.19770794525E+02  0.62492210749E+02  0.00000000000E+00 0. -1.
</event>
<event>
 4    1  0.9856522E-003  0.9118800E+02  0.7818608E-02  0.1130116E+00
         25   -1    0    0    0    0  0.00000000000E+00  0.00000000000E+00  0.99999998245E-14  0.12500000000E+03  0.12500000000E+03 0.  0.
        -13    1    1    0    0    0  0.32292504058E+02  0.84066308421E+01  0.31936538781E+02  0.46189078079E+02  0.10566000000E+00 0. -1.
         13    1    1    0    0    0  0.11665390186E+02  0.36876393037E+01  0.10801062615E+02  0.16320359355E+02  0.10566000000E+00 0.  1.
         22    1    1    0    0    0 -0.43957894244E+02 -0.12094270146E+02 -0.42737601396E+02  0.62490562566E+02  0.00000000000E+00 0. -1.
</event>
<event>
 4    1  0.9856522E-003  0.9118800E+02  0.7818608E-02  0.1130116E+00
         25   -1    0    0    0    0  0.00000000000E+00  0.00000000000E+00  0.99999998245E-14  0.12500000000E+03  0.12500000000E+03 0.  0.
        -13    1    1    0    0    0 -0.47076386115E+01  0.24795521363E+01  0.10480693694E+01  0.54239887105E+01  0.10566000000E+00 0.  1.
         13    1    1    0    0    0 -0.48977426646E+02  0.26575639755E+02  0.12360095896E+02  0.57077456880E+02  0.10566000000E+00 0. -1.
         22    1    1    0    0    0  0.53685065258E+02 -0.29055191891E+02 -0.13408165265E+02  0.62498554410E+02  0.00000000000E+00 0. -1.
</event>
<event>
 4    1  0.9856522E-003  0.9118800E+02  0.7818608E-02  0.1130116E+00
         25   -1    0    0    0    0  0.00000000000E+00  0.00000000000E+00  0.99999998245E-14  0.12500000000E+03  0.12500000000E+03 0.  0.
        -13    1    1    0    0    0  0.23586908741E+01  0.58858663387E+01  0.24120825342E+01  0.67849945751E+01  0.10566000000E+00 0. -1.
         13    1    1    0    0    0  0.19824189802E+02  0.48645289042E+02  0.18572526594E+02  0.55716358059E+02  0.10566000000E+00 0.  1.
         22    1    1    0    0    0 -0.22182880676E+02 -0.54531155381E+02 -0.20984609128E+02  0.62498647365E+02  0.00000000000E+00 0.  1.
</event>
<event>
 4    1  0.9856522E-003  0.9118800E+02  0.7818608E-02  0.1130116E+00
         25   -1    0    0    0    0  0.00000000000E+00  0.00000000000E+00  0.99999998245E-14  0.12500000000E+03  0.12500000000E+03 0.  0.
        -13    1    1    0    0    0 -0.26327147200E+02 -0.38706204796E+01 -0.14524063329E+02  0.30316001752E+02  0.10566000000E+00 0. -1.
         13    1    1    0    0    0 -0.27754168027E+02 -0.43550114854E+01 -0.15703299873E+02  0.32184852941E+02  0.10566000000E+00 0.  1.
         22    1    1    0    0    0  0.54081315227E+02  0.82256319651E+01  0.30227363202E+02  0.62499145307E+02  0.00000000000E+00 0.  1.
</event>
<event>
 4    1  0.9856522E-003  0.9118800E+02  0.7818608E-02  0.1130116E+00
         25   -1    0    0    0    0  0.00000000000E+00  0.00000000000E+00  0.99999998245E-14  0.12500000000E+03  0.12500000000E+03 0.  0.
        -13    1    1    0    0    0  0.14887200601E+02 -0.21823732887E+02 -0.10073051267E+02  0.28273336993E+02  0.10566000000E+00 0.  1.
         13    1    1    0    0    0  0.17886637123E+02 -0.26833387510E+02 -0.11474461681E+02  0.34229182107E+02  0.10566000000E+00 0. -1.
         22    1    1    0    0    0 -0.32773837724E+02  0.48657120397E+02  0.21547512949E+02  0.62497480899E+02  0.00000000000E+00 0. -1.
</event>
<event>
 4    1  0.9856522E-003  0.9118800E+02  0.7818608E-02  0.1130116E+00
         25   -1    0    0    0    0  0.00000000000E+00  0.00000000000E+00  0.99999998245E-14  0.12500000000E+03  0.12500000000E+03 0.  0.
        -13    1    1    0    0    0 -0.79360283778E+00 -0.33159960324E+02 -0.47455931305E+02  0.57898958144E+02  0.10566000000E+00 0.  1.
         13    1    1    0    0    0 -0.12313893071E+00 -0.25786341596E+01 -0.38083751656E+01  0.46021085127E+01  0.10566000000E+00 0.  1.
         22    1    1    0    0    0  0.91674176849E+00  0.35738594483E+02  0.51264306471E+02  0.62498933343E+02  0.00000000000E+00 0.  1.
</event>
<event>
 4    1  0.9856522E-003  0.9118800E+02  0.7818608E-02  0.1130116E+00
         25   -1    0    0    0    0  0.00000000000E+00  0.00000000000E+00  0.99999998245E-14  0.12500000000E+03  0.12500000000E+03 0.  0.
        -13    1    1    0    0    0 -0.35144654559E+02 -0.86770708452E+01  0.10954940851E+02  0.37821425087E+02  0.10566000000E+00 0. -1.
         13    1    1    0    0    0 -0.23489892991E+02 -0.26270922376E+01  0.72967965288E+01  0.24737240953E+02  0.10566000000E+00 0.  1.
         22    1    1    0    0    0  0.58634547550E+02  0.11304163083E+02 -0.18251737380E+02  0.62441333960E+02  0.00000000000E+00 0. -1.
</event>
<event>
 4    1  0.9856522E-003  0.9118800E+02  0.7818608E-02  0.1130116E+00
         25   -1    0    0    0    0  0.00000000000E+00  0.00000000000E+00  0.99999998245E-14  0.12500000000E+03  0.12500000000E+03 0.  0.
        -13    1    1    0    0    0  0.12977189878E+01  0.38622456258E+00  0.10243987736E+01  0.17011175347E+01  0.10566000000E+00 0.  1.
         13    1    1    0    0    0  0.47398015742E+02 -0.36508640936E+02  0.12635372557E+02  0.61148316109E+02  0.10566000000E+00 0. -1.
         22    1    1    0    0    0 -0.48695734730E+02  0.36122416373E+02 -0.13659771330E+02  0.62150566356E+02  0.00000000000E+00 0. -1.
</event>
<event>
 4    1  0.9856522E-003  0.9118800E+02  0.7818608E-02  0.1130116E+00
         25   -1    0    0    0    0  0.00000000000E+00  0.00000000000E+00  0.99999998245E-14  0.12500000000E+03  0.12500000000E+03 0.  0.
        -13    1    1    0    0    0  0.57098932789E+02 -0.25892004007E+01  0.25204405952E+00  0.57158260773E+02  0.10566000000E+00 0.  1.
         13    1    1    0    0    0  0.53315880733E+01 -0.29912507969E+00 -0.19038638876E+00  0.53444099963E+01  0.10566000000E+00 0. -1.
         22    1    1    0    0    0 -0.62430520863E+02  0.28883254804E+01 -0.61657670758E-01  0.62497329230E+02  0.00000000000E+00 0.  1.
</event>
<event>
 4    1  0.9856522E-003  0.9118800E+02  0.7818608E-02  0.1130116E+00
         25   -1    0    0    0    0  0.00000000000E+00  0.00000000000E+00  0.99999998245E-14  0.12500000000E+03  0.12500000000E+03 0.  0.
        -13    1    1    0    0    0  0.84424152034E+01  0.51766855900E+02  0.85401347669E+01  0.53141573275E+02  0.10566000000E+00 0. -1.
         13    1    1    0    0    0  0.16499144656E+01  0.90993931550E+01  0.14379404521E+01  0.93594877163E+01  0.10566000000E+00 0.  1.
         22    1    1    0    0    0 -0.10092329669E+02 -0.60866249055E+02 -0.99780752190E+01  0.62498939009E+02  0.00000000000E+00 0. -1.
</event>
<event>
 4    1  0.9856522E-003  0.9118800E+02  0.7818608E-02  0.1130116E+00
         25   -1    0    0    0    0  0.00000000000E+00  0.00000000000E+00  0.99999998245E-14  0.12500000000E+03  0.12500000000E+03 0.  0.
        -13    1    1    0    0    0 -0.39460701043E+02 -0.70975923967E+01  0.18643215972E+02  0.44216551318E+02  0.10566000000E+00 0. -1.
         13    1    1    0    0    0 -0.16030606119E+02 -0.35448530407E+01  0.80584595300E+01  0.18289238630E+02  0.10566000000E+00 0.  1.
         22    1    1    0    0    0  0.55491307162E+02  0.10642445437E+02 -0.26701675502E+02  0.62494210052E+02  0.00000000000E+00 0.  1.
</event>
<event>
 4    1  0.9856522E-003  0.9118800E+02  0.7818608E-02  0.1130116E+00
         25   -1    0    0    0    0  0.00000000000E+00  0.00000000000E+00  0.99999998245E-14  0.12500000000E+03  0.12500000000E+03 0.  0.
        -13    1    1    0    0    0  0.59064868252E+01  0.36723222939E+02  0.21950807241E+02  0.43189475480E+02  0.10566000000E+00 0. -1.
         13    1    1    0    0    0  0.14895950078E+01  0.15777304766E+02  0.11086528801E+02  0.19340747759E+02  0.10566000000E+00 0.  1.
         22    1    1    0    0    0 -0.73960818330E+01 -0.52500527705E+02 -0.33037336043E+02  0.62469776761E+02  0.00000000000E+00 0. -1.
</event>
<event>
 4    1  0.9856522E-003  0.9118800E+02  0.7818608E-02  0.1130116E+00
         25   -1    0    0    0    0  0.00000000000E+00  0.00000000000E+00  0.99999998245E-14  0.12500000000E+03  0.12500000000E+03 0.  0.
        -13    1    1    0    0    0 -0.10518752896E+02 -0.77496776501E+01 -0.23089748459E+02  0.26530158576E+02  0.10566000000E+00 0. -1.
         13    1    1    0    0    0 -0.20464572720E+02 -0.19552834177E+02 -0.23083371068E+02  0.36523488947E+02  0.10566000000E+00 0.  1.
         22    1    1    0    0    0  0.30983325616E+02  0.27302511827E+02  0.46173119527E+02  0.61946352476E+02  0.00000000000E+00 0.  1.
</event>
<event>
 4    1  0.9856522E-003  0.9118800E+02  0.7818608E-02  0.1130116E+00
         25   -1    0    0    0    0  0.00000000000E+00  0.00000000000E+00  0.99999998245E-14  0.12500000000E+03  0.12500000000E+03 0.  0.
        -13    1    1    0    0    0 -0.13755113010E+02 -0.97066929292E+01  0.11940334725E+02  0.20639907435E+02  0.10566000000E+00 0. -1.
         13    1    1    0    0    0 -0.28547673996E+02 -0.18758318864E+02  0.24200021258E+02  0.41862828501E+02  0.10566000000E+00 0.  1.
         22    1    1    0    0    0  0.42302787006E+02  0.28465011794E+02 -0.36140355983E+02  0.62497264064E+02  0.00000000000E+00 0.  1.
</event>
<event>
 4    1  0.9856522E-003  0.9118800E+02  0.7818608E-02  0.1130116E+00
         25   -1    0    0    0    0  0.00000000000E+00  0.00000000000E+00  0.99999998245E-14  0.12500000000E+03  0.12500000000E+03 0.  0.
        -13    1    1    0    0    0 -0.24325455534E+02  0.15880562699E+02 -0.18155690809E+02  0.34257266840E+02  0.10566000000E+00 0.  1.
         13    1    1    0    0    0 -0.20680203250E+02  0.12927588706E+02 -0.14251770954E+02  0.28247433433E+02  0.10566000000E+00 0. -1.
         22    1    1    0    0    0  0.45005658784E+02 -0.28808151405E+02  0.32407461762E+02  0.62495299726E+02  0.00000000000E+00 0. -1.
</event>
<event>
 4    1  0.9856522E-003  0.9118800E+02  0.7818608E-02  0.1130116E+00
         25   -1    0    0    0    0  0.00000000000E+00  0.00000000000E+00  0.99999998245E-14  0.12500000000E+03  0.12500000000E+03 0.  0.
        -13    1    1    0    0    0 -0.32312023406E+01 -0.27645579439E+01 -0.18348777879E+01  0.46326439237E+01  0.10566000000E+00 0. -1.
         13    1    1    0    0    0 -0.36010804375E+02 -0.42338644647E+02 -0.16247084185E+02  0.57907838596E+02  0.10566000000E+00 0.  1.
         22    1    1    0    0    0  0.39242006716E+02  0.45103202591E+02  0.18081961973E+02  0.62459517480E+02  0.00000000000E+00 0.  1.
</event>
<event>
 4    1  0.9856522E-003  0.9118800E+02  0.7818608E-02  0.1130116E+00
         25   -1    0    0    0    0  0.00000000000E+00  0.00000000000E+00  0.99999998245E-14  0.12500000000E+03  0.12500000000E+03 0.  0.
        -13    1    1    0    0    0 -0.97057928689E+00  0.26493986677E+01 -0.40272403359E+01  0.49184516071E+01  0.10566000000E+00 0.  1.
         13    1    1    0    0    0 -0.18871828268E+02  0.28545247087E+02 -0.46337919628E+02  0.57603741137E+02  0.10566000000E+00 0. -1.
         22    1    1    0    0    0  0.19842407555E+02 -0.31194645755E+02  0.50365159964E+02  0.62477807256E+02  0.00000000000E+00 0. -1.
</event>
<event>
 4    1  0.9856522E-003  0.9118800E+02  0.7818608E-02  0.1130116E+00
         25   -1    0    0    0    0  0.00000000000E+00  0.00000000000E+00  0.99999998245E-14  0.12500000000E+03  0.12500000000E+03 0.  0.
        -13    1    1    0    0    0 -0.33125855004E+01 -0.24478238219E+02 -0.14864242675E+02  0.28829052071E+02  0.10566000000E+00 0.  1.
         13    1    1    0    0    0 -0.35784412835E+01 -0.28430726429E+02 -0.17682516164E+02  0.33671857526E+02  0.10566000000E+00 0.  1.
         22    1    1    0    0    0  0.68910267839E+01  0.52908964648E+02  0.32546758840E+02  0.62499090403E+02  0.00000000000E+00 0.  1.
</event>
<event>
 4    1  0.9856522E-003  0.9118800E+02  0.7818608E-02  0.1130116E+00
         25   -1    0    0    0    0  0.00000000000E+00  0.00000000000E+00  0.99999998245E-14  0.12500000000E+03  0.12500000000E+03 0.  0.
        -13    1    1    0    0    0  0.37252496940E+02  0.21206661050E+02 -0.88488431210E+01  0.43769672032E+02  0.10566000000E+00 0. -1.
         13    1    1    0    0    0  0.16022828623E+02  0.88760791106E+01 -0.39151143108E+01  0.18731126543E+02  0.10566000000E+00 0. -1.
         22    1    1    0    0    0 -0.53275325563E+02 -0.30082740161E+02  0.12763957432E+02  0.62499201425E+02  0.00000000000E+00 0. -1.
</event>
<event>
 4    1  0.9856522E-003  0.9118800E+02  0.7818608E-02  0.1130116E+00
         25   -1    0    0    0    0  0.00000000000E+00  0.00000000000E+00  0.99999998245E-14  0.12500000000E+03  0.12500000000E+03 0.  0.
        -13    1    1    0    0    0 -0.25176347514E+02  0.53952331448E+02 -0.29780301237E+01  0.59611931443E+02  0.10566000000E+00 0. -1.
         13    1    1    0    0    0 -0.84286187208E+00  0.27643430427E+01 -0.26260311397E+00  0.29038135313E+01  0.10566000000E+00 0.  1.
         22    1    1    0    0    0  0.26019209386E+02 -0.56716674491E+02  0.32406332377E+01  0.62484255026E+02  0.00000000000E+00 0. -1.
</event>
<event>
 4    1  0.9856522E-003  0.9118800E+02  0.7818608E-02  0.1130116E+00
         25   -1    0    0    0    0  0.00000000000E+00  0.00000000000E+00  0.99999998245E-14  0.12500000000E+03  0.12500000000E+03 0.  0.
        -13    1    1    0    0    0 -0.34048629941E+02  0.91384327013E+01 -0.91696170368E+01  0.36426819704E+02  0.10566000000E+00 0.  1.
         13    1    1    0    0    0 -0.21166643417E+02  0.13090048641E+02 -0.88010062393E+01  0.26397822672E+02  0.10566000000E+00 0. -1.
         22    1    1    0    0    0  0.55215273358E+02 -0.22228481342E+02  0.17970623276E+02  0.62175357624E+02  0.00000000000E+00 0.  1.
</event>
<event>
 4    1  0.9856522E-003  0.9118800E+02  0.7818608E-02  0.1130116E+00
         25   -1    0    0    0    0  0.00000000000E+00  0.00000000000E+00  0.99999998245E-14  0.12500000000E+03  0.12500000000E+03 0.  0.
        -13    1    1    0    0    0 -0.25107850052E+02 -0.18307312644E+02 -0.11955057000E+02  0.33294089301E+02  0.10566000000E+00 0. -1.
         13    1    1    0    0    0 -0.23031042443E+02 -0.14819262571E+02 -0.10180836516E+02  0.29218145994E+02  0.10566000000E+00 0.  1.
         22    1    1    0    0    0  0.48138892494E+02  0.33126575215E+02  0.22135893516E+02  0.62487764705E+02  0.00000000000E+00 0. -1.
</event>
<event>
 4    1  0.9856522E-003  0.9118800E+02  0.7818608E-02  0.1130116E+00
         25   -1    0    0    0    0  0.00000000000E+00  0.00000000000E+00  0.99999998245E-14  0.12500000000E+03  0.12500000000E+03 0.  0.
        -13    1    1    0    0    0 -0.26495176597E+02 -0.43163846495E+01 -0.37405831138E+02  0.46041643395E+02  0.10566000000E+00 0.  1.
         13    1    1    0    0    0 -0.91677606653E+01 -0.19067205842E+01 -0.13538219952E+02  0.16461408885E+02  0.10566000000E+00 0. -1.
         22    1    1    0    0    0  0.35662937262E+02  0.62231052338E+01  0.50944051089E+02  0.62496947720E+02  0.00000000000E+00 0.  1.
</event>
<event>
 4    1  0.9856522E-003  0.9118800E+02  0.7818608E-02  0.1130116E+00
         25   -1    0    0    0    0  0.00000000000E+00  0.00000000000E+00  0.99999998245E-14  0.12500000000E+03  0.12500000000E+03 0.  0.
        -13    1    1    0    0    0 -0.92544528968E+01 -0.28469280677E+01  0.10035752621E+02  0.13945515141E+02  0.10566000000E+00 0.  1.
         13    1    1    0    0    0 -0.28635989113E+02 -0.36123947102E+02 -0.27847599513E+02  0.53855913226E+02  0.10566000000E+00 0. -1.
         22    1    1    0    0    0  0.37890442009E+02  0.38970875170E+02  0.17811846891E+02  0.57198571633E+02  0.00000000000E+00 0. -1.
</event>
<event>
 4    1  0.9856522E-003  0.9118800E+02  0.7818608E-02  0.1130116E+00
         25   -1    0    0    0    0  0.00000000000E+00  0.00000000000E+00  0.99999998245E-14  0.12500000000E+03  0.12500000000E+03 0.  0.
        -13    1    1    0    0    0  0.52155942269E+01 -0.51695092798E+01 -0.67782066659E+01  0.99940731924E+01  0.10566000000E+00 0. -1.
         13    1    1    0    0    0  0.36431785445E+00 -0.34465548679E+01 -0.53624852796E+02  0.53736835313E+02  0.10566000000E+00 0.  1.
         22    1    1    0    0    0 -0.55799120814E+01  0.86160641477E+01  0.60403059462E+02  0.61269091495E+02  0.00000000000E+00 0.  1.
</event>
<event>
 4    1  0.9856522E-003  0.9118800E+02  0.7818608E-02  0.1130116E+00
         25   -1    0    0    0    0  0.00000000000E+00  0.00000000000E+00  0.99999998245E-14  0.12500000000E+03  0.12500000000E+03 0.  0.
        -13    1    1    0    0    0  0.65668162922E+01 -0.22357295380E+02 -0.47517064326E+02  0.52923097974E+02  0.10566000000E+00 0. -1.
         13    1    1    0    0    0  0.16001040720E+02  0.72821902536E+01  0.26162783047E+00  0.17582468888E+02  0.10566000000E+00 0.  1.
         22    1    1    0    0    0 -0.22567857013E+02  0.15075105126E+02  0.47255436496E+02  0.54494433139E+02  0.00000000000E+00 0. -1.
</event>
<event>
 4    1  0.9856522E-003  0.9118800E+02  0.7818608E-02  0.1130116E+00
         25   -1    0    0    0    0  0.00000000000E+00  0.00000000000E+00  0.99999998245E-14  0.12500000000E+03  0.12500000000E+03 0.  0.
        -13    1    1    0    0    0 -0.98045644605E+01 -0.73673754286E+01 -0.27477755710E+00  0.12267614752E+02  0.10566000000E+00 0.  1.
         13    1    1    0    0    0 -0.45674094930E+02  0.23508411944E+02  0.14206827993E+02  0.53297406179E+02  0.10566000000E+00 0. -1.
         22    1    1    0    0    0  0.55478659390E+02 -0.16141036516E+02 -0.13932050436E+02  0.59434979069E+02  0.00000000000E+00 0. -1.
</event>
<event>
 4    1  0.9856522E-003  0.9118800E+02  0.7818608E-02  0.1130116E+00
         25   -1    0    0    0    0  0.00000000000E+00  0.00000000000E+00  0.99999998245E-14  0.12500000000E+03  0.12500000000E+03 0.  0.
        -13    1    1    0    0    0 -0.23285030426E+02 -0.73883204185E+01 -0.19945954521E+02  0.31537789814E+02  0.10566000000E+00 0. -1.
         13    1    1    0    0    0 -0.20950963609E+02 -0.36730563989E+01 -0.22644029674E+02  0.31067627256E+02  0.10566000000E+00 0.  1.
         22    1    1    0    0    0  0.44235994034E+02  0.11061376817E+02  0.42589984195E+02  0.62394582930E+02  0.00000000000E+00 0. -1.
</event>
<event>
 4    1  0.9856522E-003  0.9118800E+02  0.7818608E-02  0.1130116E+00
         25   -1    0    0    0    0  0.00000000000E+00  0.00000000000E+00  0.99999998245E-14  0.12500000000E+03  0.12500000000E+03 0.  0.
        -13    1    1    0    0    0 -0.13826908415E+02  0.99552609806E+01  0.30383608244E+01  0.17307033774E+02  0.10566000000E+00 0.  1.
         13    1    1    0    0    0 -0.40788997485E+02  0.97501033923E+01 -0.21018763284E+02  0.46910621463E+02  0.10566000000E+00 0. -1.
         22    1    1    0    0    0  0.54615905900E+02 -0.19705364373E+02  0.17980402459E+02  0.60782344764E+02  0.00000000000E+00 0. -1.
</event>
<event>
 4    1  0.9856522E-003  0.9118800E+02  0.7818608E-02  0.1130116E+00
         25   -1    0    0    0    0  0.00000000000E+00  0.00000000000E+00  0.99999998245E-14  0.12500000000E+03  0.12500000000E+03 0.  0.
        -13    1    1    0    0    0  0.21248306882E+02  0.74704641821E+01 -0.15295431248E+02  0.27226086049E+02  0.10566000000E+00 0. -1.
         13    1    1    0    0    0  0.27134973776E+02  0.68715161191E+01 -0.21519971206E+02  0.35307858337E+02  0.10566000000E+00 0.  1.
         22    1    1    0    0    0 -0.48383280658E+02 -0.14341980301E+02  0.36815402454E+02  0.62466055614E+02  0.00000000000E+00 0.  1.
</event>
<event>
 4    1  0.9856522E-003  0.9118800E+02  0.7818608E-02  0.1130116E+00
         25   -1    0    0    0    0  0.00000000000E+00  0.00000000000E+00  0.99999998245E-14  0.12500000000E+03  0.12500000000E+03 0.  0.
        -13    1    1    0    0    0  0.11530737215E+02 -0.16242278932E+02  0.47328024601E+02  0.51349027277E+02  0.10566000000E+00 0. -1.
         13    1    1    0    0    0  0.71551842594E+01 -0.25767250361E+01  0.87648798590E+01  0.11604760087E+02  0.10566000000E+00 0.  1.
         22    1    1    0    0    0 -0.18685921475E+02  0.18819003968E+02 -0.56092904460E+02  0.62046212636E+02  0.00000000000E+00 0.  1.
</event>
<event>
 4    1  0.9856522E-003  0.9118800E+02  0.7818608E-02  0.1130116E+00
         25   -1    0    0    0    0  0.00000000000E+00  0.00000000000E+00  0.99999998245E-14  0.12500000000E+03  0.12500000000E+03 0.  0.
        -13    1    1    0    0    0  0.17384996673E+02  0.39499799670E+02  0.18493109390E+02  0.46951874747E+02  0.10566000000E+00 0. -1.
         13    1    1    0    0    0  0.11409501513E+02  0.12158010559E+02 -0.35150766365E+01  0.17039978677E+02  0.10566000000E+00 0.  1.
         22    1    1    0    0    0 -0.28794498186E+02 -0.51657810229E+02 -0.14978032754E+02  0.61008146576E+02  0.00000000000E+00 0. -1.
</event>
<event>
 4    1  0.9856522E-003  0.9118800E+02  0.7818608E-02  0.1130116E+00
         25   -1    0    0    0    0  0.00000000000E+00  0.00000000000E+00  0.99999998245E-14  0.12500000000E+03  0.12500000000E+03 0.  0.
        -13    1    1    0    0    0  0.44862341587E+02 -0.36982417052E+01  0.25272374767E+02  0.51623742355E+02  0.10566000000E+00 0. -1.
         13    1    1    0    0    0  0.11262530285E+02 -0.19002447369E+01  0.34619122379E+00  0.11427446385E+02  0.10566000000E+00 0.  1.
         22    1    1    0    0    0 -0.56124871872E+02  0.55984864421E+01 -0.25618565990E+02  0.61948811260E+02  0.00000000000E+00 0. -1.
</event>
<event>
 4    1  0.9856522E-003  0.9118800E+02  0.7818608E-02  0.1130116E+00
         25   -1    0    0    0    0  0.00000000000E+00  0.00000000000E+00  0.99999998245E-14  0.12500000000E+03  0.12500000000E+03 0.  0.
        -13    1    1    0    0    0 -0.23025748874E+02  0.30754734052E+01  0.18922545056E+02  0.29961934572E+02  0.10566000000E+00 0.  1.
         13    1    1    0    0    0 -0.24609450824E+02  0.50078807217E+01  0.20705860594E+02  0.32549159224E+02  0.10566000000E+00 0. -1.
         22    1    1    0    0    0  0.47635199698E+02 -0.80833541270E+01 -0.39628405650E+02  0.62488906204E+02  0.00000000000E+00 0. -1.
</event>
<event>
 4    1  0.9856522E-003  0.9118800E+02  0.7818608E-02  0.1130116E+00
         25   -1    0    0    0    0  0.00000000000E+00  0.00000000000E+00  0.99999998245E-14  0.12500000000E+03  0.12500000000E+03 0.  0.
        -13    1    1    0    0    0 -0.16286681322E+02 -0.99384239294E+00 -0.32975287264E+02  0.36791635535E+02  0.10566000000E+00 0. -1.
         13    1    1    0    0    0 -0.11694416872E+02 -0.51227619861E+00 -0.22889781337E+02  0.25709435361E+02  0.10566000000E+00 0.  1.
         22    1    1    0    0    0  0.27981098194E+02  0.15061185916E+01  0.55865068601E+02  0.62498929104E+02  0.00000000000E+00 0.  1.
</event>
<event>
 4    1  0.9856522E-003  0.9118800E+02  0.7818608E-02  0.1130116E+00
         25   -1    0    0    0    0  0.00000000000E+00  0.00000000000E+00  0.99999998245E-14  0.12500000000E+03  0.12500000000E+03 0.  0.
        -13    1    1    0    0    0  0.26338730626E+01 -0.10260601028E+02 -0.67388247670E+01  0.12555482629E+02  0.10566000000E+00 0.  1.
         13    1    1    0    0    0  0.30634047270E+02 -0.31626729610E+02 -0.24612484579E+02  0.50442843290E+02  0.10566000000E+00 0. -1.
         22    1    1    0    0    0 -0.33267920333E+02  0.41887330638E+02  0.31351309346E+02  0.62001674082E+02  0.00000000000E+00 0. -1.
</event>
<event>
 4    1  0.9856522E-003  0.9118800E+02  0.7818608E-02  0.1130116E+00
         25   -1    0    0    0    0  0.00000000000E+00  0.00000000000E+00  0.99999998245E-14  0.12500000000E+03  0.12500000000E+03 0.  0.
        -13    1    1    0    0    0 -0.10549718977E+02  0.32318815775E+02  0.35399824968E+00  0.33999101493E+02  0.10566000000E+00 0.  1.
         13    1    1    0    0    0  0.16600844399E+02  0.26454055131E+02  0.51816767016E+01  0.31658585015E+02  0.10566000000E+00 0. -1.
         22    1    1    0    0    0 -0.60511254225E+01 -0.58772870906E+02 -0.55356749512E+01  0.59342313492E+02  0.00000000000E+00 0. -1.
</event>
<event>
 4    1  0.9856522E-003  0.9118800E+02  0.7818608E-02  0.1130116E+00
         25   -1    0    0    0    0  0.00000000000E+00  0.00000000000E+00  0.99999998245E-14  0.12500000000E+03  0.12500000000E+03 0.  0.
        -13    1    1    0    0    0  0.18048365177E+02  0.32999409539E+02 -0.16886298532E+02  0.41229391914E+02  0.10566000000E+00 0. -1.
         13    1    1    0    0    0  0.91440743111E+01  0.16907049372E+02 -0.91126530454E+01  0.21272376995E+02  0.10566000000E+00 0.  1.
         22    1    1    0    0    0 -0.27192439488E+02 -0.49906458911E+02  0.25998951578E+02  0.62498231090E+02  0.00000000000E+00 0. -1.
</event>
<event>
 4    1  0.9856522E-003  0.9118800E+02  0.7818608E-02  0.1130116E+00
         25   -1    0    0    0    0  0.00000000000E+00  0.00000000000E+00  0.99999998245E-14  0.12500000000E+03  0.12500000000E+03 0.  0.
        -13    1    1    0    0    0 -0.18203757713E+02  0.39307382972E+02  0.50797373313E+01  0.43614929168E+02  0.10566000000E+00 0. -1.
         13    1    1    0    0    0 -0.20460505250E+02  0.51214300388E+01 -0.76386797858E+01  0.22432608267E+02  0.10566000000E+00 0.  1.
         22    1    1    0    0    0  0.38664262963E+02 -0.44428813011E+02  0.25589424545E+01  0.58952462565E+02  0.00000000000E+00 0. -1.
</event>
<event>
 4    1  0.9856522E-003  0.9118800E+02  0.7818608E-02  0.1130116E+00
         25   -1    0    0    0    0  0.00000000000E+00  0.00000000000E+00  0.99999998245E-14  0.12500000000E+03  0.12500000000E+03 0.  0.
        -13    1    1    0    0    0 -0.11371381561E+01 -0.14416366768E+02 -0.18337297446E+02  0.23353636883E+02  0.10566000000E+00 0.  1.
         13    1    1    0    0    0 -0.92493428528E+01 -0.27184692256E+02 -0.26878831494E+02  0.39332436776E+02  0.10566000000E+00 0. -1.
         22    1    1    0    0    0  0.10386481009E+02  0.41601059024E+02  0.45216128940E+02  0.62313926341E+02  0.00000000000E+00 0.  1.
</event>
<event>
 4    1  0.9856522E-003  0.9118800E+02  0.7818608E-02  0.1130116E+00
         25   -1    0    0    0    0  0.00000000000E+00  0.00000000000E+00  0.99999998245E-14  0.12500000000E+03  0.12500000000E+03 0.  0.
        -13    1    1    0    0    0  0.83603849619E+01  0.14710081398E+02  0.56499567051E+01  0.17838601578E+02  0.10566000000E+00 0.  1.
         13    1    1    0    0    0 -0.99384301914E-02  0.45004663879E+02 -0.11875075767E+02  0.46545122818E+02  0.10566000000E+00 0. -1.
         22    1    1    0    0    0 -0.83504465317E+01 -0.59714745277E+02  0.62251190622E+01  0.60616275604E+02  0.00000000000E+00 0. -1.
</event>
<event>
 4    1  0.9856522E-003  0.9118800E+02  0.7818608E-02  0.1130116E+00
         25   -1    0    0    0    0  0.00000000000E+00  0.00000000000E+00  0.99999998245E-14  0.12500000000E+03  0.12500000000E+03 0.  0.
        -13    1    1    0    0    0  0.22798894521E+02  0.13741431157E+02 -0.27600770525E+02  0.38346189110E+02  0.10566000000E+00 0. -1.
         13    1    1    0    0    0 -0.16700122058E+01  0.12208618957E+02 -0.22939041555E+02  0.26039395329E+02  0.10566000000E+00 0.  1.
         22    1    1    0    0    0 -0.21128882316E+02 -0.25950050114E+02  0.50539812080E+02  0.60614415562E+02  0.00000000000E+00 0. -1.
</event>
<event>
 4    1  0.9856522E-003  0.9118800E+02  0.7818608E-02  0.1130116E+00
         25   -1    0    0    0    0  0.00000000000E+00  0.00000000000E+00  0.99999998245E-14  0.12500000000E+03  0.12500000000E+03 0.  0.
        -13    1    1    0    0    0 -0.78750189992E+01  0.30791862961E+02  0.18524993226E+02  0.36787787198E+02  0.10566000000E+00 0.  1.
         13    1    1    0    0    0 -0.59168823240E+01  0.21142180694E+02  0.13388976439E+02  0.25715309741E+02  0.10566000000E+00 0. -1.
         22    1    1    0    0    0  0.13791901323E+02 -0.51934043655E+02 -0.31913969665E+02  0.62496903061E+02  0.00000000000E+00 0. -1.
</event>
<event>
 4    1  0.9856522E-003  0.9118800E+02  0.7818608E-02  0.1130116E+00
         25   -1    0    0    0    0  0.00000000000E+00  0.00000000000E+00  0.99999998245E-14  0.12500000000E+03  0.12500000000E+03 0.  0.
        -13    1    1    0    0    0 -0.21522399848E+01  0.76705020842E-01 -0.43770331307E+01  0.48793036056E+01  0.10566000000E+00 0.  1.
         13    1    1    0    0    0 -0.58054643634E+02  0.15229390428E+01  0.12331648132E+02  0.59369535121E+02  0.10566000000E+00 0. -1.
         22    1    1    0    0    0  0.60206883619E+02 -0.15996440637E+01 -0.79546150013E+01  0.60751161273E+02  0.00000000000E+00 0. -1.
</event>
<event>
 4    1  0.9856522E-003  0.9118800E+02  0.7818608E-02  0.1130116E+00
         25   -1    0    0    0    0  0.00000000000E+00  0.00000000000E+00  0.99999998245E-14  0.12500000000E+03  0.12500000000E+03 0.  0.
        -13    1    1    0    0    0 -0.10765578692E+02 -0.20180554032E+02  0.19918184434E+02  0.30329815047E+02  0.10566000000E+00 0.  1.
         13    1    1    0    0    0 -0.19534287061E+02  0.24850485857E+02  0.24990512273E+02  0.40294812147E+02  0.10566000000E+00 0. -1.
         22    1    1    0    0    0  0.30299865753E+02 -0.46699318247E+01 -0.44908696706E+02  0.54375372806E+02  0.00000000000E+00 0.  1.
</event>
<event>
 4    1  0.9856522E-003  0.9118800E+02  0.7818608E-02  0.1130116E+00
         25   -1    0    0    0    0  0.00000000000E+00  0.00000000000E+00  0.99999998245E-14  0.12500000000E+03  0.12500000000E+03 0.  0.
        -13    1    1    0    0    0  0.18896942804E+02 -0.13274901074E+02  0.20382079150E+02  0.30801911635E+02  0.10566000000E+00 0.  1.
         13    1    1    0    0    0  0.19249775064E+02 -0.14347982111E+02  0.20700120376E+02  0.31700545394E+02  0.10566000000E+00 0. -1.
         22    1    1    0    0    0 -0.38146717868E+02  0.27622883185E+02 -0.41082199526E+02  0.62497542971E+02  0.00000000000E+00 0. -1.
</event>
<event>
 4    1  0.9856522E-003  0.9118800E+02  0.7818608E-02  0.1130116E+00
         25   -1    0    0    0    0  0.00000000000E+00  0.00000000000E+00  0.99999998245E-14  0.12500000000E+03  0.12500000000E+03 0.  0.
        -13    1    1    0    0    0 -0.10428082046E+02 -0.13184778083E+02  0.48410261009E+02  0.51245954018E+02  0.10566000000E+00 0. -1.
         13    1    1    0    0    0 -0.16722464143E+01 -0.29627632514E+01  0.10734878081E+02  0.11261578291E+02  0.10566000000E+00 0.  1.
         22    1    1    0    0    0  0.12100328460E+02  0.16147541334E+02 -0.59145139090E+02  0.62492467690E+02  0.00000000000E+00 0. -1.
</event>
<event>
 4    1  0.9856522E-003  0.9118800E+02  0.7818608E-02  0.1130116E+00
         25   -1    0    0    0    0  0.00000000000E+00  0.00000000000E+00  0.99999998245E-14  0.12500000000E+03  0.12500000000E+03 0.  0.
        -13    1    1    0    0    0  0.31433522208E+01  0.48761347886E+01  0.97315321644E+01  0.11330103087E+02  0.10566000000E+00 0.  1.
         13    1    1    0    0    0  0.14106446027E+02  0.22558943866E+02  0.43709407866E+02  0.51170511702E+02  0.10566000000E+00 0.  1.
         22    1    1    0    0    0 -0.17249798248E+02 -0.27435078655E+02 -0.53440940030E+02  0.62499385211E+02  0.00000000000E+00 0.  1.
</event>
<event>
 4    1  0.9856522E-003  0.9118800E+02  0.7818608E-02  0.1130116E+00
         25   -1    0    0    0    0  0.00000000000E+00  0.00000000000E+00  0.99999998245E-14  0.12500000000E+03  0.12500000000E+03 0.  0.
        -13    1    1    0    0    0  0.29042286717E+02 -0.24132957169E+02  0.11718583676E+02  0.39537202820E+02  0.10566000000E+00 0. -1.
         13    1    1    0    0    0  0.17743703607E+02 -0.15184179256E+02 -0.58047512939E+01  0.24064592641E+02  0.10566000000E+00 0.  1.
         22    1    1    0    0    0 -0.46785990324E+02  0.39317136424E+02 -0.59138323820E+01  0.61398204539E+02  0.00000000000E+00 0. -1.
</event>
<event>
 4    1  0.9856522E-003  0.9118800E+02  0.7818608E-02  0.1130116E+00
         25   -1    0    0    0    0  0.00000000000E+00  0.00000000000E+00  0.99999998245E-14  0.12500000000E+03  0.12500000000E+03 0.  0.
        -13    1    1    0    0    0 -0.45817054147E+01 -0.28938622351E+01 -0.53164260486E+01  0.75922337364E+01  0.10566000000E+00 0. -1.
         13    1    1    0    0    0 -0.41699404366E+02 -0.23481597482E+02 -0.27152990085E+02  0.55022920492E+02  0.10566000000E+00 0.  1.
         22    1    1    0    0    0  0.46281109781E+02  0.26375459717E+02  0.32469416134E+02  0.62384845772E+02  0.00000000000E+00 0.  1.
</event>
<event>
 4    1  0.9856522E-003  0.9118800E+02  0.7818608E-02  0.1130116E+00
         25   -1    0    0    0    0  0.00000000000E+00  0.00000000000E+00  0.99999998245E-14  0.12500000000E+03  0.12500000000E+03 0.  0.
        -13    1    1    0    0    0 -0.32674970578E+02 -0.29677790327E+02  0.30143739032E+02  0.53451670767E+02  0.10566000000E+00 0.  1.
         13    1    1    0    0    0 -0.42985087920E+01 -0.65292498929E+01  0.47371177977E+01  0.91411011953E+01  0.10566000000E+00 0. -1.
         22    1    1    0    0    0  0.36973479370E+02  0.36207040220E+02 -0.34880856829E+02  0.62407228038E+02  0.00000000000E+00 0.  1.
</event>
<event>
 4    1  0.9856522E-003  0.9118800E+02  0.7818608E-02  0.1130116E+00
         25   -1    0    0    0    0  0.00000000000E+00  0.00000000000E+00  0.99999998245E-14  0.12500000000E+03  0.12500000000E+03 0.  0.
        -13    1    1    0    0    0 -0.11839787565E+02 -0.15235239737E+02  0.42166273195E+02  0.46371315041E+02  0.10566000000E+00 0.  1.
         13    1    1    0    0    0 -0.11862827506E+02  0.24900215129E+01  0.12676057648E+02  0.17539113008E+02  0.10566000000E+00 0. -1.
         22    1    1    0    0    0  0.23702615071E+02  0.12745218224E+02 -0.54842330844E+02  0.61089571951E+02  0.00000000000E+00 0.  1.
</event>
<event>
 4    1  0.9856522E-003  0.9118800E+02  0.7818608E-02  0.1130116E+00
         25   -1    0    0    0    0  0.00000000000E+00  0.00000000000E+00  0.99999998245E-14  0.12500000000E+03  0.12500000000E+03 0.  0.
        -13    1    1    0    0    0  0.60899705299E+01  0.39146999424E+01 -0.53638043448E+02  0.54124518342E+02  0.10566000000E+00 0. -1.
         13    1    1    0    0    0  0.42233147144E+01  0.31797451445E+01 -0.71046805685E+01  0.88563432847E+01  0.10566000000E+00 0.  1.
         22    1    1    0    0    0 -0.10313285244E+02 -0.70944450870E+01  0.60742724017E+02  0.62019138374E+02  0.00000000000E+00 0.  1.
</event>
<event>
 4    1  0.9856522E-003  0.9118800E+02  0.7818608E-02  0.1130116E+00
         25   -1    0    0    0    0  0.00000000000E+00  0.00000000000E+00  0.99999998245E-14  0.12500000000E+03  0.12500000000E+03 0.  0.
        -13    1    1    0    0    0 -0.14142308478E+01  0.12653610622E+02  0.55834614312E+02  0.57268047199E+02  0.10566000000E+00 0.  1.
         13    1    1    0    0    0 -0.11307547520E+00  0.20455375410E+00  0.52670737973E+01  0.52733157239E+01  0.10566000000E+00 0. -1.
         22    1    1    0    0    0  0.15273063230E+01 -0.12858164376E+02 -0.61101688109E+02  0.62458637077E+02  0.00000000000E+00 0.  1.
</event>
<event>
 4    1  0.9856522E-003  0.9118800E+02  0.7818608E-02  0.1130116E+00
         25   -1    0    0    0    0  0.00000000000E+00  0.00000000000E+00  0.99999998245E-14  0.12500000000E+03  0.12500000000E+03 0.  0.
        -13    1    1    0    0    0 -0.27154937330E+02 -0.21272310757E+02 -0.35392093834E+02  0.49421789691E+02  0.10566000000E+00 0. -1.
         13    1    1    0    0    0 -0.19382635748E+01 -0.99177105352E+01 -0.93467923835E+01  0.13765592608E+02  0.10566000000E+00 0.  1.
         22    1    1    0    0    0  0.29093200905E+02  0.31190021292E+02  0.44738886217E+02  0.61812617701E+02  0.00000000000E+00 0. -1.
</event>
<event>
 4    1  0.9856522E-003  0.9118800E+02  0.7818608E-02  0.1130116E+00
         25   -1    0    0    0    0  0.00000000000E+00  0.00000000000E+00  0.99999998245E-14  0.12500000000E+03  0.12500000000E+03 0.  0.
        -13    1    1    0    0    0 -0.16323876049E+02  0.60019108520E+01  0.47401270446E+02  0.50491419737E+02  0.10566000000E+00 0.  1.
         13    1    1    0    0    0 -0.38448397088E+01  0.10483984071E+01  0.11330478024E+02  0.12011362450E+02  0.10566000000E+00 0. -1.
         22    1    1    0    0    0  0.20168715758E+02 -0.70503092591E+01 -0.58731748470E+02  0.62497217813E+02  0.00000000000E+00 0.  1.
</event>
<event>
 4    1  0.9856522E-003  0.9118800E+02  0.7818608E-02  0.1130116E+00
         25   -1    0    0    0    0  0.00000000000E+00  0.00000000000E+00  0.99999998245E-14  0.12500000000E+03  0.12500000000E+03 0.  0.
        -13    1    1    0    0    0 -0.72749918775E+01  0.10048541636E+02 -0.21241438986E+02  0.24598955061E+02  0.10566000000E+00 0.  1.
         13    1    1    0    0    0 -0.11321357833E+02  0.15392613476E+02 -0.32732103605E+02  0.37901285773E+02  0.10566000000E+00 0.  1.
         22    1    1    0    0    0  0.18596349711E+02 -0.25441155112E+02  0.53973542591E+02  0.62499759166E+02  0.00000000000E+00 0.  1.
</event>
<event>
 4    1  0.9856522E-003  0.9118800E+02  0.7818608E-02  0.1130116E+00
         25   -1    0    0    0    0  0.00000000000E+00  0.00000000000E+00  0.99999998245E-14  0.12500000000E+03  0.12500000000E+03 0.  0.
        -13    1    1    0    0    0 -0.11121263815E+02  0.99335009057E+01 -0.51930196258E+01  0.15790363072E+02  0.10566000000E+00 0.  1.
         13    1    1    0    0    0 -0.23375409024E+02  0.24683561058E+02 -0.32852483766E+02  0.47275625720E+02  0.10566000000E+00 0. -1.
         22    1    1    0    0    0  0.34496672839E+02 -0.34617061964E+02  0.38045503392E+02  0.61934011208E+02  0.00000000000E+00 0. -1.
</event>
<event>
 4    1  0.9856522E-003  0.9118800E+02  0.7818608E-02  0.1130116E+00
         25   -1    0    0    0    0  0.00000000000E+00  0.00000000000E+00  0.99999998245E-14  0.12500000000E+03  0.12500000000E+03 0.  0.
        -13    1    1    0    0    0  0.12012700049E+01 -0.28253684464E+01  0.14494455791E+01  0.33967356396E+01  0.10566000000E+00 0. -1.
         13    1    1    0    0    0  0.22230976714E+02 -0.50430817285E+02  0.21361185619E+02  0.59108333361E+02  0.10566000000E+00 0. -1.
         22    1    1    0    0    0 -0.23432246719E+02  0.53256185731E+02 -0.22810631198E+02  0.62494930999E+02  0.00000000000E+00 0. -1.
</event>
<event>
 4    1  0.9856522E-003  0.9118800E+02  0.7818608E-02  0.1130116E+00
         25   -1    0    0    0    0  0.00000000000E+00  0.00000000000E+00  0.99999998245E-14  0.12500000000E+03  0.12500000000E+03 0.  0.
        -13    1    1    0    0    0  0.11884807708E+02 -0.10971310596E+02  0.11566794654E+02  0.19885175711E+02  0.10566000000E+00 0. -1.
         13    1    1    0    0    0  0.25761675069E+02 -0.25300389306E+02  0.22660509931E+02  0.42629607971E+02  0.10566000000E+00 0.  1.
         22    1    1    0    0    0 -0.37646482777E+02  0.36271699902E+02 -0.34227304585E+02  0.62485216318E+02  0.00000000000E+00 0.  1.
</event>
<event>
 4    1  0.9856522E-003  0.9118800E+02  0.7818608E-02  0.1130116E+00
         25   -1    0    0    0    0  0.00000000000E+00  0.00000000000E+00  0.99999998245E-14  0.12500000000E+03  0.12500000000E+03 0.  0.
        -13    1    1    0    0    0  0.14574047958E+02 -0.26971022380E+02  0.71089002622E+01  0.31470407514E+02  0.10566000000E+00 0.  1.
         13    1    1    0    0    0  0.13556254386E+02 -0.26734199648E+02  0.80492261301E+01  0.31036924286E+02  0.10566000000E+00 0. -1.
         22    1    1    0    0    0 -0.28130302345E+02  0.53705222028E+02 -0.15158126392E+02  0.62492668200E+02  0.00000000000E+00 0.  1.
</event>
<event>
 4    1  0.9856522E-003  0.9118800E+02  0.7818608E-02  0.1130116E+00
         25   -1    0    0    0    0  0.00000000000E+00  0.00000000000E+00  0.99999998245E-14  0.12500000000E+03  0.12500000000E+03 0.  0.
        -13    1    1    0    0    0 -0.29699389969E+00  0.37593486449E+01 -0.26577627621E+01  0.46147345043E+01  0.10566000000E+00 0.  1.
         13    1    1    0    0    0 -0.37665905914E+01  0.46473598089E+02 -0.34305067413E+02  0.57886365737E+02  0.10566000000E+00 0. -1.
         22    1    1    0    0    0  0.40635844911E+01 -0.50232946734E+02  0.36962830175E+02  0.62498899759E+02  0.00000000000E+00 0. -1.
</event>
<event>
 4    1  0.9856522E-003  0.9118800E+02  0.7818608E-02  0.1130116E+00
         25   -1    0    0    0    0  0.00000000000E+00  0.00000000000E+00  0.99999998245E-14  0.12500000000E+03  0.12500000000E+03 0.  0.
        -13    1    1    0    0    0  0.19251431692E+02  0.16955636715E+02  0.11337035230E+02  0.28047295243E+02  0.10566000000E+00 0. -1.
         13    1    1    0    0    0  0.23746347426E+02  0.20794510265E+02  0.13809234370E+02  0.34452964911E+02  0.10566000000E+00 0. -1.
         22    1    1    0    0    0 -0.42997779118E+02 -0.37750146980E+02 -0.25146269599E+02  0.62499739846E+02  0.00000000000E+00 0. -1.
</event>
<event>
 4    1  0.9856522E-003  0.9118800E+02  0.7818608E-02  0.1130116E+00
         25   -1    0    0    0    0  0.00000000000E+00  0.00000000000E+00  0.99999998245E-14  0.12500000000E+03  0.12500000000E+03 0.  0.
        -13    1    1    0    0    0  0.10363417834E+02  0.20672937883E+02 -0.32389717735E+01  0.23351079035E+02  0.10566000000E+00 0.  1.
         13    1    1    0    0    0  0.17863202434E+02  0.34505694779E+02 -0.47987795722E+01  0.39150688663E+02  0.10566000000E+00 0.  1.
         22    1    1    0    0    0 -0.28226620268E+02 -0.55178632662E+02  0.80377513457E+01  0.62498232302E+02  0.00000000000E+00 0.  1.
</event>
<event>
 4    1  0.9856522E-003  0.9118800E+02  0.7818608E-02  0.1130116E+00
         25   -1    0    0    0    0  0.00000000000E+00  0.00000000000E+00  0.99999998245E-14  0.12500000000E+03  0.12500000000E+03 0.  0.
        -13    1    1    0    0    0  0.10087646575E+02 -0.10775764379E+02  0.66709928374E+01  0.16198488227E+02  0.10566000000E+00 0. -1.
         13    1    1    0    0    0  0.46749929014E+02 -0.19980044973E+01  0.10721506409E+02  0.48005309587E+02  0.10566000000E+00 0.  1.
         22    1    1    0    0    0 -0.56837575590E+02  0.12773768876E+02 -0.17392499246E+02  0.60796202186E+02  0.00000000000E+00 0.  1.
</event>
<event>
 4    1  0.9856522E-003  0.9118800E+02  0.7818608E-02  0.1130116E+00
         25   -1    0    0    0    0  0.00000000000E+00  0.00000000000E+00  0.99999998245E-14  0.12500000000E+03  0.12500000000E+03 0.  0.
        -13    1    1    0    0    0  0.23738523965E+02 -0.10268760514E+02 -0.20308158099E+02  0.32884607523E+02  0.10566000000E+00 0. -1.
         13    1    1    0    0    0  0.21362581379E+02 -0.93290646660E+01 -0.18266951497E+02  0.29615604194E+02  0.10566000000E+00 0. -1.
         22    1    1    0    0    0 -0.45101105344E+02  0.19597825180E+02  0.38575109596E+02  0.62499788283E+02  0.00000000000E+00 0. -1.
</event>
<event>
 4    1  0.9856522E-003  0.9118800E+02  0.7818608E-02  0.1130116E+00
         25   -1    0    0    0    0  0.00000000000E+00  0.00000000000E+00  0.99999998245E-14  0.12500000000E+03  0.12500000000E+03 0.  0.
        -13    1    1    0    0    0  0.19956446974E+01 -0.13614270579E+02  0.78839985070E+01  0.15858737580E+02  0.10566000000E+00 0. -1.
         13    1    1    0    0    0  0.45184591615E+01 -0.39215737128E+02  0.24855554736E+02  0.46648689981E+02  0.10566000000E+00 0.  1.
         22    1    1    0    0    0 -0.65141038588E+01  0.52830007707E+02 -0.32739553243E+02  0.62492572438E+02  0.00000000000E+00 0.  1.
</event>
<event>
 4    1  0.9856522E-003  0.9118800E+02  0.7818608E-02  0.1130116E+00
         25   -1    0    0    0    0  0.00000000000E+00  0.00000000000E+00  0.99999998245E-14  0.12500000000E+03  0.12500000000E+03 0.  0.
        -13    1    1    0    0    0 -0.10429883579E+02  0.50565839200E+01  0.29328011331E+02  0.31535613599E+02  0.10566000000E+00 0.  1.
         13    1    1    0    0    0 -0.10225914978E+02  0.51008432162E+01  0.28778637593E+02  0.30964642488E+02  0.10566000000E+00 0.  1.
         22    1    1    0    0    0  0.20655798557E+02 -0.10157427136E+02 -0.58106648924E+02  0.62499743913E+02  0.00000000000E+00 0.  1.
</event>
<event>
 4    1  0.9856522E-003  0.9118800E+02  0.7818608E-02  0.1130116E+00
         25   -1    0    0    0    0  0.00000000000E+00  0.00000000000E+00  0.99999998245E-14  0.12500000000E+03  0.12500000000E+03 0.  0.
        -13    1    1    0    0    0  0.14384209096E+02 -0.43878863115E+01  0.24807672879E+02  0.29010184682E+02  0.10566000000E+00 0. -1.
         13    1    1    0    0    0  0.28043038883E+02 -0.17565318733E+02  0.12504955495E+02  0.35374249504E+02  0.10566000000E+00 0.  1.
         22    1    1    0    0    0 -0.42427247979E+02  0.21953205044E+02 -0.37312628374E+02  0.60615565814E+02  0.00000000000E+00 0.  1.
</event>
<event>
 4    1  0.9856522E-003  0.9118800E+02  0.7818608E-02  0.1130116E+00
         25   -1    0    0    0    0  0.00000000000E+00  0.00000000000E+00  0.99999998245E-14  0.12500000000E+03  0.12500000000E+03 0.  0.
        -13    1    1    0    0    0 -0.22917113376E+02 -0.56697946669E+02 -0.37187327939E+01  0.61267376144E+02  0.10566000000E+00 0. -1.
         13    1    1    0    0    0 -0.52894544865E-01 -0.92266714831E+00 -0.11876839006E+01  0.15085985492E+01  0.10566000000E+00 0.  1.
         22    1    1    0    0    0  0.22970007921E+02  0.57620613817E+02  0.49064166944E+01  0.62224025307E+02  0.00000000000E+00 0. -1.
</event>
<event>
 4    1  0.9856522E-003  0.9118800E+02  0.7818608E-02  0.1130116E+00
         25   -1    0    0    0    0  0.00000000000E+00  0.00000000000E+00  0.99999998245E-14  0.12500000000E+03  0.12500000000E+03 0.  0.
        -13    1    1    0    0    0 -0.24541271063E+02  0.32503941852E+02  0.16207858365E+02  0.43834758561E+02  0.10566000000E+00 0. -1.
         13    1    1    0    0    0 -0.10145240386E+02  0.14417258518E+02  0.61600967772E+01  0.18674613838E+02  0.10566000000E+00 0.  1.
         22    1    1    0    0    0  0.34686511449E+02 -0.46921200370E+02 -0.22367955143E+02  0.62490627601E+02  0.00000000000E+00 0. -1.
</event>
<event>
 4    1  0.9856522E-003  0.9118800E+02  0.7818608E-02  0.1130116E+00
         25   -1    0    0    0    0  0.00000000000E+00  0.00000000000E+00  0.99999998245E-14  0.12500000000E+03  0.12500000000E+03 0.  0.
        -13    1    1    0    0    0  0.16922397393E+02  0.20325831646E+02 -0.26772624419E+02  0.37633649145E+02  0.10566000000E+00 0.  1.
         13    1    1    0    0    0  0.12386795829E+02  0.13196015964E+02 -0.17068574704E+02  0.24878001421E+02  0.10566000000E+00 0. -1.
         22    1    1    0    0    0 -0.29309193222E+02 -0.33521847610E+02  0.43841199122E+02  0.62488349435E+02  0.00000000000E+00 0.  1.
</event>
<event>
 4    1  0.9856522E-003  0.9118800E+02  0.7818608E-02  0.1130116E+00
         25   -1    0    0    0    0  0.00000000000E+00  0.00000000000E+00  0.99999998245E-14  0.12500000000E+03  0.12500000000E+03 0.  0.
        -13    1    1    0    0    0 -0.80658260320E+01  0.90979280915E+01 -0.19733283516E+02  0.23178513488E+02  0.10566000000E+00 0. -1.
         13    1    1    0    0    0 -0.19508724950E+02  0.93639097205E+01 -0.33031727410E+02  0.39488977375E+02  0.10566000000E+00 0.  1.
         22    1    1    0    0    0  0.27574550982E+02 -0.18461837812E+02  0.52765010926E+02  0.62332509137E+02  0.00000000000E+00 0.  1.
</event>
<event>
 4    1  0.9856522E-003  0.9118800E+02  0.7818608E-02  0.1130116E+00
         25   -1    0    0    0    0  0.00000000000E+00  0.00000000000E+00  0.99999998245E-14  0.12500000000E+03  0.12500000000E+03 0.  0.
        -13    1    1    0    0    0  0.16045870693E+02 -0.10665251551E+02 -0.10836014895E+02  0.22105382597E+02  0.10566000000E+00 0. -1.
         13    1    1    0    0    0  0.30606253913E+02 -0.98690166514E+01 -0.24876908874E+02  0.40657250613E+02  0.10566000000E+00 0.  1.
         22    1    1    0    0    0 -0.46652124606E+02  0.20534268202E+02  0.35712923769E+02  0.62237366790E+02  0.00000000000E+00 0.  1.
</event>
<event>
 4    1  0.9856522E-003  0.9118800E+02  0.7818608E-02  0.1130116E+00
         25   -1    0    0    0    0  0.00000000000E+00  0.00000000000E+00  0.99999998245E-14  0.12500000000E+03  0.12500000000E+03 0.  0.
        -13    1    1    0    0    0 -0.29823904048E+01  0.19806118764E+02  0.28467266205E+02  0.34807662982E+02  0.10566000000E+00 0.  1.
         13    1    1    0    0    0 -0.21212673302E+01  0.15601127585E+02  0.22781545233E+02  0.27693048302E+02  0.10566000000E+00 0. -1.
         22    1    1    0    0    0  0.51036577350E+01 -0.35407246349E+02 -0.51248811438E+02  0.62499288717E+02  0.00000000000E+00 0. -1.
</event>
<event>
 4    1  0.9856522E-003  0.9118800E+02  0.7818608E-02  0.1130116E+00
         25   -1    0    0    0    0  0.00000000000E+00  0.00000000000E+00  0.99999998245E-14  0.12500000000E+03  0.12500000000E+03 0.  0.
        -13    1    1    0    0    0 -0.20184309615E+01  0.39497264549E+02  0.85519327427E+01  0.40463003943E+02  0.10566000000E+00 0.  1.
         13    1    1    0    0    0 -0.90995315157E+00  0.21539919018E+02  0.45656472944E+01  0.22037523120E+02  0.10566000000E+00 0. -1.
         22    1    1    0    0    0  0.29283841130E+01 -0.61037183567E+02 -0.13117580037E+02  0.62499472937E+02  0.00000000000E+00 0. -1.
</event>
<event>
 4    1  0.9856522E-003  0.9118800E+02  0.7818608E-02  0.1130116E+00
         25   -1    0    0    0    0  0.00000000000E+00  0.00000000000E+00  0.99999998245E-14  0.12500000000E+03  0.12500000000E+03 0.  0.
        -13    1    1    0    0    0  0.74654923439E+01 -0.11592917454E+02 -0.12184405958E+02  0.18401093001E+02  0.10566000000E+00 0.  1.
         13    1    1    0    0    0  0.18753221310E+02 -0.27024168885E+02 -0.29375687217E+02  0.44101373867E+02  0.10566000000E+00 0. -1.
         22    1    1    0    0    0 -0.26218713654E+02  0.38617086339E+02  0.41560093175E+02  0.62497533133E+02  0.00000000000E+00 0. -1.
</event>
<event>
 4    1  0.9856522E-003  0.9118800E+02  0.7818608E-02  0.1130116E+00
         25   -1    0    0    0    0  0.00000000000E+00  0.00000000000E+00  0.99999998245E-14  0.12500000000E+03  0.12500000000E+03 0.  0.
        -13    1    1    0    0    0  0.15630782474E+02  0.31790742478E+00  0.12828488270E+02  0.20223839923E+02  0.10566000000E+00 0. -1.
         13    1    1    0    0    0  0.32666290670E+02  0.63841809317E+00  0.26828824411E+02  0.42276365822E+02  0.10566000000E+00 0. -1.
         22    1    1    0    0    0 -0.48297073144E+02 -0.95632551795E+00 -0.39657312681E+02  0.62499794255E+02  0.00000000000E+00 0. -1.
</event>
<event>
 4    1  0.9856522E-003  0.9118800E+02  0.7818608E-02  0.1130116E+00
         25   -1    0    0    0    0  0.00000000000E+00  0.00000000000E+00  0.99999998245E-14  0.12500000000E+03  0.12500000000E+03 0.  0.
        -13    1    1    0    0    0 -0.22735526750E+01  0.29478054729E+01 -0.45472042334E+01  0.58776550807E+01  0.10566000000E+00 0. -1.
         13    1    1    0    0    0 -0.39354708542E+02  0.11395650150E+02 -0.39450631408E+02  0.56877213445E+02  0.10566000000E+00 0.  1.
         22    1    1    0    0    0  0.41628261217E+02 -0.14343455623E+02  0.43997835641E+02  0.62245131474E+02  0.00000000000E+00 0.  1.
</event>
<event>
 4    1  0.9856522E-003  0.9118800E+02  0.7818608E-02  0.1130116E+00
         25   -1    0    0    0    0  0.00000000000E+00  0.00000000000E+00  0.99999998245E-14  0.12500000000E+03  0.12500000000E+03 0.  0.
        -13    1    1    0    0    0  0.39257436218E+02 -0.32010048993E+02  0.17783868572E+02  0.53684883164E+02  0.10566000000E+00 0. -1.
         13    1    1    0    0    0  0.71272096569E+01 -0.51599290911E+01  0.12807933089E+01  0.88923327229E+01  0.10566000000E+00 0.  1.
         22    1    1    0    0    0 -0.46384645875E+02  0.37169978084E+02 -0.19064661880E+02  0.62422784113E+02  0.00000000000E+00 0. -1.
</event>
<event>
 4    1  0.9856522E-003  0.9118800E+02  0.7818608E-02  0.1130116E+00
         25   -1    0    0    0    0  0.00000000000E+00  0.00000000000E+00  0.99999998245E-14  0.12500000000E+03  0.12500000000E+03 0.  0.
        -13    1    1    0    0    0  0.52709414717E+01 -0.12291929495E+01 -0.11112761994E+02  0.12361164285E+02  0.10566000000E+00 0.  1.
         13    1    1    0    0    0  0.33482338192E+02  0.17261191637E+02 -0.34212646163E+02  0.50887444709E+02  0.10566000000E+00 0. -1.
         22    1    1    0    0    0 -0.38753279664E+02 -0.16031998687E+02  0.45325408157E+02  0.61751391006E+02  0.00000000000E+00 0. -1.
</event>
<event>
 4    1  0.9856522E-003  0.9118800E+02  0.7818608E-02  0.1130116E+00
         25   -1    0    0    0    0  0.00000000000E+00  0.00000000000E+00  0.99999998245E-14  0.12500000000E+03  0.12500000000E+03 0.  0.
        -13    1    1    0    0    0  0.48043167829E+00 -0.12854133280E+02  0.47554950505E+01  0.13714425040E+02  0.10566000000E+00 0. -1.
         13    1    1    0    0    0  0.22029335250E+01 -0.45105244236E+02  0.18467362654E+02  0.48789246982E+02  0.10566000000E+00 0.  1.
         22    1    1    0    0    0 -0.26833652033E+01  0.57959377515E+02 -0.23222857704E+02  0.62496327978E+02  0.00000000000E+00 0.  1.
</event>
<event>
 4    1  0.9856522E-003  0.9118800E+02  0.7818608E-02  0.1130116E+00
         25   -1    0    0    0    0  0.00000000000E+00  0.00000000000E+00  0.99999998245E-14  0.12500000000E+03  0.12500000000E+03 0.  0.
        -13    1    1    0    0    0 -0.34651608945E+01  0.66273374763E+01 -0.13739133683E+01  0.76044555379E+01  0.10566000000E+00 0.  1.
         13    1    1    0    0    0 -0.33474548135E+02  0.43339210886E+02  0.59760658205E+01  0.55086814210E+02  0.10566000000E+00 0. -1.
         22    1    1    0    0    0  0.36939709030E+02 -0.49966548362E+02 -0.46021524522E+01  0.62308730252E+02  0.00000000000E+00 0. -1.
</event>
<event>
 4    1  0.9856522E-003  0.9118800E+02  0.7818608E-02  0.1130116E+00
         25   -1    0    0    0    0  0.00000000000E+00  0.00000000000E+00  0.99999998245E-14  0.12500000000E+03  0.12500000000E+03 0.  0.
        -13    1    1    0    0    0  0.70833478319E+00  0.19376245450E+01 -0.24013505865E+02  0.24102193987E+02  0.10566000000E+00 0. -1.
         13    1    1    0    0    0  0.73504257950E+00  0.18246057730E+02 -0.34472299865E+02  0.39010377238E+02  0.10566000000E+00 0.  1.
         22    1    1    0    0    0 -0.14433773627E+01 -0.20183682275E+02  0.58485805730E+02  0.61887428774E+02  0.00000000000E+00 0.  1.
</event>
<event>
 4    1  0.9856522E-003  0.9118800E+02  0.7818608E-02  0.1130116E+00
         25   -1    0    0    0    0  0.00000000000E+00  0.00000000000E+00  0.99999998245E-14  0.12500000000E+03  0.12500000000E+03 0.  0.
        -13    1    1    0    0    0  0.67232154332E+01 -0.24363374212E+01  0.10286233896E+01  0.72254131996E+01  0.10566000000E+00 0.  1.
         13    1    1    0    0    0  0.53345347424E+02 -0.14387107443E+02  0.23681052278E+01  0.55302206454E+02  0.10566000000E+00 0. -1.
         22    1    1    0    0    0 -0.60068562857E+02  0.16823444864E+02 -0.33967286174E+01  0.62472380346E+02  0.00000000000E+00 0. -1.
</event>
<event>
 4    1  0.9856522E-003  0.9118800E+02  0.7818608E-02  0.1130116E+00
         25   -1    0    0    0    0  0.00000000000E+00  0.00000000000E+00  0.99999998245E-14  0.12500000000E+03  0.12500000000E+03 0.  0.
        -13    1    1    0    0    0  0.50574186592E+00 -0.32045601719E+01 -0.35133635055E+01  0.47832904875E+01  0.10566000000E+00 0. -1.
         13    1    1    0    0    0  0.45649920255E+01 -0.37002414969E+02 -0.44063201056E+02  0.57719968096E+02  0.10566000000E+00 0.  1.
         22    1    1    0    0    0 -0.50707338914E+01  0.40206975141E+02  0.47576564562E+02  0.62496741416E+02  0.00000000000E+00 0.  1.
</event>
<event>
 4    1  0.9856522E-003  0.9118800E+02  0.7818608E-02  0.1130116E+00
         25   -1    0    0    0    0  0.00000000000E+00  0.00000000000E+00  0.99999998245E-14  0.12500000000E+03  0.12500000000E+03 0.  0.
        -13    1    1    0    0    0 -0.22963364045E+02 -0.41106452456E+02  0.26232373711E+02  0.53899954697E+02  0.10566000000E+00 0.  1.
         13    1    1    0    0    0  0.99986184289E+01 -0.61561470691E+01  0.52376199353E+01  0.12857462574E+02  0.10566000000E+00 0. -1.
         22    1    1    0    0    0  0.12964745616E+02  0.47262599526E+02 -0.31469993646E+02  0.58242582729E+02  0.00000000000E+00 0.  1.
</event>
<event>
 4    1  0.9856522E-003  0.9118800E+02  0.7818608E-02  0.1130116E+00
         25   -1    0    0    0    0  0.00000000000E+00  0.00000000000E+00  0.99999998245E-14  0.12500000000E+03  0.12500000000E+03 0.  0.
        -13    1    1    0    0    0  0.10274839763E+02 -0.96976616261E+01 -0.28029364138E+00  0.14131762160E+02  0.10566000000E+00 0. -1.
         13    1    1    0    0    0  0.40530306473E+02 -0.25920430798E+02  0.63404288558E+01  0.48526144269E+02  0.10566000000E+00 0.  1.
         22    1    1    0    0    0 -0.50805146236E+02  0.35618092424E+02 -0.60601352144E+01  0.62342093571E+02  0.00000000000E+00 0.  1.
</event>
<event>
 4    1  0.9856522E-003  0.9118800E+02  0.7818608E-02  0.1130116E+00
         25   -1    0    0    0    0  0.00000000000E+00  0.00000000000E+00  0.99999998245E-14  0.12500000000E+03  0.12500000000E+03 0.  0.
        -13    1    1    0    0    0 -0.14709811592E+02 -0.46659341963E+02  0.36589883039E+02  0.61092581009E+02  0.10566000000E+00 0.  1.
         13    1    1    0    0    0 -0.27965297081E+00 -0.85198319371E+00  0.11101731377E+01  0.14309890208E+01  0.10566000000E+00 0. -1.
         22    1    1    0    0    0  0.14989464563E+02  0.47511325157E+02 -0.37700056177E+02  0.62476429970E+02  0.00000000000E+00 0.  1.
</event>
<event>
 4    1  0.9856522E-003  0.9118800E+02  0.7818608E-02  0.1130116E+00
         25   -1    0    0    0    0  0.00000000000E+00  0.00000000000E+00  0.99999998245E-14  0.12500000000E+03  0.12500000000E+03 0.  0.
        -13    1    1    0    0    0  0.81350156135E+01 -0.24136559161E+02 -0.47401014565E+00  0.25475239288E+02  0.10566000000E+00 0.  1.
         13    1    1    0    0    0  0.10940072652E+02 -0.35372027520E+02  0.75635239060E+00  0.37033076479E+02  0.10566000000E+00 0. -1.
         22    1    1    0    0    0 -0.19075088266E+02  0.59508586681E+02 -0.28234224495E+00  0.62491684233E+02  0.00000000000E+00 0. -1.
</event>
<event>
 4    1  0.9856522E-003  0.9118800E+02  0.7818608E-02  0.1130116E+00
         25   -1    0    0    0    0  0.00000000000E+00  0.00000000000E+00  0.99999998245E-14  0.12500000000E+03  0.12500000000E+03 0.  0.
        -13    1    1    0    0    0 -0.23089620530E+02  0.32773705694E+02 -0.29736819138E+02  0.49915287614E+02  0.10566000000E+00 0.  1.
         13    1    1    0    0    0 -0.95525405603E+01  0.33096383981E+01 -0.84941458989E+01  0.13204787619E+02  0.10566000000E+00 0. -1.
         22    1    1    0    0    0  0.32642161090E+02 -0.36083344092E+02  0.38230965037E+02  0.61879924767E+02  0.00000000000E+00 0.  1.
</event>
<event>
 4    1  0.9856522E-003  0.9118800E+02  0.7818608E-02  0.1130116E+00
         25   -1    0    0    0    0  0.00000000000E+00  0.00000000000E+00  0.99999998245E-14  0.12500000000E+03  0.12500000000E+03 0.  0.
        -13    1    1    0    0    0  0.19235643632E+02 -0.34217080318E+02 -0.23309793595E+02  0.45652778809E+02  0.10566000000E+00 0. -1.
         13    1    1    0    0    0  0.93081949189E+01 -0.12086759559E+02 -0.73202773664E+01  0.16921284645E+02  0.10566000000E+00 0.  1.
         22    1    1    0    0    0 -0.28543838551E+02  0.46303839877E+02  0.30630070961E+02  0.62425936546E+02  0.00000000000E+00 0. -1.
</event>
<event>
 4    1  0.9856522E-003  0.9118800E+02  0.7818608E-02  0.1130116E+00
         25   -1    0    0    0    0  0.00000000000E+00  0.00000000000E+00  0.99999998245E-14  0.12500000000E+03  0.12500000000E+03 0.  0.
        -13    1    1    0    0    0  0.12103758608E+02 -0.16798411004E+02  0.81634729631E+00  0.20721128629E+02  0.10566000000E+00 0.  1.
         13    1    1    0    0    0  0.53325870659E+01 -0.40349711765E+02 -0.14094966734E+02  0.43072206533E+02  0.10566000000E+00 0. -1.
         22    1    1    0    0    0 -0.17436345674E+02  0.57148122769E+02  0.13278619438E+02  0.61206664838E+02  0.00000000000E+00 0. -1.
</event>
<event>
 4    1  0.9856522E-003  0.9118800E+02  0.7818608E-02  0.1130116E+00
         25   -1    0    0    0    0  0.00000000000E+00  0.00000000000E+00  0.99999998245E-14  0.12500000000E+03  0.12500000000E+03 0.  0.
        -13    1    1    0    0    0  0.48405741157E+02 -0.26699871644E+02  0.10728334890E+02  0.56312585239E+02  0.10566000000E+00 0. -1.
         13    1    1    0    0    0  0.53600217912E+01 -0.20884102169E+01  0.25134777395E+01  0.62785368692E+01  0.10566000000E+00 0.  1.
         22    1    1    0    0    0 -0.53765762948E+02  0.28788281861E+02 -0.13241812630E+02  0.62408877891E+02  0.00000000000E+00 0. -1.
</event>
<event>
 4    1  0.9856522E-003  0.9118800E+02  0.7818608E-02  0.1130116E+00
         25   -1    0    0    0    0  0.00000000000E+00  0.00000000000E+00  0.99999998245E-14  0.12500000000E+03  0.12500000000E+03 0.  0.
        -13    1    1    0    0    0  0.28341790416E+02 -0.22919984139E+02  0.33621419534E+02  0.49588242280E+02  0.10566000000E+00 0. -1.
         13    1    1    0    0    0  0.74412060483E+01 -0.61604451834E+01  0.85683523212E+01  0.12913189298E+02  0.10566000000E+00 0.  1.
         22    1    1    0    0    0 -0.35782996464E+02  0.29080429322E+02 -0.42189771856E+02  0.62498568422E+02  0.00000000000E+00 0. -1.
</event>
<event>
 4    1  0.9856522E-003  0.9118800E+02  0.7818608E-02  0.1130116E+00
         25   -1    0    0    0    0  0.00000000000E+00  0.00000000000E+00  0.99999998245E-14  0.12500000000E+03  0.12500000000E+03 0.  0.
        -13    1    1    0    0    0  0.60969778990E+00 -0.16171562099E+02 -0.16407199597E+02  0.23045574733E+02  0.10566000000E+00 0. -1.
         13    1    1    0    0    0  0.12862879548E+02 -0.39714604255E+02 -0.14095463316E+01  0.41769623487E+02  0.10566000000E+00 0.  1.
         22    1    1    0    0    0 -0.13472577338E+02  0.55886166354E+02  0.17816745928E+02  0.60184801780E+02  0.00000000000E+00 0.  1.
</event>
<event>
 4    1  0.9856522E-003  0.9118800E+02  0.7818608E-02  0.1130116E+00
         25   -1    0    0    0    0  0.00000000000E+00  0.00000000000E+00  0.99999998245E-14  0.12500000000E+03  0.12500000000E+03 0.  0.
        -13    1    1    0    0    0 -0.34467910783E+01  0.34417625352E+01 -0.50868079553E+01  0.70436409119E+01  0.10566000000E+00 0.  1.
         13    1    1    0    0    0 -0.30030755686E+02  0.34135152881E+02 -0.31865834102E+02  0.55520244022E+02  0.10566000000E+00 0. -1.
         22    1    1    0    0    0  0.33477546764E+02 -0.37576915416E+02  0.36952642057E+02  0.62436115066E+02  0.00000000000E+00 0. -1.
</event>
<event>
 4    1  0.9856522E-003  0.9118800E+02  0.7818608E-02  0.1130116E+00
         25   -1    0    0    0    0  0.00000000000E+00  0.00000000000E+00  0.99999998245E-14  0.12500000000E+03  0.12500000000E+03 0.  0.
        -13    1    1    0    0    0  0.22089084114E+02 -0.38678738916E+02 -0.17091955519E+02  0.47708684625E+02  0.10566000000E+00 0.  1.
         13    1    1    0    0    0  0.10872646483E+02  0.14918833589E+02 -0.16354926949E+02  0.24663350071E+02  0.10566000000E+00 0. -1.
         22    1    1    0    0    0 -0.32961730597E+02  0.23759905328E+02  0.33446882468E+02  0.52627965304E+02  0.00000000000E+00 0.  1.
</event>
<event>
 4    1  0.9856522E-003  0.9118800E+02  0.7818608E-02  0.1130116E+00
         25   -1    0    0    0    0  0.00000000000E+00  0.00000000000E+00  0.99999998245E-14  0.12500000000E+03  0.12500000000E+03 0.  0.
        -13    1    1    0    0    0  0.41209722911E+02  0.10089123148E+02  0.10698933734E+02  0.43755114163E+02  0.10566000000E+00 0.  1.
         13    1    1    0    0    0  0.17621616150E+02  0.43218477451E+01  0.47088973790E+01  0.18745255459E+02  0.10566000000E+00 0. -1.
         22    1    1    0    0    0 -0.58831339061E+02 -0.14410970893E+02 -0.15407831113E+02  0.62499630378E+02  0.00000000000E+00 0.  1.
</event>
<event>
 4    1  0.9856522E-003  0.9118800E+02  0.7818608E-02  0.1130116E+00
         25   -1    0    0    0    0  0.00000000000E+00  0.00000000000E+00  0.99999998245E-14  0.12500000000E+03  0.12500000000E+03 0.  0.
        -13    1    1    0    0    0 -0.44226067633E+01 -0.32226038756E+02 -0.30464976684E+02  0.44566837367E+02  0.10566000000E+00 0. -1.
         13    1    1    0    0    0 -0.15599911538E+01 -0.13062585197E+02 -0.12188210843E+02  0.17933999889E+02  0.10566000000E+00 0. -1.
         22    1    1    0    0    0  0.59825979171E+01  0.45288623954E+02  0.42653187527E+02  0.62499162744E+02  0.00000000000E+00 0. -1.
</event>
<event>
 4    1  0.9856522E-003  0.9118800E+02  0.7818608E-02  0.1130116E+00
         25   -1    0    0    0    0  0.00000000000E+00  0.00000000000E+00  0.99999998245E-14  0.12500000000E+03  0.12500000000E+03 0.  0.
        -13    1    1    0    0    0 -0.69298496572E+01 -0.49485265765E+02  0.34414046868E+02  0.60672498959E+02  0.10566000000E+00 0. -1.
         13    1    1    0    0    0  0.80765188315E+00 -0.17952376586E+01  0.44271144927E+00  0.20204794673E+01  0.10566000000E+00 0.  1.
         22    1    1    0    0    0  0.61221977741E+01  0.51280503424E+02 -0.34856758317E+02  0.62307021573E+02  0.00000000000E+00 0. -1.
</event>
<event>
 4    1  0.9856522E-003  0.9118800E+02  0.7818608E-02  0.1130116E+00
         25   -1    0    0    0    0  0.00000000000E+00  0.00000000000E+00  0.99999998245E-14  0.12500000000E+03  0.12500000000E+03 0.  0.
        -13    1    1    0    0    0  0.85648889666E+01  0.90397032551E+00  0.17929214477E+01  0.87977392955E+01  0.10566000000E+00 0. -1.
         13    1    1    0    0    0  0.52151566996E+02  0.12064663362E+01  0.12817033850E+02  0.53717120380E+02  0.10566000000E+00 0.  1.
         22    1    1    0    0    0 -0.60716455963E+02 -0.21104366617E+01 -0.14609955298E+02  0.62485140324E+02  0.00000000000E+00 0.  1.
</event>
<event>
 4    1  0.9856522E-003  0.9118800E+02  0.7818608E-02  0.1130116E+00
         25   -1    0    0    0    0  0.00000000000E+00  0.00000000000E+00  0.99999998245E-14  0.12500000000E+03  0.12500000000E+03 0.  0.
        -13    1    1    0    0    0  0.26940397119E+02  0.43131069842E+02  0.27763965293E+02  0.57938960255E+02  0.10566000000E+00 0.  1.
         13    1    1    0    0    0  0.21215242496E+01  0.33980844880E+01  0.21794767944E+01  0.45617021453E+01  0.10566000000E+00 0.  1.
         22    1    1    0    0    0 -0.29061921369E+02 -0.46529154330E+02 -0.29943442088E+02  0.62499337599E+02  0.00000000000E+00 0.  1.
</event>
<event>
 4    1  0.9856522E-003  0.9118800E+02  0.7818608E-02  0.1130116E+00
         25   -1    0    0    0    0  0.00000000000E+00  0.00000000000E+00  0.99999998245E-14  0.12500000000E+03  0.12500000000E+03 0.  0.
        -13    1    1    0    0    0 -0.53571997632E+01  0.95561703490E+00  0.10136503705E+01  0.55363746558E+01  0.10566000000E+00 0.  1.
         13    1    1    0    0    0 -0.55302260465E+02  0.11204451674E+02  0.78364141092E+01  0.56967537247E+02  0.10566000000E+00 0. -1.
         22    1    1    0    0    0  0.60659460228E+02 -0.12160068709E+02 -0.88500644797E+01  0.62496088097E+02  0.00000000000E+00 0. -1.
</event>
<event>
 4    1  0.9856522E-003  0.9118800E+02  0.7818608E-02  0.1130116E+00
         25   -1    0    0    0    0  0.00000000000E+00  0.00000000000E+00  0.99999998245E-14  0.12500000000E+03  0.12500000000E+03 0.  0.
        -13    1    1    0    0    0  0.30938099053E+02 -0.46919471218E+02  0.12611898532E+02  0.57599252608E+02  0.10566000000E+00 0. -1.
         13    1    1    0    0    0  0.26131442533E+01 -0.39814546541E+01  0.11554494047E+01  0.49017069898E+01  0.10566000000E+00 0. -1.
         22    1    1    0    0    0 -0.33551243306E+02  0.50900925872E+02 -0.13767347937E+02  0.62499040402E+02  0.00000000000E+00 0. -1.
</event>
<event>
 4    1  0.9856522E-003  0.9118800E+02  0.7818608E-02  0.1130116E+00
         25   -1    0    0    0    0  0.00000000000E+00  0.00000000000E+00  0.99999998245E-14  0.12500000000E+03  0.12500000000E+03 0.  0.
        -13    1    1    0    0    0  0.31157276060E+02 -0.26926101768E+02  0.18957127152E+02  0.45334034034E+02  0.10566000000E+00 0. -1.
         13    1    1    0    0    0  0.96097652665E+01 -0.33589107305E+01  0.15321082784E+02  0.18395015941E+02  0.10566000000E+00 0.  1.
         22    1    1    0    0    0 -0.40767041327E+02  0.30285012498E+02 -0.34278209936E+02  0.61270950025E+02  0.00000000000E+00 0.  1.
</event>
<event>
 4    1  0.9856522E-003  0.9118800E+02  0.7818608E-02  0.1130116E+00
         25   -1    0    0    0    0  0.00000000000E+00  0.00000000000E+00  0.99999998245E-14  0.12500000000E+03  0.12500000000E+03 0.  0.
        -13    1    1    0    0    0  0.46187656949E+01  0.26566074448E+02  0.14668075444E+02  0.30696138346E+02  0.10566000000E+00 0.  1.
         13    1    1    0    0    0  0.42335039734E+01  0.28173012034E+02  0.14152415275E+02  0.31811054448E+02  0.10566000000E+00 0. -1.
         22    1    1    0    0    0 -0.88522696683E+01 -0.54739086482E+02 -0.28820490719E+02  0.62492807205E+02  0.00000000000E+00 0. -1.
</event>
<event>
 4    1  0.9856522E-003  0.9118800E+02  0.7818608E-02  0.1130116E+00
         25   -1    0    0    0    0  0.00000000000E+00  0.00000000000E+00  0.99999998245E-14  0.12500000000E+03  0.12500000000E+03 0.  0.
        -13    1    1    0    0    0 -0.95759766782E+01  0.19314631262E+01  0.22266086863E+01  0.10019921628E+02  0.10566000000E+00 0.  1.
         13    1    1    0    0    0 -0.49563105389E+02 -0.21317601776E+01  0.17549541485E+02  0.52621700729E+02  0.10566000000E+00 0. -1.
         22    1    1    0    0    0  0.59139082067E+02  0.20029705133E+00 -0.19776150172E+02  0.62358377643E+02  0.00000000000E+00 0. -1.
</event>
<event>
 4    1  0.9856522E-003  0.9118800E+02  0.7818608E-02  0.1130116E+00
         25   -1    0    0    0    0  0.00000000000E+00  0.00000000000E+00  0.99999998245E-14  0.12500000000E+03  0.12500000000E+03 0.  0.
        -13    1    1    0    0    0  0.21239966390E+02  0.11775075329E+02 -0.18339977936E+02  0.30432787023E+02  0.10566000000E+00 0. -1.
         13    1    1    0    0    0  0.26041802756E+02  0.96157905271E+01 -0.16281683470E+02  0.32182965974E+02  0.10566000000E+00 0.  1.
         22    1    1    0    0    0 -0.47281769146E+02 -0.21390865856E+02  0.34621661406E+02  0.62384247003E+02  0.00000000000E+00 0. -1.
</event>
<event>
 4    1  0.9856522E-003  0.9118800E+02  0.7818608E-02  0.1130116E+00
         25   -1    0    0    0    0  0.00000000000E+00  0.00000000000E+00  0.99999998245E-14  0.12500000000E+03  0.12500000000E+03 0.  0.
        -13    1    1    0    0    0  0.25786900341E+01  0.86705248215E+01  0.36466400908E+00  0.90538271934E+01  0.10566000000E+00 0. -1.
         13    1    1    0    0    0  0.58937364911E+01  0.38341188434E+02 -0.38626328524E+02  0.54742919904E+02  0.10566000000E+00 0.  1.
         22    1    1    0    0    0 -0.84724265252E+01 -0.47011713256E+02  0.38261664515E+02  0.61203252903E+02  0.00000000000E+00 0.  1.
</event>
<event>
 4    1  0.9856522E-003  0.9118800E+02  0.7818608E-02  0.1130116E+00
         25   -1    0    0    0    0  0.00000000000E+00  0.00000000000E+00  0.99999998245E-14  0.12500000000E+03  0.12500000000E+03 0.  0.
        -13    1    1    0    0    0 -0.56970316481E+02  0.37794322188E+01 -0.11673811632E+02  0.58276840253E+02  0.10566000000E+00 0.  1.
         13    1    1    0    0    0 -0.28246734447E+01  0.42491264449E+01 -0.65339879738E+00  0.51450898571E+01  0.10566000000E+00 0. -1.
         22    1    1    0    0    0  0.59794989925E+02 -0.80285586637E+01  0.12327210429E+02  0.61578069890E+02  0.00000000000E+00 0.  1.
</event>
<event>
 4    1  0.9856522E-003  0.9118800E+02  0.7818608E-02  0.1130116E+00
         25   -1    0    0    0    0  0.00000000000E+00  0.00000000000E+00  0.99999998245E-14  0.12500000000E+03  0.12500000000E+03 0.  0.
        -13    1    1    0    0    0  0.73953920926E+01 -0.35098078358E+02 -0.33522975695E+02  0.49095498695E+02  0.10566000000E+00 0.  1.
         13    1    1    0    0    0  0.23792336005E+01 -0.99255406627E+01 -0.86992727957E+01  0.13411398927E+02  0.10566000000E+00 0.  1.
         22    1    1    0    0    0 -0.97746256930E+01  0.45023619021E+02  0.42222248491E+02  0.62493102378E+02  0.00000000000E+00 0.  1.
</event>
<event>
 4    1  0.9856522E-003  0.9118800E+02  0.7818608E-02  0.1130116E+00
         25   -1    0    0    0    0  0.00000000000E+00  0.00000000000E+00  0.99999998245E-14  0.12500000000E+03  0.12500000000E+03 0.  0.
        -13    1    1    0    0    0 -0.16252214261E+01  0.64027219056E+00 -0.22126854707E+01  0.28210696889E+01  0.10566000000E+00 0.  1.
         13    1    1    0    0    0 -0.28100553165E+02 -0.10171853142E+02 -0.51795165986E+02  0.59798478811E+02  0.10566000000E+00 0. -1.
         22    1    1    0    0    0  0.29725774591E+02  0.95315809516E+01  0.54007851456E+02  0.62380451501E+02  0.00000000000E+00 0. -1.
</event>
<event>
 4    1  0.9856522E-003  0.9118800E+02  0.7818608E-02  0.1130116E+00
         25   -1    0    0    0    0  0.00000000000E+00  0.00000000000E+00  0.99999998245E-14  0.12500000000E+03  0.12500000000E+03 0.  0.
        -13    1    1    0    0    0 -0.11349401327E+01 -0.12654212133E+01  0.17455487627E+02  0.17538374847E+02  0.10566000000E+00 0. -1.
         13    1    1    0    0    0  0.46873201200E+02 -0.20842260735E+02  0.57349141454E+01  0.51617799523E+02  0.10566000000E+00 0.  1.
         22    1    1    0    0    0 -0.45738261067E+02  0.22107681948E+02 -0.23190401772E+02  0.55843825630E+02  0.00000000000E+00 0.  1.
</event>
<event>
 4    1  0.9856522E-003  0.9118800E+02  0.7818608E-02  0.1130116E+00
         25   -1    0    0    0    0  0.00000000000E+00  0.00000000000E+00  0.99999998245E-14  0.12500000000E+03  0.12500000000E+03 0.  0.
        -13    1    1    0    0    0  0.94569254714E+00  0.26902038786E+01 -0.25969950142E+01  0.38583776955E+01  0.10566000000E+00 0. -1.
         13    1    1    0    0    0  0.18920520709E+02  0.43757640214E+02 -0.34175433444E+02  0.58657383134E+02  0.10566000000E+00 0. -1.
         22    1    1    0    0    0 -0.19866213256E+02 -0.46447844093E+02  0.36772428458E+02  0.62484239170E+02  0.00000000000E+00 0. -1.
</event>
<event>
 4    1  0.9856522E-003  0.9118800E+02  0.7818608E-02  0.1130116E+00
         25   -1    0    0    0    0  0.00000000000E+00  0.00000000000E+00  0.99999998245E-14  0.12500000000E+03  0.12500000000E+03 0.  0.
        -13    1    1    0    0    0 -0.32655838135E+02 -0.24679761719E+02  0.42860794386E+02  0.59266797301E+02  0.10566000000E+00 0.  1.
         13    1    1    0    0    0 -0.35566455785E+01  0.86979595639E+01 -0.38428549917E+01  0.10152976257E+02  0.10566000000E+00 0. -1.
         22    1    1    0    0    0  0.36212483714E+02  0.15981802156E+02 -0.39017939394E+02  0.55580226443E+02  0.00000000000E+00 0.  1.
</event>
<event>
 4    1  0.9856522E-003  0.9118800E+02  0.7818608E-02  0.1130116E+00
         25   -1    0    0    0    0  0.00000000000E+00  0.00000000000E+00  0.99999998245E-14  0.12500000000E+03  0.12500000000E+03 0.  0.
        -13    1    1    0    0    0  0.42947359046E+01  0.62590690866E+01  0.67902103810E+01  0.10185225740E+02  0.10566000000E+00 0.  1.
         13    1    1    0    0    0  0.23930901841E+02  0.35393060891E+02  0.30239019768E+02  0.52342776987E+02  0.10566000000E+00 0. -1.
         22    1    1    0    0    0 -0.28225637746E+02 -0.41652129978E+02 -0.37029230149E+02  0.62471997273E+02  0.00000000000E+00 0. -1.
</event>
<event>
 4    1  0.9856522E-003  0.9118800E+02  0.7818608E-02  0.1130116E+00
         25   -1    0    0    0    0  0.00000000000E+00  0.00000000000E+00  0.99999998245E-14  0.12500000000E+03  0.12500000000E+03 0.  0.
        -13    1    1    0    0    0  0.21302749057E+02 -0.36052968981E+02  0.92134348520E+01  0.42877992439E+02  0.10566000000E+00 0.  1.
         13    1    1    0    0    0  0.99562268818E+01 -0.16444067955E+02  0.39405847494E+01  0.19623282010E+02  0.10566000000E+00 0. -1.
         22    1    1    0    0    0 -0.31258975939E+02  0.52497036936E+02 -0.13154019601E+02  0.62498725551E+02  0.00000000000E+00 0.  1.
</event>
<event>
 4    1  0.9856522E-003  0.9118800E+02  0.7818608E-02  0.1130116E+00
         25   -1    0    0    0    0  0.00000000000E+00  0.00000000000E+00  0.99999998245E-14  0.12500000000E+03  0.12500000000E+03 0.  0.
        -13    1    1    0    0    0 -0.10446450520E+02  0.10299783153E+02  0.21350039842E+02  0.25904617865E+02  0.10566000000E+00 0.  1.
         13    1    1    0    0    0 -0.15496808061E+02  0.14340980914E+02  0.29892253241E+02  0.36597442008E+02  0.10566000000E+00 0. -1.
         22    1    1    0    0    0  0.25943258582E+02 -0.24640764066E+02 -0.51242293083E+02  0.62497940126E+02  0.00000000000E+00 0.  1.
</event>
<event>
 4    1  0.9856522E-003  0.9118800E+02  0.7818608E-02  0.1130116E+00
         25   -1    0    0    0    0  0.00000000000E+00  0.00000000000E+00  0.99999998245E-14  0.12500000000E+03  0.12500000000E+03 0.  0.
        -13    1    1    0    0    0 -0.19157863900E+01 -0.10246152742E+02  0.62247277814E+01  0.12141346033E+02  0.10566000000E+00 0.  1.
         13    1    1    0    0    0 -0.42371173941E+01 -0.50406533144E+02  0.51384049898E+01  0.50844725560E+02  0.10566000000E+00 0. -1.
         22    1    1    0    0    0  0.61529037841E+01  0.60652685886E+02 -0.11363132771E+02  0.62013928407E+02  0.00000000000E+00 0. -1.
</event>
<event>
 4    1  0.9856522E-003  0.9118800E+02  0.7818608E-02  0.1130116E+00
         25   -1    0    0    0    0  0.00000000000E+00  0.00000000000E+00  0.99999998245E-14  0.12500000000E+03  0.12500000000E+03 0.  0.
        -13    1    1    0    0    0  0.29092431281E+00 -0.23888547241E+00 -0.10486005403E+02  0.10493291980E+02  0.10566000000E+00 0.  1.
         13    1    1    0    0    0  0.27632672696E+01  0.62769535291E+01 -0.51599583326E+02  0.52053472075E+02  0.10566000000E+00 0. -1.
         22    1    1    0    0    0 -0.30541915824E+01 -0.60380680567E+01  0.62085588730E+02  0.62453235945E+02  0.00000000000E+00 0. -1.
</event>
<event>
 4    1  0.9856522E-003  0.9118800E+02  0.7818608E-02  0.1130116E+00
         25   -1    0    0    0    0  0.00000000000E+00  0.00000000000E+00  0.99999998245E-14  0.12500000000E+03  0.12500000000E+03 0.  0.
        -13    1    1    0    0    0 -0.36886242929E+02  0.36787600490E+02  0.28780514388E+02  0.59516818125E+02  0.10566000000E+00 0.  1.
         13    1    1    0    0    0 -0.18258447453E+01  0.14005792129E+01  0.19539214480E+01  0.30206463259E+01  0.10566000000E+00 0. -1.
         22    1    1    0    0    0  0.38712087674E+02 -0.38188179703E+02 -0.30734435836E+02  0.62462535549E+02  0.00000000000E+00 0.  1.
</event>
<event>
 4    1  0.9856522E-003  0.9118800E+02  0.7818608E-02  0.1130116E+00
         25   -1    0    0    0    0  0.00000000000E+00  0.00000000000E+00  0.99999998245E-14  0.12500000000E+03  0.12500000000E+03 0.  0.
        -13    1    1    0    0    0 -0.40509332368E+02  0.31988198712E+02 -0.16912624087E+01  0.51644190363E+02  0.10566000000E+00 0. -1.
         13    1    1    0    0    0 -0.85394516224E+01  0.67085416491E+01  0.14291504220E+00  0.10860863401E+02  0.10566000000E+00 0.  1.
         22    1    1    0    0    0  0.49048783990E+02 -0.38696740361E+02  0.15483473665E+01  0.62494946236E+02  0.00000000000E+00 0. -1.
</event>
<event>
 4    1  0.9856522E-003  0.9118800E+02  0.7818608E-02  0.1130116E+00
         25   -1    0    0    0    0  0.00000000000E+00  0.00000000000E+00  0.99999998245E-14  0.12500000000E+03  0.12500000000E+03 0.  0.
        -13    1    1    0    0    0 -0.18414430610E+01  0.53140472734E+01 -0.34667973330E+01  0.66075607265E+01  0.10566000000E+00 0. -1.
         13    1    1    0    0    0 -0.15529516672E+02  0.45649616068E+02 -0.28267263038E+02  0.55893672799E+02  0.10566000000E+00 0. -1.
         22    1    1    0    0    0  0.17370959733E+02 -0.50963663342E+02  0.31734060371E+02  0.62498766475E+02  0.00000000000E+00 0. -1.
</event>
<event>
 4    1  0.9856522E-003  0.9118800E+02  0.7818608E-02  0.1130116E+00
         25   -1    0    0    0    0  0.00000000000E+00  0.00000000000E+00  0.99999998245E-14  0.12500000000E+03  0.12500000000E+03 0.  0.
        -13    1    1    0    0    0 -0.14915966820E+02 -0.34651760875E+01 -0.69740246095E+01  0.16826814755E+02  0.10566000000E+00 0.  1.
         13    1    1    0    0    0 -0.22746022285E+02  0.10876203091E+02 -0.40140584578E+02  0.47402014913E+02  0.10566000000E+00 0. -1.
         22    1    1    0    0    0  0.37661989106E+02 -0.74110270035E+01  0.47114609188E+02  0.60771170332E+02  0.00000000000E+00 0.  1.
</event>
<event>
 4    1  0.9856522E-003  0.9118800E+02  0.7818608E-02  0.1130116E+00
         25   -1    0    0    0    0  0.00000000000E+00  0.00000000000E+00  0.99999998245E-14  0.12500000000E+03  0.12500000000E+03 0.  0.
        -13    1    1    0    0    0 -0.51513426440E-01  0.19467522229E+02  0.22852098277E+02  0.30020270403E+02  0.10566000000E+00 0.  1.
         13    1    1    0    0    0  0.32469841212E+02 -0.41717609550E+02 -0.12582141797E+02  0.54341245763E+02  0.10566000000E+00 0. -1.
         22    1    1    0    0    0 -0.32418327785E+02  0.22250087321E+02 -0.10269956481E+02  0.40638483833E+02  0.00000000000E+00 0. -1.
</event>
<event>
 4    1  0.9856522E-003  0.9118800E+02  0.7818608E-02  0.1130116E+00
         25   -1    0    0    0    0  0.00000000000E+00  0.00000000000E+00  0.99999998245E-14  0.12500000000E+03  0.12500000000E+03 0.  0.
        -13    1    1    0    0    0 -0.79162124328E+01 -0.54381691456E+01  0.86851467857E+01  0.12949248691E+02  0.10566000000E+00 0.  1.
         13    1    1    0    0    0 -0.41899683194E+02  0.20555387144E+02  0.22027250270E+02  0.51607347451E+02  0.10566000000E+00 0. -1.
         22    1    1    0    0    0  0.49815895627E+02 -0.15117217999E+02 -0.30712397056E+02  0.60443403858E+02  0.00000000000E+00 0. -1.
</event>
<event>
 4    1  0.9856522E-003  0.9118800E+02  0.7818608E-02  0.1130116E+00
         25   -1    0    0    0    0  0.00000000000E+00  0.00000000000E+00  0.99999998245E-14  0.12500000000E+03  0.12500000000E+03 0.  0.
        -13    1    1    0    0    0  0.11621302507E+01 -0.74566523817E+00  0.12093887507E+01  0.18385724225E+01  0.10566000000E+00 0. -1.
         13    1    1    0    0    0  0.36805608489E+02 -0.24665590726E+02  0.41436851606E+02  0.60663564164E+02  0.10566000000E+00 0. -1.
         22    1    1    0    0    0 -0.37967738739E+02  0.25411255964E+02 -0.42646240357E+02  0.62497863413E+02  0.00000000000E+00 0. -1.
</event>
<event>
 4    1  0.9856522E-003  0.9118800E+02  0.7818608E-02  0.1130116E+00
         25   -1    0    0    0    0  0.00000000000E+00  0.00000000000E+00  0.99999998245E-14  0.12500000000E+03  0.12500000000E+03 0.  0.
        -13    1    1    0    0    0  0.25949542968E+00  0.64120448600E+00 -0.20573792178E+00  0.72936492851E+00  0.10566000000E+00 0.  1.
         13    1    1    0    0    0  0.20391778147E+01  0.49785913666E+02  0.36781686424E+02  0.61933020804E+02  0.10566000000E+00 0. -1.
         22    1    1    0    0    0 -0.22986732444E+01 -0.50427118152E+02 -0.36575948502E+02  0.62337614268E+02  0.00000000000E+00 0. -1.
</event>
<event>
 4    1  0.9856522E-003  0.9118800E+02  0.7818608E-02  0.1130116E+00
         25   -1    0    0    0    0  0.00000000000E+00  0.00000000000E+00  0.99999998245E-14  0.12500000000E+03  0.12500000000E+03 0.  0.
        -13    1    1    0    0    0  0.13485735510E+01  0.34826629765E+01  0.39646567834E+01  0.54476838635E+01  0.10566000000E+00 0. -1.
         13    1    1    0    0    0  0.14117841991E+02  0.36368830788E+02  0.41629500689E+02  0.57052886054E+02  0.10566000000E+00 0. -1.
         22    1    1    0    0    0 -0.15466415542E+02 -0.39851493765E+02 -0.45594157473E+02  0.62499430083E+02  0.00000000000E+00 0. -1.
</event>
<event>
 4    1  0.9856522E-003  0.9118800E+02  0.7818608E-02  0.1130116E+00
         25   -1    0    0    0    0  0.00000000000E+00  0.00000000000E+00  0.99999998245E-14  0.12500000000E+03  0.12500000000E+03 0.  0.
        -13    1    1    0    0    0  0.11757947203E+02  0.45826607306E+01  0.98743875227E+01  0.16023882014E+02  0.10566000000E+00 0. -1.
         13    1    1    0    0    0  0.35147443162E+02  0.13348688452E+02  0.27328931317E+02  0.46480231230E+02  0.10566000000E+00 0. -1.
         22    1    1    0    0    0 -0.46905390365E+02 -0.17931349183E+02 -0.37203318839E+02  0.62495886757E+02  0.00000000000E+00 0. -1.
</event>
<event>
 4    1  0.9856522E-003  0.9118800E+02  0.7818608E-02  0.1130116E+00
         25   -1    0    0    0    0  0.00000000000E+00  0.00000000000E+00  0.99999998245E-14  0.12500000000E+03  0.12500000000E+03 0.  0.
        -13    1    1    0    0    0  0.16441872017E+02 -0.48284343190E+02 -0.55744424542E+01  0.51310803204E+02  0.10566000000E+00 0.  1.
         13    1    1    0    0    0  0.35554855523E+01 -0.10537007609E+02 -0.12346233599E+01  0.11189524822E+02  0.10566000000E+00 0.  1.
         22    1    1    0    0    0 -0.19997357569E+02  0.58821350799E+02  0.68090658142E+01  0.62499671974E+02  0.00000000000E+00 0.  1.
</event>
<event>
 4    1  0.9856522E-003  0.9118800E+02  0.7818608E-02  0.1130116E+00
         25   -1    0    0    0    0  0.00000000000E+00  0.00000000000E+00  0.99999998245E-14  0.12500000000E+03  0.12500000000E+03 0.  0.
        -13    1    1    0    0    0 -0.94365717711E+00  0.66198150767E+00  0.41661975352E+01  0.43240113693E+01  0.10566000000E+00 0.  1.
         13    1    1    0    0    0 -0.17439811515E+02  0.32714983896E+01  0.55421622928E+02  0.58192930665E+02  0.10566000000E+00 0. -1.
         22    1    1    0    0    0  0.18383468692E+02 -0.39334798972E+01 -0.59587820463E+02  0.62483057966E+02  0.00000000000E+00 0. -1.
</event>
<event>
 4    1  0.9856522E-003  0.9118800E+02  0.7818608E-02  0.1130116E+00
         25   -1    0    0    0    0  0.00000000000E+00  0.00000000000E+00  0.99999998245E-14  0.12500000000E+03  0.12500000000E+03 0.  0.
        -13    1    1    0    0    0 -0.61728550282E+01  0.78621770830E+01  0.84151021139E+01  0.13066869377E+02  0.10566000000E+00 0. -1.
         13    1    1    0    0    0 -0.26332255622E+02  0.28995436243E+02  0.30179467753E+02  0.49446278393E+02  0.10566000000E+00 0.  1.
         22    1    1    0    0    0  0.32505110650E+02 -0.36857613326E+02 -0.38594569867E+02  0.62486852230E+02  0.00000000000E+00 0.  1.
</event>
<event>
 4    1  0.9856522E-003  0.9118800E+02  0.7818608E-02  0.1130116E+00
         25   -1    0    0    0    0  0.00000000000E+00  0.00000000000E+00  0.99999998245E-14  0.12500000000E+03  0.12500000000E+03 0.  0.
        -13    1    1    0    0    0  0.89689946907E+01 -0.68149835031E+01 -0.11415133700E+02  0.16037559270E+02  0.10566000000E+00 0. -1.
         13    1    1    0    0    0  0.96444288132E+01 -0.44980282394E+01 -0.46177754753E+02  0.47388220722E+02  0.10566000000E+00 0.  1.
         22    1    1    0    0    0 -0.18613423504E+02  0.11313011742E+02  0.57592888453E+02  0.61574220008E+02  0.00000000000E+00 0.  1.
</event>
<event>
 4    1  0.9856522E-003  0.9118800E+02  0.7818608E-02  0.1130116E+00
         25   -1    0    0    0    0  0.00000000000E+00  0.00000000000E+00  0.99999998245E-14  0.12500000000E+03  0.12500000000E+03 0.  0.
        -13    1    1    0    0    0 -0.31078765295E+02 -0.39552332332E+01 -0.18647576386E+02  0.36459248364E+02  0.10566000000E+00 0. -1.
         13    1    1    0    0    0 -0.22426494749E+02 -0.24076734764E+01 -0.13017951685E+02  0.26042710849E+02  0.10566000000E+00 0.  1.
         22    1    1    0    0    0  0.53505260043E+02  0.63629067096E+01  0.31665528071E+02  0.62498040786E+02  0.00000000000E+00 0. -1.
</event>
<event>
 4    1  0.9856522E-003  0.9118800E+02  0.7818608E-02  0.1130116E+00
         25   -1    0    0    0    0  0.00000000000E+00  0.00000000000E+00  0.99999998245E-14  0.12500000000E+03  0.12500000000E+03 0.  0.
        -13    1    1    0    0    0 -0.18526163051E+02  0.25113153998E+02 -0.41120654238E+02  0.51621784066E+02  0.10566000000E+00 0. -1.
         13    1    1    0    0    0 -0.12711790606E+01  0.86210775963E+01 -0.71335255920E+01  0.11262203449E+02  0.10566000000E+00 0.  1.
         22    1    1    0    0    0  0.19797342112E+02 -0.33734231594E+02  0.48254179830E+02  0.62116012485E+02  0.00000000000E+00 0. -1.
</event>
<event>
 4    1  0.9856522E-003  0.9118800E+02  0.7818608E-02  0.1130116E+00
         25   -1    0    0    0    0  0.00000000000E+00  0.00000000000E+00  0.99999998245E-14  0.12500000000E+03  0.12500000000E+03 0.  0.
        -13    1    1    0    0    0  0.45119967349E+01 -0.96978823492E+01  0.11425045136E+01  0.10757486565E+02  0.10566000000E+00 0. -1.
         13    1    1    0    0    0  0.17152894458E+02 -0.48616676936E+02  0.46564266143E+01  0.51763853580E+02  0.10566000000E+00 0.  1.
         22    1    1    0    0    0 -0.21664891193E+02  0.58314559285E+02 -0.57989311279E+01  0.62478659855E+02  0.00000000000E+00 0.  1.
</event>
<event>
 4    1  0.9856522E-003  0.9118800E+02  0.7818608E-02  0.1130116E+00
         25   -1    0    0    0    0  0.00000000000E+00  0.00000000000E+00  0.99999998245E-14  0.12500000000E+03  0.12500000000E+03 0.  0.
        -13    1    1    0    0    0 -0.16519827836E+01  0.76799126179E+01 -0.10789710106E+02  0.13346876531E+02  0.10566000000E+00 0.  1.
         13    1    1    0    0    0 -0.71164176858E+01  0.28686037538E+02 -0.39276787601E+02  0.49154952534E+02  0.10566000000E+00 0. -1.
         22    1    1    0    0    0  0.87684004695E+01 -0.36365950156E+02  0.50066497707E+02  0.62498170935E+02  0.00000000000E+00 0. -1.
</event>
<event>
 4    1  0.9856522E-003  0.9118800E+02  0.7818608E-02  0.1130116E+00
         25   -1    0    0    0    0  0.00000000000E+00  0.00000000000E+00  0.99999998245E-14  0.12500000000E+03  0.12500000000E+03 0.  0.
        -13    1    1    0    0    0  0.64865724680E+01  0.91516259011E+00 -0.60648293327E+01  0.89278476589E+01  0.10566000000E+00 0. -1.
         13    1    1    0    0    0  0.38992027784E+02  0.59512739498E+01 -0.36252232606E+02  0.53572674241E+02  0.10566000000E+00 0.  1.
         22    1    1    0    0    0 -0.45478600252E+02 -0.68664365399E+01  0.42317061939E+02  0.62499478100E+02  0.00000000000E+00 0.  1.
</event>
<event>
 4    1  0.9856522E-003  0.9118800E+02  0.7818608E-02  0.1130116E+00
         25   -1    0    0    0    0  0.00000000000E+00  0.00000000000E+00  0.99999998245E-14  0.12500000000E+03  0.12500000000E+03 0.  0.
        -13    1    1    0    0    0 -0.34807243417E+00  0.40037381166E+02  0.29337749052E+01  0.40146372741E+02  0.10566000000E+00 0. -1.
         13    1    1    0    0    0 -0.26515601820E+01  0.20838896002E+02 -0.10412913342E+02  0.23446327778E+02  0.10566000000E+00 0.  1.
         22    1    1    0    0    0  0.29996326161E+01 -0.60876277168E+02  0.74791384367E+01  0.61407299480E+02  0.00000000000E+00 0. -1.
</event>
<event>
 4    1  0.9856522E-003  0.9118800E+02  0.7818608E-02  0.1130116E+00
         25   -1    0    0    0    0  0.00000000000E+00  0.00000000000E+00  0.99999998245E-14  0.12500000000E+03  0.12500000000E+03 0.  0.
        -13    1    1    0    0    0  0.11209564740E+02  0.36254731020E+02  0.24923948018E+02  0.45401257822E+02  0.10566000000E+00 0.  1.
         13    1    1    0    0    0 -0.27542336870E+02 -0.54569782269E+01  0.10426030917E+02  0.29951163856E+02  0.10566000000E+00 0. -1.
         22    1    1    0    0    0  0.16332772130E+02 -0.30797752793E+02 -0.35349978935E+02  0.49647578322E+02  0.00000000000E+00 0. -1.
</event>
<event>
 4    1  0.9856522E-003  0.9118800E+02  0.7818608E-02  0.1130116E+00
         25   -1    0    0    0    0  0.00000000000E+00  0.00000000000E+00  0.99999998245E-14  0.12500000000E+03  0.12500000000E+03 0.  0.
        -13    1    1    0    0    0  0.19721293827E+02 -0.41985326443E+02  0.16024155883E+02  0.49076285542E+02  0.10566000000E+00 0.  1.
         13    1    1    0    0    0  0.10669964429E+02 -0.94276778647E+01 -0.55831546222E+01  0.15294182894E+02  0.10566000000E+00 0. -1.
         22    1    1    0    0    0 -0.30391258256E+02  0.51413004308E+02 -0.10441001260E+02  0.60629531564E+02  0.00000000000E+00 0.  1.
</event>
<event>
 4    1  0.9856522E-003  0.9118800E+02  0.7818608E-02  0.1130116E+00
         25   -1    0    0    0    0  0.00000000000E+00  0.00000000000E+00  0.99999998245E-14  0.12500000000E+03  0.12500000000E+03 0.  0.
        -13    1    1    0    0    0 -0.52115305432E+01  0.24832584028E+01 -0.10540092370E+02  0.12017958816E+02  0.10566000000E+00 0. -1.
         13    1    1    0    0    0 -0.14606815719E+02  0.14300125977E+02 -0.46233277304E+02  0.50550764215E+02  0.10566000000E+00 0.  1.
         22    1    1    0    0    0  0.19818346263E+02 -0.16783384379E+02  0.56773369674E+02  0.62431276969E+02  0.00000000000E+00 0.  1.
</event>
<event>
 4    1  0.9856522E-003  0.9118800E+02  0.7818608E-02  0.1130116E+00
         25   -1    0    0    0    0  0.00000000000E+00  0.00000000000E+00  0.99999998245E-14  0.12500000000E+03  0.12500000000E+03 0.  0.
        -13    1    1    0    0    0  0.14485721089E+02  0.41994976315E+02  0.33393245781E+02  0.55574582131E+02  0.10566000000E+00 0.  1.
         13    1    1    0    0    0  0.18058847074E+01  0.52565274138E+01  0.41309656906E+01  0.69259181053E+01  0.10566000000E+00 0.  1.
         22    1    1    0    0    0 -0.16291605796E+02 -0.47251503729E+02 -0.37524211472E+02  0.62499499764E+02  0.00000000000E+00 0.  1.
</event>
<event>
 4    1  0.9856522E-003  0.9118800E+02  0.7818608E-02  0.1130116E+00
         25   -1    0    0    0    0  0.00000000000E+00  0.00000000000E+00  0.99999998245E-14  0.12500000000E+03  0.12500000000E+03 0.  0.
        -13    1    1    0    0    0 -0.10010280195E+02  0.10065665967E+02 -0.65972699674E+01  0.15654343678E+02  0.10566000000E+00 0.  1.
         13    1    1    0    0    0 -0.30870138183E+02  0.27114324937E+02 -0.22552185716E+02  0.46869652152E+02  0.10566000000E+00 0. -1.
         22    1    1    0    0    0  0.40880418378E+02 -0.37179990904E+02  0.29149455684E+02  0.62476004170E+02  0.00000000000E+00 0. -1.
</event>
<event>
 4    1  0.9856522E-003  0.9118800E+02  0.7818608E-02  0.1130116E+00
         25   -1    0    0    0    0  0.00000000000E+00  0.00000000000E+00  0.99999998245E-14  0.12500000000E+03  0.12500000000E+03 0.  0.
        -13    1    1    0    0    0  0.57410804297E+01  0.10122670849E+02 -0.22358034332E+01  0.11850673004E+02  0.10566000000E+00 0. -1.
         13    1    1    0    0    0  0.35039537573E+02  0.35964513006E+02  0.97605104340E+01  0.51151677559E+02  0.10566000000E+00 0.  1.
         22    1    1    0    0    0 -0.40780618003E+02 -0.46087183855E+02 -0.75247070008E+01  0.61997649438E+02  0.00000000000E+00 0.  1.
</event>
<event>
 4    1  0.9856522E-003  0.9118800E+02  0.7818608E-02  0.1130116E+00
         25   -1    0    0    0    0  0.00000000000E+00  0.00000000000E+00  0.99999998245E-14  0.12500000000E+03  0.12500000000E+03 0.  0.
        -13    1    1    0    0    0 -0.51886023683E+02  0.50115756385E+01 -0.80632244028E+01  0.52747531656E+02  0.10566000000E+00 0.  1.
         13    1    1    0    0    0 -0.95039670342E+01  0.10261392892E+01 -0.19561926972E+01  0.97578791308E+01  0.10566000000E+00 0. -1.
         22    1    1    0    0    0  0.61389990717E+02 -0.60377149278E+01  0.10019417100E+02  0.62494589213E+02  0.00000000000E+00 0.  1.
</event>
<event>
 4    1  0.9856522E-003  0.9118800E+02  0.7818608E-02  0.1130116E+00
         25   -1    0    0    0    0  0.00000000000E+00  0.00000000000E+00  0.99999998245E-14  0.12500000000E+03  0.12500000000E+03 0.  0.
        -13    1    1    0    0    0 -0.13032521998E+01  0.30933122994E+00  0.17016198020E+01  0.21681388545E+01  0.10566000000E+00 0. -1.
         13    1    1    0    0    0 -0.88068718953E+01  0.54413426952E+02  0.25681528760E+02  0.60810641410E+02  0.10566000000E+00 0.  1.
         22    1    1    0    0    0  0.10110124095E+02 -0.54722758182E+02 -0.27383148562E+02  0.62021219735E+02  0.00000000000E+00 0.  1.
</event>
<event>
 4    1  0.9856522E-003  0.9118800E+02  0.7818608E-02  0.1130116E+00
         25   -1    0    0    0    0  0.00000000000E+00  0.00000000000E+00  0.99999998245E-14  0.12500000000E+03  0.12500000000E+03 0.  0.
        -13    1    1    0    0    0  0.39100485927E+01  0.55519256220E+01  0.34132041727E+01  0.76008871107E+01  0.10566000000E+00 0.  1.
         13    1    1    0    0    0  0.30379303508E+02  0.37120087664E+02  0.26724960743E+02  0.54909358770E+02  0.10566000000E+00 0. -1.
         22    1    1    0    0    0 -0.34289352100E+02 -0.42672013286E+02 -0.30138164916E+02  0.62489754119E+02  0.00000000000E+00 0. -1.
</event>
<event>
 4    1  0.9856522E-003  0.9118800E+02  0.7818608E-02  0.1130116E+00
         25   -1    0    0    0    0  0.00000000000E+00  0.00000000000E+00  0.99999998245E-14  0.12500000000E+03  0.12500000000E+03 0.  0.
        -13    1    1    0    0    0 -0.29863426521E+02  0.37441751383E+01 -0.37814641416E+02  0.48330128910E+02  0.10566000000E+00 0.  1.
         13    1    1    0    0    0 -0.89371626387E+01  0.10613896340E+01 -0.10945449278E+02  0.14170866167E+02  0.10566000000E+00 0. -1.
         22    1    1    0    0    0  0.38800589160E+02 -0.48055647723E+01  0.48760090693E+02  0.62499004923E+02  0.00000000000E+00 0.  1.
</event>
<event>
 4    1  0.9856522E-003  0.9118800E+02  0.7818608E-02  0.1130116E+00
         25   -1    0    0    0    0  0.00000000000E+00  0.00000000000E+00  0.99999998245E-14  0.12500000000E+03  0.12500000000E+03 0.  0.
        -13    1    1    0    0    0  0.14909804431E+02 -0.61441327611E+01  0.23928778578E+02  0.28855679577E+02  0.10566000000E+00 0.  1.
         13    1    1    0    0    0  0.16855441762E+02 -0.79029050142E+01  0.28028090245E+02  0.33647389668E+02  0.10566000000E+00 0.  1.
         22    1    1    0    0    0 -0.31765246193E+02  0.14047037775E+02 -0.51956868823E+02  0.62496930755E+02  0.00000000000E+00 0.  1.
</event>
<event>
 4    1  0.9856522E-003  0.9118800E+02  0.7818608E-02  0.1130116E+00
         25   -1    0    0    0    0  0.00000000000E+00  0.00000000000E+00  0.99999998245E-14  0.12500000000E+03  0.12500000000E+03 0.  0.
        -13    1    1    0    0    0 -0.26701868038E+02 -0.70390326902E+01  0.75134334704E+01  0.28618186254E+02  0.10566000000E+00 0. -1.
         13    1    1    0    0    0  0.19329083535E+02 -0.12118285707E+02  0.39201009818E+02  0.45356329807E+02  0.10566000000E+00 0.  1.
         22    1    1    0    0    0  0.73727845026E+01  0.19157318397E+02 -0.46714443288E+02  0.51025483939E+02  0.00000000000E+00 0.  1.
</event>
<event>
 4    1  0.9856522E-003  0.9118800E+02  0.7818608E-02  0.1130116E+00
         25   -1    0    0    0    0  0.00000000000E+00  0.00000000000E+00  0.99999998245E-14  0.12500000000E+03  0.12500000000E+03 0.  0.
        -13    1    1    0    0    0  0.31916802258E+02  0.21611076733E+02  0.31616885670E+02  0.49853380301E+02  0.10566000000E+00 0. -1.
         13    1    1    0    0    0  0.98489922090E+01  0.50022861390E+01  0.63514222897E+01  0.12742732960E+02  0.10566000000E+00 0.  1.
         22    1    1    0    0    0 -0.41765794467E+02 -0.26613362872E+02 -0.37968307960E+02  0.62403886739E+02  0.00000000000E+00 0. -1.
</event>
<event>
 4    1  0.9856522E-003  0.9118800E+02  0.7818608E-02  0.1130116E+00
         25   -1    0    0    0    0  0.00000000000E+00  0.00000000000E+00  0.99999998245E-14  0.12500000000E+03  0.12500000000E+03 0.  0.
        -13    1    1    0    0    0  0.18265125072E+02 -0.12038752906E+02 -0.48930667599E+02  0.53598206697E+02  0.10566000000E+00 0. -1.
         13    1    1    0    0    0 -0.73710664015E+01 -0.19656695655E+01 -0.84240540899E+01  0.11365400480E+02  0.10566000000E+00 0.  1.
         22    1    1    0    0    0 -0.10894058670E+02  0.14004422472E+02  0.57354721689E+02  0.60036392822E+02  0.00000000000E+00 0. -1.
</event>
<event>
 4    1  0.9856522E-003  0.9118800E+02  0.7818608E-02  0.1130116E+00
         25   -1    0    0    0    0  0.00000000000E+00  0.00000000000E+00  0.99999998245E-14  0.12500000000E+03  0.12500000000E+03 0.  0.
        -13    1    1    0    0    0  0.69016695216E+01 -0.32633602827E+02 -0.45357156823E+02  0.56301580038E+02  0.10566000000E+00 0. -1.
         13    1    1    0    0    0 -0.96648349150E+01 -0.46479412006E+01  0.22382192665E+02  0.24819067344E+02  0.10566000000E+00 0.  1.
         22    1    1    0    0    0  0.27631653934E+01  0.37281544028E+02  0.22974964158E+02  0.43879352618E+02  0.00000000000E+00 0. -1.
</event>
<event>
 4    1  0.9856522E-003  0.9118800E+02  0.7818608E-02  0.1130116E+00
         25   -1    0    0    0    0  0.00000000000E+00  0.00000000000E+00  0.99999998245E-14  0.12500000000E+03  0.12500000000E+03 0.  0.
        -13    1    1    0    0    0 -0.20489100821E+01 -0.74603254871E+01 -0.14896803791E+02  0.16786316336E+02  0.10566000000E+00 0.  1.
         13    1    1    0    0    0 -0.67263794055E+01 -0.35067251003E+02 -0.29348209042E+02  0.46219961173E+02  0.10566000000E+00 0. -1.
         22    1    1    0    0    0  0.87752894876E+01  0.42527576490E+02  0.44245012833E+02  0.61993722491E+02  0.00000000000E+00 0. -1.
</event>
<event>
 4    1  0.9856522E-003  0.9118800E+02  0.7818608E-02  0.1130116E+00
         25   -1    0    0    0    0  0.00000000000E+00  0.00000000000E+00  0.99999998245E-14  0.12500000000E+03  0.12500000000E+03 0.  0.
        -13    1    1    0    0    0 -0.64010740786E+01 -0.19429265335E+02  0.23675217875E+01  0.20593358742E+02  0.10566000000E+00 0.  1.
         13    1    1    0    0    0 -0.12867381547E+02 -0.39590759830E+02  0.48144773959E+01  0.41906898339E+02  0.10566000000E+00 0.  1.
         22    1    1    0    0    0  0.19268455626E+02  0.59020025165E+02 -0.71819991834E+01  0.62499742919E+02  0.00000000000E+00 0.  1.
</event>
<event>
 4    1  0.9856522E-003  0.9118800E+02  0.7818608E-02  0.1130116E+00
         25   -1    0    0    0    0  0.00000000000E+00  0.00000000000E+00  0.99999998245E-14  0.12500000000E+03  0.12500000000E+03 0.  0.
        -13    1    1    0    0    0 -0.10790452999E+02  0.37809658685E+02  0.13680693788E+01  0.39343194376E+02  0.10566000000E+00 0. -1.
         13    1    1    0    0    0 -0.43184923686E+01  0.22683475670E+02  0.22500205763E+01  0.23200500025E+02  0.10566000000E+00 0.  1.
         22    1    1    0    0    0  0.15108945367E+02 -0.60493134355E+02 -0.36180899551E+01  0.62456305599E+02  0.00000000000E+00 0.  1.
</event>
<event>
 4    1  0.9856522E-003  0.9118800E+02  0.7818608E-02  0.1130116E+00
         25   -1    0    0    0    0  0.00000000000E+00  0.00000000000E+00  0.99999998245E-14  0.12500000000E+03  0.12500000000E+03 0.  0.
        -13    1    1    0    0    0 -0.29465790193E+01 -0.21008599904E+02  0.23912009898E+02  0.31966216217E+02  0.10566000000E+00 0. -1.
         13    1    1    0    0    0 -0.31277064207E+01 -0.19662117588E+02  0.23152152572E+02  0.30535467055E+02  0.10566000000E+00 0.  1.
         22    1    1    0    0    0  0.60742854400E+01  0.40670717491E+02 -0.47064162470E+02  0.62498316728E+02  0.00000000000E+00 0.  1.
</event>
<event>
 4    1  0.9856522E-003  0.9118800E+02  0.7818608E-02  0.1130116E+00
         25   -1    0    0    0    0  0.00000000000E+00  0.00000000000E+00  0.99999998245E-14  0.12500000000E+03  0.12500000000E+03 0.  0.
        -13    1    1    0    0    0 -0.31420196424E+01  0.53425627402E+01 -0.48112224688E+01  0.78469286824E+01  0.10566000000E+00 0. -1.
         13    1    1    0    0    0 -0.35677568386E+02  0.33539194639E+02 -0.24637003224E+02  0.54815687124E+02  0.10566000000E+00 0.  1.
         22    1    1    0    0    0  0.38819588029E+02 -0.38881757379E+02  0.29448225693E+02  0.62337384193E+02  0.00000000000E+00 0.  1.
</event>
<event>
 4    1  0.9856522E-003  0.9118800E+02  0.7818608E-02  0.1130116E+00
         25   -1    0    0    0    0  0.00000000000E+00  0.00000000000E+00  0.99999998245E-14  0.12500000000E+03  0.12500000000E+03 0.  0.
        -13    1    1    0    0    0 -0.28486127124E+01  0.18849458195E+01 -0.22112265182E+01  0.40704178997E+01  0.10566000000E+00 0. -1.
         13    1    1    0    0    0 -0.20109994159E+02  0.17643353936E+02 -0.52240692229E+02  0.58692426188E+02  0.10566000000E+00 0.  1.
         22    1    1    0    0    0  0.22958606871E+02 -0.19528299755E+02  0.54451918748E+02  0.62237155913E+02  0.00000000000E+00 0.  1.
</event>
<event>
 4    1  0.9856522E-003  0.9118800E+02  0.7818608E-02  0.1130116E+00
         25   -1    0    0    0    0  0.00000000000E+00  0.00000000000E+00  0.99999998245E-14  0.12500000000E+03  0.12500000000E+03 0.  0.
        -13    1    1    0    0    0 -0.37429542718E+01 -0.30225544670E+01 -0.13408251548E+01  0.49954497614E+01  0.10566000000E+00 0.  1.
         13    1    1    0    0    0 -0.39653619060E+02 -0.41725253717E+02  0.30903770123E+01  0.57645189707E+02  0.10566000000E+00 0. -1.
         22    1    1    0    0    0  0.43396573332E+02  0.44747808184E+02 -0.17495518575E+01  0.62359360531E+02  0.00000000000E+00 0. -1.
</event>
<event>
 4    1  0.9856522E-003  0.9118800E+02  0.7818608E-02  0.1130116E+00
         25   -1    0    0    0    0  0.00000000000E+00  0.00000000000E+00  0.99999998245E-14  0.12500000000E+03  0.12500000000E+03 0.  0.
        -13    1    1    0    0    0  0.11159250971E+02  0.31619748343E+02 -0.16148696899E+02  0.37217320472E+02  0.10566000000E+00 0.  1.
         13    1    1    0    0    0  0.76448919826E+01  0.21520389514E+02 -0.10846511894E+02  0.25282988798E+02  0.10566000000E+00 0.  1.
         22    1    1    0    0    0 -0.18804142953E+02 -0.53140137857E+02  0.26995208793E+02  0.62499690731E+02  0.00000000000E+00 0.  1.
</event>
<event>
 4    1  0.9856522E-003  0.9118800E+02  0.7818608E-02  0.1130116E+00
         25   -1    0    0    0    0  0.00000000000E+00  0.00000000000E+00  0.99999998245E-14  0.12500000000E+03  0.12500000000E+03 0.  0.
        -13    1    1    0    0    0  0.81901934837E+01  0.27561067496E+02  0.11975069470E+02  0.31146511260E+02  0.10566000000E+00 0. -1.
         13    1    1    0    0    0 -0.46433331658E+02 -0.25775651278E+02  0.18736081286E+01  0.53140945222E+02  0.10566000000E+00 0.  1.
         22    1    1    0    0    0  0.38243138174E+02 -0.17854162180E+01 -0.13848677598E+02  0.40712543518E+02  0.00000000000E+00 0.  1.
</event>
<event>
 4    1  0.9856522E-003  0.9118800E+02  0.7818608E-02  0.1130116E+00
         25   -1    0    0    0    0  0.00000000000E+00  0.00000000000E+00  0.99999998245E-14  0.12500000000E+03  0.12500000000E+03 0.  0.
        -13    1    1    0    0    0 -0.64451068273E+01 -0.30969853479E+01  0.51808651014E+01  0.88308123916E+01  0.10566000000E+00 0. -1.
         13    1    1    0    0    0 -0.37616978172E+02 -0.22051611939E+02  0.31305097525E+02  0.53678030244E+02  0.10566000000E+00 0.  1.
         22    1    1    0    0    0  0.44062084999E+02  0.25148597287E+02 -0.36485962626E+02  0.62491157364E+02  0.00000000000E+00 0.  1.
</event>
<event>
 4    1  0.9856522E-003  0.9118800E+02  0.7818608E-02  0.1130116E+00
         25   -1    0    0    0    0  0.00000000000E+00  0.00000000000E+00  0.99999998245E-14  0.12500000000E+03  0.12500000000E+03 0.  0.
        -13    1    1    0    0    0  0.14388078450E+02 -0.39894568789E+02  0.10435971655E+02  0.43675096894E+02  0.10566000000E+00 0. -1.
         13    1    1    0    0    0  0.54362893559E+01 -0.17414205369E+02  0.46687864206E+01  0.18831264463E+02  0.10566000000E+00 0.  1.
         22    1    1    0    0    0 -0.19824367805E+02  0.57308774157E+02 -0.15104758076E+02  0.62493638643E+02  0.00000000000E+00 0. -1.
</event>
<event>
 4    1  0.9856522E-003  0.9118800E+02  0.7818608E-02  0.1130116E+00
         25   -1    0    0    0    0  0.00000000000E+00  0.00000000000E+00  0.99999998245E-14  0.12500000000E+03  0.12500000000E+03 0.  0.
        -13    1    1    0    0    0  0.16625200825E+01 -0.53321896325E+01 -0.20489099303E+01  0.59502449731E+01  0.10566000000E+00 0. -1.
         13    1    1    0    0    0  0.17045316030E+02 -0.51240305518E+02 -0.16799984754E+02  0.56554065812E+02  0.10566000000E+00 0.  1.
         22    1    1    0    0    0 -0.18707836112E+02  0.56572495151E+02  0.18848894684E+02  0.62495689214E+02  0.00000000000E+00 0.  1.
</event>
<event>
 4    1  0.9856522E-003  0.9118800E+02  0.7818608E-02  0.1130116E+00
         25   -1    0    0    0    0  0.00000000000E+00  0.00000000000E+00  0.99999998245E-14  0.12500000000E+03  0.12500000000E+03 0.  0.
        -13    1    1    0    0    0 -0.10876573764E+02  0.39307640546E+02 -0.16523019406E+02  0.44004679257E+02  0.10566000000E+00 0. -1.
         13    1    1    0    0    0 -0.53033178733E+01  0.16175962488E+02 -0.72491292494E+01  0.18502647967E+02  0.10566000000E+00 0.  1.
         22    1    1    0    0    0  0.16179891638E+02 -0.55483603034E+02  0.23772148655E+02  0.62492672776E+02  0.00000000000E+00 0. -1.
</event>
<event>
 4    1  0.9856522E-003  0.9118800E+02  0.7818608E-02  0.1130116E+00
         25   -1    0    0    0    0  0.00000000000E+00  0.00000000000E+00  0.99999998245E-14  0.12500000000E+03  0.12500000000E+03 0.  0.
        -13    1    1    0    0    0 -0.32153362142E+02  0.57976212427E+01 -0.11270778624E+02  0.34561434055E+02  0.10566000000E+00 0. -1.
         13    1    1    0    0    0 -0.26194049483E+02  0.34127350768E+01 -0.91240070376E+01  0.27946979398E+02  0.10566000000E+00 0.  1.
         22    1    1    0    0    0  0.58347411625E+02 -0.92103563195E+01  0.20394785662E+02  0.62491586547E+02  0.00000000000E+00 0. -1.
</event>
<event>
 4    1  0.9856522E-003  0.9118800E+02  0.7818608E-02  0.1130116E+00
         25   -1    0    0    0    0  0.00000000000E+00  0.00000000000E+00  0.99999998245E-14  0.12500000000E+03  0.12500000000E+03 0.  0.
        -13    1    1    0    0    0  0.45364908789E+01  0.18485671146E+01 -0.74212193055E+01  0.88928403723E+01  0.10566000000E+00 0. -1.
         13    1    1    0    0    0  0.14730786093E+02  0.99237645636E+01 -0.50717535387E+02  0.53737851853E+02  0.10566000000E+00 0.  1.
         22    1    1    0    0    0 -0.19267276972E+02 -0.11772331678E+02  0.58138754692E+02  0.62369307774E+02  0.00000000000E+00 0.  1.
</event>
<event>
 4    1  0.9856522E-003  0.9118800E+02  0.7818608E-02  0.1130116E+00
         25   -1    0    0    0    0  0.00000000000E+00  0.00000000000E+00  0.99999998245E-14  0.12500000000E+03  0.12500000000E+03 0.  0.
        -13    1    1    0    0    0  0.22890765218E+02 -0.12484844914E+02 -0.28165251266E+02  0.38381649622E+02  0.10566000000E+00 0.  1.
         13    1    1    0    0    0  0.14623593382E+02 -0.79500968786E+01 -0.17455039769E+02  0.24119351176E+02  0.10566000000E+00 0. -1.
         22    1    1    0    0    0 -0.37514358600E+02  0.20434941792E+02  0.45620291035E+02  0.62498999202E+02  0.00000000000E+00 0.  1.
</event>
<event>
 4    1  0.9856522E-003  0.9118800E+02  0.7818608E-02  0.1130116E+00
         25   -1    0    0    0    0  0.00000000000E+00  0.00000000000E+00  0.99999998245E-14  0.12500000000E+03  0.12500000000E+03 0.  0.
        -13    1    1    0    0    0  0.75034230372E+01  0.15487980985E+02 -0.12264698733E+02  0.21133218196E+02  0.10566000000E+00 0.  1.
         13    1    1    0    0    0  0.14000964361E+02  0.30407619376E+02 -0.24303529963E+02  0.41368140541E+02  0.10566000000E+00 0. -1.
         22    1    1    0    0    0 -0.21504387398E+02 -0.45895600360E+02  0.36568228696E+02  0.62498641263E+02  0.00000000000E+00 0. -1.
</event>
<event>
 4    1  0.9856522E-003  0.9118800E+02  0.7818608E-02  0.1130116E+00
         25   -1    0    0    0    0  0.00000000000E+00  0.00000000000E+00  0.99999998245E-14  0.12500000000E+03  0.12500000000E+03 0.  0.
        -13    1    1    0    0    0  0.75935738145E+01  0.13385403555E+02 -0.10306962502E+02  0.18522311726E+02  0.10566000000E+00 0. -1.
         13    1    1    0    0    0  0.16984006161E+02  0.33474439664E+02 -0.22934415206E+02  0.43988556932E+02  0.10566000000E+00 0.  1.
         22    1    1    0    0    0 -0.24577579976E+02 -0.46859843219E+02  0.33241377708E+02  0.62489131342E+02  0.00000000000E+00 0.  1.
</event>
<event>
 4    1  0.9856522E-003  0.9118800E+02  0.7818608E-02  0.1130116E+00
         25   -1    0    0    0    0  0.00000000000E+00  0.00000000000E+00  0.99999998245E-14  0.12500000000E+03  0.12500000000E+03 0.  0.
        -13    1    1    0    0    0  0.24694296901E+02 -0.11273168968E+02 -0.24950003583E+02  0.36870129927E+02  0.10566000000E+00 0. -1.
         13    1    1    0    0    0  0.24143460594E+02  0.64654539949E+01 -0.10989011711E+02  0.27303448999E+02  0.10566000000E+00 0.  1.
         22    1    1    0    0    0 -0.48837757495E+02  0.48077149727E+01  0.35939015294E+02  0.60826421074E+02  0.00000000000E+00 0. -1.
</event>
<event>
 4    1  0.9856522E-003  0.9118800E+02  0.7818608E-02  0.1130116E+00
         25   -1    0    0    0    0  0.00000000000E+00  0.00000000000E+00  0.99999998245E-14  0.12500000000E+03  0.12500000000E+03 0.  0.
        -13    1    1    0    0    0  0.26663333986E+01 -0.81393544561E+01 -0.39547346272E+02  0.40464332268E+02  0.10566000000E+00 0. -1.
         13    1    1    0    0    0  0.22228831475E+02  0.31741165572E+02  0.12082124107E+02  0.40590780081E+02  0.10566000000E+00 0.  1.
         22    1    1    0    0    0 -0.24895164874E+02 -0.23601811116E+02  0.27465222164E+02  0.43944887650E+02  0.00000000000E+00 0.  1.
</event>
<event>
 4    1  0.9856522E-003  0.9118800E+02  0.7818608E-02  0.1130116E+00
         25   -1    0    0    0    0  0.00000000000E+00  0.00000000000E+00  0.99999998245E-14  0.12500000000E+03  0.12500000000E+03 0.  0.
        -13    1    1    0    0    0 -0.63413138845E+01  0.64776857025E+01 -0.82671646823E+00  0.91031476972E+01  0.10566000000E+00 0. -1.
         13    1    1    0    0    0 -0.36796004030E+02  0.38200221901E+02 -0.61799502532E+01  0.53398556301E+02  0.10566000000E+00 0. -1.
         22    1    1    0    0    0  0.43137317914E+02 -0.44677907603E+02  0.70066667215E+01  0.62498296002E+02  0.00000000000E+00 0. -1.
</event>
<event>
 4    1  0.9856522E-003  0.9118800E+02  0.7818608E-02  0.1130116E+00
         25   -1    0    0    0    0  0.00000000000E+00  0.00000000000E+00  0.99999998245E-14  0.12500000000E+03  0.12500000000E+03 0.  0.
        -13    1    1    0    0    0 -0.61876952758E+01 -0.89648939815E+01 -0.18886309256E+02  0.21802769051E+02  0.10566000000E+00 0.  1.
         13    1    1    0    0    0 -0.11015715009E+02 -0.15599623191E+02 -0.35943462973E+02  0.40701817102E+02  0.10566000000E+00 0. -1.
         22    1    1    0    0    0  0.17203410285E+02  0.24564517173E+02  0.54829772229E+02  0.62495413848E+02  0.00000000000E+00 0.  1.
</event>
<event>
 4    1  0.9856522E-003  0.9118800E+02  0.7818608E-02  0.1130116E+00
         25   -1    0    0    0    0  0.00000000000E+00  0.00000000000E+00  0.99999998245E-14  0.12500000000E+03  0.12500000000E+03 0.  0.
        -13    1    1    0    0    0 -0.29625095328E+02  0.82015777799E+00  0.87801441532E+01  0.30909885593E+02  0.10566000000E+00 0.  1.
         13    1    1    0    0    0 -0.30335762419E+02  0.61594379856E+00  0.87931044823E+01  0.31590627072E+02  0.10566000000E+00 0.  1.
         22    1    1    0    0    0  0.59960857747E+02 -0.14361015766E+01 -0.17573248636E+02  0.62499487335E+02  0.00000000000E+00 0.  1.
</event>
<event>
 4    1  0.9856522E-003  0.9118800E+02  0.7818608E-02  0.1130116E+00
         25   -1    0    0    0    0  0.00000000000E+00  0.00000000000E+00  0.99999998245E-14  0.12500000000E+03  0.12500000000E+03 0.  0.
        -13    1    1    0    0    0 -0.10680600645E+02  0.49128083100E+02  0.12545668063E+02  0.51817455846E+02  0.10566000000E+00 0.  1.
         13    1    1    0    0    0  0.70300100186E+00  0.11044044239E+02 -0.27942426930E+01  0.11414205177E+02  0.10566000000E+00 0. -1.
         22    1    1    0    0    0  0.99775996431E+01 -0.60172127339E+02 -0.97514253698E+01  0.61768338976E+02  0.00000000000E+00 0.  1.
</event>
<event>
 4    1  0.9856522E-003  0.9118800E+02  0.7818608E-02  0.1130116E+00
         25   -1    0    0    0    0  0.00000000000E+00  0.00000000000E+00  0.99999998245E-14  0.12500000000E+03  0.12500000000E+03 0.  0.
        -13    1    1    0    0    0 -0.67908911715E+01 -0.16614506825E+02 -0.48496587741E+02  0.51711586965E+02  0.10566000000E+00 0.  1.
         13    1    1    0    0    0 -0.22644061840E+01 -0.37662698127E+01 -0.98708144065E+01  0.10805390541E+02  0.10566000000E+00 0. -1.
         22    1    1    0    0    0  0.90552973555E+01  0.20380776638E+02  0.58367402147E+02  0.62483022494E+02  0.00000000000E+00 0.  1.
</event>
<event>
 4    1  0.9856522E-003  0.9118800E+02  0.7818608E-02  0.1130116E+00
         25   -1    0    0    0    0  0.00000000000E+00  0.00000000000E+00  0.99999998245E-14  0.12500000000E+03  0.12500000000E+03 0.  0.
        -13    1    1    0    0    0  0.22795560552E+02  0.26117595294E+02 -0.31696619115E+02  0.46972898486E+02  0.10566000000E+00 0. -1.
         13    1    1    0    0    0 -0.37930552976E+02 -0.13278824035E+02 -0.51602484777E+00  0.40191186378E+02  0.10566000000E+00 0.  1.
         22    1    1    0    0    0  0.15134992423E+02 -0.12838771260E+02  0.32212643962E+02  0.37835915136E+02  0.00000000000E+00 0. -1.
</event>
<event>
 4    1  0.9856522E-003  0.9118800E+02  0.7818608E-02  0.1130116E+00
         25   -1    0    0    0    0  0.00000000000E+00  0.00000000000E+00  0.99999998245E-14  0.12500000000E+03  0.12500000000E+03 0.  0.
        -13    1    1    0    0    0 -0.51924834545E+01 -0.55731333215E+01  0.72376453351E+01  0.10507919560E+02  0.10566000000E+00 0. -1.
         13    1    1    0    0    0 -0.25724859826E+02 -0.26253622402E+02  0.36775024219E+02  0.51994563876E+02  0.10566000000E+00 0.  1.
         22    1    1    0    0    0  0.30917343281E+02  0.31826755724E+02 -0.44012669554E+02  0.62497516564E+02  0.00000000000E+00 0.  1.
</event>
<event>
 4    1  0.9856522E-003  0.9118800E+02  0.7818608E-02  0.1130116E+00
         25   -1    0    0    0    0  0.00000000000E+00  0.00000000000E+00  0.99999998245E-14  0.12500000000E+03  0.12500000000E+03 0.  0.
        -13    1    1    0    0    0  0.27788484451E+02  0.23391490127E+02 -0.34120443308E+02  0.49835504352E+02  0.10566000000E+00 0. -1.
         13    1    1    0    0    0  0.76588737895E+01  0.57731909334E+01 -0.82831761956E+01  0.12673210059E+02  0.10566000000E+00 0.  1.
         22    1    1    0    0    0 -0.35447358240E+02 -0.29164681060E+02  0.42403619504E+02  0.62491285589E+02  0.00000000000E+00 0. -1.
</event>
<event>
 4    1  0.9856522E-003  0.9118800E+02  0.7818608E-02  0.1130116E+00
         25   -1    0    0    0    0  0.00000000000E+00  0.00000000000E+00  0.99999998245E-14  0.12500000000E+03  0.12500000000E+03 0.  0.
        -13    1    1    0    0    0 -0.17051204818E+02 -0.12345215433E+02 -0.16158933719E+02  0.26538090225E+02  0.10566000000E+00 0.  1.
         13    1    1    0    0    0 -0.23592320130E+02 -0.16925398547E+02 -0.21221440163E+02  0.35964251302E+02  0.10566000000E+00 0. -1.
         22    1    1    0    0    0  0.40643524949E+02  0.29270613980E+02  0.37380373882E+02  0.62497658472E+02  0.00000000000E+00 0. -1.
</event>
<event>
 4    1  0.9856522E-003  0.9118800E+02  0.7818608E-02  0.1130116E+00
         25   -1    0    0    0    0  0.00000000000E+00  0.00000000000E+00  0.99999998245E-14  0.12500000000E+03  0.12500000000E+03 0.  0.
        -13    1    1    0    0    0  0.43195721080E+02 -0.95390565442E+01  0.10444112825E+02  0.45452773030E+02  0.10566000000E+00 0. -1.
         13    1    1    0    0    0  0.16174095470E+02 -0.34380103592E+01  0.41484934364E+01  0.17048238657E+02  0.10566000000E+00 0.  1.
         22    1    1    0    0    0 -0.59369816550E+02  0.12977066903E+02 -0.14592606261E+02  0.62498988312E+02  0.00000000000E+00 0. -1.
</event>
<event>
 4    1  0.9856522E-003  0.9118800E+02  0.7818608E-02  0.1130116E+00
         25   -1    0    0    0    0  0.00000000000E+00  0.00000000000E+00  0.99999998245E-14  0.12500000000E+03  0.12500000000E+03 0.  0.
        -13    1    1    0    0    0  0.55688490186E+02  0.75951225705E+00 -0.93459564931E+01  0.56472496534E+02  0.10566000000E+00 0. -1.
         13    1    1    0    0    0  0.59221921337E+01  0.77472118968E-01 -0.11200210071E+01  0.60285962453E+01  0.10566000000E+00 0. -1.
         22    1    1    0    0    0 -0.61610682319E+02 -0.83698437602E+00  0.10465977500E+02  0.62498907220E+02  0.00000000000E+00 0. -1.
</event>
<event>
 4    1  0.9856522E-003  0.9118800E+02  0.7818608E-02  0.1130116E+00
         25   -1    0    0    0    0  0.00000000000E+00  0.00000000000E+00  0.99999998245E-14  0.12500000000E+03  0.12500000000E+03 0.  0.
        -13    1    1    0    0    0  0.67762863404E+01  0.10937603346E+02  0.27599800006E+01  0.13159706576E+02  0.10566000000E+00 0. -1.
         13    1    1    0    0    0  0.24676984790E+02  0.41726523552E+02  0.92017491550E+01  0.49343081557E+02  0.10566000000E+00 0.  1.
         22    1    1    0    0    0 -0.31453271130E+02 -0.52664126898E+02 -0.11961729156E+02  0.62497211867E+02  0.00000000000E+00 0. -1.
</event>
<event>
 4    1  0.9856522E-003  0.9118800E+02  0.7818608E-02  0.1130116E+00
         25   -1    0    0    0    0  0.00000000000E+00  0.00000000000E+00  0.99999998245E-14  0.12500000000E+03  0.12500000000E+03 0.  0.
        -13    1    1    0    0    0 -0.49143630896E+01 -0.93792521229E+01 -0.33176655053E+00  0.10594459309E+02  0.10566000000E+00 0.  1.
         13    1    1    0    0    0 -0.29104847268E+02 -0.42978441346E+02 -0.16915607973E+01  0.51933718305E+02  0.10566000000E+00 0. -1.
         22    1    1    0    0    0  0.34019210357E+02  0.52357693469E+02  0.20233273478E+01  0.62471822386E+02  0.00000000000E+00 0. -1.
</event>
<event>
 4    1  0.9856522E-003  0.9118800E+02  0.7818608E-02  0.1130116E+00
         25   -1    0    0    0    0  0.00000000000E+00  0.00000000000E+00  0.99999998245E-14  0.12500000000E+03  0.12500000000E+03 0.  0.
        -13    1    1    0    0    0  0.14554559066E+02  0.16009563488E+02  0.11859836844E+02  0.24674039123E+02  0.10566000000E+00 0.  1.
         13    1    1    0    0    0  0.24274370281E+02  0.14043348136E+02  0.26063367175E+02  0.38285388230E+02  0.10566000000E+00 0. -1.
         22    1    1    0    0    0 -0.38828929346E+02 -0.30052911624E+02 -0.37923204019E+02  0.62040572646E+02  0.00000000000E+00 0. -1.
</event>
<event>
 4    1  0.9856522E-003  0.9118800E+02  0.7818608E-02  0.1130116E+00
         25   -1    0    0    0    0  0.00000000000E+00  0.00000000000E+00  0.99999998245E-14  0.12500000000E+03  0.12500000000E+03 0.  0.
        -13    1    1    0    0    0 -0.10612193817E+02 -0.62482742313E+01 -0.75916259119E+01  0.14467326515E+02  0.10566000000E+00 0.  1.
         13    1    1    0    0    0 -0.35104496274E+02 -0.16845627560E+02 -0.28175045988E+02  0.48061889341E+02  0.10566000000E+00 0. -1.
         22    1    1    0    0    0  0.45716690091E+02  0.23093901791E+02  0.35766671900E+02  0.62470784144E+02  0.00000000000E+00 0. -1.
</event>
<event>
 4    1  0.9856522E-003  0.9118800E+02  0.7818608E-02  0.1130116E+00
         25   -1    0    0    0    0  0.00000000000E+00  0.00000000000E+00  0.99999998245E-14  0.12500000000E+03  0.12500000000E+03 0.  0.
        -13    1    1    0    0    0  0.29936167564E+02 -0.26909845918E+02 -0.20235085407E+02  0.45053121770E+02  0.10566000000E+00 0. -1.
         13    1    1    0    0    0  0.11588033874E+02 -0.10555378543E+02 -0.76621812221E+01  0.17447599559E+02  0.10566000000E+00 0.  1.
         22    1    1    0    0    0 -0.41524201438E+02  0.37465224461E+02  0.27897266629E+02  0.62499278671E+02  0.00000000000E+00 0. -1.
</event>
<event>
 4    1  0.9856522E-003  0.9118800E+02  0.7818608E-02  0.1130116E+00
         25   -1    0    0    0    0  0.00000000000E+00  0.00000000000E+00  0.99999998245E-14  0.12500000000E+03  0.12500000000E+03 0.  0.
        -13    1    1    0    0    0 -0.43381616675E+01 -0.59812307858E+01  0.49326254654E+01  0.88846342854E+01  0.10566000000E+00 0. -1.
         13    1    1    0    0    0 -0.16272797513E+02 -0.38344946530E+02  0.33882770240E+02  0.53695364292E+02  0.10566000000E+00 0.  1.
         22    1    1    0    0    0  0.20610959180E+02  0.44326177316E+02 -0.38815395705E+02  0.62420001422E+02  0.00000000000E+00 0.  1.
</event>
<event>
 4    1  0.9856522E-003  0.9118800E+02  0.7818608E-02  0.1130116E+00
         25   -1    0    0    0    0  0.00000000000E+00  0.00000000000E+00  0.99999998245E-14  0.12500000000E+03  0.12500000000E+03 0.  0.
        -13    1    1    0    0    0 -0.30704776171E+02 -0.15346606759E+02  0.50473246476E+02  0.61039834474E+02  0.10566000000E+00 0.  1.
         13    1    1    0    0    0  0.85554061282E+01  0.77599238546E+01 -0.45530169140E+01  0.12415817303E+02  0.10566000000E+00 0. -1.
         22    1    1    0    0    0  0.22149370043E+02  0.75866829043E+01 -0.45920229562E+02  0.51544348223E+02  0.00000000000E+00 0.  1.
</event>
<event>
 4    1  0.9856522E-003  0.9118800E+02  0.7818608E-02  0.1130116E+00
         25   -1    0    0    0    0  0.00000000000E+00  0.00000000000E+00  0.99999998245E-14  0.12500000000E+03  0.12500000000E+03 0.  0.
        -13    1    1    0    0    0 -0.33086506052E+01 -0.31639911352E+01  0.58256690214E+02  0.58436385305E+02  0.10566000000E+00 0.  1.
         13    1    1    0    0    0  0.28318895116E+01 -0.23583337684E+01  0.31852276198E+01  0.48721838424E+01  0.10566000000E+00 0. -1.
         22    1    1    0    0    0  0.47676109360E+00  0.55223249036E+01 -0.61441917834E+02  0.61691430853E+02  0.00000000000E+00 0.  1.
</event>
<event>
 4    1  0.9856522E-003  0.9118800E+02  0.7818608E-02  0.1130116E+00
         25   -1    0    0    0    0  0.00000000000E+00  0.00000000000E+00  0.99999998245E-14  0.12500000000E+03  0.12500000000E+03 0.  0.
        -13    1    1    0    0    0  0.15270753793E+02 -0.15338412578E+02  0.41308709795E+01  0.22034928657E+02  0.10566000000E+00 0.  1.
         13    1    1    0    0    0  0.26732563598E+02 -0.27985787775E+02  0.11970445134E+02  0.40510949071E+02  0.10566000000E+00 0. -1.
         22    1    1    0    0    0 -0.42003317392E+02  0.43324200353E+02 -0.16101316113E+02  0.62454122272E+02  0.00000000000E+00 0. -1.
</event>
<event>
 4    1  0.9856522E-003  0.9118800E+02  0.7818608E-02  0.1130116E+00
         25   -1    0    0    0    0  0.00000000000E+00  0.00000000000E+00  0.99999998245E-14  0.12500000000E+03  0.12500000000E+03 0.  0.
        -13    1    1    0    0    0 -0.27733709738E+02 -0.16682921941E+02  0.23672999780E+02  0.40098636173E+02  0.10566000000E+00 0.  1.
         13    1    1    0    0    0 -0.15409069401E+02 -0.93316272552E+01  0.13315589180E+02  0.22401668828E+02  0.10566000000E+00 0.  1.
         22    1    1    0    0    0  0.43142779139E+02  0.26014549196E+02 -0.36988588960E+02  0.62499694999E+02  0.00000000000E+00 0.  1.
</event>
<event>
 4    1  0.9856522E-003  0.9118800E+02  0.7818608E-02  0.1130116E+00
         25   -1    0    0    0    0  0.00000000000E+00  0.00000000000E+00  0.99999998245E-14  0.12500000000E+03  0.12500000000E+03 0.  0.
        -13    1    1    0    0    0 -0.60185259624E+01  0.39404592709E+01 -0.68772830000E+01  0.99527915442E+01  0.10566000000E+00 0. -1.
         13    1    1    0    0    0 -0.47481245763E+02 -0.14703365528E+02  0.27383833949E+02  0.56749829805E+02  0.10566000000E+00 0.  1.
         22    1    1    0    0    0  0.53499771725E+02  0.10762906257E+02 -0.20506550949E+02  0.58297378651E+02  0.00000000000E+00 0.  1.
</event>
<event>
 4    1  0.9856522E-003  0.9118800E+02  0.7818608E-02  0.1130116E+00
         25   -1    0    0    0    0  0.00000000000E+00  0.00000000000E+00  0.99999998245E-14  0.12500000000E+03  0.12500000000E+03 0.  0.
        -13    1    1    0    0    0 -0.22779593219E+02  0.85959893342E+01 -0.24865057508E+02  0.34800619948E+02  0.10566000000E+00 0. -1.
         13    1    1    0    0    0 -0.27215574033E+01  0.19717211671E+02 -0.22085916144E+02  0.29731703058E+02  0.10566000000E+00 0.  1.
         22    1    1    0    0    0  0.25501150623E+02 -0.28313201005E+02  0.46950973652E+02  0.60467676994E+02  0.00000000000E+00 0.  1.
</event>
<event>
 4    1  0.9856522E-003  0.9118800E+02  0.7818608E-02  0.1130116E+00
         25   -1    0    0    0    0  0.00000000000E+00  0.00000000000E+00  0.99999998245E-14  0.12500000000E+03  0.12500000000E+03 0.  0.
        -13    1    1    0    0    0 -0.40226101465E+01 -0.74916686465E+01  0.43657047278E+01  0.95591335018E+01  0.10566000000E+00 0.  1.
         13    1    1    0    0    0 -0.20889432491E+02 -0.25275774209E+02  0.42101219561E+02  0.53364379545E+02  0.10566000000E+00 0. -1.
         22    1    1    0    0    0  0.24912042637E+02  0.32767442856E+02 -0.46466924288E+02  0.62076486954E+02  0.00000000000E+00 0. -1.
</event>
<event>
 4    1  0.9856522E-003  0.9118800E+02  0.7818608E-02  0.1130116E+00
         25   -1    0    0    0    0  0.00000000000E+00  0.00000000000E+00  0.99999998245E-14  0.12500000000E+03  0.12500000000E+03 0.  0.
        -13    1    1    0    0    0 -0.21898396546E+02  0.48059263268E+02 -0.31017049450E+02  0.61247865903E+02  0.10566000000E+00 0. -1.
         13    1    1    0    0    0  0.16003705456E+01  0.10550351526E+01 -0.47623341035E+00  0.19779401794E+01  0.10566000000E+00 0.  1.
         22    1    1    0    0    0  0.20298026000E+02 -0.49114298421E+02  0.31493282860E+02  0.61774193917E+02  0.00000000000E+00 0. -1.
</event>
<event>
 4    1  0.9856522E-003  0.9118800E+02  0.7818608E-02  0.1130116E+00
         25   -1    0    0    0    0  0.00000000000E+00  0.00000000000E+00  0.99999998245E-14  0.12500000000E+03  0.12500000000E+03 0.  0.
        -13    1    1    0    0    0 -0.87154526517E+01  0.39733638660E+02 -0.35293220210E+02  0.53854839271E+02  0.10566000000E+00 0. -1.
         13    1    1    0    0    0 -0.14435473099E+01  0.63296394662E+01 -0.57086450782E+01  0.86456900982E+01  0.10566000000E+00 0. -1.
         22    1    1    0    0    0  0.10158999962E+02 -0.46063278126E+02  0.41001865289E+02  0.62499470631E+02  0.00000000000E+00 0. -1.
</event>
<event>
 4    1  0.9856522E-003  0.9118800E+02  0.7818608E-02  0.1130116E+00
         25   -1    0    0    0    0  0.00000000000E+00  0.00000000000E+00  0.99999998245E-14  0.12500000000E+03  0.12500000000E+03 0.  0.
        -13    1    1    0    0    0  0.22684387490E+01 -0.97022299073E+00 -0.20113875807E+00  0.24776536977E+01  0.10566000000E+00 0.  1.
         13    1    1    0    0    0  0.56551680559E+02 -0.18496621654E+02 -0.79580440726E+01  0.60029652807E+02  0.10566000000E+00 0. -1.
         22    1    1    0    0    0 -0.58820119308E+02  0.19466844645E+02  0.81591828307E+01  0.62492693495E+02  0.00000000000E+00 0. -1.
</event>
<event>
 4    1  0.9856522E-003  0.9118800E+02  0.7818608E-02  0.1130116E+00
         25   -1    0    0    0    0  0.00000000000E+00  0.00000000000E+00  0.99999998245E-14  0.12500000000E+03  0.12500000000E+03 0.  0.
        -13    1    1    0    0    0  0.64865184916E+01 -0.21595295832E+02  0.29380766326E+02  0.37036094801E+02  0.10566000000E+00 0. -1.
         13    1    1    0    0    0  0.50767754979E+01 -0.13485334791E+02  0.21015242124E+02  0.25480962883E+02  0.10566000000E+00 0.  1.
         22    1    1    0    0    0 -0.11563293990E+02  0.35080630622E+02 -0.50396008450E+02  0.62482942316E+02  0.00000000000E+00 0. -1.
</event>
<event>
 4    1  0.9856522E-003  0.9118800E+02  0.7818608E-02  0.1130116E+00
         25   -1    0    0    0    0  0.00000000000E+00  0.00000000000E+00  0.99999998245E-14  0.12500000000E+03  0.12500000000E+03 0.  0.
        -13    1    1    0    0    0  0.23871653431E+01 -0.30148495991E+02 -0.11915309355E+02  0.32505632280E+02  0.10566000000E+00 0. -1.
         13    1    1    0    0    0  0.21333294944E+01 -0.27984837020E+02 -0.10583563444E+02  0.29995419267E+02  0.10566000000E+00 0.  1.
         22    1    1    0    0    0 -0.45204948375E+01  0.58133333011E+02  0.22498872799E+02  0.62498948453E+02  0.00000000000E+00 0.  1.
</event>
<event>
 4    1  0.9856522E-003  0.9118800E+02  0.7818608E-02  0.1130116E+00
         25   -1    0    0    0    0  0.00000000000E+00  0.00000000000E+00  0.99999998245E-14  0.12500000000E+03  0.12500000000E+03 0.  0.
        -13    1    1    0    0    0  0.46576941282E+02  0.31171248326E+01 -0.12977287553E+02  0.48451512698E+02  0.10566000000E+00 0.  1.
         13    1    1    0    0    0  0.13528020549E+02  0.90820540810E+00 -0.36778880558E+01  0.14048850545E+02  0.10566000000E+00 0. -1.
         22    1    1    0    0    0 -0.60104961831E+02 -0.40253302407E+01  0.16655175608E+02  0.62499636758E+02  0.00000000000E+00 0.  1.
</event>
<event>
 4    1  0.9856522E-003  0.9118800E+02  0.7818608E-02  0.1130116E+00
         25   -1    0    0    0    0  0.00000000000E+00  0.00000000000E+00  0.99999998245E-14  0.12500000000E+03  0.12500000000E+03 0.  0.
        -13    1    1    0    0    0  0.61473725886E+01 -0.10391656959E+02 -0.11286775738E+01  0.12126904023E+02  0.10566000000E+00 0.  1.
         13    1    1    0    0    0  0.26293103163E+02 -0.42981594532E+02 -0.62111004553E+00  0.50389896648E+02  0.10566000000E+00 0. -1.
         22    1    1    0    0    0 -0.32440475752E+02  0.53373251490E+02  0.17497876193E+01  0.62483199329E+02  0.00000000000E+00 0. -1.
</event>
<event>
 4    1  0.9856522E-003  0.9118800E+02  0.7818608E-02  0.1130116E+00
         25   -1    0    0    0    0  0.00000000000E+00  0.00000000000E+00  0.99999998245E-14  0.12500000000E+03  0.12500000000E+03 0.  0.
        -13    1    1    0    0    0 -0.14971277797E+02 -0.28042269346E+02  0.22542182985E+02  0.38970106577E+02  0.10566000000E+00 0. -1.
         13    1    1    0    0    0 -0.12811145313E+02 -0.21677234825E+02 -0.12044657416E+01  0.25208924127E+02  0.10566000000E+00 0.  1.
         22    1    1    0    0    0  0.27782423110E+02  0.49719504171E+02 -0.21337717243E+02  0.60820969295E+02  0.00000000000E+00 0.  1.
</event>
<event>
 4    1  0.9856522E-003  0.9118800E+02  0.7818608E-02  0.1130116E+00
         25   -1    0    0    0    0  0.00000000000E+00  0.00000000000E+00  0.99999998245E-14  0.12500000000E+03  0.12500000000E+03 0.  0.
        -13    1    1    0    0    0 -0.12147648787E+02  0.51223265890E+01 -0.28999929100E+02  0.31856092864E+02  0.10566000000E+00 0. -1.
         13    1    1    0    0    0 -0.13069012596E+02  0.52192915713E+01 -0.27232895628E+02  0.30654230753E+02  0.10566000000E+00 0.  1.
         22    1    1    0    0    0  0.25216661383E+02 -0.10341618160E+02  0.56232824728E+02  0.62489676383E+02  0.00000000000E+00 0. -1.
</event>
<event>
 4    1  0.9856522E-003  0.9118800E+02  0.7818608E-02  0.1130116E+00
         25   -1    0    0    0    0  0.00000000000E+00  0.00000000000E+00  0.99999998245E-14  0.12500000000E+03  0.12500000000E+03 0.  0.
        -13    1    1    0    0    0  0.16490559388E+02 -0.37772124082E+02  0.11525259356E+01  0.41231194340E+02  0.10566000000E+00 0.  1.
         13    1    1    0    0    0  0.10473277202E+02 -0.18558023149E+02 -0.21751004861E+00  0.21310753933E+02  0.10566000000E+00 0. -1.
         22    1    1    0    0    0 -0.26963836590E+02  0.56330147232E+02 -0.93501588702E+00  0.62458051727E+02  0.00000000000E+00 0. -1.
</event>
<event>
 4    1  0.9856522E-003  0.9118800E+02  0.7818608E-02  0.1130116E+00
         25   -1    0    0    0    0  0.00000000000E+00  0.00000000000E+00  0.99999998245E-14  0.12500000000E+03  0.12500000000E+03 0.  0.
        -13    1    1    0    0    0  0.12514619927E+02 -0.62801252627E+00  0.12892208803E+01  0.12596958608E+02  0.10566000000E+00 0. -1.
         13    1    1    0    0    0  0.47854986154E+02 -0.63239392395E+01 -0.14121589532E+02  0.50294357161E+02  0.10566000000E+00 0.  1.
         22    1    1    0    0    0 -0.60369606081E+02  0.69519517657E+01  0.12832368651E+02  0.62108684231E+02  0.00000000000E+00 0.  1.
</event>
<event>
 4    1  0.9856522E-003  0.9118800E+02  0.7818608E-02  0.1130116E+00
         25   -1    0    0    0    0  0.00000000000E+00  0.00000000000E+00  0.99999998245E-14  0.12500000000E+03  0.12500000000E+03 0.  0.
        -13    1    1    0    0    0  0.34600258236E+00 -0.46735639760E+01 -0.76792046934E+00  0.47500298849E+01  0.10566000000E+00 0. -1.
         13    1    1    0    0    0  0.12730930437E+01 -0.55856953026E+02 -0.14660872687E+02  0.57763070549E+02  0.10566000000E+00 0.  1.
         22    1    1    0    0    0 -0.16190956261E+01  0.60530517002E+02  0.15428793157E+02  0.62486899566E+02  0.00000000000E+00 0.  1.
</event>
<event>
 4    1  0.9856522E-003  0.9118800E+02  0.7818608E-02  0.1130116E+00
         25   -1    0    0    0    0  0.00000000000E+00  0.00000000000E+00  0.99999998245E-14  0.12500000000E+03  0.12500000000E+03 0.  0.
        -13    1    1    0    0    0 -0.46247830207E+01  0.12991236360E+02 -0.14363866129E+02  0.19912123301E+02  0.10566000000E+00 0. -1.
         13    1    1    0    0    0 -0.95433098098E+01  0.28503750282E+02 -0.30171917673E+02  0.42589838253E+02  0.10566000000E+00 0.  1.
         22    1    1    0    0    0  0.14168092830E+02 -0.41494986641E+02  0.44535783802E+02  0.62498038447E+02  0.00000000000E+00 0.  1.
</event>
<event>
 4    1  0.9856522E-003  0.9118800E+02  0.7818608E-02  0.1130116E+00
         25   -1    0    0    0    0  0.00000000000E+00  0.00000000000E+00  0.99999998245E-14  0.12500000000E+03  0.12500000000E+03 0.  0.
        -13    1    1    0    0    0  0.78871160627E+00 -0.68361631750E+00  0.66137600559E+00  0.12401530243E+01  0.10566000000E+00 0. -1.
         13    1    1    0    0    0  0.19892085526E+02 -0.29975450397E+02  0.49653106046E+02  0.61316105528E+02  0.10566000000E+00 0.  1.
         22    1    1    0    0    0 -0.20680797132E+02  0.30659066715E+02 -0.50314482051E+02  0.62443741448E+02  0.00000000000E+00 0.  1.
</event>
<event>
 4    1  0.9856522E-003  0.9118800E+02  0.7818608E-02  0.1130116E+00
         25   -1    0    0    0    0  0.00000000000E+00  0.00000000000E+00  0.99999998245E-14  0.12500000000E+03  0.12500000000E+03 0.  0.
        -13    1    1    0    0    0  0.29135206122E+02  0.19029442622E+02  0.44160341733E+02  0.56223899440E+02  0.10566000000E+00 0. -1.
         13    1    1    0    0    0  0.36517432670E+01  0.18237499824E+01  0.47797187081E+01  0.62863477354E+01  0.10566000000E+00 0.  1.
         22    1    1    0    0    0 -0.32786949389E+02 -0.20853192604E+02 -0.48940060441E+02  0.62489752824E+02  0.00000000000E+00 0. -1.
</event>
<event>
 4    1  0.9856522E-003  0.9118800E+02  0.7818608E-02  0.1130116E+00
         25   -1    0    0    0    0  0.00000000000E+00  0.00000000000E+00  0.99999998245E-14  0.12500000000E+03  0.12500000000E+03 0.  0.
        -13    1    1    0    0    0 -0.30447758138E+02 -0.82227121103E+01  0.15100465283E+02  0.34967330266E+02  0.10566000000E+00 0.  1.
         13    1    1    0    0    0  0.14578135935E+02  0.27771140285E+02  0.26729193047E+02  0.41209455287E+02  0.10566000000E+00 0. -1.
         22    1    1    0    0    0  0.15869622203E+02 -0.19548428175E+02 -0.41829658330E+02  0.48823214447E+02  0.00000000000E+00 0.  1.
</event>
<event>
 4    1  0.9856522E-003  0.9118800E+02  0.7818608E-02  0.1130116E+00
         25   -1    0    0    0    0  0.00000000000E+00  0.00000000000E+00  0.99999998245E-14  0.12500000000E+03  0.12500000000E+03 0.  0.
        -13    1    1    0    0    0  0.13970259079E+02  0.80674376464E+01 -0.76648802574E+01  0.17860941810E+02  0.10566000000E+00 0.  1.
         13    1    1    0    0    0  0.35051356147E+02  0.20370408560E+02 -0.18685376774E+02  0.44639730979E+02  0.10566000000E+00 0.  1.
         22    1    1    0    0    0 -0.49021615226E+02 -0.28437846207E+02  0.26350257032E+02  0.62499327212E+02  0.00000000000E+00 0.  1.
</event>
<event>
 4    1  0.9856522E-003  0.9118800E+02  0.7818608E-02  0.1130116E+00
         25   -1    0    0    0    0  0.00000000000E+00  0.00000000000E+00  0.99999998245E-14  0.12500000000E+03  0.12500000000E+03 0.  0.
        -13    1    1    0    0    0 -0.15003958532E+02 -0.16492094946E+02  0.47057262007E+01  0.22787342769E+02  0.10566000000E+00 0.  1.
         13    1    1    0    0    0  0.61218858050E+00 -0.16606096239E+02  0.40845287077E+02  0.44096324650E+02  0.10566000000E+00 0. -1.
         22    1    1    0    0    0  0.14391769952E+02  0.33098191185E+02 -0.45551013278E+02  0.58116332581E+02  0.00000000000E+00 0. -1.
</event>
<event>
 4    1  0.9856522E-003  0.9118800E+02  0.7818608E-02  0.1130116E+00
         25   -1    0    0    0    0  0.00000000000E+00  0.00000000000E+00  0.99999998245E-14  0.12500000000E+03  0.12500000000E+03 0.  0.
        -13    1    1    0    0    0 -0.21920599858E+02  0.17096807344E+01  0.16904495460E+02  0.27734614423E+02  0.10566000000E+00 0. -1.
         13    1    1    0    0    0 -0.27695956983E+02  0.24182489123E+01  0.20875077362E+02  0.34766276475E+02  0.10566000000E+00 0.  1.
         22    1    1    0    0    0  0.49616556842E+02 -0.41279296467E+01 -0.37779572822E+02  0.62499109103E+02  0.00000000000E+00 0. -1.
</event>
<event>
 4    1  0.9856522E-003  0.9118800E+02  0.7818608E-02  0.1130116E+00
         25   -1    0    0    0    0  0.00000000000E+00  0.00000000000E+00  0.99999998245E-14  0.12500000000E+03  0.12500000000E+03 0.  0.
        -13    1    1    0    0    0 -0.93335052488E+01  0.85539911939E+00 -0.17052306379E+02  0.19458631626E+02  0.10566000000E+00 0. -1.
         13    1    1    0    0    0 -0.45314116657E+02 -0.41389059061E+01 -0.64610895390E+01  0.45959292341E+02  0.10566000000E+00 0.  1.
         22    1    1    0    0    0  0.54647621905E+02  0.32835067867E+01  0.23513395918E+02  0.59582076032E+02  0.00000000000E+00 0.  1.
</event>
<event>
 4    1  0.9856522E-003  0.9118800E+02  0.7818608E-02  0.1130116E+00
         25   -1    0    0    0    0  0.00000000000E+00  0.00000000000E+00  0.99999998245E-14  0.12500000000E+03  0.12500000000E+03 0.  0.
        -13    1    1    0    0    0  0.18907510371E+02  0.19383619378E+02 -0.42308538163E+02  0.50231884437E+02  0.10566000000E+00 0.  1.
         13    1    1    0    0    0  0.46707506901E+01  0.46151537053E+01 -0.10363110466E+02  0.12268690978E+02  0.10566000000E+00 0.  1.
         22    1    1    0    0    0 -0.23578261061E+02 -0.23998773084E+02  0.52671648629E+02  0.62499424585E+02  0.00000000000E+00 0.  1.
</event>
<event>
 4    1  0.9856522E-003  0.9118800E+02  0.7818608E-02  0.1130116E+00
         25   -1    0    0    0    0  0.00000000000E+00  0.00000000000E+00  0.99999998245E-14  0.12500000000E+03  0.12500000000E+03 0.  0.
        -13    1    1    0    0    0 -0.26446155827E+00 -0.35356068574E+02  0.19832123656E+01  0.35412791760E+02  0.10566000000E+00 0.  1.
         13    1    1    0    0    0 -0.15650865306E+02 -0.10713867870E+02 -0.28396982647E+02  0.34148738440E+02  0.10566000000E+00 0. -1.
         22    1    1    0    0    0  0.15915326865E+02  0.46069936445E+02  0.26413770281E+02  0.55438469799E+02  0.00000000000E+00 0. -1.
</event>
<event>
 4    1  0.9856522E-003  0.9118800E+02  0.7818608E-02  0.1130116E+00
         25   -1    0    0    0    0  0.00000000000E+00  0.00000000000E+00  0.99999998245E-14  0.12500000000E+03  0.12500000000E+03 0.  0.
        -13    1    1    0    0    0  0.20805050086E+02  0.39823570044E+02 -0.52779377794E+01  0.45239746146E+02  0.10566000000E+00 0. -1.
         13    1    1    0    0    0  0.78848659146E+01  0.15195292938E+02 -0.22043226037E+01  0.17260887582E+02  0.10566000000E+00 0. -1.
         22    1    1    0    0    0 -0.28689916001E+02 -0.55018862982E+02  0.74822603831E+01  0.62499366272E+02  0.00000000000E+00 0. -1.
</event>
<event>
 4    1  0.9856522E-003  0.9118800E+02  0.7818608E-02  0.1130116E+00
         25   -1    0    0    0    0  0.00000000000E+00  0.00000000000E+00  0.99999998245E-14  0.12500000000E+03  0.12500000000E+03 0.  0.
        -13    1    1    0    0    0  0.16634189062E+02  0.80187082042E+01  0.25414404780E+00  0.18468126062E+02  0.10566000000E+00 0.  1.
         13    1    1    0    0    0  0.40613507877E+02  0.16442297472E+02 -0.49816032617E+01  0.44098001127E+02  0.10566000000E+00 0. -1.
         22    1    1    0    0    0 -0.57247696940E+02 -0.24461005676E+02  0.47274592139E+01  0.62433872811E+02  0.00000000000E+00 0. -1.
</event>
<event>
 4    1  0.9856522E-003  0.9118800E+02  0.7818608E-02  0.1130116E+00
         25   -1    0    0    0    0  0.00000000000E+00  0.00000000000E+00  0.99999998245E-14  0.12500000000E+03  0.12500000000E+03 0.  0.
        -13    1    1    0    0    0  0.37665042136E+02  0.20333787397E+02  0.16036377684E+02  0.45708805304E+02  0.10566000000E+00 0. -1.
         13    1    1    0    0    0  0.14486953943E+02  0.67891360509E+01  0.51480687029E+01  0.16807081194E+02  0.10566000000E+00 0.  1.
         22    1    1    0    0    0 -0.52151996079E+02 -0.27122923447E+02 -0.21184446387E+02  0.62484113502E+02  0.00000000000E+00 0. -1.
</event>
<event>
 4    1  0.9856522E-003  0.9118800E+02  0.7818608E-02  0.1130116E+00
         25   -1    0    0    0    0  0.00000000000E+00  0.00000000000E+00  0.99999998245E-14  0.12500000000E+03  0.12500000000E+03 0.  0.
        -13    1    1    0    0    0  0.43364015342E+02 -0.33053511844E+02 -0.40481637701E+01  0.54675143033E+02  0.10566000000E+00 0. -1.
         13    1    1    0    0    0  0.57402045405E+00 -0.92151947901E+01  0.22751120519E+00  0.92364625201E+01  0.10566000000E+00 0.  1.
         22    1    1    0    0    0 -0.43938035796E+02  0.42268706634E+02  0.38206525649E+01  0.61088394447E+02  0.00000000000E+00 0. -1.
</event>
<event>
 4    1  0.9856522E-003  0.9118800E+02  0.7818608E-02  0.1130116E+00
         25   -1    0    0    0    0  0.00000000000E+00  0.00000000000E+00  0.99999998245E-14  0.12500000000E+03  0.12500000000E+03 0.  0.
        -13    1    1    0    0    0  0.14102460798E+02  0.14839698201E+02 -0.23992188705E+02  0.31539377390E+02  0.10566000000E+00 0.  1.
         13    1    1    0    0    0  0.13805337657E+02  0.14572720606E+02 -0.23571359521E+02  0.30960808894E+02  0.10566000000E+00 0.  1.
         22    1    1    0    0    0 -0.27907798456E+02 -0.29412418807E+02  0.47563548226E+02  0.62499813716E+02  0.00000000000E+00 0.  1.
</event>
<event>
 4    1  0.9856522E-003  0.9118800E+02  0.7818608E-02  0.1130116E+00
         25   -1    0    0    0    0  0.00000000000E+00  0.00000000000E+00  0.99999998245E-14  0.12500000000E+03  0.12500000000E+03 0.  0.
        -13    1    1    0    0    0  0.48131471549E+02 -0.18525510195E+02  0.17466404511E+02  0.54451074663E+02  0.10566000000E+00 0. -1.
         13    1    1    0    0    0 -0.28892590152E+02 -0.10061025268E+02  0.25482279457E+01  0.30700335907E+02  0.10566000000E+00 0.  1.
         22    1    1    0    0    0 -0.19238881397E+02  0.28586535463E+02 -0.20014632456E+02  0.39848589430E+02  0.00000000000E+00 0. -1.
</event>
<event>
 4    1  0.9856522E-003  0.9118800E+02  0.7818608E-02  0.1130116E+00
         25   -1    0    0    0    0  0.00000000000E+00  0.00000000000E+00  0.99999998245E-14  0.12500000000E+03  0.12500000000E+03 0.  0.
        -13    1    1    0    0    0  0.28211181576E+01  0.10440422983E+02  0.48903416844E+00  0.10826424071E+02  0.10566000000E+00 0.  1.
         13    1    1    0    0    0  0.14212806729E+02  0.48507576951E+02  0.11043773568E+02  0.51739395005E+02  0.10566000000E+00 0. -1.
         22    1    1    0    0    0 -0.17033924887E+02 -0.58947999934E+02 -0.11532807736E+02  0.62434180924E+02  0.00000000000E+00 0. -1.
</event>
<event>
 4    1  0.9856522E-003  0.9118800E+02  0.7818608E-02  0.1130116E+00
         25   -1    0    0    0    0  0.00000000000E+00  0.00000000000E+00  0.99999998245E-14  0.12500000000E+03  0.12500000000E+03 0.  0.
        -13    1    1    0    0    0 -0.24929028554E+02 -0.11794681304E+02  0.36547034248E+02  0.45785017725E+02  0.10566000000E+00 0.  1.
         13    1    1    0    0    0 -0.91075026433E+01 -0.43331722188E+01  0.13329083041E+02  0.16715220747E+02  0.10566000000E+00 0.  1.
         22    1    1    0    0    0  0.34036531197E+02  0.16127853523E+02 -0.49876117289E+02  0.62499761528E+02  0.00000000000E+00 0.  1.
</event>
<event>
 4    1  0.9856522E-003  0.9118800E+02  0.7818608E-02  0.1130116E+00
         25   -1    0    0    0    0  0.00000000000E+00  0.00000000000E+00  0.99999998245E-14  0.12500000000E+03  0.12500000000E+03 0.  0.
        -13    1    1    0    0    0  0.25374542259E+02  0.99883180541E+01 -0.36688420761E+01  0.27515549397E+02  0.10566000000E+00 0. -1.
         13    1    1    0    0    0  0.32344186928E+02  0.12654316435E+02 -0.42051825545E+01  0.34985323735E+02  0.10566000000E+00 0.  1.
         22    1    1    0    0    0 -0.57718729186E+02 -0.22642634489E+02  0.78740246305E+01  0.62499126869E+02  0.00000000000E+00 0.  1.
</event>
<event>
 4    1  0.9856522E-003  0.9118800E+02  0.7818608E-02  0.1130116E+00
         25   -1    0    0    0    0  0.00000000000E+00  0.00000000000E+00  0.99999998245E-14  0.12500000000E+03  0.12500000000E+03 0.  0.
        -13    1    1    0    0    0 -0.81383879348E+01 -0.23896971038E+02  0.42638770493E+01  0.25602546641E+02  0.10566000000E+00 0. -1.
         13    1    1    0    0    0 -0.12364838623E+02 -0.34123090868E+02  0.66563431335E+01  0.36899764668E+02  0.10566000000E+00 0.  1.
         22    1    1    0    0    0  0.20503226558E+02  0.58020061907E+02 -0.10920220183E+02  0.62497688691E+02  0.00000000000E+00 0.  1.
</event>
<event>
 4    1  0.9856522E-003  0.9118800E+02  0.7818608E-02  0.1130116E+00
         25   -1    0    0    0    0  0.00000000000E+00  0.00000000000E+00  0.99999998245E-14  0.12500000000E+03  0.12500000000E+03 0.  0.
        -13    1    1    0    0    0 -0.33270517392E+00 -0.31907433743E+00 -0.27209194224E+00  0.54561820552E+00  0.10566000000E+00 0.  1.
         13    1    1    0    0    0 -0.27895183212E+02 -0.55285239214E+02 -0.31233003059E+01  0.62002944206E+02  0.10566000000E+00 0. -1.
         22    1    1    0    0    0  0.28227888386E+02  0.55604313552E+02  0.33953922481E+01  0.62451437588E+02  0.00000000000E+00 0. -1.
</event>
<event>
 4    1  0.9856522E-003  0.9118800E+02  0.7818608E-02  0.1130116E+00
         25   -1    0    0    0    0  0.00000000000E+00  0.00000000000E+00  0.99999998245E-14  0.12500000000E+03  0.12500000000E+03 0.  0.
        -13    1    1    0    0    0 -0.26617159619E+02 -0.14671207079E+02 -0.26714002446E+01  0.30510081066E+02  0.10566000000E+00 0.  1.
         13    1    1    0    0    0 -0.28771754085E+02 -0.13583658683E+02 -0.34800046368E+01  0.32007049421E+02  0.10566000000E+00 0. -1.
         22    1    1    0    0    0  0.55388913704E+02  0.28254865762E+02  0.61514048815E+01  0.62482869513E+02  0.00000000000E+00 0.  1.
</event>
<event>
 4    1  0.9856522E-003  0.9118800E+02  0.7818608E-02  0.1130116E+00
         25   -1    0    0    0    0  0.00000000000E+00  0.00000000000E+00  0.99999998245E-14  0.12500000000E+03  0.12500000000E+03 0.  0.
        -13    1    1    0    0    0 -0.65575254098E+01  0.27497289852E+01  0.38290669390E+01  0.80768228067E+01  0.10566000000E+00 0.  1.
         13    1    1    0    0    0 -0.42037555482E+02  0.20643021872E+02  0.27739029800E+02  0.54431198418E+02  0.10566000000E+00 0. -1.
         22    1    1    0    0    0  0.48595080892E+02 -0.23392750857E+02 -0.31568096739E+02  0.62491978775E+02  0.00000000000E+00 0. -1.
</event>
<event>
 4    1  0.9856522E-003  0.9118800E+02  0.7818608E-02  0.1130116E+00
         25   -1    0    0    0    0  0.00000000000E+00  0.00000000000E+00  0.99999998245E-14  0.12500000000E+03  0.12500000000E+03 0.  0.
        -13    1    1    0    0    0  0.34454909082E+02  0.11419113853E+02 -0.34228152806E+02  0.49891026544E+02  0.10566000000E+00 0. -1.
         13    1    1    0    0    0 -0.18587099383E+02  0.20079024235E+02  0.21705861878E+01  0.27447587984E+02  0.10566000000E+00 0.  1.
         22    1    1    0    0    0 -0.15867809699E+02 -0.31498138088E+02  0.32057566618E+02  0.47661385472E+02  0.00000000000E+00 0. -1.
</event>
<event>
 4    1  0.9856522E-003  0.9118800E+02  0.7818608E-02  0.1130116E+00
         25   -1    0    0    0    0  0.00000000000E+00  0.00000000000E+00  0.99999998245E-14  0.12500000000E+03  0.12500000000E+03 0.  0.
        -13    1    1    0    0    0  0.31144636144E+02  0.33657923021E+02  0.79542124506E+01  0.46541645892E+02  0.10566000000E+00 0.  1.
         13    1    1    0    0    0  0.91435631236E+01  0.12746264574E+02  0.31762696417E+01  0.16005369726E+02  0.10566000000E+00 0. -1.
         22    1    1    0    0    0 -0.40288199268E+02 -0.46404187595E+02 -0.11130482092E+02  0.62452984382E+02  0.00000000000E+00 0.  1.
</event>
<event>
 4    1  0.9856522E-003  0.9118800E+02  0.7818608E-02  0.1130116E+00
         25   -1    0    0    0    0  0.00000000000E+00  0.00000000000E+00  0.99999998245E-14  0.12500000000E+03  0.12500000000E+03 0.  0.
        -13    1    1    0    0    0  0.21521948022E+00 -0.15530869617E+01  0.45069003577E+01  0.47730193175E+01  0.10566000000E+00 0. -1.
         13    1    1    0    0    0 -0.47356454972E+02 -0.34981012699E+02  0.76175063727E+01  0.59366174244E+02  0.10566000000E+00 0.  1.
         22    1    1    0    0    0  0.47141235492E+02  0.36534099661E+02 -0.12124406730E+02  0.60860806438E+02  0.00000000000E+00 0.  1.
</event>
<event>
 4    1  0.9856522E-003  0.9118800E+02  0.7818608E-02  0.1130116E+00
         25   -1    0    0    0    0  0.00000000000E+00  0.00000000000E+00  0.99999998245E-14  0.12500000000E+03  0.12500000000E+03 0.  0.
        -13    1    1    0    0    0  0.33322037963E+02  0.16000202701E+02 -0.31384439200E+01  0.37097516019E+02  0.10566000000E+00 0.  1.
         13    1    1    0    0    0  0.18837246979E+02 -0.35388880029E+01 -0.21571162653E+02  0.28856400058E+02  0.10566000000E+00 0. -1.
         22    1    1    0    0    0 -0.52159284942E+02 -0.12461314699E+02  0.24709606573E+02  0.59046083923E+02  0.00000000000E+00 0.  1.
</event>
<event>
 4    1  0.9856522E-003  0.9118800E+02  0.7818608E-02  0.1130116E+00
         25   -1    0    0    0    0  0.00000000000E+00  0.00000000000E+00  0.99999998245E-14  0.12500000000E+03  0.12500000000E+03 0.  0.
        -13    1    1    0    0    0 -0.18761890194E+02  0.27788602458E+02  0.39293973047E+02  0.51655032980E+02  0.10566000000E+00 0.  1.
         13    1    1    0    0    0 -0.26845466656E+01  0.58871696281E+01  0.87462822106E+01  0.10879989594E+02  0.10566000000E+00 0. -1.
         22    1    1    0    0    0  0.21446436860E+02 -0.33675772086E+02 -0.48040255258E+02  0.62464977426E+02  0.00000000000E+00 0.  1.
</event>
<event>
 4    1  0.9856522E-003  0.9118800E+02  0.7818608E-02  0.1130116E+00
         25   -1    0    0    0    0  0.00000000000E+00  0.00000000000E+00  0.99999998245E-14  0.12500000000E+03  0.12500000000E+03 0.  0.
        -13    1    1    0    0    0  0.12021359928E+02 -0.20628209305E+02  0.24020857750E+02  0.33868110144E+02  0.10566000000E+00 0. -1.
         13    1    1    0    0    0  0.55649878676E+01 -0.17477048651E+02  0.22136222480E+02  0.28747866516E+02  0.10566000000E+00 0.  1.
         22    1    1    0    0    0 -0.17586347796E+02  0.38105257956E+02 -0.46157080230E+02  0.62384023340E+02  0.00000000000E+00 0.  1.
</event>
<event>
 4    1  0.9856522E-003  0.9118800E+02  0.7818608E-02  0.1130116E+00
         25   -1    0    0    0    0  0.00000000000E+00  0.00000000000E+00  0.99999998245E-14  0.12500000000E+03  0.12500000000E+03 0.  0.
        -13    1    1    0    0    0  0.17592818836E+01  0.22215115991E+01  0.26576805014E+01  0.38864657742E+01  0.10566000000E+00 0.  1.
         13    1    1    0    0    0  0.23616909487E+02  0.37019379958E+02  0.38834637918E+02  0.58620245414E+02  0.10566000000E+00 0. -1.
         22    1    1    0    0    0 -0.25376191370E+02 -0.39240891557E+02 -0.41492318420E+02  0.62493288811E+02  0.00000000000E+00 0. -1.
</event>
<event>
 4    1  0.9856522E-003  0.9118800E+02  0.7818608E-02  0.1130116E+00
         25   -1    0    0    0    0  0.00000000000E+00  0.00000000000E+00  0.99999998245E-14  0.12500000000E+03  0.12500000000E+03 0.  0.
        -13    1    1    0    0    0 -0.53167607426E+01  0.44103158497E+02 -0.15823573682E+01  0.44450776743E+02  0.10566000000E+00 0. -1.
         13    1    1    0    0    0 -0.30807088553E+01  0.17739611719E+02 -0.14621517106E+01  0.18064707101E+02  0.10566000000E+00 0.  1.
         22    1    1    0    0    0  0.83974695978E+01 -0.61842770216E+02  0.30445090788E+01  0.62484516155E+02  0.00000000000E+00 0. -1.
</event>
<event>
 4    1  0.9856522E-003  0.9118800E+02  0.7818608E-02  0.1130116E+00
         25   -1    0    0    0    0  0.00000000000E+00  0.00000000000E+00  0.99999998245E-14  0.12500000000E+03  0.12500000000E+03 0.  0.
        -13    1    1    0    0    0  0.17449579214E+02  0.31420281103E+01 -0.11950509285E+02  0.21381908044E+02  0.10566000000E+00 0.  1.
         13    1    1    0    0    0  0.33640672712E+02  0.71295982726E+01 -0.22547997572E+02  0.41121155025E+02  0.10566000000E+00 0. -1.
         22    1    1    0    0    0 -0.51090251926E+02 -0.10271626383E+02  0.34498506857E+02  0.62496936931E+02  0.00000000000E+00 0. -1.
</event>
<event>
 4    1  0.9856522E-003  0.9118800E+02  0.7818608E-02  0.1130116E+00
         25   -1    0    0    0    0  0.00000000000E+00  0.00000000000E+00  0.99999998245E-14  0.12500000000E+03  0.12500000000E+03 0.  0.
        -13    1    1    0    0    0  0.24144057160E+02  0.21489487014E+01  0.23912014276E+02  0.34049215372E+02  0.10566000000E+00 0. -1.
         13    1    1    0    0    0  0.20076796903E+02  0.18762431763E+01  0.20071242451E+02  0.28451080821E+02  0.10566000000E+00 0.  1.
         22    1    1    0    0    0 -0.44220854063E+02 -0.40251918777E+01 -0.43983256726E+02  0.62499703807E+02  0.00000000000E+00 0. -1.
</event>
<event>
 4    1  0.9856522E-003  0.9118800E+02  0.7818608E-02  0.1130116E+00
         25   -1    0    0    0    0  0.00000000000E+00  0.00000000000E+00  0.99999998245E-14  0.12500000000E+03  0.12500000000E+03 0.  0.
        -13    1    1    0    0    0 -0.39349834225E+01 -0.11812099468E+02 -0.90209302611E+01  0.15375244232E+02  0.10566000000E+00 0. -1.
         13    1    1    0    0    0  0.48668318526E+02  0.15411120696E+02  0.30925208534E+02  0.59686577688E+02  0.10566000000E+00 0.  1.
         22    1    1    0    0    0 -0.44733335103E+02 -0.35990212276E+01 -0.21904278273E+02  0.49938178080E+02  0.00000000000E+00 0.  1.
</event>
<event>
 4    1  0.9856522E-003  0.9118800E+02  0.7818608E-02  0.1130116E+00
         25   -1    0    0    0    0  0.00000000000E+00  0.00000000000E+00  0.99999998245E-14  0.12500000000E+03  0.12500000000E+03 0.  0.
        -13    1    1    0    0    0 -0.14185996159E+02 -0.14564372855E+02  0.64397712309E+00  0.20341811970E+02  0.10566000000E+00 0.  1.
         13    1    1    0    0    0 -0.32853099333E+02 -0.14094526089E+02  0.25276395078E+02  0.43782292238E+02  0.10566000000E+00 0. -1.
         22    1    1    0    0    0  0.47039095492E+02  0.28658898943E+02 -0.25920372201E+02  0.60875895791E+02  0.00000000000E+00 0. -1.
</event>
<event>
 4    1  0.9856522E-003  0.9118800E+02  0.7818608E-02  0.1130116E+00
         25   -1    0    0    0    0  0.00000000000E+00  0.00000000000E+00  0.99999998245E-14  0.12500000000E+03  0.12500000000E+03 0.  0.
        -13    1    1    0    0    0 -0.36838345458E+02 -0.49558628572E+02 -0.87265858532E+01  0.62364138948E+02  0.10566000000E+00 0. -1.
         13    1    1    0    0    0  0.10332991927E+01  0.86825080544E+00  0.10479782439E+01  0.17120131769E+01  0.10566000000E+00 0.  1.
         22    1    1    0    0    0  0.35805046265E+02  0.48690377767E+02  0.76786076094E+01  0.60923847875E+02  0.00000000000E+00 0. -1.
</event>
<event>
 4    1  0.9856522E-003  0.9118800E+02  0.7818608E-02  0.1130116E+00
         25   -1    0    0    0    0  0.00000000000E+00  0.00000000000E+00  0.99999998245E-14  0.12500000000E+03  0.12500000000E+03 0.  0.
        -13    1    1    0    0    0  0.20579445958E+01 -0.31480812323E+01  0.24834427167E+01  0.45082372572E+01  0.10566000000E+00 0.  1.
         13    1    1    0    0    0  0.23675814634E+02 -0.41431833170E+02  0.32959376958E+02  0.57995454062E+02  0.10566000000E+00 0. -1.
         22    1    1    0    0    0 -0.25733759230E+02  0.44579914402E+02 -0.35442819675E+02  0.62496308681E+02  0.00000000000E+00 0. -1.
</event>
<event>
 4    1  0.9856522E-003  0.9118800E+02  0.7818608E-02  0.1130116E+00
         25   -1    0    0    0    0  0.00000000000E+00  0.00000000000E+00  0.99999998245E-14  0.12500000000E+03  0.12500000000E+03 0.  0.
        -13    1    1    0    0    0 -0.47175177880E+02 -0.92824179838E+01  0.67491658278E+01  0.48551241952E+02  0.10566000000E+00 0.  1.
         13    1    1    0    0    0 -0.13637403978E+02 -0.23823740579E+01  0.17210484903E+01  0.13950901955E+02  0.10566000000E+00 0. -1.
         22    1    1    0    0    0  0.60812581858E+02  0.11664792042E+02 -0.84702143182E+01  0.62497856093E+02  0.00000000000E+00 0.  1.
</event>
<event>
 4    1  0.9856522E-003  0.9118800E+02  0.7818608E-02  0.1130116E+00
         25   -1    0    0    0    0  0.00000000000E+00  0.00000000000E+00  0.99999998245E-14  0.12500000000E+03  0.12500000000E+03 0.  0.
        -13    1    1    0    0    0 -0.18192198124E+02  0.94811297670E+01  0.28417789297E+01  0.20710740348E+02  0.10566000000E+00 0. -1.
         13    1    1    0    0    0 -0.32583016068E+02  0.26403196667E+02  0.14757056880E+01  0.41963920237E+02  0.10566000000E+00 0.  1.
         22    1    1    0    0    0  0.50775214192E+02 -0.35884326434E+02 -0.43174846177E+01  0.62325339415E+02  0.00000000000E+00 0.  1.
</event>
<event>
 4    1  0.9856522E-003  0.9118800E+02  0.7818608E-02  0.1130116E+00
         25   -1    0    0    0    0  0.00000000000E+00  0.00000000000E+00  0.99999998245E-14  0.12500000000E+03  0.12500000000E+03 0.  0.
        -13    1    1    0    0    0 -0.22202035849E+02  0.37751612324E+02  0.16535881763E+02  0.46814113029E+02  0.10566000000E+00 0.  1.
         13    1    1    0    0    0  0.64841640783E+01 -0.52836129121E+02 -0.48205984576E+01  0.53450446750E+02  0.10566000000E+00 0. -1.
         22    1    1    0    0    0  0.15717871771E+02  0.15084516797E+02 -0.11715283305E+02  0.24735440221E+02  0.00000000000E+00 0.  1.
</event>
<event>
 4    1  0.9856522E-003  0.9118800E+02  0.7818608E-02  0.1130116E+00
         25   -1    0    0    0    0  0.00000000000E+00  0.00000000000E+00  0.99999998245E-14  0.12500000000E+03  0.12500000000E+03 0.  0.
        -13    1    1    0    0    0 -0.40000132771E+02  0.33509539467E+02  0.96236784170E+01  0.53061532274E+02  0.10566000000E+00 0. -1.
         13    1    1    0    0    0 -0.63729595979E+01  0.65898495588E+01  0.23721040197E+01  0.94698876846E+01  0.10566000000E+00 0.  1.
         22    1    1    0    0    0  0.46373092369E+02 -0.40099389026E+02 -0.11995782437E+02  0.62468580041E+02  0.00000000000E+00 0. -1.
</event>
<event>
 4    1  0.9856522E-003  0.9118800E+02  0.7818608E-02  0.1130116E+00
         25   -1    0    0    0    0  0.00000000000E+00  0.00000000000E+00  0.99999998245E-14  0.12500000000E+03  0.12500000000E+03 0.  0.
        -13    1    1    0    0    0 -0.13490806584E+02 -0.21377192028E+02  0.12056259630E+02  0.28006262900E+02  0.10566000000E+00 0. -1.
         13    1    1    0    0    0 -0.24036952563E+02 -0.69216375706E+01  0.26323557614E+02  0.36312876568E+02  0.10566000000E+00 0.  1.
         22    1    1    0    0    0  0.37527759147E+02  0.28298829599E+02 -0.38379817244E+02  0.60680860532E+02  0.00000000000E+00 0. -1.
</event>
<event>
 4    1  0.9856522E-003  0.9118800E+02  0.7818608E-02  0.1130116E+00
         25   -1    0    0    0    0  0.00000000000E+00  0.00000000000E+00  0.99999998245E-14  0.12500000000E+03  0.12500000000E+03 0.  0.
        -13    1    1    0    0    0  0.19837161455E+02 -0.13262237281E+02  0.23355130384E+02  0.33389716854E+02  0.10566000000E+00 0.  1.
         13    1    1    0    0    0  0.17589362795E+02 -0.11489328269E+02  0.20150782520E+02  0.29111089774E+02  0.10566000000E+00 0. -1.
         22    1    1    0    0    0 -0.37426524250E+02  0.24751565550E+02 -0.43505912904E+02  0.62499193373E+02  0.00000000000E+00 0.  1.
</event>
<event>
 4    1  0.9856522E-003  0.9118800E+02  0.7818608E-02  0.1130116E+00
         25   -1    0    0    0    0  0.00000000000E+00  0.00000000000E+00  0.99999998245E-14  0.12500000000E+03  0.12500000000E+03 0.  0.
        -13    1    1    0    0    0 -0.13902696286E+02  0.17222032881E+02 -0.12317647651E+01  0.22167809749E+02  0.10566000000E+00 0.  1.
         13    1    1    0    0    0 -0.25711172885E+02  0.31071066700E+02 -0.79329192412E+00  0.40337526859E+02  0.10566000000E+00 0. -1.
         22    1    1    0    0    0  0.39613869171E+02 -0.48293099581E+02  0.20250566892E+01  0.62494663392E+02  0.00000000000E+00 0.  1.
</event>
<event>
 4    1  0.9856522E-003  0.9118800E+02  0.7818608E-02  0.1130116E+00
         25   -1    0    0    0    0  0.00000000000E+00  0.00000000000E+00  0.99999998245E-14  0.12500000000E+03  0.12500000000E+03 0.  0.
        -13    1    1    0    0    0  0.48573763822E+02 -0.19824161018E+02 -0.38620519376E+00  0.52464923619E+02  0.10566000000E+00 0. -1.
         13    1    1    0    0    0  0.93372776029E+01 -0.36766801005E+01 -0.47667093111E-01  0.10035744406E+02  0.10566000000E+00 0. -1.
         22    1    1    0    0    0 -0.57911041425E+02  0.23500841119E+02  0.43387228688E+00  0.62499331975E+02  0.00000000000E+00 0. -1.
</event>
<event>
 4    1  0.9856522E-003  0.9118800E+02  0.7818608E-02  0.1130116E+00
         25   -1    0    0    0    0  0.00000000000E+00  0.00000000000E+00  0.99999998245E-14  0.12500000000E+03  0.12500000000E+03 0.  0.
        -13    1    1    0    0    0 -0.32811260759E+02  0.21973292942E+02  0.80523671452E+01  0.40302062180E+02  0.10566000000E+00 0.  1.
         13    1    1    0    0    0 -0.18522586455E+02  0.10171390977E+02  0.70481189809E+01  0.22276232819E+02  0.10566000000E+00 0. -1.
         22    1    1    0    0    0  0.51333847214E+02 -0.32144683919E+02 -0.15100486126E+02  0.62421705001E+02  0.00000000000E+00 0.  1.
</event>
<event>
 4    1  0.9856522E-003  0.9118800E+02  0.7818608E-02  0.1130116E+00
         25   -1    0    0    0    0  0.00000000000E+00  0.00000000000E+00  0.99999998245E-14  0.12500000000E+03  0.12500000000E+03 0.  0.
        -13    1    1    0    0    0  0.11439989333E+01  0.76834715159E+00  0.94366509854E+00  0.16735467602E+01  0.10566000000E+00 0. -1.
         13    1    1    0    0    0  0.41741513310E+02  0.33877365243E+02  0.28477239480E+02  0.60835796547E+02  0.10566000000E+00 0.  1.
         22    1    1    0    0    0 -0.42885512243E+02 -0.34645712394E+02 -0.29420904578E+02  0.62490656692E+02  0.00000000000E+00 0.  1.
</event>
<event>
 4    1  0.9856522E-003  0.9118800E+02  0.7818608E-02  0.1130116E+00
         25   -1    0    0    0    0  0.00000000000E+00  0.00000000000E+00  0.99999998245E-14  0.12500000000E+03  0.12500000000E+03 0.  0.
        -13    1    1    0    0    0  0.15634319857E+02  0.25566265768E+02 -0.20791430759E+02  0.36474109444E+02  0.10566000000E+00 0.  1.
         13    1    1    0    0    0  0.17759398224E+02  0.96605945225E+01 -0.17470077463E+02  0.26719619802E+02  0.10566000000E+00 0. -1.
         22    1    1    0    0    0 -0.33393718080E+02 -0.35226860290E+02  0.38261508222E+02  0.61806270754E+02  0.00000000000E+00 0. -1.
</event>
<event>
 4    1  0.9856522E-003  0.9118800E+02  0.7818608E-02  0.1130116E+00
         25   -1    0    0    0    0  0.00000000000E+00  0.00000000000E+00  0.99999998245E-14  0.12500000000E+03  0.12500000000E+03 0.  0.
        -13    1    1    0    0    0  0.34652275279E+01  0.26395425377E+01 -0.18057324892E+01  0.47166535262E+01  0.10566000000E+00 0. -1.
         13    1    1    0    0    0  0.17733726169E+02  0.38698934318E+02 -0.39534830489E+02  0.58095667196E+02  0.10566000000E+00 0.  1.
         22    1    1    0    0    0 -0.21198953696E+02 -0.41338476856E+02  0.41340562978E+02  0.62187679277E+02  0.00000000000E+00 0.  1.
</event>
<event>
 4    1  0.9856522E-003  0.9118800E+02  0.7818608E-02  0.1130116E+00
         25   -1    0    0    0    0  0.00000000000E+00  0.00000000000E+00  0.99999998245E-14  0.12500000000E+03  0.12500000000E+03 0.  0.
        -13    1    1    0    0    0  0.10308842627E+02  0.25394152116E+01 -0.74032737886E+00  0.10643313140E+02  0.10566000000E+00 0.  1.
         13    1    1    0    0    0  0.50180722791E+02  0.12404715715E+02 -0.41449465769E+01  0.51857243061E+02  0.10566000000E+00 0.  1.
         22    1    1    0    0    0 -0.60489565418E+02 -0.14944130926E+02  0.48852739558E+01  0.62499443799E+02  0.00000000000E+00 0.  1.
</event>
<event>
 4    1  0.9856522E-003  0.9118800E+02  0.7818608E-02  0.1130116E+00
         25   -1    0    0    0    0  0.00000000000E+00  0.00000000000E+00  0.99999998245E-14  0.12500000000E+03  0.12500000000E+03 0.  0.
        -13    1    1    0    0    0 -0.69022305349E+00  0.17256600749E+01 -0.68656840419E+00  0.19841498852E+01  0.10566000000E+00 0. -1.
         13    1    1    0    0    0  0.20761017793E+02  0.10559947853E+02 -0.56534484640E+02  0.61144840142E+02  0.10566000000E+00 0.  1.
         22    1    1    0    0    0 -0.20070794740E+02 -0.12285607928E+02  0.57221053044E+02  0.61871009973E+02  0.00000000000E+00 0.  1.
</event>
<event>
 4    1  0.9856522E-003  0.9118800E+02  0.7818608E-02  0.1130116E+00
         25   -1    0    0    0    0  0.00000000000E+00  0.00000000000E+00  0.99999998245E-14  0.12500000000E+03  0.12500000000E+03 0.  0.
        -13    1    1    0    0    0  0.31498201360E+02 -0.15470988684E+00 -0.10095848758E+02  0.33077151483E+02  0.10566000000E+00 0.  1.
         13    1    1    0    0    0  0.26770526526E+02 -0.22236597383E+01 -0.12180949830E+02  0.29495634523E+02  0.10566000000E+00 0. -1.
         22    1    1    0    0    0 -0.58268727887E+02  0.23783696251E+01  0.22276798588E+02  0.62427213993E+02  0.00000000000E+00 0.  1.
</event>
<event>
 4    1  0.9856522E-003  0.9118800E+02  0.7818608E-02  0.1130116E+00
         25   -1    0    0    0    0  0.00000000000E+00  0.00000000000E+00  0.99999998245E-14  0.12500000000E+03  0.12500000000E+03 0.  0.
        -13    1    1    0    0    0 -0.10983597515E+02 -0.12313874050E+02  0.10091341142E+02  0.19342110499E+02  0.10566000000E+00 0.  1.
         13    1    1    0    0    0 -0.82288229787E+01 -0.25843841290E+02  0.34512849403E+02  0.43894938184E+02  0.10566000000E+00 0. -1.
         22    1    1    0    0    0  0.19212420493E+02  0.38157715340E+02 -0.44604190545E+02  0.61762951317E+02  0.00000000000E+00 0. -1.
</event>
<event>
 4    1  0.9856522E-003  0.9118800E+02  0.7818608E-02  0.1130116E+00
         25   -1    0    0    0    0  0.00000000000E+00  0.00000000000E+00  0.99999998245E-14  0.12500000000E+03  0.12500000000E+03 0.  0.
        -13    1    1    0    0    0 -0.28850483365E+01  0.33267214233E+02  0.38974178245E+02  0.51322790070E+02  0.10566000000E+00 0. -1.
         13    1    1    0    0    0  0.94461165006E+01  0.96583729096E+01 -0.24367713112E+02  0.27862338211E+02  0.10566000000E+00 0.  1.
         22    1    1    0    0    0 -0.65610681642E+01 -0.42925587142E+02 -0.14606465133E+02  0.45814871719E+02  0.00000000000E+00 0. -1.
</event>
<event>
 4    1  0.9856522E-003  0.9118800E+02  0.7818608E-02  0.1130116E+00
         25   -1    0    0    0    0  0.00000000000E+00  0.00000000000E+00  0.99999998245E-14  0.12500000000E+03  0.12500000000E+03 0.  0.
        -13    1    1    0    0    0 -0.20299433398E+02 -0.33149463421E+02 -0.29732788045E+00  0.38872271471E+02  0.10566000000E+00 0.  1.
         13    1    1    0    0    0 -0.12932430563E+02 -0.19770041898E+02  0.77804143582E+00  0.23637233963E+02  0.10566000000E+00 0. -1.
         22    1    1    0    0    0  0.33231863961E+02  0.52919505319E+02 -0.48071355537E+00  0.62490494566E+02  0.00000000000E+00 0. -1.
</event>
<event>
 4    1  0.9856522E-003  0.9118800E+02  0.7818608E-02  0.1130116E+00
         25   -1    0    0    0    0  0.00000000000E+00  0.00000000000E+00  0.99999998245E-14  0.12500000000E+03  0.12500000000E+03 0.  0.
        -13    1    1    0    0    0 -0.11003079799E+01  0.15361755575E+02 -0.15176030330E+02  0.21622147733E+02  0.10566000000E+00 0. -1.
         13    1    1    0    0    0 -0.16514492249E+01  0.29348974902E+02 -0.28407325958E+02  0.40878808012E+02  0.10566000000E+00 0. -1.
         22    1    1    0    0    0  0.27517572048E+01 -0.44710730477E+02  0.43583356288E+02  0.62499044255E+02  0.00000000000E+00 0. -1.
</event>
<event>
 4    1  0.9856522E-003  0.9118800E+02  0.7818608E-02  0.1130116E+00
         25   -1    0    0    0    0  0.00000000000E+00  0.00000000000E+00  0.99999998245E-14  0.12500000000E+03  0.12500000000E+03 0.  0.
        -13    1    1    0    0    0 -0.27145460307E+02 -0.18804864950E+01 -0.36728012253E+02  0.45709630198E+02  0.10566000000E+00 0. -1.
         13    1    1    0    0    0 -0.16773803491E+02  0.72742373947E+01 -0.44803923857E+01  0.18824454659E+02  0.10566000000E+00 0.  1.
         22    1    1    0    0    0  0.43919263798E+02 -0.53937508997E+01  0.41208404639E+02  0.60465915144E+02  0.00000000000E+00 0. -1.
</event>
<event>
 4    1  0.9856522E-003  0.9118800E+02  0.7818608E-02  0.1130116E+00
         25   -1    0    0    0    0  0.00000000000E+00  0.00000000000E+00  0.99999998245E-14  0.12500000000E+03  0.12500000000E+03 0.  0.
        -13    1    1    0    0    0  0.92580604642E+01 -0.25224360835E+02 -0.87815898218E+01  0.28268490354E+02  0.10566000000E+00 0.  1.
         13    1    1    0    0    0  0.10333096451E+02 -0.31030795104E+02 -0.10119378058E+02  0.34235889113E+02  0.10566000000E+00 0. -1.
         22    1    1    0    0    0 -0.19591156915E+02  0.56255155939E+02  0.18900967880E+02  0.62495620533E+02  0.00000000000E+00 0. -1.
</event>
<event>
 4    1  0.9856522E-003  0.9118800E+02  0.7818608E-02  0.1130116E+00
         25   -1    0    0    0    0  0.00000000000E+00  0.00000000000E+00  0.99999998245E-14  0.12500000000E+03  0.12500000000E+03 0.  0.
        -13    1    1    0    0    0  0.46750412349E+01  0.99726552859E+01 -0.12182272011E+02  0.16423421671E+02  0.10566000000E+00 0. -1.
         13    1    1    0    0    0  0.13901826024E+02  0.26663432873E+02 -0.34917646980E+02  0.46080935907E+02  0.10566000000E+00 0.  1.
         22    1    1    0    0    0 -0.18576867259E+02 -0.36636088159E+02  0.47099918991E+02  0.62495642422E+02  0.00000000000E+00 0.  1.
</event>
<event>
 4    1  0.9856522E-003  0.9118800E+02  0.7818608E-02  0.1130116E+00
         25   -1    0    0    0    0  0.00000000000E+00  0.00000000000E+00  0.99999998245E-14  0.12500000000E+03  0.12500000000E+03 0.  0.
        -13    1    1    0    0    0 -0.18943056937E+01  0.59188252576E+01 -0.93245044450E+00  0.62850230197E+01  0.10566000000E+00 0.  1.
         13    1    1    0    0    0 -0.98284307091E+01  0.50267245160E+02 -0.23477989731E+02  0.56343776516E+02  0.10566000000E+00 0. -1.
         22    1    1    0    0    0  0.11722736403E+02 -0.56186070418E+02  0.24410440176E+02  0.62371200464E+02  0.00000000000E+00 0. -1.
</event>
<event>
 4    1  0.9856522E-003  0.9118800E+02  0.7818608E-02  0.1130116E+00
         25   -1    0    0    0    0  0.00000000000E+00  0.00000000000E+00  0.99999998245E-14  0.12500000000E+03  0.12500000000E+03 0.  0.
        -13    1    1    0    0    0  0.13113103419E+02 -0.44555854832E+01  0.51703074965E+02  0.53525926878E+02  0.10566000000E+00 0.  1.
         13    1    1    0    0    0  0.20341482722E+01 -0.13424956658E+00  0.87492151541E+01  0.89841923392E+01  0.10566000000E+00 0. -1.
         22    1    1    0    0    0 -0.15147251691E+02  0.45898350498E+01 -0.60452290119E+02  0.62489880783E+02  0.00000000000E+00 0.  1.
</event>
<event>
 4    1  0.9856522E-003  0.9118800E+02  0.7818608E-02  0.1130116E+00
         25   -1    0    0    0    0  0.00000000000E+00  0.00000000000E+00  0.99999998245E-14  0.12500000000E+03  0.12500000000E+03 0.  0.
        -13    1    1    0    0    0 -0.10425585808E+02  0.10955863547E+02 -0.70412674278E+01  0.16682757462E+02  0.10566000000E+00 0. -1.
         13    1    1    0    0    0 -0.28686563138E+02  0.30271428035E+02 -0.18972975953E+02  0.45817717539E+02  0.10566000000E+00 0. -1.
         22    1    1    0    0    0  0.39112148946E+02 -0.41227291582E+02  0.26014243381E+02  0.62499524999E+02  0.00000000000E+00 0. -1.
</event>
<event>
 4    1  0.9856522E-003  0.9118800E+02  0.7818608E-02  0.1130116E+00
         25   -1    0    0    0    0  0.00000000000E+00  0.00000000000E+00  0.99999998245E-14  0.12500000000E+03  0.12500000000E+03 0.  0.
        -13    1    1    0    0    0 -0.32098655250E+02 -0.46355930298E+02  0.14762796738E+02  0.58285051894E+02  0.10566000000E+00 0.  1.
         13    1    1    0    0    0 -0.22439763850E+01 -0.33755039090E+01  0.11566718835E+01  0.42164571073E+01  0.10566000000E+00 0.  1.
         22    1    1    0    0    0  0.34342631635E+02  0.49731434207E+02 -0.15919468621E+02  0.62498490999E+02  0.00000000000E+00 0.  1.
</event>
<event>
 4    1  0.9856522E-003  0.9118800E+02  0.7818608E-02  0.1130116E+00
         25   -1    0    0    0    0  0.00000000000E+00  0.00000000000E+00  0.99999998245E-14  0.12500000000E+03  0.12500000000E+03 0.  0.
        -13    1    1    0    0    0 -0.68124638866E+01  0.57358467410E+02  0.13469974997E+02  0.59311506795E+02  0.10566000000E+00 0. -1.
         13    1    1    0    0    0  0.96373322136E+01 -0.18040117293E+02 -0.16319365142E+02  0.26165948231E+02  0.10566000000E+00 0.  1.
         22    1    1    0    0    0 -0.28248683269E+01 -0.39318350117E+02  0.28493901449E+01  0.39522544973E+02  0.00000000000E+00 0. -1.
</event>
<event>
 4    1  0.9856522E-003  0.9118800E+02  0.7818608E-02  0.1130116E+00
         25   -1    0    0    0    0  0.00000000000E+00  0.00000000000E+00  0.99999998245E-14  0.12500000000E+03  0.12500000000E+03 0.  0.
        -13    1    1    0    0    0 -0.30262714250E+02  0.25151397269E+02 -0.34681020370E+02  0.52451968469E+02  0.10566000000E+00 0.  1.
         13    1    1    0    0    0  0.94968823627E+01  0.15119141679E+02  0.14255585434E+02  0.22847584114E+02  0.10566000000E+00 0. -1.
         22    1    1    0    0    0  0.20765831887E+02 -0.40270538948E+02  0.20425434936E+02  0.49700447417E+02  0.00000000000E+00 0.  1.
</event>
<event>
 4    1  0.9856522E-003  0.9118800E+02  0.7818608E-02  0.1130116E+00
         25   -1    0    0    0    0  0.00000000000E+00  0.00000000000E+00  0.99999998245E-14  0.12500000000E+03  0.12500000000E+03 0.  0.
        -13    1    1    0    0    0 -0.34156405670E+02 -0.38324986715E+02 -0.23473846672E+02  0.56449068164E+02  0.10566000000E+00 0. -1.
         13    1    1    0    0    0 -0.35817887665E+01 -0.41656890773E+01 -0.25359699382E+01  0.60518165719E+01  0.10566000000E+00 0.  1.
         22    1    1    0    0    0  0.37738194437E+02  0.42490675792E+02  0.26009816610E+02  0.62499115264E+02  0.00000000000E+00 0. -1.
</event>
<event>
 4    1  0.9856522E-003  0.9118800E+02  0.7818608E-02  0.1130116E+00
         25   -1    0    0    0    0  0.00000000000E+00  0.00000000000E+00  0.99999998245E-14  0.12500000000E+03  0.12500000000E+03 0.  0.
        -13    1    1    0    0    0 -0.36040420228E+01 -0.46185804866E+02  0.20018423564E+02  0.50466485276E+02  0.10566000000E+00 0.  1.
         13    1    1    0    0    0 -0.13329424586E+02 -0.62914286435E+01  0.25377076557E+01  0.14956829823E+02  0.10566000000E+00 0. -1.
         22    1    1    0    0    0  0.16933466609E+02  0.52477233510E+02 -0.22556131220E+02  0.59576684901E+02  0.00000000000E+00 0.  1.
</event>
<event>
 4    1  0.9856522E-003  0.9118800E+02  0.7818608E-02  0.1130116E+00
         25   -1    0    0    0    0  0.00000000000E+00  0.00000000000E+00  0.99999998245E-14  0.12500000000E+03  0.12500000000E+03 0.  0.
        -13    1    1    0    0    0 -0.36828037915E+02  0.27575858796E+02 -0.33080209446E+02  0.56666072619E+02  0.10566000000E+00 0. -1.
         13    1    1    0    0    0  0.16508535264E+02  0.50444673993E+01  0.22713766039E+02  0.28529015398E+02  0.10566000000E+00 0.  1.
         22    1    1    0    0    0  0.20319502651E+02 -0.32620326195E+02  0.10366443408E+02  0.39804911983E+02  0.00000000000E+00 0. -1.
</event>
<event>
 4    1  0.9856522E-003  0.9118800E+02  0.7818608E-02  0.1130116E+00
         25   -1    0    0    0    0  0.00000000000E+00  0.00000000000E+00  0.99999998245E-14  0.12500000000E+03  0.12500000000E+03 0.  0.
        -13    1    1    0    0    0 -0.83607569430E+01  0.34100785389E+01 -0.18632386458E+01  0.92202882053E+01  0.10566000000E+00 0.  1.
         13    1    1    0    0    0 -0.45935250686E+02  0.24510068828E+02 -0.11406757967E+02  0.53300244098E+02  0.10566000000E+00 0. -1.
         22    1    1    0    0    0  0.54296007630E+02 -0.27920147367E+02  0.13269996613E+02  0.62479467696E+02  0.00000000000E+00 0. -1.
</event>
<event>
 4    1  0.9856522E-003  0.9118800E+02  0.7818608E-02  0.1130116E+00
         25   -1    0    0    0    0  0.00000000000E+00  0.00000000000E+00  0.99999998245E-14  0.12500000000E+03  0.12500000000E+03 0.  0.
        -13    1    1    0    0    0 -0.29822395699E+01  0.44515214782E+01  0.36250678090E+02  0.36644680683E+02  0.10566000000E+00 0. -1.
         13    1    1    0    0    0  0.81865457323E+01  0.31466112927E+02  0.55648260638E+01  0.32986576768E+02  0.10566000000E+00 0.  1.
         22    1    1    0    0    0 -0.52043061624E+01 -0.35917634405E+02 -0.41815504153E+02  0.55368742549E+02  0.00000000000E+00 0. -1.
</event>
<event>
 4    1  0.9856522E-003  0.9118800E+02  0.7818608E-02  0.1130116E+00
         25   -1    0    0    0    0  0.00000000000E+00  0.00000000000E+00  0.99999998245E-14  0.12500000000E+03  0.12500000000E+03 0.  0.
        -13    1    1    0    0    0  0.11397512090E+02 -0.53793694038E+00  0.12338611001E+02  0.16806104351E+02  0.10566000000E+00 0.  1.
         13    1    1    0    0    0  0.31169174242E+02 -0.24970468122E+01  0.33321826583E+02  0.45695819902E+02  0.10566000000E+00 0. -1.
         22    1    1    0    0    0 -0.42566686332E+02  0.30349837526E+01 -0.45660437584E+02  0.62498075746E+02  0.00000000000E+00 0. -1.
</event>
<event>
 4    1  0.9856522E-003  0.9118800E+02  0.7818608E-02  0.1130116E+00
         25   -1    0    0    0    0  0.00000000000E+00  0.00000000000E+00  0.99999998245E-14  0.12500000000E+03  0.12500000000E+03 0.  0.
        -13    1    1    0    0    0  0.14573207096E+02  0.41140649537E+01  0.12830071085E+02  0.19847563668E+02  0.10566000000E+00 0.  1.
         13    1    1    0    0    0  0.33470680143E+02  0.99725007743E+01  0.24533750205E+02  0.42680830171E+02  0.10566000000E+00 0. -1.
         22    1    1    0    0    0 -0.48043887239E+02 -0.14086565728E+02 -0.37363821289E+02  0.62471606161E+02  0.00000000000E+00 0. -1.
</event>
<event>
 4    1  0.9856522E-003  0.9118800E+02  0.7818608E-02  0.1130116E+00
         25   -1    0    0    0    0  0.00000000000E+00  0.00000000000E+00  0.99999998245E-14  0.12500000000E+03  0.12500000000E+03 0.  0.
        -13    1    1    0    0    0  0.21930247707E+02  0.13242721350E+02 -0.22765827401E+02  0.34272430531E+02  0.10566000000E+00 0. -1.
         13    1    1    0    0    0  0.19056238425E+02  0.99853036581E+01 -0.18289622744E+02  0.28237704868E+02  0.10566000000E+00 0.  1.
         22    1    1    0    0    0 -0.40986486132E+02 -0.23228025008E+02  0.41055450145E+02  0.62489864601E+02  0.00000000000E+00 0. -1.
</event>
<event>
 4    1  0.9856522E-003  0.9118800E+02  0.7818608E-02  0.1130116E+00
         25   -1    0    0    0    0  0.00000000000E+00  0.00000000000E+00  0.99999998245E-14  0.12500000000E+03  0.12500000000E+03 0.  0.
        -13    1    1    0    0    0  0.45721053207E+02  0.29269329412E+02 -0.45686606977E+01  0.54479282073E+02  0.10566000000E+00 0. -1.
         13    1    1    0    0    0  0.66578592123E+01  0.44147887306E+01 -0.71964004947E+00  0.80216266843E+01  0.10566000000E+00 0. -1.
         22    1    1    0    0    0 -0.52378912420E+02 -0.33684118143E+02  0.52883007472E+01  0.62499091242E+02  0.00000000000E+00 0. -1.
</event>
<event>
 4    1  0.9856522E-003  0.9118800E+02  0.7818608E-02  0.1130116E+00
         25   -1    0    0    0    0  0.00000000000E+00  0.00000000000E+00  0.99999998245E-14  0.12500000000E+03  0.12500000000E+03 0.  0.
        -13    1    1    0    0    0 -0.19352871476E+02 -0.17350627982E+02 -0.31037162304E+02  0.40483262389E+02  0.10566000000E+00 0.  1.
         13    1    1    0    0    0 -0.11434775755E+02 -0.92621422288E+01 -0.16387468271E+02  0.22025023396E+02  0.10566000000E+00 0. -1.
         22    1    1    0    0    0  0.30787647231E+02  0.26612770211E+02  0.47424630575E+02  0.62491714215E+02  0.00000000000E+00 0.  1.
</event>
<event>
 4    1  0.9856522E-003  0.9118800E+02  0.7818608E-02  0.1130116E+00
         25   -1    0    0    0    0  0.00000000000E+00  0.00000000000E+00  0.99999998245E-14  0.12500000000E+03  0.12500000000E+03 0.  0.
        -13    1    1    0    0    0 -0.23364906012E+02  0.89669119240E+01 -0.13894754692E+02  0.28625158766E+02  0.10566000000E+00 0.  1.
         13    1    1    0    0    0 -0.27691452363E+02  0.10702077801E+02 -0.16314439958E+02  0.33875110604E+02  0.10566000000E+00 0.  1.
         22    1    1    0    0    0  0.51056358376E+02 -0.19668989725E+02  0.30209194650E+02  0.62499730630E+02  0.00000000000E+00 0.  1.
</event>
<event>
 4    1  0.9856522E-003  0.9118800E+02  0.7818608E-02  0.1130116E+00
         25   -1    0    0    0    0  0.00000000000E+00  0.00000000000E+00  0.99999998245E-14  0.12500000000E+03  0.12500000000E+03 0.  0.
        -13    1    1    0    0    0  0.42392416963E+00 -0.13832255425E+02  0.29512980450E+01  0.14150347205E+02  0.10566000000E+00 0.  1.
         13    1    1    0    0    0  0.10912806090E+01 -0.47286018163E+02  0.10027904708E+02  0.48350061468E+02  0.10566000000E+00 0.  1.
         22    1    1    0    0    0 -0.15152047786E+01  0.61118273588E+02 -0.12979202753E+02  0.62499591327E+02  0.00000000000E+00 0.  1.
</event>
<event>
 4    1  0.9856522E-003  0.9118800E+02  0.7818608E-02  0.1130116E+00
         25   -1    0    0    0    0  0.00000000000E+00  0.00000000000E+00  0.99999998245E-14  0.12500000000E+03  0.12500000000E+03 0.  0.
        -13    1    1    0    0    0 -0.40753790647E+02  0.29006579614E+02 -0.22504371153E+02  0.54851718278E+02  0.10566000000E+00 0.  1.
         13    1    1    0    0    0 -0.57316660508E+01  0.39528139662E+01 -0.31654004295E+01  0.76490298655E+01  0.10566000000E+00 0. -1.
         22    1    1    0    0    0  0.46485456698E+02 -0.32959393580E+02  0.25669771583E+02  0.62499251857E+02  0.00000000000E+00 0.  1.
</event>
<event>
 4    1  0.9856522E-003  0.9118800E+02  0.7818608E-02  0.1130116E+00
         25   -1    0    0    0    0  0.00000000000E+00  0.00000000000E+00  0.99999998245E-14  0.12500000000E+03  0.12500000000E+03 0.  0.
        -13    1    1    0    0    0  0.67056725587E+01 -0.19689208051E+02  0.19043912024E+02  0.28201289108E+02  0.10566000000E+00 0. -1.
         13    1    1    0    0    0  0.78949074974E+01 -0.23887886143E+02  0.23312300054E+02  0.34299200670E+02  0.10566000000E+00 0. -1.
         22    1    1    0    0    0 -0.14600580056E+02  0.43577094194E+02 -0.42356212078E+02  0.62499510222E+02  0.00000000000E+00 0. -1.
</event>
<event>
 4    1  0.9856522E-003  0.9118800E+02  0.7818608E-02  0.1130116E+00
         25   -1    0    0    0    0  0.00000000000E+00  0.00000000000E+00  0.99999998245E-14  0.12500000000E+03  0.12500000000E+03 0.  0.
        -13    1    1    0    0    0 -0.37001382627E+02  0.78556554838E+01 -0.59625808065E+01  0.38293304550E+02  0.10566000000E+00 0.  1.
         13    1    1    0    0    0  0.23153580666E+02  0.19886662862E+01 -0.35197814388E+02  0.42177486802E+02  0.10566000000E+00 0. -1.
         22    1    1    0    0    0  0.13847801962E+02 -0.98443217700E+01  0.41160395194E+02  0.44529208648E+02  0.00000000000E+00 0. -1.
</event>
<event>
 4    1  0.9856522E-003  0.9118800E+02  0.7818608E-02  0.1130116E+00
         25   -1    0    0    0    0  0.00000000000E+00  0.00000000000E+00  0.99999998245E-14  0.12500000000E+03  0.12500000000E+03 0.  0.
        -13    1    1    0    0    0 -0.18355456911E+01  0.17211971094E+02 -0.17830982818E+02  0.24851082255E+02  0.10566000000E+00 0.  1.
         13    1    1    0    0    0 -0.28235572220E+01  0.26226853832E+02 -0.26863226522E+02  0.37649228950E+02  0.10566000000E+00 0.  1.
         22    1    1    0    0    0  0.46591029131E+01 -0.43438824926E+02  0.44694209340E+02  0.62499688795E+02  0.00000000000E+00 0.  1.
</event>
<event>
 4    1  0.9856522E-003  0.9118800E+02  0.7818608E-02  0.1130116E+00
         25   -1    0    0    0    0  0.00000000000E+00  0.00000000000E+00  0.99999998245E-14  0.12500000000E+03  0.12500000000E+03 0.  0.
        -13    1    1    0    0    0  0.15122313970E+01  0.89813065653E+01  0.12354201719E+02  0.15348881900E+02  0.10566000000E+00 0.  1.
         13    1    1    0    0    0  0.25666851247E+01  0.16177472994E+02  0.44460247312E+02  0.47381676417E+02  0.10566000000E+00 0. -1.
         22    1    1    0    0    0 -0.40789165216E+01 -0.25158779559E+02 -0.56814449031E+02  0.62269441684E+02  0.00000000000E+00 0. -1.
</event>
<event>
 4    1  0.9856522E-003  0.9118800E+02  0.7818608E-02  0.1130116E+00
         25   -1    0    0    0    0  0.00000000000E+00  0.00000000000E+00  0.99999998245E-14  0.12500000000E+03  0.12500000000E+03 0.  0.
        -13    1    1    0    0    0  0.25901362347E+02  0.15785583301E+01 -0.47787045581E+02  0.54378169399E+02  0.10566000000E+00 0. -1.
         13    1    1    0    0    0  0.40830989195E+01  0.16046744237E+00 -0.70207085295E+01  0.81239743278E+01  0.10566000000E+00 0.  1.
         22    1    1    0    0    0 -0.29984461266E+02 -0.17390257724E+01  0.54807754110E+02  0.62497856273E+02  0.00000000000E+00 0. -1.
</event>
<event>
 4    1  0.9856522E-003  0.9118800E+02  0.7818608E-02  0.1130116E+00
         25   -1    0    0    0    0  0.00000000000E+00  0.00000000000E+00  0.99999998245E-14  0.12500000000E+03  0.12500000000E+03 0.  0.
        -13    1    1    0    0    0 -0.40026221574E+01  0.21957321413E+02 -0.14308470558E+02  0.26512043330E+02  0.10566000000E+00 0.  1.
         13    1    1    0    0    0 -0.54391696991E+01  0.27942893016E+02 -0.22067285654E+02  0.36018968576E+02  0.10566000000E+00 0. -1.
         22    1    1    0    0    0  0.94417918565E+01 -0.49900214429E+02  0.36375756212E+02  0.62468988094E+02  0.00000000000E+00 0.  1.
</event>
<event>
 4    1  0.9856522E-003  0.9118800E+02  0.7818608E-02  0.1130116E+00
         25   -1    0    0    0    0  0.00000000000E+00  0.00000000000E+00  0.99999998245E-14  0.12500000000E+03  0.12500000000E+03 0.  0.
        -13    1    1    0    0    0  0.18405587058E+02 -0.20480412604E+01 -0.80296069876E+01  0.20185288216E+02  0.10566000000E+00 0.  1.
         13    1    1    0    0    0  0.31892452176E+02 -0.62324483943E+00 -0.28354514182E+02  0.42679111734E+02  0.10566000000E+00 0. -1.
         22    1    1    0    0    0 -0.50298039234E+02  0.26712860998E+01  0.36384121169E+02  0.62135600049E+02  0.00000000000E+00 0.  1.
</event>
<event>
 4    1  0.9856522E-003  0.9118800E+02  0.7818608E-02  0.1130116E+00
         25   -1    0    0    0    0  0.00000000000E+00  0.00000000000E+00  0.99999998245E-14  0.12500000000E+03  0.12500000000E+03 0.  0.
        -13    1    1    0    0    0  0.50609572671E+02  0.35551607926E+02 -0.99868397981E-01  0.61848741377E+02  0.10566000000E+00 0.  1.
         13    1    1    0    0    0  0.25442661854E+00 -0.45826855467E+00  0.12344762013E+01  0.13453023822E+01  0.10566000000E+00 0. -1.
         22    1    1    0    0    0 -0.50863999290E+02 -0.35093339372E+02 -0.11346078033E+01  0.61805956241E+02  0.00000000000E+00 0.  1.
</event>
<event>
 4    1  0.9856522E-003  0.9118800E+02  0.7818608E-02  0.1130116E+00
         25   -1    0    0    0    0  0.00000000000E+00  0.00000000000E+00  0.99999998245E-14  0.12500000000E+03  0.12500000000E+03 0.  0.
        -13    1    1    0    0    0 -0.52902060839E+02 -0.17019309049E+02 -0.52484932936E+01  0.55819734569E+02  0.10566000000E+00 0.  1.
         13    1    1    0    0    0 -0.14952881793E+01 -0.54571744562E+01  0.85235041569E+01  0.10231223140E+02  0.10566000000E+00 0. -1.
         22    1    1    0    0    0  0.54397349018E+02  0.22476483505E+02 -0.32750108633E+01  0.58949042291E+02  0.00000000000E+00 0.  1.
</event>
<event>
 4    1  0.9856522E-003  0.9118800E+02  0.7818608E-02  0.1130116E+00
         25   -1    0    0    0    0  0.00000000000E+00  0.00000000000E+00  0.99999998245E-14  0.12500000000E+03  0.12500000000E+03 0.  0.
        -13    1    1    0    0    0 -0.91780581480E+01  0.60159785308E+01  0.10529468082E+02  0.15208866203E+02  0.10566000000E+00 0.  1.
         13    1    1    0    0    0 -0.24558612428E+02  0.17393207942E+02  0.36533586193E+02  0.47332475226E+02  0.10566000000E+00 0. -1.
         22    1    1    0    0    0  0.33736670576E+02 -0.23409186473E+02 -0.47063054275E+02  0.62458658571E+02  0.00000000000E+00 0. -1.
</event>
<event>
 4    1  0.9856522E-003  0.9118800E+02  0.7818608E-02  0.1130116E+00
         25   -1    0    0    0    0  0.00000000000E+00  0.00000000000E+00  0.99999998245E-14  0.12500000000E+03  0.12500000000E+03 0.  0.
        -13    1    1    0    0    0 -0.22988433773E+01  0.29759764668E+01 -0.59114838350E+02  0.59234418997E+02  0.10566000000E+00 0.  1.
         13    1    1    0    0    0 -0.10878773794E+01 -0.67631713095E+00 -0.31313743237E+01  0.33849004778E+01  0.10566000000E+00 0. -1.
         22    1    1    0    0    0  0.33867207567E+01 -0.22996593359E+01  0.62246212673E+02  0.62380680525E+02  0.00000000000E+00 0.  1.
</event>
<event>
 4    1  0.9856522E-003  0.9118800E+02  0.7818608E-02  0.1130116E+00
         25   -1    0    0    0    0  0.00000000000E+00  0.00000000000E+00  0.99999998245E-14  0.12500000000E+03  0.12500000000E+03 0.  0.
        -13    1    1    0    0    0  0.12327336939E+02 -0.38344964169E+02  0.26707135376E+02  0.48327856947E+02  0.10566000000E+00 0. -1.
         13    1    1    0    0    0  0.15831112705E+02 -0.77232118505E+01 -0.37927757100E+01  0.18018558277E+02  0.10566000000E+00 0.  1.
         22    1    1    0    0    0 -0.28158449644E+02  0.46068176019E+02 -0.22914359666E+02  0.58653584775E+02  0.00000000000E+00 0. -1.
</event>
<event>
 4    1  0.9856522E-003  0.9118800E+02  0.7818608E-02  0.1130116E+00
         25   -1    0    0    0    0  0.00000000000E+00  0.00000000000E+00  0.99999998245E-14  0.12500000000E+03  0.12500000000E+03 0.  0.
        -13    1    1    0    0    0 -0.49141317941E+01  0.25365856296E+02  0.44468083470E+01  0.26217563301E+02  0.10566000000E+00 0.  1.
         13    1    1    0    0    0  0.36342704595E+02  0.77709708918E+01 -0.28806613767E+02  0.47021402857E+02  0.10566000000E+00 0. -1.
         22    1    1    0    0    0 -0.31428572801E+02 -0.33136827188E+02  0.24359805419E+02  0.51761033843E+02  0.00000000000E+00 0. -1.
</event>
<event>
 4    1  0.9856522E-003  0.9118800E+02  0.7818608E-02  0.1130116E+00
         25   -1    0    0    0    0  0.00000000000E+00  0.00000000000E+00  0.99999998245E-14  0.12500000000E+03  0.12500000000E+03 0.  0.
        -13    1    1    0    0    0  0.72973445124E+01  0.15409945630E+02 -0.41791144329E+02  0.45135668485E+02  0.10566000000E+00 0.  1.
         13    1    1    0    0    0  0.28138441837E+01 -0.70217034514E+01 -0.17536884205E+02  0.19099097102E+02  0.10566000000E+00 0. -1.
         22    1    1    0    0    0 -0.10111188696E+02 -0.83882421783E+01  0.59328028533E+02  0.60765234414E+02  0.00000000000E+00 0. -1.
</event>
<event>
 4    1  0.9856522E-003  0.9118800E+02  0.7818608E-02  0.1130116E+00
         25   -1    0    0    0    0  0.00000000000E+00  0.00000000000E+00  0.99999998245E-14  0.12500000000E+03  0.12500000000E+03 0.  0.
        -13    1    1    0    0    0  0.39985474639E+02  0.17269869896E+02 -0.22506657725E+02  0.49027006785E+02  0.10566000000E+00 0.  1.
         13    1    1    0    0    0  0.14063402598E+02  0.32448660941E+00 -0.17444084541E+01  0.14175285150E+02  0.10566000000E+00 0. -1.
         22    1    1    0    0    0 -0.54048877237E+02 -0.17594356505E+02  0.24251066179E+02  0.61797708066E+02  0.00000000000E+00 0.  1.
</event>
<event>
 4    1  0.9856522E-003  0.9118800E+02  0.7818608E-02  0.1130116E+00
         25   -1    0    0    0    0  0.00000000000E+00  0.00000000000E+00  0.99999998245E-14  0.12500000000E+03  0.12500000000E+03 0.  0.
        -13    1    1    0    0    0  0.23345019921E+02  0.18129400333E+01 -0.18532949922E+02  0.29862319125E+02  0.10566000000E+00 0.  1.
         13    1    1    0    0    0  0.26021406484E+02 -0.14477728184E+00 -0.19730474185E+02  0.32656352084E+02  0.10566000000E+00 0. -1.
         22    1    1    0    0    0 -0.49366426405E+02 -0.16681627515E+01  0.38263424107E+02  0.62481328790E+02  0.00000000000E+00 0. -1.
</event>
<event>
 4    1  0.9856522E-003  0.9118800E+02  0.7818608E-02  0.1130116E+00
         25   -1    0    0    0    0  0.00000000000E+00  0.00000000000E+00  0.99999998245E-14  0.12500000000E+03  0.12500000000E+03 0.  0.
        -13    1    1    0    0    0  0.11239615195E+01 -0.23251862715E+01 -0.51597414819E+01  0.57709511252E+01  0.10566000000E+00 0.  1.
         13    1    1    0    0    0 -0.21131778823E+02 -0.23983061981E+02 -0.47381982526E+02  0.57155951312E+02  0.10566000000E+00 0. -1.
         22    1    1    0    0    0  0.20007817304E+02  0.26308248252E+02  0.52541724008E+02  0.62073097563E+02  0.00000000000E+00 0. -1.
</event>
<event>
 4    1  0.9856522E-003  0.9118800E+02  0.7818608E-02  0.1130116E+00
         25   -1    0    0    0    0  0.00000000000E+00  0.00000000000E+00  0.99999998245E-14  0.12500000000E+03  0.12500000000E+03 0.  0.
        -13    1    1    0    0    0 -0.15478587222E+02  0.29758736773E+02 -0.20681447676E+02  0.39406884153E+02  0.10566000000E+00 0. -1.
         13    1    1    0    0    0 -0.90983073535E+01  0.17448356217E+02 -0.12085776209E+02  0.23093321155E+02  0.10566000000E+00 0. -1.
         22    1    1    0    0    0  0.24576894575E+02 -0.47207092989E+02  0.32767223884E+02  0.62499794692E+02  0.00000000000E+00 0. -1.
</event>
<event>
 4    1  0.9856522E-003  0.9118800E+02  0.7818608E-02  0.1130116E+00
         25   -1    0    0    0    0  0.00000000000E+00  0.00000000000E+00  0.99999998245E-14  0.12500000000E+03  0.12500000000E+03 0.  0.
        -13    1    1    0    0    0  0.34043622523E+01  0.46244030127E+00  0.79206223191E+01  0.86342895095E+01  0.10566000000E+00 0. -1.
         13    1    1    0    0    0  0.16592655724E+02 -0.31913367329E+01  0.51188900405E+02  0.53905616988E+02  0.10566000000E+00 0.  1.
         22    1    1    0    0    0 -0.19997017976E+02  0.27288964316E+01 -0.59109522724E+02  0.62460093503E+02  0.00000000000E+00 0.  1.
</event>
<event>
 4    1  0.9856522E-003  0.9118800E+02  0.7818608E-02  0.1130116E+00
         25   -1    0    0    0    0  0.00000000000E+00  0.00000000000E+00  0.99999998245E-14  0.12500000000E+03  0.12500000000E+03 0.  0.
        -13    1    1    0    0    0 -0.51811045996E+00 -0.19159888813E+02 -0.28923598126E+02  0.34698061479E+02  0.10566000000E+00 0. -1.
         13    1    1    0    0    0 -0.10928102541E+01 -0.15642966393E+02 -0.22961135722E+02  0.27805063379E+02  0.10566000000E+00 0.  1.
         22    1    1    0    0    0  0.16109207141E+01  0.34802855206E+02  0.51884733848E+02  0.62496875142E+02  0.00000000000E+00 0.  1.
</event>
<event>
 4    1  0.9856522E-003  0.9118800E+02  0.7818608E-02  0.1130116E+00
         25   -1    0    0    0    0  0.00000000000E+00  0.00000000000E+00  0.99999998245E-14  0.12500000000E+03  0.12500000000E+03 0.  0.
        -13    1    1    0    0    0  0.55599038111E+01 -0.16699586938E+02  0.57217548403E+01  0.18507792326E+02  0.10566000000E+00 0. -1.
         13    1    1    0    0    0  0.12165122306E+02 -0.40441669272E+02  0.12340357753E+02  0.43997890946E+02  0.10566000000E+00 0.  1.
         22    1    1    0    0    0 -0.17725026117E+02  0.57141256209E+02 -0.18062112593E+02  0.62494316728E+02  0.00000000000E+00 0. -1.
</event>
<event>
 4    1  0.9856522E-003  0.9118800E+02  0.7818608E-02  0.1130116E+00
         25   -1    0    0    0    0  0.00000000000E+00  0.00000000000E+00  0.99999998245E-14  0.12500000000E+03  0.12500000000E+03 0.  0.
        -13    1    1    0    0    0 -0.15458017568E+02  0.10652203027E+02 -0.68513946483E+01  0.19984306571E+02  0.10566000000E+00 0.  1.
         13    1    1    0    0    0 -0.32803380703E+02  0.22963149019E+02 -0.14291640993E+02  0.42516234132E+02  0.10566000000E+00 0.  1.
         22    1    1    0    0    0  0.48261398271E+02 -0.33615352046E+02  0.21143035641E+02  0.62499459297E+02  0.00000000000E+00 0.  1.
</event>
<event>
 4    1  0.9856522E-003  0.9118800E+02  0.7818608E-02  0.1130116E+00
         25   -1    0    0    0    0  0.00000000000E+00  0.00000000000E+00  0.99999998245E-14  0.12500000000E+03  0.12500000000E+03 0.  0.
        -13    1    1    0    0    0 -0.34669224327E+01  0.39110656579E+01  0.22042409584E+02  0.22653806966E+02  0.10566000000E+00 0.  1.
         13    1    1    0    0    0 -0.60029890996E+01  0.67094463969E+01  0.38815950566E+02  0.39846477027E+02  0.10566000000E+00 0.  1.
         22    1    1    0    0    0  0.94699115324E+01 -0.10620512055E+02 -0.60858360150E+02  0.62499716007E+02  0.00000000000E+00 0.  1.
</event>
<event>
 4    1  0.9856522E-003  0.9118800E+02  0.7818608E-02  0.1130116E+00
         25   -1    0    0    0    0  0.00000000000E+00  0.00000000000E+00  0.99999998245E-14  0.12500000000E+03  0.12500000000E+03 0.  0.
        -13    1    1    0    0    0 -0.52079032016E+02 -0.11669196232E+02 -0.16911821210E+02  0.55985860511E+02  0.10566000000E+00 0.  1.
         13    1    1    0    0    0 -0.54118457689E+01  0.24761469846E+01 -0.39773494613E+01  0.71589001452E+01  0.10566000000E+00 0. -1.
         22    1    1    0    0    0  0.57490877785E+02  0.91930492470E+01  0.20889170671E+02  0.61855239344E+02  0.00000000000E+00 0.  1.
</event>
<event>
 4    1  0.9856522E-003  0.9118800E+02  0.7818608E-02  0.1130116E+00
         25   -1    0    0    0    0  0.00000000000E+00  0.00000000000E+00  0.99999998245E-14  0.12500000000E+03  0.12500000000E+03 0.  0.
        -13    1    1    0    0    0  0.62062742019E+01 -0.51334433450E+02  0.38628467230E+01  0.51852431437E+02  0.10566000000E+00 0. -1.
         13    1    1    0    0    0  0.28388573373E+01 -0.10242879096E+02  0.12350870556E+01  0.10701041408E+02  0.10566000000E+00 0.  1.
         22    1    1    0    0    0 -0.90451315392E+01  0.61577312545E+02 -0.50979337787E+01  0.62446527155E+02  0.00000000000E+00 0. -1.
</event>
<event>
 4    1  0.9856522E-003  0.9118800E+02  0.7818608E-02  0.1130116E+00
         25   -1    0    0    0    0  0.00000000000E+00  0.00000000000E+00  0.99999998245E-14  0.12500000000E+03  0.12500000000E+03 0.  0.
        -13    1    1    0    0    0 -0.78804098055E+01 -0.75136086681E+01  0.86601737616E+01  0.13912762038E+02  0.10566000000E+00 0.  1.
         13    1    1    0    0    0 -0.21941396877E+02 -0.45040510198E+02 -0.74320106236E+01  0.50648972366E+02  0.10566000000E+00 0. -1.
         22    1    1    0    0    0  0.29821806682E+02  0.52554118866E+02 -0.12281631381E+01  0.60438265596E+02  0.00000000000E+00 0. -1.
</event>
<event>
 4    1  0.9856522E-003  0.9118800E+02  0.7818608E-02  0.1130116E+00
         25   -1    0    0    0    0  0.00000000000E+00  0.00000000000E+00  0.99999998245E-14  0.12500000000E+03  0.12500000000E+03 0.  0.
        -13    1    1    0    0    0 -0.22136471736E+02 -0.10716286468E+02 -0.17869228953E+02  0.30400373090E+02  0.10566000000E+00 0. -1.
         13    1    1    0    0    0 -0.24177459800E+02 -0.11605230429E+02 -0.17654772747E+02  0.32108146949E+02  0.10566000000E+00 0.  1.
         22    1    1    0    0    0  0.46313931537E+02  0.22321516897E+02  0.35524001700E+02  0.62491479961E+02  0.00000000000E+00 0. -1.
</event>
<event>
 4    1  0.9856522E-003  0.9118800E+02  0.7818608E-02  0.1130116E+00
         25   -1    0    0    0    0  0.00000000000E+00  0.00000000000E+00  0.99999998245E-14  0.12500000000E+03  0.12500000000E+03 0.  0.
        -13    1    1    0    0    0  0.25332135893E+01  0.48152016352E+01  0.50174762451E+01  0.74019976886E+01  0.10566000000E+00 0.  1.
         13    1    1    0    0    0  0.11891808813E+02  0.28442906053E+02  0.45779296921E+02  0.55192111865E+02  0.10566000000E+00 0. -1.
         22    1    1    0    0    0 -0.14425022402E+02 -0.33258107688E+02 -0.50796773166E+02  0.62405890446E+02  0.00000000000E+00 0. -1.
</event>
<event>
 4    1  0.9856522E-003  0.9118800E+02  0.7818608E-02  0.1130116E+00
         25   -1    0    0    0    0  0.00000000000E+00  0.00000000000E+00  0.99999998245E-14  0.12500000000E+03  0.12500000000E+03 0.  0.
        -13    1    1    0    0    0  0.23574289205E+01  0.95501959051E+01  0.81452924777E+01  0.12771870126E+02  0.10566000000E+00 0. -1.
         13    1    1    0    0    0  0.16091688026E+01  0.35355281293E+02  0.35037802917E+02  0.49802049524E+02  0.10566000000E+00 0.  1.
         22    1    1    0    0    0 -0.39665977231E+01 -0.44905477199E+02 -0.43183095394E+02  0.62426080349E+02  0.00000000000E+00 0.  1.
</event>
<event>
 4    1  0.9856522E-003  0.9118800E+02  0.7818608E-02  0.1130116E+00
         25   -1    0    0    0    0  0.00000000000E+00  0.00000000000E+00  0.99999998245E-14  0.12500000000E+03  0.12500000000E+03 0.  0.
        -13    1    1    0    0    0 -0.54409022875E+02 -0.12878359065E+02  0.33060807704E+01  0.56010135123E+02  0.10566000000E+00 0. -1.
         13    1    1    0    0    0  0.13064021715E+02 -0.12034701768E+02 -0.97958143961E+01  0.20284769008E+02  0.10566000000E+00 0.  1.
         22    1    1    0    0    0  0.41345001160E+02  0.24913060833E+02  0.64897336257E+01  0.48705095868E+02  0.00000000000E+00 0. -1.
</event>
<event>
 4    1  0.9856522E-003  0.9118800E+02  0.7818608E-02  0.1130116E+00
         25   -1    0    0    0    0  0.00000000000E+00  0.00000000000E+00  0.99999998245E-14  0.12500000000E+03  0.12500000000E+03 0.  0.
        -13    1    1    0    0    0  0.11535884771E+02 -0.20448148148E+02 -0.21379489084E+02  0.31753694551E+02  0.10566000000E+00 0. -1.
         13    1    1    0    0    0  0.94970568059E+01 -0.20218810100E+02 -0.21145842727E+02  0.30759587099E+02  0.10566000000E+00 0.  1.
         22    1    1    0    0    0 -0.21032941577E+02  0.40666958248E+02  0.42525331811E+02  0.62486718350E+02  0.00000000000E+00 0. -1.
</event>
<event>
 4    1  0.9856522E-003  0.9118800E+02  0.7818608E-02  0.1130116E+00
         25   -1    0    0    0    0  0.00000000000E+00  0.00000000000E+00  0.99999998245E-14  0.12500000000E+03  0.12500000000E+03 0.  0.
        -13    1    1    0    0    0  0.50111358714E+00  0.14299627218E+02 -0.13227056977E+02  0.19485806468E+02  0.10566000000E+00 0.  1.
         13    1    1    0    0    0 -0.41628855891E+01  0.42858653511E+02  0.20656804267E+02  0.47758858066E+02  0.10566000000E+00 0. -1.
         22    1    1    0    0    0  0.36617720019E+01 -0.57158280729E+02 -0.74297472898E+01  0.57755335466E+02  0.00000000000E+00 0. -1.
</event>
<event>
 4    1  0.9856522E-003  0.9118800E+02  0.7818608E-02  0.1130116E+00
         25   -1    0    0    0    0  0.00000000000E+00  0.00000000000E+00  0.99999998245E-14  0.12500000000E+03  0.12500000000E+03 0.  0.
        -13    1    1    0    0    0 -0.14615057956E+02 -0.51399973590E+01  0.80384203075E+01  0.17454135813E+02  0.10566000000E+00 0.  1.
         13    1    1    0    0    0 -0.17580511956E+01  0.49498562600E+01  0.48449023944E+02  0.48733057632E+02  0.10566000000E+00 0. -1.
         22    1    1    0    0    0  0.16373109151E+02  0.19014109891E+00 -0.56487444251E+02  0.58812806556E+02  0.00000000000E+00 0. -1.
</event>
<event>
 4    1  0.9856522E-003  0.9118800E+02  0.7818608E-02  0.1130116E+00
         25   -1    0    0    0    0  0.00000000000E+00  0.00000000000E+00  0.99999998245E-14  0.12500000000E+03  0.12500000000E+03 0.  0.
        -13    1    1    0    0    0  0.22846336847E+02 -0.38652090955E+02  0.19415157211E+02  0.48917264193E+02  0.10566000000E+00 0.  1.
         13    1    1    0    0    0  0.55604217243E+01 -0.13175103911E+02 -0.18110055884E+01  0.14415011554E+02  0.10566000000E+00 0. -1.
         22    1    1    0    0    0 -0.28406758571E+02  0.51827194867E+02 -0.17604151623E+02  0.61667724253E+02  0.00000000000E+00 0.  1.
</event>
<event>
 4    1  0.9856522E-003  0.9118800E+02  0.7818608E-02  0.1130116E+00
         25   -1    0    0    0    0  0.00000000000E+00  0.00000000000E+00  0.99999998245E-14  0.12500000000E+03  0.12500000000E+03 0.  0.
        -13    1    1    0    0    0 -0.16516239576E+01 -0.17329126462E+00 -0.10762991266E+01  0.19817859130E+01  0.10566000000E+00 0.  1.
         13    1    1    0    0    0 -0.58217668124E+02  0.31266053769E+01 -0.16429152571E+02  0.60572277167E+02  0.10566000000E+00 0. -1.
         22    1    1    0    0    0  0.59869292082E+02 -0.29533141122E+01  0.17505451698E+02  0.62445936920E+02  0.00000000000E+00 0. -1.
</event>
<event>
 4    1  0.9856522E-003  0.9118800E+02  0.7818608E-02  0.1130116E+00
         25   -1    0    0    0    0  0.00000000000E+00  0.00000000000E+00  0.99999998245E-14  0.12500000000E+03  0.12500000000E+03 0.  0.
        -13    1    1    0    0    0  0.48986636934E-01 -0.86391236370E+00 -0.84786995034E-01  0.87584081481E+00  0.10566000000E+00 0. -1.
         13    1    1    0    0    0 -0.38557161055E+01 -0.58241605252E+02 -0.19817586331E+02  0.61641698719E+02  0.10566000000E+00 0. -1.
         22    1    1    0    0    0  0.38067294686E+01  0.59105517615E+02  0.19902373326E+02  0.62482460466E+02  0.00000000000E+00 0. -1.
</event>
<event>
 4    1  0.9856522E-003  0.9118800E+02  0.7818608E-02  0.1130116E+00
         25   -1    0    0    0    0  0.00000000000E+00  0.00000000000E+00  0.99999998245E-14  0.12500000000E+03  0.12500000000E+03 0.  0.
        -13    1    1    0    0    0  0.70168858353E+01  0.37733590545E+01 -0.31222746263E+01  0.85577268160E+01  0.10566000000E+00 0. -1.
         13    1    1    0    0    0  0.27713742691E+02  0.37349976803E+02 -0.27978871320E+02  0.54276152273E+02  0.10566000000E+00 0.  1.
         22    1    1    0    0    0 -0.34730628527E+02 -0.41123335858E+02  0.31101145947E+02  0.62166120911E+02  0.00000000000E+00 0. -1.
</event>
<event>
 4    1  0.9856522E-003  0.9118800E+02  0.7818608E-02  0.1130116E+00
         25   -1    0    0    0    0  0.00000000000E+00  0.00000000000E+00  0.99999998245E-14  0.12500000000E+03  0.12500000000E+03 0.  0.
        -13    1    1    0    0    0  0.25488315750E+01  0.26708257511E+01  0.13607457633E+01  0.39360698239E+01  0.10566000000E+00 0. -1.
         13    1    1    0    0    0  0.38766074398E+02  0.39432805492E+02  0.19290173650E+02  0.58565148652E+02  0.10566000000E+00 0.  1.
         22    1    1    0    0    0 -0.41314905973E+02 -0.42103631243E+02 -0.20650919413E+02  0.62498781524E+02  0.00000000000E+00 0.  1.
</event>
<event>
 4    1  0.9856522E-003  0.9118800E+02  0.7818608E-02  0.1130116E+00
         25   -1    0    0    0    0  0.00000000000E+00  0.00000000000E+00  0.99999998245E-14  0.12500000000E+03  0.12500000000E+03 0.  0.
        -13    1    1    0    0    0 -0.88023456696E+01  0.39567657286E+02 -0.17135248224E+02  0.44008052537E+02  0.10566000000E+00 0. -1.
         13    1    1    0    0    0 -0.19913807788E+01  0.17346740264E+02 -0.62149667126E+01  0.18534075927E+02  0.10566000000E+00 0.  1.
         22    1    1    0    0    0  0.10793726448E+02 -0.56914397550E+02  0.23350214936E+02  0.62457871535E+02  0.00000000000E+00 0. -1.
</event>
<event>
 4    1  0.9856522E-003  0.9118800E+02  0.7818608E-02  0.1130116E+00
         25   -1    0    0    0    0  0.00000000000E+00  0.00000000000E+00  0.99999998245E-14  0.12500000000E+03  0.12500000000E+03 0.  0.
        -13    1    1    0    0    0 -0.46057920566E-01  0.11688918417E+01 -0.31326780203E+00  0.12156192747E+01  0.10566000000E+00 0.  1.
         13    1    1    0    0    0  0.20759530566E+02  0.53453978164E+02 -0.21762047267E+02  0.61334197282E+02  0.10566000000E+00 0. -1.
         22    1    1    0    0    0 -0.20713472645E+02 -0.54622870006E+02  0.22075315070E+02  0.62450183444E+02  0.00000000000E+00 0. -1.
</event>
<event>
 4    1  0.9856522E-003  0.9118800E+02  0.7818608E-02  0.1130116E+00
         25   -1    0    0    0    0  0.00000000000E+00  0.00000000000E+00  0.99999998245E-14  0.12500000000E+03  0.12500000000E+03 0.  0.
        -13    1    1    0    0    0  0.27751680656E+02 -0.22376181950E+02  0.37349840029E+02  0.51632073482E+02  0.10566000000E+00 0. -1.
         13    1    1    0    0    0  0.58163009519E+01 -0.12371857261E+01  0.94222737507E+01  0.11142279477E+02  0.10566000000E+00 0.  1.
         22    1    1    0    0    0 -0.33567981608E+02  0.23613367676E+02 -0.46772113779E+02  0.62225647040E+02  0.00000000000E+00 0.  1.
</event>
<event>
 4    1  0.9856522E-003  0.9118800E+02  0.7818608E-02  0.1130116E+00
         25   -1    0    0    0    0  0.00000000000E+00  0.00000000000E+00  0.99999998245E-14  0.12500000000E+03  0.12500000000E+03 0.  0.
        -13    1    1    0    0    0  0.25579836061E+01 -0.23994463111E+02 -0.21390311158E+02  0.32246458962E+02  0.10566000000E+00 0. -1.
         13    1    1    0    0    0  0.21829448094E+01 -0.26207352295E+02 -0.15270196003E+02  0.30410205728E+02  0.10566000000E+00 0.  1.
         22    1    1    0    0    0 -0.47409284155E+01  0.50201815406E+02  0.36660507161E+02  0.62343335311E+02  0.00000000000E+00 0. -1.
</event>
<event>
 4    1  0.9856522E-003  0.9118800E+02  0.7818608E-02  0.1130116E+00
         25   -1    0    0    0    0  0.00000000000E+00  0.00000000000E+00  0.99999998245E-14  0.12500000000E+03  0.12500000000E+03 0.  0.
        -13    1    1    0    0    0 -0.39147218937E+02  0.10390666564E+02 -0.46586812036E+02  0.61731782105E+02  0.10566000000E+00 0.  1.
         13    1    1    0    0    0 -0.42204272495E+00  0.31879656348E+00 -0.57000616314E+00  0.78474350726E+00  0.10566000000E+00 0.  1.
         22    1    1    0    0    0  0.39569261662E+02 -0.10709463127E+02  0.47156818199E+02  0.62483474388E+02  0.00000000000E+00 0.  1.
</event>
<event>
 4    1  0.9856522E-003  0.9118800E+02  0.7818608E-02  0.1130116E+00
         25   -1    0    0    0    0  0.00000000000E+00  0.00000000000E+00  0.99999998245E-14  0.12500000000E+03  0.12500000000E+03 0.  0.
        -13    1    1    0    0    0  0.24132701281E+02  0.37827458833E+02 -0.13602123596E+01  0.44890592050E+02  0.10566000000E+00 0. -1.
         13    1    1    0    0    0  0.69299512330E+01  0.16279944340E+02  0.92476011012E+00  0.17717989646E+02  0.10566000000E+00 0.  1.
         22    1    1    0    0    0 -0.31062652514E+02 -0.54107403173E+02  0.43545224944E+00  0.62391418304E+02  0.00000000000E+00 0. -1.
</event>
<event>
 4    1  0.9856522E-003  0.9118800E+02  0.7818608E-02  0.1130116E+00
         25   -1    0    0    0    0  0.00000000000E+00  0.00000000000E+00  0.99999998245E-14  0.12500000000E+03  0.12500000000E+03 0.  0.
        -13    1    1    0    0    0 -0.16688093192E+02  0.29790118139E+02 -0.21522168248E+02  0.40362835422E+02  0.10566000000E+00 0. -1.
         13    1    1    0    0    0 -0.87389124596E+01  0.16570300115E+02 -0.11797488581E+02  0.22139000378E+02  0.10566000000E+00 0.  1.
         22    1    1    0    0    0  0.25427005652E+02 -0.46360418255E+02  0.33319656829E+02  0.62498164200E+02  0.00000000000E+00 0. -1.
</event>
<event>
 4    1  0.9856522E-003  0.9118800E+02  0.7818608E-02  0.1130116E+00
         25   -1    0    0    0    0  0.00000000000E+00  0.00000000000E+00  0.99999998245E-14  0.12500000000E+03  0.12500000000E+03 0.  0.
        -13    1    1    0    0    0 -0.55352063329E+01  0.13733635823E+02  0.51936615486E+02  0.54006244586E+02  0.10566000000E+00 0. -1.
         13    1    1    0    0    0  0.66875893787E-01  0.12370083027E+01  0.84491123391E+01  0.85401010111E+01  0.10566000000E+00 0.  1.
         22    1    1    0    0    0  0.54683304391E+01 -0.14970644126E+02 -0.60385727825E+02  0.62453654403E+02  0.00000000000E+00 0. -1.
</event>
<event>
 4    1  0.9856522E-003  0.9118800E+02  0.7818608E-02  0.1130116E+00
         25   -1    0    0    0    0  0.00000000000E+00  0.00000000000E+00  0.99999998245E-14  0.12500000000E+03  0.12500000000E+03 0.  0.
        -13    1    1    0    0    0  0.19344719796E+02  0.11163665021E+02 -0.16855981252E+02  0.27981795309E+02  0.10566000000E+00 0.  1.
         13    1    1    0    0    0  0.32217199542E+01  0.92427120520E+01 -0.35302604322E+02  0.36634577130E+02  0.10566000000E+00 0. -1.
         22    1    1    0    0    0 -0.22566439750E+02 -0.20406377074E+02  0.52158585575E+02  0.60383627561E+02  0.00000000000E+00 0. -1.
</event>
<event>
 4    1  0.9856522E-003  0.9118800E+02  0.7818608E-02  0.1130116E+00
         25   -1    0    0    0    0  0.00000000000E+00  0.00000000000E+00  0.99999998245E-14  0.12500000000E+03  0.12500000000E+03 0.  0.
        -13    1    1    0    0    0 -0.28759511361E+01  0.20231903386E+02  0.46762662779E+02  0.51032918825E+02  0.10566000000E+00 0. -1.
         13    1    1    0    0    0 -0.62882555190E+00  0.46530641119E+01  0.10461780243E+02  0.11467625608E+02  0.10566000000E+00 0. -1.
         22    1    1    0    0    0  0.35047766880E+01 -0.24884967498E+02 -0.57224443022E+02  0.62499455567E+02  0.00000000000E+00 0. -1.
</event>
<event>
 4    1  0.9856522E-003  0.9118800E+02  0.7818608E-02  0.1130116E+00
         25   -1    0    0    0    0  0.00000000000E+00  0.00000000000E+00  0.99999998245E-14  0.12500000000E+03  0.12500000000E+03 0.  0.
        -13    1    1    0    0    0  0.23433138439E+02  0.77118571629E+01 -0.25177934036E+02  0.35249457362E+02  0.10566000000E+00 0.  1.
         13    1    1    0    0    0  0.17978474367E+02  0.73591369084E+01 -0.19125811600E+02  0.27261516282E+02  0.10566000000E+00 0. -1.
         22    1    1    0    0    0 -0.41411612806E+02 -0.15070994071E+02  0.44303745636E+02  0.62489026355E+02  0.00000000000E+00 0.  1.
</event>
<event>
 4    1  0.9856522E-003  0.9118800E+02  0.7818608E-02  0.1130116E+00
         25   -1    0    0    0    0  0.00000000000E+00  0.00000000000E+00  0.99999998245E-14  0.12500000000E+03  0.12500000000E+03 0.  0.
        -13    1    1    0    0    0 -0.30390645678E+01  0.81460909500E+01 -0.24382816843E+02  0.25886823530E+02  0.10566000000E+00 0. -1.
         13    1    1    0    0    0 -0.44059807046E+01  0.11131348466E+02 -0.34601215143E+02  0.36613861283E+02  0.10566000000E+00 0. -1.
         22    1    1    0    0    0  0.74450452724E+01 -0.19277439416E+02  0.58984031986E+02  0.62499315187E+02  0.00000000000E+00 0. -1.
</event>
<event>
 4    1  0.9856522E-003  0.9118800E+02  0.7818608E-02  0.1130116E+00
         25   -1    0    0    0    0  0.00000000000E+00  0.00000000000E+00  0.99999998245E-14  0.12500000000E+03  0.12500000000E+03 0.  0.
        -13    1    1    0    0    0 -0.12743986777E+02  0.17286147873E+02  0.35516999488E+02  0.41505283085E+02  0.10566000000E+00 0.  1.
         13    1    1    0    0    0 -0.58159201856E+01  0.85980031412E+01  0.18253529704E+02  0.20998883216E+02  0.10566000000E+00 0.  1.
         22    1    1    0    0    0  0.18559906962E+02 -0.25884151014E+02 -0.53770529192E+02  0.62495833699E+02  0.00000000000E+00 0.  1.
</event>
<event>
 4    1  0.9856522E-003  0.9118800E+02  0.7818608E-02  0.1130116E+00
         25   -1    0    0    0    0  0.00000000000E+00  0.00000000000E+00  0.99999998245E-14  0.12500000000E+03  0.12500000000E+03 0.  0.
        -13    1    1    0    0    0  0.15480718963E+02  0.22075498109E+02  0.21605032650E+02  0.34550960569E+02  0.10566000000E+00 0. -1.
         13    1    1    0    0    0  0.31576661553E+00  0.20135733279E+02  0.20524603554E+02  0.28754442758E+02  0.10566000000E+00 0.  1.
         22    1    1    0    0    0 -0.15796485579E+02 -0.42211231388E+02 -0.42129636205E+02  0.61694596673E+02  0.00000000000E+00 0. -1.
</event>
<event>
 4    1  0.9856522E-003  0.9118800E+02  0.7818608E-02  0.1130116E+00
         25   -1    0    0    0    0  0.00000000000E+00  0.00000000000E+00  0.99999998245E-14  0.12500000000E+03  0.12500000000E+03 0.  0.
        -13    1    1    0    0    0 -0.13392191961E+02 -0.20869025142E+02 -0.23634590310E+02  0.34255978151E+02  0.10566000000E+00 0.  1.
         13    1    1    0    0    0 -0.22571400782E+02 -0.16469165618E+02 -0.91556110195E+01  0.29403025807E+02  0.10566000000E+00 0. -1.
         22    1    1    0    0    0  0.35963592743E+02  0.37338190760E+02  0.32790201329E+02  0.61340996042E+02  0.00000000000E+00 0. -1.
</event>
<event>
 4    1  0.9856522E-003  0.9118800E+02  0.7818608E-02  0.1130116E+00
         25   -1    0    0    0    0  0.00000000000E+00  0.00000000000E+00  0.99999998245E-14  0.12500000000E+03  0.12500000000E+03 0.  0.
        -13    1    1    0    0    0 -0.18952259433E+01 -0.16109575709E+01  0.48556948556E+00  0.25365345321E+01  0.10566000000E+00 0.  1.
         13    1    1    0    0    0 -0.35088759392E+02 -0.51128286232E+01  0.48897389996E+02  0.60401390420E+02  0.10566000000E+00 0. -1.
         22    1    1    0    0    0  0.36983985335E+02  0.67237861941E+01 -0.49382959482E+02  0.62062075048E+02  0.00000000000E+00 0. -1.
</event>
<event>
 4    1  0.9856522E-003  0.9118800E+02  0.7818608E-02  0.1130116E+00
         25   -1    0    0    0    0  0.00000000000E+00  0.00000000000E+00  0.99999998245E-14  0.12500000000E+03  0.12500000000E+03 0.  0.
        -13    1    1    0    0    0 -0.13664251281E+02 -0.23337637029E+02 -0.37879487586E+02  0.46542709515E+02  0.10566000000E+00 0.  1.
         13    1    1    0    0    0 -0.13209137358E+02 -0.52992201978E+01 -0.93532494944E+01  0.17031074088E+02  0.10566000000E+00 0. -1.
         22    1    1    0    0    0  0.26873388638E+02  0.28636857227E+02  0.47232737081E+02  0.61426216397E+02  0.00000000000E+00 0.  1.
</event>
<event>
 4    1  0.9856522E-003  0.9118800E+02  0.7818608E-02  0.1130116E+00
         25   -1    0    0    0    0  0.00000000000E+00  0.00000000000E+00  0.99999998245E-14  0.12500000000E+03  0.12500000000E+03 0.  0.
        -13    1    1    0    0    0 -0.51036738419E+01 -0.84691706189E+01  0.77509566718E+01  0.12564347616E+02  0.10566000000E+00 0. -1.
         13    1    1    0    0    0 -0.19981703592E+02 -0.34405518681E+02  0.30177516290E+02  0.49936978760E+02  0.10566000000E+00 0.  1.
         22    1    1    0    0    0  0.25085377434E+02  0.42874689300E+02 -0.37928472962E+02  0.62498673624E+02  0.00000000000E+00 0.  1.
</event>
<event>
 4    1  0.9856522E-003  0.9118800E+02  0.7818608E-02  0.1130116E+00
         25   -1    0    0    0    0  0.00000000000E+00  0.00000000000E+00  0.99999998245E-14  0.12500000000E+03  0.12500000000E+03 0.  0.
        -13    1    1    0    0    0 -0.48361511982E+01  0.26200392993E+02 -0.10575329728E+02  0.28665270176E+02  0.10566000000E+00 0. -1.
         13    1    1    0    0    0 -0.59753224428E+01  0.30335488934E+02 -0.13759124900E+02  0.33841853513E+02  0.10566000000E+00 0.  1.
         22    1    1    0    0    0  0.10811473641E+02 -0.56535881927E+02  0.24334454628E+02  0.62492876311E+02  0.00000000000E+00 0. -1.
</event>
<event>
 4    1  0.9856522E-003  0.9118800E+02  0.7818608E-02  0.1130116E+00
         25   -1    0    0    0    0  0.00000000000E+00  0.00000000000E+00  0.99999998245E-14  0.12500000000E+03  0.12500000000E+03 0.  0.
        -13    1    1    0    0    0 -0.18868153400E+01 -0.32769862175E+01  0.92081606390E+01  0.99549031731E+01  0.10566000000E+00 0.  1.
         13    1    1    0    0    0 -0.10680531630E+02 -0.12665470569E+02  0.49883903145E+02  0.52563322361E+02  0.10566000000E+00 0. -1.
         22    1    1    0    0    0  0.12567346970E+02  0.15942456786E+02 -0.59092063783E+02  0.62481774466E+02  0.00000000000E+00 0. -1.
</event>
<event>
 4    1  0.9856522E-003  0.9118800E+02  0.7818608E-02  0.1130116E+00
         25   -1    0    0    0    0  0.00000000000E+00  0.00000000000E+00  0.99999998245E-14  0.12500000000E+03  0.12500000000E+03 0.  0.
        -13    1    1    0    0    0  0.62110869651E+00  0.33606363664E+00 -0.27707888858E-01  0.71459537044E+00  0.10566000000E+00 0. -1.
         13    1    1    0    0    0 -0.60441195243E+02  0.62136742269E+01  0.14340295368E+02  0.62429184402E+02  0.10566000000E+00 0.  1.
         22    1    1    0    0    0  0.59820086547E+02 -0.65497378636E+01 -0.14312587479E+02  0.61856220228E+02  0.00000000000E+00 0.  1.
</event>
<event>
 4    1  0.9856522E-003  0.9118800E+02  0.7818608E-02  0.1130116E+00
         25   -1    0    0    0    0  0.00000000000E+00  0.00000000000E+00  0.99999998245E-14  0.12500000000E+03  0.12500000000E+03 0.  0.
        -13    1    1    0    0    0  0.36378562854E+02 -0.27835410650E+02 -0.58981731098E+00  0.45810140470E+02  0.10566000000E+00 0. -1.
         13    1    1    0    0    0  0.10064100361E+02 -0.13618781475E+02  0.28475704880E+00  0.16936634127E+02  0.10566000000E+00 0.  1.
         22    1    1    0    0    0 -0.46442663215E+02  0.41454192125E+02  0.30506026218E+00  0.62253225403E+02  0.00000000000E+00 0. -1.
</event>
<event>
 4    1  0.9856522E-003  0.9118800E+02  0.7818608E-02  0.1130116E+00
         25   -1    0    0    0    0  0.00000000000E+00  0.00000000000E+00  0.99999998245E-14  0.12500000000E+03  0.12500000000E+03 0.  0.
        -13    1    1    0    0    0 -0.26099111408E+02 -0.34533291443E+00 -0.36133184748E+02  0.44574668537E+02  0.10566000000E+00 0. -1.
         13    1    1    0    0    0  0.44070718281E+00  0.27984288761E+01 -0.19186873952E+02  0.19395172675E+02  0.10566000000E+00 0.  1.
         22    1    1    0    0    0  0.25658404226E+02 -0.24530959617E+01  0.55320058700E+02  0.61030158788E+02  0.00000000000E+00 0. -1.
</event>
<event>
 4    1  0.9856522E-003  0.9118800E+02  0.7818608E-02  0.1130116E+00
         25   -1    0    0    0    0  0.00000000000E+00  0.00000000000E+00  0.99999998245E-14  0.12500000000E+03  0.12500000000E+03 0.  0.
        -13    1    1    0    0    0 -0.12261147593E+02 -0.31187709697E+02  0.49514420998E+02  0.59788778439E+02  0.10566000000E+00 0. -1.
         13    1    1    0    0    0  0.74859381531E+01  0.79427737427E+01 -0.70371125826E+00  0.10937700779E+02  0.10566000000E+00 0.  1.
         22    1    1    0    0    0  0.47752094394E+01  0.23244935955E+02 -0.48810709740E+02  0.54273520782E+02  0.00000000000E+00 0. -1.
</event>
<event>
 4    1  0.9856522E-003  0.9118800E+02  0.7818608E-02  0.1130116E+00
         25   -1    0    0    0    0  0.00000000000E+00  0.00000000000E+00  0.99999998245E-14  0.12500000000E+03  0.12500000000E+03 0.  0.
        -13    1    1    0    0    0 -0.29086402191E+02 -0.32161615463E+02 -0.26069748330E+02  0.50596751315E+02  0.10566000000E+00 0. -1.
         13    1    1    0    0    0  0.76200519859E+01  0.14186351416E+02 -0.16754308348E+02  0.23238669735E+02  0.10566000000E+00 0.  1.
         22    1    1    0    0    0  0.21466350205E+02  0.17975264047E+02  0.42824056679E+02  0.51164578950E+02  0.00000000000E+00 0. -1.
</event>
<event>
 4    1  0.9856522E-003  0.9118800E+02  0.7818608E-02  0.1130116E+00
         25   -1    0    0    0    0  0.00000000000E+00  0.00000000000E+00  0.99999998245E-14  0.12500000000E+03  0.12500000000E+03 0.  0.
        -13    1    1    0    0    0 -0.31389485975E+01  0.89617143994E+00 -0.10925152435E+02  0.11402904951E+02  0.10566000000E+00 0. -1.
         13    1    1    0    0    0 -0.88751991286E+01 -0.14201131346E+02 -0.48614053067E+02  0.51417687722E+02  0.10566000000E+00 0.  1.
         22    1    1    0    0    0  0.12014147726E+02  0.13304959906E+02  0.59539205502E+02  0.62179407327E+02  0.00000000000E+00 0. -1.
</event>
<event>
 4    1  0.9856522E-003  0.9118800E+02  0.7818608E-02  0.1130116E+00
         25   -1    0    0    0    0  0.00000000000E+00  0.00000000000E+00  0.99999998245E-14  0.12500000000E+03  0.12500000000E+03 0.  0.
        -13    1    1    0    0    0 -0.17077732347E+02 -0.37605742530E+02  0.21098541081E+02  0.46378878955E+02  0.10566000000E+00 0.  1.
         13    1    1    0    0    0 -0.54686074026E+01 -0.13944981384E+02  0.60417553815E+01  0.16151846484E+02  0.10566000000E+00 0. -1.
         22    1    1    0    0    0  0.22546339749E+02  0.51550723914E+02 -0.27140296462E+02  0.62469274561E+02  0.00000000000E+00 0.  1.
</event>
<event>
 4    1  0.9856522E-003  0.9118800E+02  0.7818608E-02  0.1130116E+00
         25   -1    0    0    0    0  0.00000000000E+00  0.00000000000E+00  0.99999998245E-14  0.12500000000E+03  0.12500000000E+03 0.  0.
        -13    1    1    0    0    0  0.13880447176E+02  0.49106242984E+02  0.35495254156E+02  0.62161194852E+02  0.10566000000E+00 0.  1.
         13    1    1    0    0    0  0.17733939780E+00  0.23523910648E+00  0.16898527659E+00  0.35567788593E+00  0.10566000000E+00 0.  1.
         22    1    1    0    0    0 -0.14057786574E+02 -0.49341482090E+02 -0.35664239432E+02  0.62483127262E+02  0.00000000000E+00 0.  1.
</event>
<event>
 4    1  0.9856522E-003  0.9118800E+02  0.7818608E-02  0.1130116E+00
         25   -1    0    0    0    0  0.00000000000E+00  0.00000000000E+00  0.99999998245E-14  0.12500000000E+03  0.12500000000E+03 0.  0.
        -13    1    1    0    0    0 -0.12627678554E+02  0.24719134285E+01 -0.56168566651E+02  0.57623672786E+02  0.10566000000E+00 0. -1.
         13    1    1    0    0    0 -0.12284823587E+01  0.45689993658E+00 -0.47007323198E+01  0.48811858022E+01  0.10566000000E+00 0.  1.
         22    1    1    0    0    0  0.13856160913E+02 -0.29288133651E+01  0.60869298971E+02  0.62495141412E+02  0.00000000000E+00 0. -1.
</event>
<event>
 4    1  0.9856522E-003  0.9118800E+02  0.7818608E-02  0.1130116E+00
         25   -1    0    0    0    0  0.00000000000E+00  0.00000000000E+00  0.99999998245E-14  0.12500000000E+03  0.12500000000E+03 0.  0.
        -13    1    1    0    0    0  0.52714562650E+01 -0.85641439906E+01  0.16074299856E+02  0.18961199681E+02  0.10566000000E+00 0. -1.
         13    1    1    0    0    0  0.78775388398E+01 -0.22231875684E+02  0.36647564187E+02  0.43581728276E+02  0.10566000000E+00 0.  1.
         22    1    1    0    0    0 -0.13148995105E+02  0.30796019675E+02 -0.52721864043E+02  0.62457072043E+02  0.00000000000E+00 0.  1.
</event>
<event>
 4    1  0.9856522E-003  0.9118800E+02  0.7818608E-02  0.1130116E+00
         25   -1    0    0    0    0  0.00000000000E+00  0.00000000000E+00  0.99999998245E-14  0.12500000000E+03  0.12500000000E+03 0.  0.
        -13    1    1    0    0    0  0.15568529383E+02 -0.20758801206E+02  0.47028893928E+02  0.53712521471E+02  0.10566000000E+00 0. -1.
         13    1    1    0    0    0  0.28372129932E+00 -0.19326721511E+01  0.87778003973E+01  0.89931453491E+01  0.10566000000E+00 0.  1.
         22    1    1    0    0    0 -0.15852250683E+02  0.22691473357E+02 -0.55806694325E+02  0.62294333180E+02  0.00000000000E+00 0.  1.
</event>
<event>
 4    1  0.9856522E-003  0.9118800E+02  0.7818608E-02  0.1130116E+00
         25   -1    0    0    0    0  0.00000000000E+00  0.00000000000E+00  0.99999998245E-14  0.12500000000E+03  0.12500000000E+03 0.  0.
        -13    1    1    0    0    0 -0.28810814307E+02  0.28630752278E+02  0.66191754757E+01  0.41153464557E+02  0.10566000000E+00 0. -1.
         13    1    1    0    0    0 -0.15219961812E+02  0.14654070815E+02  0.30604615655E+01  0.21348691249E+02  0.10566000000E+00 0.  1.
         22    1    1    0    0    0  0.44030776118E+02 -0.43284823093E+02 -0.96796370412E+01  0.62497844195E+02  0.00000000000E+00 0. -1.
</event>
<event>
 4    1  0.9856522E-003  0.9118800E+02  0.7818608E-02  0.1130116E+00
         25   -1    0    0    0    0  0.00000000000E+00  0.00000000000E+00  0.99999998245E-14  0.12500000000E+03  0.12500000000E+03 0.  0.
        -13    1    1    0    0    0  0.24492835077E+02  0.32773304990E+02 -0.38207441717E+02  0.55980427442E+02  0.10566000000E+00 0. -1.
         13    1    1    0    0    0  0.21651035709E+01  0.69935099130E+01 -0.66265353799E+00  0.73516751916E+01  0.10566000000E+00 0.  1.
         22    1    1    0    0    0 -0.26657938648E+02 -0.39766814902E+02  0.38870095255E+02  0.61667897366E+02  0.00000000000E+00 0. -1.
</event>
<event>
 4    1  0.9856522E-003  0.9118800E+02  0.7818608E-02  0.1130116E+00
         25   -1    0    0    0    0  0.00000000000E+00  0.00000000000E+00  0.99999998245E-14  0.12500000000E+03  0.12500000000E+03 0.  0.
        -13    1    1    0    0    0 -0.38670283588E+01 -0.45133297602E+02 -0.19531245754E+02  0.49330002894E+02  0.10566000000E+00 0. -1.
         13    1    1    0    0    0 -0.10323060436E+01 -0.12018041688E+02 -0.52866057245E+01  0.13170358609E+02  0.10566000000E+00 0. -1.
         22    1    1    0    0    0  0.48993344024E+01  0.57151339290E+02  0.24817851478E+02  0.62499638497E+02  0.00000000000E+00 0. -1.
</event>
<event>
 4    1  0.9856522E-003  0.9118800E+02  0.7818608E-02  0.1130116E+00
         25   -1    0    0    0    0  0.00000000000E+00  0.00000000000E+00  0.99999998245E-14  0.12500000000E+03  0.12500000000E+03 0.  0.
        -13    1    1    0    0    0  0.15738236317E+01 -0.15386951746E+01 -0.15191910834E+01  0.26764919667E+01  0.10566000000E+00 0. -1.
         13    1    1    0    0    0  0.32339952557E+02 -0.34288251955E+02 -0.36847879360E+02  0.59827536560E+02  0.10566000000E+00 0.  1.
         22    1    1    0    0    0 -0.33913776189E+02  0.35826947129E+02  0.38367070443E+02  0.62495971473E+02  0.00000000000E+00 0.  1.
</event>
<event>
 4    1  0.9856522E-003  0.9118800E+02  0.7818608E-02  0.1130116E+00
         25   -1    0    0    0    0  0.00000000000E+00  0.00000000000E+00  0.99999998245E-14  0.12500000000E+03  0.12500000000E+03 0.  0.
        -13    1    1    0    0    0  0.17006730738E+02  0.13440055474E+02 -0.35703656577E+02  0.41768723210E+02  0.10566000000E+00 0.  1.
         13    1    1    0    0    0  0.60299650011E+01  0.77412669623E+01 -0.18328845148E+02  0.20790512754E+02  0.10566000000E+00 0. -1.
         22    1    1    0    0    0 -0.23036695739E+02 -0.21181322437E+02  0.54032501725E+02  0.62440764036E+02  0.00000000000E+00 0.  1.
</event>
<event>
 4    1  0.9856522E-003  0.9118800E+02  0.7818608E-02  0.1130116E+00
         25   -1    0    0    0    0  0.00000000000E+00  0.00000000000E+00  0.99999998245E-14  0.12500000000E+03  0.12500000000E+03 0.  0.
        -13    1    1    0    0    0 -0.10187696063E+02 -0.55292225544E+02  0.55832664588E+01  0.56499587477E+02  0.10566000000E+00 0.  1.
         13    1    1    0    0    0 -0.11861735041E+01 -0.57336017820E+01  0.14321736586E+01  0.60285555816E+01  0.10566000000E+00 0. -1.
         22    1    1    0    0    0  0.11373869567E+02  0.61025827326E+02 -0.70154401174E+01  0.62471856942E+02  0.00000000000E+00 0.  1.
</event>
<event>
 4    1  0.9856522E-003  0.9118800E+02  0.7818608E-02  0.1130116E+00
         25   -1    0    0    0    0  0.00000000000E+00  0.00000000000E+00  0.99999998245E-14  0.12500000000E+03  0.12500000000E+03 0.  0.
        -13    1    1    0    0    0 -0.56635331677E+02  0.73043855155E+01  0.11113906389E+02  0.58175982340E+02  0.10566000000E+00 0. -1.
         13    1    1    0    0    0 -0.42223365252E+01 -0.21012303011E+01  0.12410019514E+00  0.47190951892E+01  0.10566000000E+00 0.  1.
         22    1    1    0    0    0  0.60857668202E+02 -0.52031552145E+01 -0.11238006584E+02  0.62104922471E+02  0.00000000000E+00 0. -1.
</event>
<event>
 4    1  0.9856522E-003  0.9118800E+02  0.7818608E-02  0.1130116E+00
         25   -1    0    0    0    0  0.00000000000E+00  0.00000000000E+00  0.99999998245E-14  0.12500000000E+03  0.12500000000E+03 0.  0.
        -13    1    1    0    0    0 -0.90711041366E+01 -0.24068894040E+01 -0.17873606003E+01  0.95542591974E+01  0.10566000000E+00 0.  1.
         13    1    1    0    0    0 -0.48143695296E+02 -0.83839007259E+01 -0.20645086719E+02  0.53050315341E+02  0.10566000000E+00 0. -1.
         22    1    1    0    0    0  0.57214799433E+02  0.10790790130E+02  0.22432447320E+02  0.62395425461E+02  0.00000000000E+00 0. -1.
</event>
<event>
 4    1  0.9856522E-003  0.9118800E+02  0.7818608E-02  0.1130116E+00
         25   -1    0    0    0    0  0.00000000000E+00  0.00000000000E+00  0.99999998245E-14  0.12500000000E+03  0.12500000000E+03 0.  0.
        -13    1    1    0    0    0 -0.16051455085E+01 -0.16522569782E+02 -0.19460611648E+02  0.25579256714E+02  0.10566000000E+00 0. -1.
         13    1    1    0    0    0 -0.21963778838E+01 -0.23894236324E+02 -0.28060447647E+02  0.36920976307E+02  0.10566000000E+00 0. -1.
         22    1    1    0    0    0  0.38015233923E+01  0.40416806105E+02  0.47521059295E+02  0.62499766979E+02  0.00000000000E+00 0. -1.
</event>
<event>
 4    1  0.9856522E-003  0.9118800E+02  0.7818608E-02  0.1130116E+00
         25   -1    0    0    0    0  0.00000000000E+00  0.00000000000E+00  0.99999998245E-14  0.12500000000E+03  0.12500000000E+03 0.  0.
        -13    1    1    0    0    0 -0.29919691913E+02 -0.37551320562E+01  0.65369250102E+00  0.30161688594E+02  0.10566000000E+00 0. -1.
         13    1    1    0    0    0 -0.32071235338E+02 -0.41366392341E+01  0.35118780911E+00  0.32338992210E+02  0.10566000000E+00 0. -1.
         22    1    1    0    0    0  0.61990927251E+02  0.78917712903E+01 -0.10048803101E+01  0.62499319196E+02  0.00000000000E+00 0. -1.
</event>
<event>
 4    1  0.9856522E-003  0.9118800E+02  0.7818608E-02  0.1130116E+00
         25   -1    0    0    0    0  0.00000000000E+00  0.00000000000E+00  0.99999998245E-14  0.12500000000E+03  0.12500000000E+03 0.  0.
        -13    1    1    0    0    0  0.42841077352E+02 -0.28590384569E+02 -0.21608955224E+02  0.55854508398E+02  0.10566000000E+00 0.  1.
         13    1    1    0    0    0 -0.29021707993E+01  0.10377473837E+02 -0.10277052398E+02  0.14891055323E+02  0.10566000000E+00 0. -1.
         22    1    1    0    0    0 -0.39938906553E+02  0.18212910732E+02  0.31886007622E+02  0.54254436280E+02  0.00000000000E+00 0.  1.
</event>
<event>
 4    1  0.9856522E-003  0.9118800E+02  0.7818608E-02  0.1130116E+00
         25   -1    0    0    0    0  0.00000000000E+00  0.00000000000E+00  0.99999998245E-14  0.12500000000E+03  0.12500000000E+03 0.  0.
        -13    1    1    0    0    0  0.69800437879E+00 -0.29930832483E+02  0.31848677031E+02  0.43711455430E+02  0.10566000000E+00 0.  1.
         13    1    1    0    0    0 -0.50355629222E+00 -0.14680165814E+02  0.11825453702E+02  0.18857713450E+02  0.10566000000E+00 0. -1.
         22    1    1    0    0    0 -0.19444808657E+00  0.44610998296E+02 -0.43674130733E+02  0.62430831120E+02  0.00000000000E+00 0.  1.
</event>
<event>
 4    1  0.9856522E-003  0.9118800E+02  0.7818608E-02  0.1130116E+00
         25   -1    0    0    0    0  0.00000000000E+00  0.00000000000E+00  0.99999998245E-14  0.12500000000E+03  0.12500000000E+03 0.  0.
        -13    1    1    0    0    0  0.72957742011E+01  0.50315319389E+01 -0.27282155519E+02  0.28685742254E+02  0.10566000000E+00 0. -1.
         13    1    1    0    0    0 -0.48393773953E+02  0.11548478467E+01  0.25504015133E+02  0.54715235382E+02  0.10566000000E+00 0.  1.
         22    1    1    0    0    0  0.41097999751E+02 -0.61863797856E+01  0.17781403859E+01  0.41599022364E+02  0.00000000000E+00 0.  1.
</event>
<event>
 4    1  0.9856522E-003  0.9118800E+02  0.7818608E-02  0.1130116E+00
         25   -1    0    0    0    0  0.00000000000E+00  0.00000000000E+00  0.99999998245E-14  0.12500000000E+03  0.12500000000E+03 0.  0.
        -13    1    1    0    0    0 -0.10338169355E+02  0.50595368323E+01  0.38371985854E+00  0.11516729724E+02  0.10566000000E+00 0. -1.
         13    1    1    0    0    0 -0.45717717183E+02  0.22445797428E+02  0.23295016867E+01  0.50983931084E+02  0.10566000000E+00 0.  1.
         22    1    1    0    0    0  0.56055886538E+02 -0.27505334260E+02 -0.27132215453E+01  0.62499339192E+02  0.00000000000E+00 0.  1.
</event>
<event>
 4    1  0.9856522E-003  0.9118800E+02  0.7818608E-02  0.1130116E+00
         25   -1    0    0    0    0  0.00000000000E+00  0.00000000000E+00  0.99999998245E-14  0.12500000000E+03  0.12500000000E+03 0.  0.
        -13    1    1    0    0    0  0.14324679733E+02  0.39370124528E+02 -0.30810030879E+02  0.52004541355E+02  0.10566000000E+00 0. -1.
         13    1    1    0    0    0  0.29813063073E+01  0.79762043454E+01 -0.61358590599E+01  0.10496092296E+02  0.10566000000E+00 0.  1.
         22    1    1    0    0    0 -0.17305986041E+02 -0.47346328873E+02  0.36945889939E+02  0.62499366348E+02  0.00000000000E+00 0. -1.
</event>
<event>
 4    1  0.9856522E-003  0.9118800E+02  0.7818608E-02  0.1130116E+00
         25   -1    0    0    0    0  0.00000000000E+00  0.00000000000E+00  0.99999998245E-14  0.12500000000E+03  0.12500000000E+03 0.  0.
        -13    1    1    0    0    0  0.23374597159E+02 -0.74700454250E+01 -0.74146328715E+01  0.25635157805E+02  0.10566000000E+00 0.  1.
         13    1    1    0    0    0  0.33547021272E+02  0.57053867658E+01 -0.16231546786E+02  0.37701834829E+02  0.10566000000E+00 0. -1.
         22    1    1    0    0    0 -0.56921618432E+02  0.17646586592E+01  0.23646179657E+02  0.61663007366E+02  0.00000000000E+00 0. -1.
</event>
<event>
 4    1  0.9856522E-003  0.9118800E+02  0.7818608E-02  0.1130116E+00
         25   -1    0    0    0    0  0.00000000000E+00  0.00000000000E+00  0.99999998245E-14  0.12500000000E+03  0.12500000000E+03 0.  0.
        -13    1    1    0    0    0 -0.13256162897E+01 -0.19753445890E+01  0.92413977852E+01  0.95432615941E+01  0.10566000000E+00 0. -1.
         13    1    1    0    0    0 -0.22876625601E+02 -0.10529717354E+02  0.46799555302E+02  0.53145314817E+02  0.10566000000E+00 0.  1.
         22    1    1    0    0    0  0.24202241891E+02  0.12505061943E+02 -0.56040953087E+02  0.62311423589E+02  0.00000000000E+00 0.  1.
</event>
<event>
 4    1  0.9856522E-003  0.9118800E+02  0.7818608E-02  0.1130116E+00
         25   -1    0    0    0    0  0.00000000000E+00  0.00000000000E+00  0.99999998245E-14  0.12500000000E+03  0.12500000000E+03 0.  0.
        -13    1    1    0    0    0  0.54259874975E+02 -0.12228494544E+02 -0.12501974484E+02  0.57008601466E+02  0.10566000000E+00 0.  1.
         13    1    1    0    0    0  0.52001428298E+01 -0.15111448343E+01 -0.95157017118E+00  0.54992448561E+01  0.10566000000E+00 0. -1.
         22    1    1    0    0    0 -0.59460017804E+02  0.13739639379E+02  0.13453544655E+02  0.62492153678E+02  0.00000000000E+00 0.  1.
</event>
<event>
 4    1  0.9856522E-003  0.9118800E+02  0.7818608E-02  0.1130116E+00
         25   -1    0    0    0    0  0.00000000000E+00  0.00000000000E+00  0.99999998245E-14  0.12500000000E+03  0.12500000000E+03 0.  0.
        -13    1    1    0    0    0  0.17172803189E+01  0.85937237526E+01 -0.14829204966E+02  0.17225493421E+02  0.10566000000E+00 0. -1.
         13    1    1    0    0    0 -0.52075336108E+02  0.98409866440E+01  0.99889017467E+01  0.53930278796E+02  0.10566000000E+00 0.  1.
         22    1    1    0    0    0  0.50358055789E+02 -0.18434710397E+02  0.48403032195E+01  0.53844227783E+02  0.00000000000E+00 0.  1.
</event>
<event>
 4    1  0.9856522E-003  0.9118800E+02  0.7818608E-02  0.1130116E+00
         25   -1    0    0    0    0  0.00000000000E+00  0.00000000000E+00  0.99999998245E-14  0.12500000000E+03  0.12500000000E+03 0.  0.
        -13    1    1    0    0    0 -0.24719110375E+01 -0.68911206167E+01 -0.57770938818E+01  0.93265141015E+01  0.10566000000E+00 0. -1.
         13    1    1    0    0    0  0.38852515564E+02 -0.35728720663E+02  0.22228357204E+02  0.57272772535E+02  0.10566000000E+00 0.  1.
         22    1    1    0    0    0 -0.36380604527E+02  0.42619841280E+02 -0.16451263322E+02  0.58400713363E+02  0.00000000000E+00 0.  1.
</event>
<event>
 4    1  0.9856522E-003  0.9118800E+02  0.7818608E-02  0.1130116E+00
         25   -1    0    0    0    0  0.00000000000E+00  0.00000000000E+00  0.99999998245E-14  0.12500000000E+03  0.12500000000E+03 0.  0.
        -13    1    1    0    0    0  0.15602593896E+01  0.19696532307E+01 -0.19986984751E+01  0.32124605588E+01  0.10566000000E+00 0.  1.
         13    1    1    0    0    0  0.43394879703E+02  0.37763434926E+02 -0.14960749200E+02  0.59439278112E+02  0.10566000000E+00 0. -1.
         22    1    1    0    0    0 -0.44955139092E+02 -0.39733088157E+02  0.16959447675E+02  0.62348261329E+02  0.00000000000E+00 0. -1.
</event>
<event>
 4    1  0.9856522E-003  0.9118800E+02  0.7818608E-02  0.1130116E+00
         25   -1    0    0    0    0  0.00000000000E+00  0.00000000000E+00  0.99999998245E-14  0.12500000000E+03  0.12500000000E+03 0.  0.
        -13    1    1    0    0    0 -0.34249870393E+02 -0.12806282503E+01 -0.11884994955E+02  0.36276134024E+02  0.10566000000E+00 0. -1.
         13    1    1    0    0    0 -0.25668261445E+02 -0.84510625471E+01  0.92935081578E+00  0.27039877233E+02  0.10566000000E+00 0.  1.
         22    1    1    0    0    0  0.59918131838E+02  0.97316907974E+01  0.10955644139E+02  0.61683988743E+02  0.00000000000E+00 0.  1.
</event>
<event>
 4    1  0.9856522E-003  0.9118800E+02  0.7818608E-02  0.1130116E+00
         25   -1    0    0    0    0  0.00000000000E+00  0.00000000000E+00  0.99999998245E-14  0.12500000000E+03  0.12500000000E+03 0.  0.
        -13    1    1    0    0    0 -0.15256239005E+01 -0.38282280568E+02 -0.11842400188E+02  0.40101298483E+02  0.10566000000E+00 0. -1.
         13    1    1    0    0    0 -0.76956770302E+00 -0.21406474481E+02 -0.65478074157E+01  0.22398980560E+02  0.10566000000E+00 0. -1.
         22    1    1    0    0    0  0.22951916035E+01  0.59688755050E+02  0.18390207604E+02  0.62499720956E+02  0.00000000000E+00 0. -1.
</event>
<event>
 4    1  0.9856522E-003  0.9118800E+02  0.7818608E-02  0.1130116E+00
         25   -1    0    0    0    0  0.00000000000E+00  0.00000000000E+00  0.99999998245E-14  0.12500000000E+03  0.12500000000E+03 0.  0.
        -13    1    1    0    0    0 -0.21311904852E+02  0.11845109531E+02  0.15618206530E+01  0.24432649386E+02  0.10566000000E+00 0. -1.
         13    1    1    0    0    0 -0.33286569899E+02  0.18334737739E+02  0.22316033193E+01  0.38067697080E+02  0.10566000000E+00 0. -1.
         22    1    1    0    0    0  0.54598474751E+02 -0.30179847270E+02 -0.37934239724E+01  0.62499653534E+02  0.00000000000E+00 0. -1.
</event>
<event>
 4    1  0.9856522E-003  0.9118800E+02  0.7818608E-02  0.1130116E+00
         25   -1    0    0    0    0  0.00000000000E+00  0.00000000000E+00  0.99999998245E-14  0.12500000000E+03  0.12500000000E+03 0.  0.
        -13    1    1    0    0    0 -0.60907647832E+02  0.19926933317E+01  0.85527139642E+01  0.61537569593E+02  0.10566000000E+00 0.  1.
         13    1    1    0    0    0  0.75946884615E+01 -0.14184448513E+01 -0.65160544472E+01  0.10107492677E+02  0.10566000000E+00 0. -1.
         22    1    1    0    0    0  0.53312959371E+02 -0.57424848038E+00 -0.20366595170E+01  0.53354937730E+02  0.00000000000E+00 0.  1.
</event>
<event>
 4    1  0.9856522E-003  0.9118800E+02  0.7818608E-02  0.1130116E+00
         25   -1    0    0    0    0  0.00000000000E+00  0.00000000000E+00  0.99999998245E-14  0.12500000000E+03  0.12500000000E+03 0.  0.
        -13    1    1    0    0    0 -0.28216529608E+02  0.87378589967E+01  0.26759493492E+02  0.39857300196E+02  0.10566000000E+00 0.  1.
         13    1    1    0    0    0 -0.16212928521E+02  0.50018547443E+01  0.14994556395E+02  0.22643442486E+02  0.10566000000E+00 0. -1.
         22    1    1    0    0    0  0.44429458129E+02 -0.13739713741E+02 -0.41754049887E+02  0.62499257318E+02  0.00000000000E+00 0.  1.
</event>
<event>
 4    1  0.9856522E-003  0.9118800E+02  0.7818608E-02  0.1130116E+00
         25   -1    0    0    0    0  0.00000000000E+00  0.00000000000E+00  0.99999998245E-14  0.12500000000E+03  0.12500000000E+03 0.  0.
        -13    1    1    0    0    0  0.23201122896E+02  0.55819206589E+01  0.39743495008E+02  0.46357378068E+02  0.10566000000E+00 0. -1.
         13    1    1    0    0    0  0.14460630168E+02  0.94830122343E+01  0.52418451996E+01  0.18070015247E+02  0.10566000000E+00 0.  1.
         22    1    1    0    0    0 -0.37661753065E+02 -0.15064932893E+02 -0.44985340207E+02  0.60572606685E+02  0.00000000000E+00 0. -1.
</event>
<event>
 4    1  0.9856522E-003  0.9118800E+02  0.7818608E-02  0.1130116E+00
         25   -1    0    0    0    0  0.00000000000E+00  0.00000000000E+00  0.99999998245E-14  0.12500000000E+03  0.12500000000E+03 0.  0.
        -13    1    1    0    0    0 -0.12099851734E+02  0.30527304273E+01  0.40325740181E+01  0.13114815755E+02  0.10566000000E+00 0.  1.
         13    1    1    0    0    0 -0.45952793813E+02  0.14796887837E+02  0.10568872307E+02  0.49419827750E+02  0.10566000000E+00 0. -1.
         22    1    1    0    0    0  0.58052645548E+02 -0.17849618264E+02 -0.14601446325E+02  0.62465356495E+02  0.00000000000E+00 0. -1.
</event>
<event>
 4    1  0.9856522E-003  0.9118800E+02  0.7818608E-02  0.1130116E+00
         25   -1    0    0    0    0  0.00000000000E+00  0.00000000000E+00  0.99999998245E-14  0.12500000000E+03  0.12500000000E+03 0.  0.
        -13    1    1    0    0    0  0.69407189940E+01 -0.36545813478E+01  0.70507725570E+01  0.10547706038E+02  0.10566000000E+00 0. -1.
         13    1    1    0    0    0  0.53306301276E+02 -0.18655074064E+01  0.14492081149E+01  0.53358722265E+02  0.10566000000E+00 0.  1.
         22    1    1    0    0    0 -0.60247020270E+02  0.55200887542E+01 -0.84999806719E+01  0.61093571697E+02  0.00000000000E+00 0.  1.
</event>
<event>
 4    1  0.9856522E-003  0.9118800E+02  0.7818608E-02  0.1130116E+00
         25   -1    0    0    0    0  0.00000000000E+00  0.00000000000E+00  0.99999998245E-14  0.12500000000E+03  0.12500000000E+03 0.  0.
        -13    1    1    0    0    0  0.35179122977E+02 -0.15358555368E+02  0.18870109796E+02  0.42773217370E+02  0.10566000000E+00 0.  1.
         13    1    1    0    0    0  0.14213823562E+02 -0.40315706536E+01  0.13547088356E+02  0.20045476026E+02  0.10566000000E+00 0. -1.
         22    1    1    0    0    0 -0.49392946539E+02  0.19390126021E+02 -0.32417198152E+02  0.62181306604E+02  0.00000000000E+00 0.  1.
</event>
<event>
 4    1  0.9856522E-003  0.9118800E+02  0.7818608E-02  0.1130116E+00
         25   -1    0    0    0    0  0.00000000000E+00  0.00000000000E+00  0.99999998245E-14  0.12500000000E+03  0.12500000000E+03 0.  0.
        -13    1    1    0    0    0  0.62081930971E+01 -0.34722649708E+01 -0.14787680927E+02  0.16409904229E+02  0.10566000000E+00 0.  1.
         13    1    1    0    0    0  0.18209785377E+02 -0.22562121547E+02 -0.36181592801E+02  0.46365552233E+02  0.10566000000E+00 0. -1.
         22    1    1    0    0    0 -0.24417978474E+02  0.26034386518E+02  0.50969273729E+02  0.62224543538E+02  0.00000000000E+00 0. -1.
</event>
<event>
 4    1  0.9856522E-003  0.9118800E+02  0.7818608E-02  0.1130116E+00
         25   -1    0    0    0    0  0.00000000000E+00  0.00000000000E+00  0.99999998245E-14  0.12500000000E+03  0.12500000000E+03 0.  0.
        -13    1    1    0    0    0 -0.98605328339E+00 -0.22562029881E+02  0.49478736047E+01  0.23119474706E+02  0.10566000000E+00 0. -1.
         13    1    1    0    0    0 -0.60833623510E+01 -0.37145687734E+02  0.11834878154E+02  0.39457381054E+02  0.10566000000E+00 0.  1.
         22    1    1    0    0    0  0.70694156344E+01  0.59707717615E+02 -0.16782751759E+02  0.62423144240E+02  0.00000000000E+00 0.  1.
</event>
<event>
 4    1  0.9856522E-003  0.9118800E+02  0.7818608E-02  0.1130116E+00
         25   -1    0    0    0    0  0.00000000000E+00  0.00000000000E+00  0.99999998245E-14  0.12500000000E+03  0.12500000000E+03 0.  0.
        -13    1    1    0    0    0  0.17054132321E+00 -0.50400057530E-01  0.66481003663E+00  0.69624774982E+00  0.10566000000E+00 0.  1.
         13    1    1    0    0    0 -0.52678107216E+02 -0.71564319158E+00 -0.33441896251E+02  0.62400855073E+02  0.10566000000E+00 0. -1.
         22    1    1    0    0    0  0.52507565892E+02  0.76604324911E+00  0.32777086214E+02  0.61902897177E+02  0.00000000000E+00 0. -1.
</event>
<event>
 4    1  0.9856522E-003  0.9118800E+02  0.7818608E-02  0.1130116E+00
         25   -1    0    0    0    0  0.00000000000E+00  0.00000000000E+00  0.99999998245E-14  0.12500000000E+03  0.12500000000E+03 0.  0.
        -13    1    1    0    0    0  0.31941166928E+02  0.47133651460E+02 -0.10142579664E+02  0.57833401516E+02  0.10566000000E+00 0.  1.
         13    1    1    0    0    0  0.28352307131E+01  0.35952804913E+01 -0.92948623553E+00  0.46732947377E+01  0.10566000000E+00 0. -1.
         22    1    1    0    0    0 -0.34776397641E+02 -0.50728931951E+02  0.11072065899E+02  0.62493303746E+02  0.00000000000E+00 0.  1.
</event>
<event>
 4    1  0.9856522E-003  0.9118800E+02  0.7818608E-02  0.1130116E+00
         25   -1    0    0    0    0  0.00000000000E+00  0.00000000000E+00  0.99999998245E-14  0.12500000000E+03  0.12500000000E+03 0.  0.
        -13    1    1    0    0    0 -0.22518947586E+01 -0.31230501724E+01  0.37616448552E+01  0.53838284181E+01  0.10566000000E+00 0. -1.
         13    1    1    0    0    0 -0.34770889836E+02 -0.37788578988E+02 -0.28963460598E+02  0.58956634027E+02  0.10566000000E+00 0.  1.
         22    1    1    0    0    0  0.37022784594E+02  0.40911629160E+02  0.25201815743E+02  0.60659537555E+02  0.00000000000E+00 0.  1.
</event>
<event>
 4    1  0.9856522E-003  0.9118800E+02  0.7818608E-02  0.1130116E+00
         25   -1    0    0    0    0  0.00000000000E+00  0.00000000000E+00  0.99999998245E-14  0.12500000000E+03  0.12500000000E+03 0.  0.
        -13    1    1    0    0    0  0.55086010955E+02  0.17638291840E+02 -0.13549604201E+02  0.59406909362E+02  0.10566000000E+00 0.  1.
         13    1    1    0    0    0  0.29102155881E+01  0.82127222278E+00 -0.65174503749E+00  0.30951217202E+01  0.10566000000E+00 0. -1.
         22    1    1    0    0    0 -0.57996226543E+02 -0.18459564063E+02  0.14201349238E+02  0.62497968917E+02  0.00000000000E+00 0.  1.
</event>
<event>
 4    1  0.9856522E-003  0.9118800E+02  0.7818608E-02  0.1130116E+00
         25   -1    0    0    0    0  0.00000000000E+00  0.00000000000E+00  0.99999998245E-14  0.12500000000E+03  0.12500000000E+03 0.  0.
        -13    1    1    0    0    0  0.26691402425E+02  0.18705934630E+02  0.52820210579E+02  0.62067131104E+02  0.10566000000E+00 0.  1.
         13    1    1    0    0    0  0.68847638071E+00 -0.11323438192E+01 -0.72841571376E+00  0.15159009662E+01  0.10566000000E+00 0. -1.
         22    1    1    0    0    0 -0.27379878806E+02 -0.17573590810E+02 -0.52091794865E+02  0.61416967930E+02  0.00000000000E+00 0.  1.
</event>
<event>
 4    1  0.9856522E-003  0.9118800E+02  0.7818608E-02  0.1130116E+00
         25   -1    0    0    0    0  0.00000000000E+00  0.00000000000E+00  0.99999998245E-14  0.12500000000E+03  0.12500000000E+03 0.  0.
        -13    1    1    0    0    0 -0.12734851352E+02 -0.62595793847E+01  0.81561487324E+01  0.16367427996E+02  0.10566000000E+00 0.  1.
         13    1    1    0    0    0  0.52786670676E+01 -0.50138099595E+02  0.35942844978E+01  0.50543282462E+02  0.10566000000E+00 0. -1.
         22    1    1    0    0    0  0.74561842841E+01  0.56397678979E+02 -0.11750433230E+02  0.58089289542E+02  0.00000000000E+00 0. -1.
</event>
<event>
 4    1  0.9856522E-003  0.9118800E+02  0.7818608E-02  0.1130116E+00
         25   -1    0    0    0    0  0.00000000000E+00  0.00000000000E+00  0.99999998245E-14  0.12500000000E+03  0.12500000000E+03 0.  0.
        -13    1    1    0    0    0 -0.58675913458E+01  0.69600366106E+01  0.24583649384E+02  0.26215219223E+02  0.10566000000E+00 0. -1.
         13    1    1    0    0    0 -0.12388736110E+02  0.68698604927E+01  0.33487281509E+02  0.36360486142E+02  0.10566000000E+00 0.  1.
         22    1    1    0    0    0  0.18256327455E+02 -0.13829897103E+02 -0.58070930893E+02  0.62424294636E+02  0.00000000000E+00 0. -1.
</event>
<event>
 4    1  0.9856522E-003  0.9118800E+02  0.7818608E-02  0.1130116E+00
         25   -1    0    0    0    0  0.00000000000E+00  0.00000000000E+00  0.99999998245E-14  0.12500000000E+03  0.12500000000E+03 0.  0.
        -13    1    1    0    0    0  0.30638485500E+02 -0.26535437805E+02 -0.27359442668E+02  0.48901907124E+02  0.10566000000E+00 0. -1.
         13    1    1    0    0    0  0.81493576390E+01 -0.78261189671E+01 -0.75747164191E+01  0.13603222445E+02  0.10566000000E+00 0.  1.
         22    1    1    0    0    0 -0.38787843139E+02  0.34361556772E+02  0.34934159087E+02  0.62494870432E+02  0.00000000000E+00 0. -1.
</event>
<event>
 4    1  0.9856522E-003  0.9118800E+02  0.7818608E-02  0.1130116E+00
         25   -1    0    0    0    0  0.00000000000E+00  0.00000000000E+00  0.99999998245E-14  0.12500000000E+03  0.12500000000E+03 0.  0.
        -13    1    1    0    0    0 -0.13743713633E+02 -0.30253868325E+02 -0.26929152674E+02  0.42771212758E+02  0.10566000000E+00 0.  1.
         13    1    1    0    0    0 -0.22647402927E+02  0.30699590093E+02  0.21693871854E+01  0.38211086036E+02  0.10566000000E+00 0. -1.
         22    1    1    0    0    0  0.36391116561E+02 -0.44572176798E+00  0.24759765488E+02  0.44017701206E+02  0.00000000000E+00 0.  1.
</event>
<event>
 4    1  0.9856522E-003  0.9118800E+02  0.7818608E-02  0.1130116E+00
         25   -1    0    0    0    0  0.00000000000E+00  0.00000000000E+00  0.99999998245E-14  0.12500000000E+03  0.12500000000E+03 0.  0.
        -13    1    1    0    0    0 -0.30442395484E+02 -0.46916565700E+02  0.94176406214E+01  0.56715136417E+02  0.10566000000E+00 0.  1.
         13    1    1    0    0    0  0.43856465972E+01 -0.63437299927E+01 -0.41507073697E+01  0.87587865598E+01  0.10566000000E+00 0. -1.
         22    1    1    0    0    0  0.26056748887E+02  0.53260295693E+02 -0.52669332517E+01  0.59526077023E+02  0.00000000000E+00 0.  1.
</event>
<event>
 4    1  0.9856522E-003  0.9118800E+02  0.7818608E-02  0.1130116E+00
         25   -1    0    0    0    0  0.00000000000E+00  0.00000000000E+00  0.99999998245E-14  0.12500000000E+03  0.12500000000E+03 0.  0.
        -13    1    1    0    0    0 -0.43013444031E+02 -0.59219072426E+00  0.40118066552E+02  0.58821573298E+02  0.10566000000E+00 0.  1.
         13    1    1    0    0    0 -0.21466100939E+01 -0.26230402615E+01  0.23321652482E+01  0.41156328661E+01  0.10566000000E+00 0. -1.
         22    1    1    0    0    0  0.45160054125E+02  0.32152309857E+01 -0.42450231800E+02  0.62062793836E+02  0.00000000000E+00 0.  1.
</event>
<event>
 4    1  0.9856522E-003  0.9118800E+02  0.7818608E-02  0.1130116E+00
         25   -1    0    0    0    0  0.00000000000E+00  0.00000000000E+00  0.99999998245E-14  0.12500000000E+03  0.12500000000E+03 0.  0.
        -13    1    1    0    0    0  0.11633850213E+02 -0.10188639761E+02  0.31508312674E+02  0.35098999737E+02  0.10566000000E+00 0.  1.
         13    1    1    0    0    0  0.28965266531E+02 -0.10848444839E+01  0.10089486797E+02  0.30691569863E+02  0.10566000000E+00 0. -1.
         22    1    1    0    0    0 -0.40599116744E+02  0.11273484245E+02 -0.41597799472E+02  0.59209430400E+02  0.00000000000E+00 0. -1.
</event>
<event>
 4    1  0.9856522E-003  0.9118800E+02  0.7818608E-02  0.1130116E+00
         25   -1    0    0    0    0  0.00000000000E+00  0.00000000000E+00  0.99999998245E-14  0.12500000000E+03  0.12500000000E+03 0.  0.
        -13    1    1    0    0    0 -0.16715511479E+02 -0.10647695655E+02  0.31098214038E+02  0.36876711176E+02  0.10566000000E+00 0.  1.
         13    1    1    0    0    0 -0.11703301025E+02 -0.74586491982E+01  0.21539668128E+02  0.25623566688E+02  0.10566000000E+00 0. -1.
         22    1    1    0    0    0  0.28418812504E+02  0.18106344853E+02 -0.52637882166E+02  0.62499722135E+02  0.00000000000E+00 0.  1.
</event>
<event>
 4    1  0.9856522E-003  0.9118800E+02  0.7818608E-02  0.1130116E+00
         25   -1    0    0    0    0  0.00000000000E+00  0.00000000000E+00  0.99999998245E-14  0.12500000000E+03  0.12500000000E+03 0.  0.
        -13    1    1    0    0    0 -0.77594300492E+01 -0.34243721910E+01 -0.14687426054E+01  0.86083359872E+01  0.10566000000E+00 0. -1.
         13    1    1    0    0    0 -0.29939510194E+02 -0.16915189482E+01  0.47808790867E+02  0.56435158857E+02  0.10566000000E+00 0.  1.
         22    1    1    0    0    0  0.37698940243E+02  0.51158911392E+01 -0.46340048262E+02  0.59956505156E+02  0.00000000000E+00 0.  1.
</event>
<event>
 4    1  0.9856522E-003  0.9118800E+02  0.7818608E-02  0.1130116E+00
         25   -1    0    0    0    0  0.00000000000E+00  0.00000000000E+00  0.99999998245E-14  0.12500000000E+03  0.12500000000E+03 0.  0.
        -13    1    1    0    0    0 -0.20137292446E+02 -0.21969559046E+02 -0.24780128346E+02  0.38758715105E+02  0.10566000000E+00 0. -1.
         13    1    1    0    0    0 -0.12463916167E+02 -0.12496808839E+02 -0.15892647465E+02  0.23750933557E+02  0.10566000000E+00 0.  1.
         22    1    1    0    0    0  0.32601208613E+02  0.34466367885E+02  0.40672775811E+02  0.62490351338E+02  0.00000000000E+00 0.  1.
</event>
<event>
 4    1  0.9856522E-003  0.9118800E+02  0.7818608E-02  0.1130116E+00
         25   -1    0    0    0    0  0.00000000000E+00  0.00000000000E+00  0.99999998245E-14  0.12500000000E+03  0.12500000000E+03 0.  0.
        -13    1    1    0    0    0 -0.28382403110E+02 -0.91107466506E+01  0.28985856653E+02  0.41578330423E+02  0.10566000000E+00 0. -1.
         13    1    1    0    0    0  0.40106337761E+02 -0.18763185652E+02 -0.44898001579E+01  0.44505560708E+02  0.10566000000E+00 0.  1.
         22    1    1    0    0    0 -0.11723934652E+02  0.27873932303E+02 -0.24496056495E+02  0.38916108869E+02  0.00000000000E+00 0. -1.
</event>
<event>
 4    1  0.9856522E-003  0.9118800E+02  0.7818608E-02  0.1130116E+00
         25   -1    0    0    0    0  0.00000000000E+00  0.00000000000E+00  0.99999998245E-14  0.12500000000E+03  0.12500000000E+03 0.  0.
        -13    1    1    0    0    0  0.73650997691E-01 -0.36525315859E+00  0.60903488239E+00  0.72174916895E+00  0.10566000000E+00 0.  1.
         13    1    1    0    0    0 -0.34201649711E+01 -0.37876965865E+02  0.48698347652E+02  0.61789176234E+02  0.10566000000E+00 0. -1.
         22    1    1    0    0    0  0.33465139734E+01  0.38242219023E+02 -0.49307382535E+02  0.62489074597E+02  0.00000000000E+00 0. -1.
</event>
<event>
 4    1  0.9856522E-003  0.9118800E+02  0.7818608E-02  0.1130116E+00
         25   -1    0    0    0    0  0.00000000000E+00  0.00000000000E+00  0.99999998245E-14  0.12500000000E+03  0.12500000000E+03 0.  0.
        -13    1    1    0    0    0  0.38755631262E+02  0.29627470078E+02 -0.33534057502E+02  0.59197382664E+02  0.10566000000E+00 0. -1.
         13    1    1    0    0    0  0.16290731188E+01  0.18133874624E+01 -0.22771364034E+01  0.33374792210E+01  0.10566000000E+00 0.  1.
         22    1    1    0    0    0 -0.40384704381E+02 -0.31440857540E+02  0.35811193905E+02  0.62465138115E+02  0.00000000000E+00 0. -1.
</event>
<event>
 4    1  0.9856522E-003  0.9118800E+02  0.7818608E-02  0.1130116E+00
         25   -1    0    0    0    0  0.00000000000E+00  0.00000000000E+00  0.99999998245E-14  0.12500000000E+03  0.12500000000E+03 0.  0.
        -13    1    1    0    0    0 -0.47925410706E+02 -0.39454267554E+02 -0.18900564698E+01  0.62105295242E+02  0.10566000000E+00 0.  1.
         13    1    1    0    0    0  0.73506860335E+01  0.19323970508E+01  0.16385648763E+00  0.76029439370E+01  0.10566000000E+00 0. -1.
         22    1    1    0    0    0  0.40574724673E+02  0.37521870503E+02  0.17261999822E+01  0.55291760821E+02  0.00000000000E+00 0.  1.
</event>
<event>
 4    1  0.9856522E-003  0.9118800E+02  0.7818608E-02  0.1130116E+00
         25   -1    0    0    0    0  0.00000000000E+00  0.00000000000E+00  0.99999998245E-14  0.12500000000E+03  0.12500000000E+03 0.  0.
        -13    1    1    0    0    0 -0.13125127646E+02  0.21363782638E+02  0.21135440896E+02  0.32793264708E+02  0.10566000000E+00 0.  1.
         13    1    1    0    0    0 -0.12169155842E+02  0.18791723589E+02  0.19529826299E+02  0.29709300036E+02  0.10566000000E+00 0. -1.
         22    1    1    0    0    0  0.25294283488E+02 -0.40155506227E+02 -0.40665267195E+02  0.62497435256E+02  0.00000000000E+00 0.  1.
</event>
<event>
 4    1  0.9856522E-003  0.9118800E+02  0.7818608E-02  0.1130116E+00
         25   -1    0    0    0    0  0.00000000000E+00  0.00000000000E+00  0.99999998245E-14  0.12500000000E+03  0.12500000000E+03 0.  0.
        -13    1    1    0    0    0 -0.31483652451E+01 -0.33576617772E+01  0.22161864045E+00  0.46093790454E+01  0.10566000000E+00 0. -1.
         13    1    1    0    0    0  0.48621215914E+02 -0.10783374195E+02 -0.35470810080E+02  0.61143219801E+02  0.10566000000E+00 0.  1.
         22    1    1    0    0    0 -0.45472850668E+02  0.14141035972E+02  0.35249191439E+02  0.59247401153E+02  0.00000000000E+00 0.  1.
</event>
<event>
 4    1  0.9856522E-003  0.9118800E+02  0.7818608E-02  0.1130116E+00
         25   -1    0    0    0    0  0.00000000000E+00  0.00000000000E+00  0.99999998245E-14  0.12500000000E+03  0.12500000000E+03 0.  0.
        -13    1    1    0    0    0 -0.36922687548E+02 -0.60717616784E+01 -0.20493199878E+02  0.42663023227E+02  0.10566000000E+00 0. -1.
         13    1    1    0    0    0 -0.18371079619E+02 -0.25916354276E+01 -0.71884326659E+01  0.19897182433E+02  0.10566000000E+00 0.  1.
         22    1    1    0    0    0  0.55293767166E+02  0.86633971059E+01  0.27681632544E+02  0.62439794340E+02  0.00000000000E+00 0. -1.
</event>
<event>
 4    1  0.9856522E-003  0.9118800E+02  0.7818608E-02  0.1130116E+00
         25   -1    0    0    0    0  0.00000000000E+00  0.00000000000E+00  0.99999998245E-14  0.12500000000E+03  0.12500000000E+03 0.  0.
        -13    1    1    0    0    0  0.13184804553E+02  0.31481344656E+02  0.15196730513E+02  0.37361288987E+02  0.10566000000E+00 0. -1.
         13    1    1    0    0    0  0.13146995136E+02  0.17317736273E+02  0.13101474290E+02  0.25385178025E+02  0.10566000000E+00 0.  1.
         22    1    1    0    0    0 -0.26331799690E+02 -0.48799080929E+02 -0.28298204803E+02  0.62253532988E+02  0.00000000000E+00 0. -1.
</event>
<event>
 4    1  0.9856522E-003  0.9118800E+02  0.7818608E-02  0.1130116E+00
         25   -1    0    0    0    0  0.00000000000E+00  0.00000000000E+00  0.99999998245E-14  0.12500000000E+03  0.12500000000E+03 0.  0.
        -13    1    1    0    0    0 -0.12286045996E+02  0.10013192056E+02  0.62932700803E+01  0.17053661006E+02  0.10566000000E+00 0. -1.
         13    1    1    0    0    0 -0.33039244368E+02  0.26472840709E+02  0.16522792721E+02  0.45446856954E+02  0.10566000000E+00 0. -1.
         22    1    1    0    0    0  0.45325290364E+02 -0.36486032765E+02 -0.22816062802E+02  0.62499482040E+02  0.00000000000E+00 0. -1.
</event>
<event>
 4    1  0.9856522E-003  0.9118800E+02  0.7818608E-02  0.1130116E+00
         25   -1    0    0    0    0  0.00000000000E+00  0.00000000000E+00  0.99999998245E-14  0.12500000000E+03  0.12500000000E+03 0.  0.
        -13    1    1    0    0    0 -0.40279600123E+02 -0.18636736097E+02 -0.22485066673E+02  0.49753025091E+02  0.10566000000E+00 0.  1.
         13    1    1    0    0    0 -0.10210195008E+02 -0.47274983268E+01 -0.59925751004E+01  0.12748311374E+02  0.10566000000E+00 0. -1.
         22    1    1    0    0    0  0.50489795131E+02  0.23364234424E+02  0.28477641774E+02  0.62498663534E+02  0.00000000000E+00 0.  1.
</event>
<event>
 4    1  0.9856522E-003  0.9118800E+02  0.7818608E-02  0.1130116E+00
         25   -1    0    0    0    0  0.00000000000E+00  0.00000000000E+00  0.99999998245E-14  0.12500000000E+03  0.12500000000E+03 0.  0.
        -13    1    1    0    0    0 -0.10135360425E+02  0.26704059184E+02 -0.54292757956E+01  0.29074396082E+02  0.10566000000E+00 0.  1.
         13    1    1    0    0    0 -0.59954638205E+01  0.31177166014E+02 -0.11055509130E+02  0.33618398433E+02  0.10566000000E+00 0. -1.
         22    1    1    0    0    0  0.16130824245E+02 -0.57881225198E+02  0.16484784925E+02  0.62307205484E+02  0.00000000000E+00 0. -1.
</event>
<event>
 4    1  0.9856522E-003  0.9118800E+02  0.7818608E-02  0.1130116E+00
         25   -1    0    0    0    0  0.00000000000E+00  0.00000000000E+00  0.99999998245E-14  0.12500000000E+03  0.12500000000E+03 0.  0.
        -13    1    1    0    0    0 -0.42625081206E+02  0.37097432735E+02  0.46161804518E+01  0.56696008231E+02  0.10566000000E+00 0.  1.
         13    1    1    0    0    0 -0.44228128996E+01  0.37367609349E+01  0.40267336934E+00  0.58049949274E+01  0.10566000000E+00 0.  1.
         22    1    1    0    0    0  0.47047894106E+02 -0.40834193670E+02 -0.50188538211E+01  0.62498996841E+02  0.00000000000E+00 0.  1.
</event>
<event>
 4    1  0.9856522E-003  0.9118800E+02  0.7818608E-02  0.1130116E+00
         25   -1    0    0    0    0  0.00000000000E+00  0.00000000000E+00  0.99999998245E-14  0.12500000000E+03  0.12500000000E+03 0.  0.
        -13    1    1    0    0    0  0.53090134464E+02 -0.14737685067E+02 -0.18281227234E+02  0.58051495861E+02  0.10566000000E+00 0.  1.
         13    1    1    0    0    0 -0.34204488592E+01 -0.74153829186E+01 -0.27796767170E+01  0.86270006905E+01  0.10566000000E+00 0. -1.
         22    1    1    0    0    0 -0.49669685604E+02  0.22153067986E+02  0.21060903951E+02  0.58321503448E+02  0.00000000000E+00 0.  1.
</event>
<event>
 4    1  0.9856522E-003  0.9118800E+02  0.7818608E-02  0.1130116E+00
         25   -1    0    0    0    0  0.00000000000E+00  0.00000000000E+00  0.99999998245E-14  0.12500000000E+03  0.12500000000E+03 0.  0.
        -13    1    1    0    0    0 -0.23277430850E+01 -0.97220616835E+00 -0.24093327513E+01  0.34899313812E+01  0.10566000000E+00 0. -1.
         13    1    1    0    0    0 -0.28279019669E+01  0.61001680416E+02 -0.19852914277E+01  0.61099546555E+02  0.10566000000E+00 0.  1.
         22    1    1    0    0    0  0.51556450519E+01 -0.60029474248E+02  0.43946241790E+01  0.60410522064E+02  0.00000000000E+00 0.  1.
</event>
<event>
 4    1  0.9856522E-003  0.9118800E+02  0.7818608E-02  0.1130116E+00
         25   -1    0    0    0    0  0.00000000000E+00  0.00000000000E+00  0.99999998245E-14  0.12500000000E+03  0.12500000000E+03 0.  0.
        -13    1    1    0    0    0  0.70823477958E+01 -0.40038139856E+01  0.49016050233E+00  0.81511715775E+01  0.10566000000E+00 0. -1.
         13    1    1    0    0    0  0.46243227771E+02 -0.28225462024E+02  0.43596720114E+01  0.54351915562E+02  0.10566000000E+00 0.  1.
         22    1    1    0    0    0 -0.53325575567E+02  0.32229276010E+02 -0.48498325137E+01  0.62496912860E+02  0.00000000000E+00 0.  1.
</event>
<event>
 4    1  0.9856522E-003  0.9118800E+02  0.7818608E-02  0.1130116E+00
         25   -1    0    0    0    0  0.00000000000E+00  0.00000000000E+00  0.99999998245E-14  0.12500000000E+03  0.12500000000E+03 0.  0.
        -13    1    1    0    0    0 -0.49520842952E+02 -0.60407912436E+01  0.12838592804E+01  0.49904553943E+02  0.10566000000E+00 0. -1.
         13    1    1    0    0    0 -0.12492405307E+02 -0.15565960741E+01  0.40085633220E+00  0.12595833895E+02  0.10566000000E+00 0. -1.
         22    1    1    0    0    0  0.62013248259E+02  0.75973873177E+01 -0.16847156126E+01  0.62499612162E+02  0.00000000000E+00 0. -1.
</event>
<event>
 4    1  0.9856522E-003  0.9118800E+02  0.7818608E-02  0.1130116E+00
         25   -1    0    0    0    0  0.00000000000E+00  0.00000000000E+00  0.99999998245E-14  0.12500000000E+03  0.12500000000E+03 0.  0.
        -13    1    1    0    0    0 -0.55787410586E+00  0.23804010788E+00  0.38300394146E+00  0.72508114423E+00  0.10566000000E+00 0.  1.
         13    1    1    0    0    0  0.17416628741E+00  0.50884261572E+02  0.35299722014E+02  0.61929960019E+02  0.10566000000E+00 0. -1.
         22    1    1    0    0    0  0.38370781845E+00 -0.51122301680E+02 -0.35682725956E+02  0.62344958837E+02  0.00000000000E+00 0. -1.
</event>
<event>
 4    1  0.9856522E-003  0.9118800E+02  0.7818608E-02  0.1130116E+00
         25   -1    0    0    0    0  0.00000000000E+00  0.00000000000E+00  0.99999998245E-14  0.12500000000E+03  0.12500000000E+03 0.  0.
        -13    1    1    0    0    0 -0.45764252245E+02 -0.35876500909E+02 -0.33569453869E+01  0.58247492199E+02  0.10566000000E+00 0. -1.
         13    1    1    0    0    0 -0.42394700747E+01  0.59945694549E-01 -0.25712850867E+01  0.49597753007E+01  0.10566000000E+00 0.  1.
         22    1    1    0    0    0  0.50003722320E+02  0.35816555215E+02  0.59282304736E+01  0.61792732500E+02  0.00000000000E+00 0. -1.
</event>
<event>
 4    1  0.9856522E-003  0.9118800E+02  0.7818608E-02  0.1130116E+00
         25   -1    0    0    0    0  0.00000000000E+00  0.00000000000E+00  0.99999998245E-14  0.12500000000E+03  0.12500000000E+03 0.  0.
        -13    1    1    0    0    0 -0.20169105089E+02 -0.16987189549E+01  0.20913019915E+02  0.29104020550E+02  0.10566000000E+00 0.  1.
         13    1    1    0    0    0  0.16979975780E+01  0.98111636161E+01  0.35034604265E+02  0.36422201846E+02  0.10566000000E+00 0. -1.
         22    1    1    0    0    0  0.18471107511E+02 -0.81124446612E+01 -0.55947624180E+02  0.59473777604E+02  0.00000000000E+00 0.  1.
</event>
<event>
 4    1  0.9856522E-003  0.9118800E+02  0.7818608E-02  0.1130116E+00
         25   -1    0    0    0    0  0.00000000000E+00  0.00000000000E+00  0.99999998245E-14  0.12500000000E+03  0.12500000000E+03 0.  0.
        -13    1    1    0    0    0 -0.40534856166E+01  0.39072389820E+02  0.30373456371E+02  0.49655215314E+02  0.10566000000E+00 0. -1.
         13    1    1    0    0    0 -0.64491707369E+00  0.10057118070E+02  0.79682781064E+01  0.12847807670E+02  0.10566000000E+00 0. -1.
         22    1    1    0    0    0  0.46984026903E+01 -0.49129507890E+02 -0.38341734477E+02  0.62496977016E+02  0.00000000000E+00 0. -1.
</event>
<event>
 4    1  0.9856522E-003  0.9118800E+02  0.7818608E-02  0.1130116E+00
         25   -1    0    0    0    0  0.00000000000E+00  0.00000000000E+00  0.99999998245E-14  0.12500000000E+03  0.12500000000E+03 0.  0.
        -13    1    1    0    0    0  0.48709942152E+01  0.34857896839E+01 -0.20938911924E+01  0.63460900345E+01  0.10566000000E+00 0. -1.
         13    1    1    0    0    0  0.27966431678E+02  0.37335082159E+02 -0.31619349052E+02  0.56354450216E+02  0.10566000000E+00 0.  1.
         22    1    1    0    0    0 -0.32837425893E+02 -0.40820871843E+02  0.33713240245E+02  0.62299459750E+02  0.00000000000E+00 0.  1.
</event>
<event>
 4    1  0.9856522E-003  0.9118800E+02  0.7818608E-02  0.1130116E+00
         25   -1    0    0    0    0  0.00000000000E+00  0.00000000000E+00  0.99999998245E-14  0.12500000000E+03  0.12500000000E+03 0.  0.
        -13    1    1    0    0    0  0.19393707547E+02  0.38427195896E+02  0.26240317058E+02  0.50411612553E+02  0.10566000000E+00 0. -1.
         13    1    1    0    0    0  0.32776179165E+01  0.90546575049E+01  0.73929656028E+01  0.12140704517E+02  0.10566000000E+00 0.  1.
         22    1    1    0    0    0 -0.22671325464E+02 -0.47481853401E+02 -0.33633282661E+02  0.62447682929E+02  0.00000000000E+00 0. -1.
</event>
<event>
 4    1  0.9856522E-003  0.9118800E+02  0.7818608E-02  0.1130116E+00
         25   -1    0    0    0    0  0.00000000000E+00  0.00000000000E+00  0.99999998245E-14  0.12500000000E+03  0.12500000000E+03 0.  0.
        -13    1    1    0    0    0 -0.49791216828E+02 -0.51068389287E+01 -0.31257709952E+02  0.59011021619E+02  0.10566000000E+00 0. -1.
         13    1    1    0    0    0 -0.29189281312E+01 -0.21523049577E+00 -0.18990318372E+01  0.34905517552E+01  0.10566000000E+00 0. -1.
         22    1    1    0    0    0  0.52710144959E+02  0.53220694245E+01  0.33156741789E+02  0.62498426626E+02  0.00000000000E+00 0. -1.
</event>
<event>
 4    1  0.9856522E-003  0.9118800E+02  0.7818608E-02  0.1130116E+00
         25   -1    0    0    0    0  0.00000000000E+00  0.00000000000E+00  0.99999998245E-14  0.12500000000E+03  0.12500000000E+03 0.  0.
        -13    1    1    0    0    0  0.19360875369E+02 -0.48163665245E+01 -0.22683346876E+02  0.30209042869E+02  0.10566000000E+00 0.  1.
         13    1    1    0    0    0  0.20872039595E+02 -0.54184682031E+01 -0.24036230165E+02  0.32291691797E+02  0.10566000000E+00 0. -1.
         22    1    1    0    0    0 -0.40232914964E+02  0.10234834728E+02  0.46719577041E+02  0.62499265334E+02  0.00000000000E+00 0.  1.
</event>
<event>
 4    1  0.9856522E-003  0.9118800E+02  0.7818608E-02  0.1130116E+00
         25   -1    0    0    0    0  0.00000000000E+00  0.00000000000E+00  0.99999998245E-14  0.12500000000E+03  0.12500000000E+03 0.  0.
        -13    1    1    0    0    0  0.55062903547E+01  0.25665014635E+02 -0.34043880018E+00  0.26251462289E+02  0.10566000000E+00 0.  1.
         13    1    1    0    0    0  0.25553754310E+02  0.26047772310E+02  0.95681464447E+01  0.37723220861E+02  0.10566000000E+00 0. -1.
         22    1    1    0    0    0 -0.31060044665E+02 -0.51712786946E+02 -0.92277076446E+01  0.61025316850E+02  0.00000000000E+00 0. -1.
</event>
<event>
 4    1  0.9856522E-003  0.9118800E+02  0.7818608E-02  0.1130116E+00
         25   -1    0    0    0    0  0.00000000000E+00  0.00000000000E+00  0.99999998245E-14  0.12500000000E+03  0.12500000000E+03 0.  0.
        -13    1    1    0    0    0 -0.42623964290E+02  0.26444070999E+02 -0.35587233278E+02  0.61502467912E+02  0.10566000000E+00 0. -1.
         13    1    1    0    0    0 -0.93332649002E+00  0.38332477961E+00 -0.24093568368E+00  0.10427129341E+01  0.10566000000E+00 0.  1.
         22    1    1    0    0    0  0.43557290780E+02 -0.26827395779E+02  0.35828168962E+02  0.62454819154E+02  0.00000000000E+00 0. -1.
</event>
<event>
 4    1  0.9856522E-003  0.9118800E+02  0.7818608E-02  0.1130116E+00
         25   -1    0    0    0    0  0.00000000000E+00  0.00000000000E+00  0.99999998245E-14  0.12500000000E+03  0.12500000000E+03 0.  0.
        -13    1    1    0    0    0  0.50240517244E+02 -0.24075846908E+02 -0.66830471834E+01  0.56110874713E+02  0.10566000000E+00 0. -1.
         13    1    1    0    0    0  0.57234883808E+01 -0.25211706084E+01 -0.13758571448E+01  0.64045895575E+01  0.10566000000E+00 0.  1.
         22    1    1    0    0    0 -0.55964005625E+02  0.26597017517E+02  0.80589043282E+01  0.62484535730E+02  0.00000000000E+00 0. -1.
</event>
<event>
 4    1  0.9856522E-003  0.9118800E+02  0.7818608E-02  0.1130116E+00
         25   -1    0    0    0    0  0.00000000000E+00  0.00000000000E+00  0.99999998245E-14  0.12500000000E+03  0.12500000000E+03 0.  0.
        -13    1    1    0    0    0  0.13437407005E+02  0.59098979725E+02 -0.46974047872E+01  0.60789226737E+02  0.10566000000E+00 0. -1.
         13    1    1    0    0    0 -0.30323221482E+01 -0.25739010738E+01 -0.44977759065E+01  0.60050892157E+01  0.10566000000E+00 0.  1.
         22    1    1    0    0    0 -0.10405084857E+02 -0.56525078651E+02  0.91951806938E+01  0.58205684047E+02  0.00000000000E+00 0. -1.
</event>
<event>
 4    1  0.9856522E-003  0.9118800E+02  0.7818608E-02  0.1130116E+00
         25   -1    0    0    0    0  0.00000000000E+00  0.00000000000E+00  0.99999998245E-14  0.12500000000E+03  0.12500000000E+03 0.  0.
        -13    1    1    0    0    0  0.28163075043E+01 -0.10805150140E+01  0.22334537921E+01  0.37548076557E+01  0.10566000000E+00 0.  1.
         13    1    1    0    0    0  0.45502383338E+02 -0.16597608717E+02  0.33245805228E+02  0.58747274267E+02  0.10566000000E+00 0.  1.
         22    1    1    0    0    0 -0.48318690842E+02  0.17678123731E+02 -0.35479259020E+02  0.62497918077E+02  0.00000000000E+00 0.  1.
</event>
<event>
 4    1  0.9856522E-003  0.9118800E+02  0.7818608E-02  0.1130116E+00
         25   -1    0    0    0    0  0.00000000000E+00  0.00000000000E+00  0.99999998245E-14  0.12500000000E+03  0.12500000000E+03 0.  0.
        -13    1    1    0    0    0  0.48007871896E+01 -0.20024805129E+02 -0.24088626076E+01  0.20732924569E+02  0.10566000000E+00 0. -1.
         13    1    1    0    0    0  0.93524337962E+01 -0.40406901619E+02 -0.49322594547E+01  0.41767500090E+02  0.10566000000E+00 0. -1.
         22    1    1    0    0    0 -0.14153220986E+02  0.60431706748E+02  0.73411220623E+01  0.62499575341E+02  0.00000000000E+00 0. -1.
</event>
<event>
 4    1  0.9856522E-003  0.9118800E+02  0.7818608E-02  0.1130116E+00
         25   -1    0    0    0    0  0.00000000000E+00  0.00000000000E+00  0.99999998245E-14  0.12500000000E+03  0.12500000000E+03 0.  0.
        -13    1    1    0    0    0 -0.25051575036E-01  0.39983194824E+00 -0.40750777655E+00  0.58113663780E+00  0.10566000000E+00 0. -1.
         13    1    1    0    0    0 -0.53610967364E+01  0.27585960226E+02 -0.55195427488E+02  0.61937653648E+02  0.10566000000E+00 0.  1.
         22    1    1    0    0    0  0.53861483114E+01 -0.27985792174E+02  0.55602935265E+02  0.62481209714E+02  0.00000000000E+00 0.  1.
</event>
<event>
 4    1  0.9856522E-003  0.9118800E+02  0.7818608E-02  0.1130116E+00
         25   -1    0    0    0    0  0.00000000000E+00  0.00000000000E+00  0.99999998245E-14  0.12500000000E+03  0.12500000000E+03 0.  0.
        -13    1    1    0    0    0  0.89088955906E+01 -0.78775644552E+00 -0.93245771846E+01  0.12920831419E+02  0.10566000000E+00 0.  1.
         13    1    1    0    0    0  0.34532989012E+02 -0.26331393844E+01 -0.35477974602E+02  0.49579820482E+02  0.10566000000E+00 0.  1.
         22    1    1    0    0    0 -0.43441884603E+02  0.34208958299E+01  0.44802551787E+02  0.62499348098E+02  0.00000000000E+00 0.  1.
</event>
<event>
 4    1  0.9856522E-003  0.9118800E+02  0.7818608E-02  0.1130116E+00
         25   -1    0    0    0    0  0.00000000000E+00  0.00000000000E+00  0.99999998245E-14  0.12500000000E+03  0.12500000000E+03 0.  0.
        -13    1    1    0    0    0 -0.48551505870E+02  0.17391504657E+02  0.20478285649E+01  0.51613156485E+02  0.10566000000E+00 0.  1.
         13    1    1    0    0    0 -0.10431136170E+02  0.31566542490E+01 -0.32791073186E+00  0.10903749691E+02  0.10566000000E+00 0. -1.
         22    1    1    0    0    0  0.58982642040E+02 -0.20548158907E+02 -0.17199178331E+01  0.62483093824E+02  0.00000000000E+00 0.  1.
</event>
<event>
 4    1  0.9856522E-003  0.9118800E+02  0.7818608E-02  0.1130116E+00
         25   -1    0    0    0    0  0.00000000000E+00  0.00000000000E+00  0.99999998245E-14  0.12500000000E+03  0.12500000000E+03 0.  0.
        -13    1    1    0    0    0  0.11642697372E+01  0.27337747917E+01  0.50607236108E+00  0.30160109256E+01  0.10566000000E+00 0.  1.
         13    1    1    0    0    0  0.32080022572E+02  0.49716790174E+02  0.63492287121E+01  0.59508074601E+02  0.10566000000E+00 0. -1.
         22    1    1    0    0    0 -0.33244292310E+02 -0.52450564966E+02 -0.68553010732E+01  0.62475914473E+02  0.00000000000E+00 0. -1.
</event>
<event>
 4    1  0.9856522E-003  0.9118800E+02  0.7818608E-02  0.1130116E+00
         25   -1    0    0    0    0  0.00000000000E+00  0.00000000000E+00  0.99999998245E-14  0.12500000000E+03  0.12500000000E+03 0.  0.
        -13    1    1    0    0    0 -0.27243508340E+02 -0.26585517108E+02 -0.96768742149E+01  0.39276602770E+02  0.10566000000E+00 0. -1.
         13    1    1    0    0    0 -0.14170181156E+02 -0.18895851748E+02  0.14385667069E+01  0.23662795386E+02  0.10566000000E+00 0.  1.
         22    1    1    0    0    0  0.41413689495E+02  0.45481368856E+02  0.82383075080E+01  0.62060601844E+02  0.00000000000E+00 0. -1.
</event>
<event>
 4    1  0.9856522E-003  0.9118800E+02  0.7818608E-02  0.1130116E+00
         25   -1    0    0    0    0  0.00000000000E+00  0.00000000000E+00  0.99999998245E-14  0.12500000000E+03  0.12500000000E+03 0.  0.
        -13    1    1    0    0    0  0.40819398268E+01  0.43143720845E+02  0.34193237960E+02  0.55201735184E+02  0.10566000000E+00 0.  1.
         13    1    1    0    0    0  0.49747874478E+00  0.57928209805E+01  0.44119222592E+01  0.72993480579E+01  0.10566000000E+00 0. -1.
         22    1    1    0    0    0 -0.45794185716E+01 -0.48936541826E+02 -0.38605160219E+02  0.62498916758E+02  0.00000000000E+00 0.  1.
</event>
<event>
 4    1  0.9856522E-003  0.9118800E+02  0.7818608E-02  0.1130116E+00
         25   -1    0    0    0    0  0.00000000000E+00  0.00000000000E+00  0.99999998245E-14  0.12500000000E+03  0.12500000000E+03 0.  0.
        -13    1    1    0    0    0 -0.92711529685E+01  0.22925679735E+01  0.61435864073E+01  0.11356274180E+02  0.10566000000E+00 0. -1.
         13    1    1    0    0    0 -0.40431921195E+02  0.11678102049E+02  0.29070356488E+02  0.51148950227E+02  0.10566000000E+00 0.  1.
         22    1    1    0    0    0  0.49703074163E+02 -0.13970670023E+02 -0.35213942895E+02  0.62494775593E+02  0.00000000000E+00 0.  1.
</event>
<event>
 4    1  0.9856522E-003  0.9118800E+02  0.7818608E-02  0.1130116E+00
         25   -1    0    0    0    0  0.00000000000E+00  0.00000000000E+00  0.99999998245E-14  0.12500000000E+03  0.12500000000E+03 0.  0.
        -13    1    1    0    0    0 -0.13699902397E+02  0.40769364478E+02 -0.11913813252E+02  0.44629345905E+02  0.10566000000E+00 0.  1.
         13    1    1    0    0    0 -0.56730073456E+01  0.16198757780E+02 -0.49807781707E+01  0.17871823667E+02  0.10566000000E+00 0. -1.
         22    1    1    0    0    0  0.19372909743E+02 -0.56968122259E+02  0.16894591423E+02  0.62498830428E+02  0.00000000000E+00 0. -1.
</event>
<event>
 4    1  0.9856522E-003  0.9118800E+02  0.7818608E-02  0.1130116E+00
         25   -1    0    0    0    0  0.00000000000E+00  0.00000000000E+00  0.99999998245E-14  0.12500000000E+03  0.12500000000E+03 0.  0.
        -13    1    1    0    0    0 -0.40493333718E+01 -0.95951192816E+01  0.34609693955E+01  0.10975103096E+02  0.10566000000E+00 0. -1.
         13    1    1    0    0    0 -0.20490790815E+02 -0.44743392998E+02  0.15273369552E+02  0.51527960437E+02  0.10566000000E+00 0.  1.
         22    1    1    0    0    0  0.24540124187E+02  0.54338512280E+02 -0.18734338948E+02  0.62496936467E+02  0.00000000000E+00 0.  1.
</event>
<event>
 4    1  0.9856522E-003  0.9118800E+02  0.7818608E-02  0.1130116E+00
         25   -1    0    0    0    0  0.00000000000E+00  0.00000000000E+00  0.99999998245E-14  0.12500000000E+03  0.12500000000E+03 0.  0.
        -13    1    1    0    0    0 -0.70423644121E+01 -0.17077720686E+02  0.39051598220E+02  0.43200485274E+02  0.10566000000E+00 0.  1.
         13    1    1    0    0    0 -0.39167645677E+01 -0.68104894554E+01  0.17640707115E+02  0.19311383246E+02  0.10566000000E+00 0. -1.
         22    1    1    0    0    0  0.10959128980E+02  0.23888210142E+02 -0.56692305335E+02  0.62488131481E+02  0.00000000000E+00 0. -1.
</event>
<event>
 4    1  0.9856522E-003  0.9118800E+02  0.7818608E-02  0.1130116E+00
         25   -1    0    0    0    0  0.00000000000E+00  0.00000000000E+00  0.99999998245E-14  0.12500000000E+03  0.12500000000E+03 0.  0.
        -13    1    1    0    0    0  0.81482869728E+01  0.39718458788E+02  0.35582136310E+02  0.53944880550E+02  0.10566000000E+00 0. -1.
         13    1    1    0    0    0  0.11080613157E+01  0.62929207671E+01  0.56896675487E+01  0.85564088559E+01  0.10566000000E+00 0. -1.
         22    1    1    0    0    0 -0.92563482885E+01 -0.46011379556E+02 -0.41271803858E+02  0.62498710594E+02  0.00000000000E+00 0. -1.
</event>
<event>
 4    1  0.9856522E-003  0.9118800E+02  0.7818608E-02  0.1130116E+00
         25   -1    0    0    0    0  0.00000000000E+00  0.00000000000E+00  0.99999998245E-14  0.12500000000E+03  0.12500000000E+03 0.  0.
        -13    1    1    0    0    0 -0.16455367928E+02  0.19082337574E+01 -0.43723516164E+02  0.46756577286E+02  0.10566000000E+00 0. -1.
         13    1    1    0    0    0 -0.48956442367E+01 -0.12265823389E+00 -0.14975581863E+02  0.15756319168E+02  0.10566000000E+00 0.  1.
         22    1    1    0    0    0  0.21351012165E+02 -0.17855755235E+01  0.58699098027E+02  0.62487103546E+02  0.00000000000E+00 0. -1.
</event>
<event>
 4    1  0.9856522E-003  0.9118800E+02  0.7818608E-02  0.1130116E+00
         25   -1    0    0    0    0  0.00000000000E+00  0.00000000000E+00  0.99999998245E-14  0.12500000000E+03  0.12500000000E+03 0.  0.
        -13    1    1    0    0    0  0.54836546354E+01  0.99231652700E+01 -0.25444957423E+02  0.27856717312E+02  0.10566000000E+00 0. -1.
         13    1    1    0    0    0  0.49385723822E+01  0.13448167987E+02 -0.31559140031E+02  0.34658811331E+02  0.10566000000E+00 0.  1.
         22    1    1    0    0    0 -0.10422227018E+02 -0.23371333257E+02  0.57004097454E+02  0.62484471356E+02  0.00000000000E+00 0.  1.
</event>
<event>
 4    1  0.9856522E-003  0.9118800E+02  0.7818608E-02  0.1130116E+00
         25   -1    0    0    0    0  0.00000000000E+00  0.00000000000E+00  0.99999998245E-14  0.12500000000E+03  0.12500000000E+03 0.  0.
        -13    1    1    0    0    0  0.51284518854E+02  0.75246785174E+01 -0.19323524096E+02  0.55318463540E+02  0.10566000000E+00 0. -1.
         13    1    1    0    0    0  0.71091885086E+01  0.11008134753E+01 -0.97740008187E+00  0.72607731347E+01  0.10566000000E+00 0.  1.
         22    1    1    0    0    0 -0.58393707363E+02 -0.86254919927E+01  0.20300924178E+02  0.62420763326E+02  0.00000000000E+00 0. -1.
</event>
<event>
 4    1  0.9856522E-003  0.9118800E+02  0.7818608E-02  0.1130116E+00
         25   -1    0    0    0    0  0.00000000000E+00  0.00000000000E+00  0.99999998245E-14  0.12500000000E+03  0.12500000000E+03 0.  0.
        -13    1    1    0    0    0  0.20374060075E+02  0.50609575002E+01  0.39197750782E+02  0.44465609691E+02  0.10566000000E+00 0. -1.
         13    1    1    0    0    0  0.14358644282E+02  0.11679836367E+01  0.11728937245E+02  0.18577243723E+02  0.10566000000E+00 0.  1.
         22    1    1    0    0    0 -0.34732704357E+02 -0.62289411369E+01 -0.50926688028E+02  0.61957146586E+02  0.00000000000E+00 0. -1.
</event>
<event>
 4    1  0.9856522E-003  0.9118800E+02  0.7818608E-02  0.1130116E+00
         25   -1    0    0    0    0  0.00000000000E+00  0.00000000000E+00  0.99999998245E-14  0.12500000000E+03  0.12500000000E+03 0.  0.
        -13    1    1    0    0    0 -0.46026042980E+02 -0.87980320497E+01 -0.26096093685E+02  0.53635988571E+02  0.10566000000E+00 0.  1.
         13    1    1    0    0    0 -0.75666468760E+01 -0.15834817399E+01 -0.43373509984E+01  0.88648371156E+01  0.10566000000E+00 0.  1.
         22    1    1    0    0    0  0.53592689856E+02  0.10381513790E+02  0.30433444684E+02  0.62499174313E+02  0.00000000000E+00 0.  1.
</event>
<event>
 4    1  0.9856522E-003  0.9118800E+02  0.7818608E-02  0.1130116E+00
         25   -1    0    0    0    0  0.00000000000E+00  0.00000000000E+00  0.99999998245E-14  0.12500000000E+03  0.12500000000E+03 0.  0.
        -13    1    1    0    0    0  0.49330503381E+01 -0.22210027328E+02 -0.15296887826E+02  0.27415802756E+02  0.10566000000E+00 0. -1.
         13    1    1    0    0    0  0.38229740082E+01 -0.24929382797E+02 -0.24583829347E+02  0.35220236886E+02  0.10566000000E+00 0.  1.
         22    1    1    0    0    0 -0.87560243463E+01  0.47139410125E+02  0.39880717173E+02  0.62363960358E+02  0.00000000000E+00 0.  1.
</event>
<event>
 4    1  0.9856522E-003  0.9118800E+02  0.7818608E-02  0.1130116E+00
         25   -1    0    0    0    0  0.00000000000E+00  0.00000000000E+00  0.99999998245E-14  0.12500000000E+03  0.12500000000E+03 0.  0.
        -13    1    1    0    0    0 -0.64122793225E+00 -0.11981298425E+02  0.40265891337E+02  0.42015662013E+02  0.10566000000E+00 0. -1.
         13    1    1    0    0    0 -0.42900373352E+00 -0.60878501848E+01  0.19554698202E+02  0.20485198312E+02  0.10566000000E+00 0.  1.
         22    1    1    0    0    0  0.10702316658E+01  0.18069148610E+02 -0.59820589539E+02  0.62499139675E+02  0.00000000000E+00 0.  1.
</event>
<event>
 4    1  0.9856522E-003  0.9118800E+02  0.7818608E-02  0.1130116E+00
         25   -1    0    0    0    0  0.00000000000E+00  0.00000000000E+00  0.99999998245E-14  0.12500000000E+03  0.12500000000E+03 0.  0.
        -13    1    1    0    0    0 -0.89301339216E+01 -0.33111018552E+02 -0.45943662989E+02  0.57331650720E+02  0.10566000000E+00 0. -1.
         13    1    1    0    0    0 -0.65464787090E+01  0.13086748116E+02 -0.64724607650E+00  0.14647506657E+02  0.10566000000E+00 0.  1.
         22    1    1    0    0    0  0.15476612631E+02  0.20024270436E+02  0.46590909065E+02  0.53020842624E+02  0.00000000000E+00 0. -1.
</event>
<event>
 4    1  0.9856522E-003  0.9118800E+02  0.7818608E-02  0.1130116E+00
         25   -1    0    0    0    0  0.00000000000E+00  0.00000000000E+00  0.99999998245E-14  0.12500000000E+03  0.12500000000E+03 0.  0.
        -13    1    1    0    0    0 -0.22483093379E+02  0.18877502549E+02 -0.20685287924E+02  0.35912976637E+02  0.10566000000E+00 0. -1.
         13    1    1    0    0    0 -0.17115426660E+02  0.14457712651E+02 -0.14328793992E+02  0.26594901507E+02  0.10566000000E+00 0.  1.
         22    1    1    0    0    0  0.39598520039E+02 -0.33335215200E+02  0.35014081916E+02  0.62492121857E+02  0.00000000000E+00 0.  1.
</event>
<event>
 4    1  0.9856522E-003  0.9118800E+02  0.7818608E-02  0.1130116E+00
         25   -1    0    0    0    0  0.00000000000E+00  0.00000000000E+00  0.99999998245E-14  0.12500000000E+03  0.12500000000E+03 0.  0.
        -13    1    1    0    0    0  0.10671079665E+02  0.15407094964E+02 -0.14813267258E+01  0.18800425776E+02  0.10566000000E+00 0.  1.
         13    1    1    0    0    0  0.26294493625E+02  0.34600973914E+02 -0.46705338705E+01  0.43708727292E+02  0.10566000000E+00 0. -1.
         22    1    1    0    0    0 -0.36965573290E+02 -0.50008068878E+02  0.61518605963E+01  0.62490846933E+02  0.00000000000E+00 0. -1.
</event>
<event>
 4    1  0.9856522E-003  0.9118800E+02  0.7818608E-02  0.1130116E+00
         25   -1    0    0    0    0  0.00000000000E+00  0.00000000000E+00  0.99999998245E-14  0.12500000000E+03  0.12500000000E+03 0.  0.
        -13    1    1    0    0    0  0.43223320581E+02 -0.14880057958E+02 -0.21058001840E+02  0.50330131854E+02  0.10566000000E+00 0.  1.
         13    1    1    0    0    0  0.10394714957E+02 -0.36675027842E+01 -0.51580799906E+01  0.12170358620E+02  0.10566000000E+00 0. -1.
         22    1    1    0    0    0 -0.53618035538E+02  0.18547560743E+02  0.26216081831E+02  0.62499509526E+02  0.00000000000E+00 0.  1.
</event>
<event>
 4    1  0.9856522E-003  0.9118800E+02  0.7818608E-02  0.1130116E+00
         25   -1    0    0    0    0  0.00000000000E+00  0.00000000000E+00  0.99999998245E-14  0.12500000000E+03  0.12500000000E+03 0.  0.
        -13    1    1    0    0    0 -0.76636468762E+01  0.11831291585E+02 -0.55560130384E+01  0.15152273391E+02  0.10566000000E+00 0.  1.
         13    1    1    0    0    0 -0.25033911724E+02  0.34339068045E+02 -0.20940062103E+02  0.47374736889E+02  0.10566000000E+00 0. -1.
         22    1    1    0    0    0  0.32697558600E+02 -0.46170359629E+02  0.26496075141E+02  0.62472989720E+02  0.00000000000E+00 0. -1.
</event>
<event>
 4    1  0.9856522E-003  0.9118800E+02  0.7818608E-02  0.1130116E+00
         25   -1    0    0    0    0  0.00000000000E+00  0.00000000000E+00  0.99999998245E-14  0.12500000000E+03  0.12500000000E+03 0.  0.
        -13    1    1    0    0    0 -0.37046827981E+02  0.15984825219E+02 -0.36299525933E+02  0.54273832072E+02  0.10566000000E+00 0. -1.
         13    1    1    0    0    0 -0.56767440277E+01  0.30284850814E+01 -0.51462514514E+01  0.82396730931E+01  0.10566000000E+00 0.  1.
         22    1    1    0    0    0  0.42723572009E+02 -0.19013310301E+02  0.41445777384E+02  0.62486494835E+02  0.00000000000E+00 0. -1.
</event>
<event>
 4    1  0.9856522E-003  0.9118800E+02  0.7818608E-02  0.1130116E+00
         25   -1    0    0    0    0  0.00000000000E+00  0.00000000000E+00  0.99999998245E-14  0.12500000000E+03  0.12500000000E+03 0.  0.
        -13    1    1    0    0    0  0.23108304830E+02  0.80260787150E+01 -0.11057812022E+02  0.26845820203E+02  0.10566000000E+00 0. -1.
         13    1    1    0    0    0  0.27410586851E+02  0.20451103975E+02 -0.11275338302E+02  0.36010169997E+02  0.10566000000E+00 0.  1.
         22    1    1    0    0    0 -0.50518891681E+02 -0.28477182690E+02  0.22333150324E+02  0.62144009800E+02  0.00000000000E+00 0.  1.
</event>
<event>
 4    1  0.9856522E-003  0.9118800E+02  0.7818608E-02  0.1130116E+00
         25   -1    0    0    0    0  0.00000000000E+00  0.00000000000E+00  0.99999998245E-14  0.12500000000E+03  0.12500000000E+03 0.  0.
        -13    1    1    0    0    0 -0.45420270356E+01  0.40097965460E+01 -0.88263067628E+01  0.10706228703E+02  0.10566000000E+00 0.  1.
         13    1    1    0    0    0  0.10015807744E+02  0.53709210217E+02 -0.44467447037E+01  0.54815876982E+02  0.10566000000E+00 0. -1.
         22    1    1    0    0    0 -0.54737807082E+01 -0.57719006763E+02  0.13273051466E+02  0.59477894315E+02  0.00000000000E+00 0. -1.
</event>
<event>
 4    1  0.9856522E-003  0.9118800E+02  0.7818608E-02  0.1130116E+00
         25   -1    0    0    0    0  0.00000000000E+00  0.00000000000E+00  0.99999998245E-14  0.12500000000E+03  0.12500000000E+03 0.  0.
        -13    1    1    0    0    0 -0.27123461204E+02  0.18978457257E+02  0.52383229463E+02  0.61966748184E+02  0.10566000000E+00 0. -1.
         13    1    1    0    0    0 -0.64178219930E+00 -0.41861518492E+00  0.14507028190E+00  0.78697680187E+00  0.10566000000E+00 0.  1.
         22    1    1    0    0    0  0.27765243403E+02 -0.18559842072E+02 -0.52528299745E+02  0.62246275014E+02  0.00000000000E+00 0. -1.
</event>
<event>
 4    1  0.9856522E-003  0.9118800E+02  0.7818608E-02  0.1130116E+00
         25   -1    0    0    0    0  0.00000000000E+00  0.00000000000E+00  0.99999998245E-14  0.12500000000E+03  0.12500000000E+03 0.  0.
        -13    1    1    0    0    0 -0.23630907095E+02  0.36786635190E+02  0.93556779437E+01  0.44712595234E+02  0.10566000000E+00 0.  1.
         13    1    1    0    0    0 -0.95020918217E+01  0.14595664397E+02  0.36157259593E+01  0.17787855588E+02  0.10566000000E+00 0.  1.
         22    1    1    0    0    0  0.33132998917E+02 -0.51382299588E+02 -0.12971403903E+02  0.62499549177E+02  0.00000000000E+00 0.  1.
</event>
<event>
 4    1  0.9856522E-003  0.9118800E+02  0.7818608E-02  0.1130116E+00
         25   -1    0    0    0    0  0.00000000000E+00  0.00000000000E+00  0.99999998245E-14  0.12500000000E+03  0.12500000000E+03 0.  0.
        -13    1    1    0    0    0 -0.65135944391E+01  0.14112167904E+02  0.15988208976E+02  0.22298300065E+02  0.10566000000E+00 0. -1.
         13    1    1    0    0    0 -0.10938495822E+02  0.25482768665E+02  0.29108231014E+02  0.40203513112E+02  0.10566000000E+00 0.  1.
         22    1    1    0    0    0  0.17452090261E+02 -0.39594936569E+02 -0.45096439991E+02  0.62498186824E+02  0.00000000000E+00 0. -1.
</event>
<event>
 4    1  0.9856522E-003  0.9118800E+02  0.7818608E-02  0.1130116E+00
         25   -1    0    0    0    0  0.00000000000E+00  0.00000000000E+00  0.99999998245E-14  0.12500000000E+03  0.12500000000E+03 0.  0.
        -13    1    1    0    0    0  0.12052500691E+02 -0.10249928507E+02 -0.37891508484E+02  0.41062164903E+02  0.10566000000E+00 0.  1.
         13    1    1    0    0    0  0.82293918464E+01 -0.47864399360E+01 -0.19245210105E+02  0.21471426908E+02  0.10566000000E+00 0. -1.
         22    1    1    0    0    0 -0.20281892538E+02  0.15036368443E+02  0.57136718589E+02  0.62466408189E+02  0.00000000000E+00 0.  1.
</event>
<event>
 4    1  0.9856522E-003  0.9118800E+02  0.7818608E-02  0.1130116E+00
         25   -1    0    0    0    0  0.00000000000E+00  0.00000000000E+00  0.99999998245E-14  0.12500000000E+03  0.12500000000E+03 0.  0.
        -13    1    1    0    0    0 -0.28232347089E+01  0.21510619513E+01 -0.23772797840E+01  0.42732124856E+01  0.10566000000E+00 0. -1.
         13    1    1    0    0    0 -0.49099679183E+02  0.11491520942E+02 -0.29370761268E+02  0.58356544885E+02  0.10566000000E+00 0.  1.
         22    1    1    0    0    0  0.51922913892E+02 -0.13642582893E+02  0.31748041052E+02  0.62370242629E+02  0.00000000000E+00 0.  1.
</event>
<event>
 4    1  0.9856522E-003  0.9118800E+02  0.7818608E-02  0.1130116E+00
         25   -1    0    0    0    0  0.00000000000E+00  0.00000000000E+00  0.99999998245E-14  0.12500000000E+03  0.12500000000E+03 0.  0.
        -13    1    1    0    0    0  0.18159864709E+02 -0.14548302054E+00 -0.85750217385E+01  0.20083426337E+02  0.10566000000E+00 0. -1.
         13    1    1    0    0    0  0.38403006420E+02 -0.60269832204E+00 -0.18000947839E+02  0.42416971067E+02  0.10566000000E+00 0. -1.
         22    1    1    0    0    0 -0.56562871129E+02  0.74818134258E+00  0.26575969577E+02  0.62499602596E+02  0.00000000000E+00 0. -1.
</event>
<event>
 4    1  0.9856522E-003  0.9118800E+02  0.7818608E-02  0.1130116E+00
         25   -1    0    0    0    0  0.00000000000E+00  0.00000000000E+00  0.99999998245E-14  0.12500000000E+03  0.12500000000E+03 0.  0.
        -13    1    1    0    0    0 -0.16778230841E+02  0.22959125064E+02  0.22695849485E+02  0.36383281899E+02  0.10566000000E+00 0. -1.
         13    1    1    0    0    0 -0.64401574475E+01  0.26656219521E+02  0.39399809330E+01  0.27704950476E+02  0.10566000000E+00 0.  1.
         22    1    1    0    0    0  0.23218388289E+02 -0.49615344585E+02 -0.26635830418E+02  0.60911767624E+02  0.00000000000E+00 0. -1.
</event>
<event>
 4    1  0.9856522E-003  0.9118800E+02  0.7818608E-02  0.1130116E+00
         25   -1    0    0    0    0  0.00000000000E+00  0.00000000000E+00  0.99999998245E-14  0.12500000000E+03  0.12500000000E+03 0.  0.
        -13    1    1    0    0    0 -0.15962300146E+02  0.31027320738E+01 -0.14206772746E+02  0.21593182447E+02  0.10566000000E+00 0.  1.
         13    1    1    0    0    0 -0.26132150559E+02 -0.15496600321E+02 -0.28873458945E+02  0.41913264128E+02  0.10566000000E+00 0. -1.
         22    1    1    0    0    0  0.42094450705E+02  0.12393868248E+02  0.43080231691E+02  0.61493553425E+02  0.00000000000E+00 0.  1.
</event>
<event>
 4    1  0.9856522E-003  0.9118800E+02  0.7818608E-02  0.1130116E+00
         25   -1    0    0    0    0  0.00000000000E+00  0.00000000000E+00  0.99999998245E-14  0.12500000000E+03  0.12500000000E+03 0.  0.
        -13    1    1    0    0    0  0.15733520204E+02  0.59316235793E+02  0.31487094414E+01  0.61448230421E+02  0.10566000000E+00 0.  1.
         13    1    1    0    0    0  0.13069138361E+01  0.39448136878E+00  0.94370195331E-01  0.13724828213E+01  0.10566000000E+00 0. -1.
         22    1    1    0    0    0 -0.17040434040E+02 -0.59710717162E+02 -0.32430796367E+01  0.62179286758E+02  0.00000000000E+00 0.  1.
</event>
<event>
 4    1  0.9856522E-003  0.9118800E+02  0.7818608E-02  0.1130116E+00
         25   -1    0    0    0    0  0.00000000000E+00  0.00000000000E+00  0.99999998245E-14  0.12500000000E+03  0.12500000000E+03 0.  0.
        -13    1    1    0    0    0 -0.17994400042E+01 -0.65044006254E+00  0.16758327558E+02  0.16867535777E+02  0.10566000000E+00 0. -1.
         13    1    1    0    0    0 -0.11704097925E+01 -0.24232661183E+01  0.45574133666E+02  0.45653640613E+02  0.10566000000E+00 0.  1.
         22    1    1    0    0    0  0.29698497967E+01  0.30737061808E+01 -0.62332461224E+02  0.62478823610E+02  0.00000000000E+00 0.  1.
</event>
<event>
 4    1  0.9856522E-003  0.9118800E+02  0.7818608E-02  0.1130116E+00
         25   -1    0    0    0    0  0.00000000000E+00  0.00000000000E+00  0.99999998245E-14  0.12500000000E+03  0.12500000000E+03 0.  0.
        -13    1    1    0    0    0 -0.67201993608E+01  0.84838390897E-01 -0.35439117579E+02  0.36070909274E+02  0.10566000000E+00 0. -1.
         13    1    1    0    0    0 -0.19214692571E+01  0.50067717612E+01 -0.26065660565E+02  0.26611832562E+02  0.10566000000E+00 0.  1.
         22    1    1    0    0    0  0.86416686180E+01 -0.50916101521E+01  0.61504778145E+02  0.62317258164E+02  0.00000000000E+00 0. -1.
</event>
<event>
 4    1  0.9856522E-003  0.9118800E+02  0.7818608E-02  0.1130116E+00
         25   -1    0    0    0    0  0.00000000000E+00  0.00000000000E+00  0.99999998245E-14  0.12500000000E+03  0.12500000000E+03 0.  0.
        -13    1    1    0    0    0  0.18072440491E+02 -0.46944671593E+02 -0.29053979437E+02  0.58090964714E+02  0.10566000000E+00 0.  1.
         13    1    1    0    0    0  0.28473886466E+01 -0.27682145626E+01 -0.22319145974E+01  0.45566699217E+01  0.10566000000E+00 0. -1.
         22    1    1    0    0    0 -0.20919829137E+02  0.49712886155E+02  0.31285894034E+02  0.62352365364E+02  0.00000000000E+00 0.  1.
</event>
<event>
 4    1  0.9856522E-003  0.9118800E+02  0.7818608E-02  0.1130116E+00
         25   -1    0    0    0    0  0.00000000000E+00  0.00000000000E+00  0.99999998245E-14  0.12500000000E+03  0.12500000000E+03 0.  0.
        -13    1    1    0    0    0  0.25614370495E+01 -0.23605363443E+02  0.10252562192E+02  0.25863107674E+02  0.10566000000E+00 0. -1.
         13    1    1    0    0    0 -0.10623365339E+02 -0.34404830969E+02  0.96524921794E+01  0.37279083336E+02  0.10566000000E+00 0.  1.
         22    1    1    0    0    0  0.80619282890E+01  0.58010194412E+02 -0.19905054372E+02  0.61857808989E+02  0.00000000000E+00 0. -1.
</event>
<event>
 4    1  0.9856522E-003  0.9118800E+02  0.7818608E-02  0.1130116E+00
         25   -1    0    0    0    0  0.00000000000E+00  0.00000000000E+00  0.99999998245E-14  0.12500000000E+03  0.12500000000E+03 0.  0.
        -13    1    1    0    0    0 -0.19219317105E+02  0.16656789543E+02  0.92116073053E+01  0.27049873586E+02  0.10566000000E+00 0. -1.
         13    1    1    0    0    0 -0.23830938995E+02  0.27048682238E+02 -0.57517787414E+01  0.36505328200E+02  0.10566000000E+00 0.  1.
         22    1    1    0    0    0  0.43050256100E+02 -0.43705471781E+02 -0.34598285640E+01  0.61444798214E+02  0.00000000000E+00 0. -1.
</event>
<event>
 4    1  0.9856522E-003  0.9118800E+02  0.7818608E-02  0.1130116E+00
         25   -1    0    0    0    0  0.00000000000E+00  0.00000000000E+00  0.99999998245E-14  0.12500000000E+03  0.12500000000E+03 0.  0.
        -13    1    1    0    0    0  0.33978366665E+02  0.12504593517E+02 -0.28874885870E+02  0.46310522112E+02  0.10566000000E+00 0.  1.
         13    1    1    0    0    0  0.11890105745E+02  0.45621726468E+01 -0.99962303049E+01  0.16190238363E+02  0.10566000000E+00 0.  1.
         22    1    1    0    0    0 -0.45868472411E+02 -0.17066766163E+02  0.38871116175E+02  0.62499239525E+02  0.00000000000E+00 0.  1.
</event>
<event>
 4    1  0.9856522E-003  0.9118800E+02  0.7818608E-02  0.1130116E+00
         25   -1    0    0    0    0  0.00000000000E+00  0.00000000000E+00  0.99999998245E-14  0.12500000000E+03  0.12500000000E+03 0.  0.
        -13    1    1    0    0    0  0.57976988738E+02  0.19721125534E+02 -0.11615346072E+02  0.62331223667E+02  0.10566000000E+00 0.  1.
         13    1    1    0    0    0 -0.13600434503E-01  0.20393844423E+00 -0.12531635036E+00  0.26200016053E+00  0.10566000000E+00 0. -1.
         22    1    1    0    0    0 -0.57963388303E+02 -0.19925063978E+02  0.11740662422E+02  0.62406776172E+02  0.00000000000E+00 0.  1.
</event>
<event>
 4    1  0.9856522E-003  0.9118800E+02  0.7818608E-02  0.1130116E+00
         25   -1    0    0    0    0  0.00000000000E+00  0.00000000000E+00  0.99999998245E-14  0.12500000000E+03  0.12500000000E+03 0.  0.
        -13    1    1    0    0    0  0.80743923975E+00 -0.29121401461E+00 -0.85913384290E+00  0.12190318797E+01  0.10566000000E+00 0.  1.
         13    1    1    0    0    0  0.58348363543E+02 -0.16879223064E+02 -0.89855451502E+01  0.61401880143E+02  0.10566000000E+00 0. -1.
         22    1    1    0    0    0 -0.59155802783E+02  0.17170437079E+02  0.98446789931E+01  0.62379087977E+02  0.00000000000E+00 0. -1.
</event>
<event>
 4    1  0.9856522E-003  0.9118800E+02  0.7818608E-02  0.1130116E+00
         25   -1    0    0    0    0  0.00000000000E+00  0.00000000000E+00  0.99999998245E-14  0.12500000000E+03  0.12500000000E+03 0.  0.
        -13    1    1    0    0    0 -0.20687481237E+00  0.67203141555E+01 -0.53723631544E+01  0.86069082390E+01  0.10566000000E+00 0. -1.
         13    1    1    0    0    0 -0.74686387169E+00  0.44327148398E+02 -0.30659757572E+02  0.53902558280E+02  0.10566000000E+00 0.  1.
         22    1    1    0    0    0  0.95373868406E+00 -0.51047462554E+02  0.36032120727E+02  0.62490533481E+02  0.00000000000E+00 0.  1.
</event>
<event>
 4    1  0.9856522E-003  0.9118800E+02  0.7818608E-02  0.1130116E+00
         25   -1    0    0    0    0  0.00000000000E+00  0.00000000000E+00  0.99999998245E-14  0.12500000000E+03  0.12500000000E+03 0.  0.
        -13    1    1    0    0    0  0.17915622115E+02  0.56992333921E+02 -0.15421162312E+02  0.61700235434E+02  0.10566000000E+00 0.  1.
         13    1    1    0    0    0 -0.13147119444E+01  0.36119374146E+00 -0.57947440062E+00  0.14852215431E+01  0.10566000000E+00 0. -1.
         22    1    1    0    0    0 -0.16600910171E+02 -0.57353527663E+02  0.16000636713E+02  0.61814543022E+02  0.00000000000E+00 0.  1.
</event>
<event>
 4    1  0.9856522E-003  0.9118800E+02  0.7818608E-02  0.1130116E+00
         25   -1    0    0    0    0  0.00000000000E+00  0.00000000000E+00  0.99999998245E-14  0.12500000000E+03  0.12500000000E+03 0.  0.
        -13    1    1    0    0    0  0.38730096288E+02 -0.15750537775E+02  0.22498600837E+02  0.47479448210E+02  0.10566000000E+00 0. -1.
         13    1    1    0    0    0  0.11350673347E+02 -0.52065499069E+01  0.84038211762E+01  0.15052618435E+02  0.10566000000E+00 0.  1.
         22    1    1    0    0    0 -0.50080769635E+02  0.20957087682E+02 -0.30902422013E+02  0.62467933355E+02  0.00000000000E+00 0. -1.
</event>
<event>
 4    1  0.9856522E-003  0.9118800E+02  0.7818608E-02  0.1130116E+00
         25   -1    0    0    0    0  0.00000000000E+00  0.00000000000E+00  0.99999998245E-14  0.12500000000E+03  0.12500000000E+03 0.  0.
        -13    1    1    0    0    0 -0.40951532052E+02  0.23662954224E+02  0.36104430446E+02  0.59502138128E+02  0.10566000000E+00 0. -1.
         13    1    1    0    0    0 -0.81778898141E+00 -0.10277085193E+02 -0.36596626024E+01  0.10940363490E+02  0.10566000000E+00 0.  1.
         22    1    1    0    0    0  0.41769321033E+02 -0.13385869031E+02 -0.32444767843E+02  0.54557498382E+02  0.00000000000E+00 0. -1.
</event>
<event>
 4    1  0.9856522E-003  0.9118800E+02  0.7818608E-02  0.1130116E+00
         25   -1    0    0    0    0  0.00000000000E+00  0.00000000000E+00  0.99999998245E-14  0.12500000000E+03  0.12500000000E+03 0.  0.
        -13    1    1    0    0    0 -0.29237444439E+02 -0.33017743485E+02  0.37867294851E+02  0.58128673867E+02  0.10566000000E+00 0. -1.
         13    1    1    0    0    0 -0.31930630157E+01 -0.19644547959E+01  0.23942258471E+01  0.44495185706E+01  0.10566000000E+00 0.  1.
         22    1    1    0    0    0  0.32430507455E+02  0.34982198281E+02 -0.40261520698E+02  0.62421807562E+02  0.00000000000E+00 0. -1.
</event>
<event>
 4    1  0.9856522E-003  0.9118800E+02  0.7818608E-02  0.1130116E+00
         25   -1    0    0    0    0  0.00000000000E+00  0.00000000000E+00  0.99999998245E-14  0.12500000000E+03  0.12500000000E+03 0.  0.
        -13    1    1    0    0    0  0.39104959097E+01 -0.54610536601E+02 -0.76905886171E+01  0.55287964364E+02  0.10566000000E+00 0. -1.
         13    1    1    0    0    0  0.72087627330E+00 -0.70940990714E+01 -0.10890349332E+01  0.72140879782E+01  0.10566000000E+00 0.  1.
         22    1    1    0    0    0 -0.46313721830E+01  0.61704635673E+02  0.87796235503E+01  0.62497947658E+02  0.00000000000E+00 0. -1.
</event>
<event>
 4    1  0.9856522E-003  0.9118800E+02  0.7818608E-02  0.1130116E+00
         25   -1    0    0    0    0  0.00000000000E+00  0.00000000000E+00  0.99999998245E-14  0.12500000000E+03  0.12500000000E+03 0.  0.
        -13    1    1    0    0    0 -0.20148916125E+02 -0.10568195443E+02 -0.49430684820E+02  0.54415708593E+02  0.10566000000E+00 0. -1.
         13    1    1    0    0    0  0.50654896327E+01 -0.15024510556E+02  0.33059246421E+02  0.36664970212E+02  0.10566000000E+00 0.  1.
         22    1    1    0    0    0  0.15083426492E+02  0.25592705999E+02  0.16371438399E+02  0.33919321195E+02  0.00000000000E+00 0.  1.
</event>
<event>
 4    1  0.9856522E-003  0.9118800E+02  0.7818608E-02  0.1130116E+00
         25   -1    0    0    0    0  0.00000000000E+00  0.00000000000E+00  0.99999998245E-14  0.12500000000E+03  0.12500000000E+03 0.  0.
        -13    1    1    0    0    0 -0.43012597685E+02  0.20256149674E+01  0.26335019192E+02  0.50475053992E+02  0.10566000000E+00 0.  1.
         13    1    1    0    0    0 -0.10227416785E+02  0.12844745463E+01  0.62134143146E+01  0.12036096146E+02  0.10566000000E+00 0. -1.
         22    1    1    0    0    0  0.53240014470E+02 -0.33100895137E+01 -0.32548433506E+02  0.62488849862E+02  0.00000000000E+00 0.  1.
</event>
<event>
 4    1  0.9856522E-003  0.9118800E+02  0.7818608E-02  0.1130116E+00
         25   -1    0    0    0    0  0.00000000000E+00  0.00000000000E+00  0.99999998245E-14  0.12500000000E+03  0.12500000000E+03 0.  0.
        -13    1    1    0    0    0 -0.31726336126E+02  0.49387596329E+02 -0.10270293433E+02  0.59591821304E+02  0.10566000000E+00 0.  1.
         13    1    1    0    0    0 -0.15653217451E+01  0.23933192383E+01 -0.52393259965E+00  0.29092745739E+01  0.10566000000E+00 0.  1.
         22    1    1    0    0    0  0.33291657871E+02 -0.51780915567E+02  0.10794226033E+02  0.62498904122E+02  0.00000000000E+00 0.  1.
</event>
<event>
 4    1  0.9856522E-003  0.9118800E+02  0.7818608E-02  0.1130116E+00
         25   -1    0    0    0    0  0.00000000000E+00  0.00000000000E+00  0.99999998245E-14  0.12500000000E+03  0.12500000000E+03 0.  0.
        -13    1    1    0    0    0  0.78183501685E+01  0.74604676996E+01  0.51306269303E+01  0.11963263534E+02  0.10566000000E+00 0.  1.
         13    1    1    0    0    0  0.32031892882E+02  0.31752937640E+02  0.22801546949E+02  0.50539221578E+02  0.10566000000E+00 0. -1.
         22    1    1    0    0    0 -0.39850243051E+02 -0.39213405340E+02 -0.27932173879E+02  0.62497514888E+02  0.00000000000E+00 0. -1.
</event>
<event>
 4    1  0.9856522E-003  0.9118800E+02  0.7818608E-02  0.1130116E+00
         25   -1    0    0    0    0  0.00000000000E+00  0.00000000000E+00  0.99999998245E-14  0.12500000000E+03  0.12500000000E+03 0.  0.
        -13    1    1    0    0    0 -0.16943170658E+02 -0.97408465171E+01 -0.29298798346E+02  0.35219112302E+02  0.10566000000E+00 0. -1.
         13    1    1    0    0    0 -0.26781082763E+02 -0.43215026191E+01 -0.10418953166E+02  0.29059723466E+02  0.10566000000E+00 0.  1.
         22    1    1    0    0    0  0.43724253421E+02  0.14062349136E+02  0.39717751512E+02  0.60721164231E+02  0.00000000000E+00 0. -1.
</event>
<event>
 4    1  0.9856522E-003  0.9118800E+02  0.7818608E-02  0.1130116E+00
         25   -1    0    0    0    0  0.00000000000E+00  0.00000000000E+00  0.99999998245E-14  0.12500000000E+03  0.12500000000E+03 0.  0.
        -13    1    1    0    0    0  0.61322830338E+00  0.10640662178E+02 -0.10761064447E+02  0.15146333306E+02  0.10566000000E+00 0.  1.
         13    1    1    0    0    0  0.20891300216E+01  0.33533260094E+02 -0.33370029242E+02  0.47354134059E+02  0.10566000000E+00 0.  1.
         22    1    1    0    0    0 -0.27023583249E+01 -0.44173922272E+02  0.44131093689E+02  0.62499532635E+02  0.00000000000E+00 0.  1.
</event>
<event>
 4    1  0.9856522E-003  0.9118800E+02  0.7818608E-02  0.1130116E+00
         25   -1    0    0    0    0  0.00000000000E+00  0.00000000000E+00  0.99999998245E-14  0.12500000000E+03  0.12500000000E+03 0.  0.
        -13    1    1    0    0    0 -0.23321233949E+02 -0.22199057739E+02  0.40468314818E+02  0.51714347967E+02  0.10566000000E+00 0.  1.
         13    1    1    0    0    0 -0.50557440680E+01 -0.43862554866E+01  0.84596704976E+01  0.10787816009E+02  0.10566000000E+00 0. -1.
         22    1    1    0    0    0  0.28376978017E+02  0.26585313225E+02 -0.48927985316E+02  0.62497836024E+02  0.00000000000E+00 0.  1.
</event>
<event>
 4    1  0.9856522E-003  0.9118800E+02  0.7818608E-02  0.1130116E+00
         25   -1    0    0    0    0  0.00000000000E+00  0.00000000000E+00  0.99999998245E-14  0.12500000000E+03  0.12500000000E+03 0.  0.
        -13    1    1    0    0    0 -0.60399994191E+00  0.29923816695E+01 -0.80705824072E+01  0.86292889865E+01  0.10566000000E+00 0. -1.
         13    1    1    0    0    0  0.12329084054E+02  0.52017762875E+02 -0.15082485940E+02  0.55545895567E+02  0.10566000000E+00 0.  1.
         22    1    1    0    0    0 -0.11725084112E+02 -0.55010144544E+02  0.23153068348E+02  0.60824815447E+02  0.00000000000E+00 0.  1.
</event>
<event>
 4    1  0.9856522E-003  0.9118800E+02  0.7818608E-02  0.1130116E+00
         25   -1    0    0    0    0  0.00000000000E+00  0.00000000000E+00  0.99999998245E-14  0.12500000000E+03  0.12500000000E+03 0.  0.
        -13    1    1    0    0    0  0.20854657794E+02  0.28344164569E+01 -0.14096761239E+02  0.25331413499E+02  0.10566000000E+00 0.  1.
         13    1    1    0    0    0  0.30135984687E+02  0.29159610645E+01 -0.21571797923E+02  0.37175718308E+02  0.10566000000E+00 0. -1.
         22    1    1    0    0    0 -0.50990642482E+02 -0.57503775214E+01  0.35668559163E+02  0.62492868194E+02  0.00000000000E+00 0. -1.
</event>
<event>
 4    1  0.9856522E-003  0.9118800E+02  0.7818608E-02  0.1130116E+00
         25   -1    0    0    0    0  0.00000000000E+00  0.00000000000E+00  0.99999998245E-14  0.12500000000E+03  0.12500000000E+03 0.  0.
        -13    1    1    0    0    0  0.39652392502E+02  0.20163484819E+02 -0.38199027065E+02  0.58634931431E+02  0.10566000000E+00 0.  1.
         13    1    1    0    0    0  0.36147032573E+01  0.11109649531E+01 -0.13379837743E+01  0.40126907906E+01  0.10566000000E+00 0. -1.
         22    1    1    0    0    0 -0.43267095759E+02 -0.21274449772E+02  0.39537010839E+02  0.62352377779E+02  0.00000000000E+00 0.  1.
</event>
<event>
 4    1  0.9856522E-003  0.9118800E+02  0.7818608E-02  0.1130116E+00
         25   -1    0    0    0    0  0.00000000000E+00  0.00000000000E+00  0.99999998245E-14  0.12500000000E+03  0.12500000000E+03 0.  0.
        -13    1    1    0    0    0 -0.23303388921E+02  0.85687544865E+01  0.58402410491E+01  0.25506686735E+02  0.10566000000E+00 0.  1.
         13    1    1    0    0    0 -0.33775784212E+02  0.12202078072E+02  0.88802134708E+01  0.36994103094E+02  0.10566000000E+00 0. -1.
         22    1    1    0    0    0  0.57079173133E+02 -0.20770832558E+02 -0.14720454520E+02  0.62499210171E+02  0.00000000000E+00 0. -1.
</event>
<event>
 4    1  0.9856522E-003  0.9118800E+02  0.7818608E-02  0.1130116E+00
         25   -1    0    0    0    0  0.00000000000E+00  0.00000000000E+00  0.99999998245E-14  0.12500000000E+03  0.12500000000E+03 0.  0.
        -13    1    1    0    0    0  0.14209630403E+02  0.36982568203E+02 -0.14627426524E+02  0.42232649903E+02  0.10566000000E+00 0.  1.
         13    1    1    0    0    0  0.68720878865E+01  0.17765529953E+02 -0.69229432389E+01  0.20267657821E+02  0.10566000000E+00 0.  1.
         22    1    1    0    0    0 -0.21081718290E+02 -0.54748098156E+02  0.21550369762E+02  0.62499692276E+02  0.00000000000E+00 0.  1.
</event>
<event>
 4    1  0.9856522E-003  0.9118800E+02  0.7818608E-02  0.1130116E+00
         25   -1    0    0    0    0  0.00000000000E+00  0.00000000000E+00  0.99999998245E-14  0.12500000000E+03  0.12500000000E+03 0.  0.
        -13    1    1    0    0    0 -0.16906459432E+02 -0.46093528684E+02 -0.27059638026E+02  0.56059583759E+02  0.10566000000E+00 0.  1.
         13    1    1    0    0    0 -0.25303127124E+01 -0.52969716787E+01 -0.26919847806E+01  0.64589734078E+01  0.10566000000E+00 0. -1.
         22    1    1    0    0    0  0.19436772145E+02  0.51390500363E+02  0.29751622806E+02  0.62481442833E+02  0.00000000000E+00 0.  1.
</event>
<event>
 4    1  0.9856522E-003  0.9118800E+02  0.7818608E-02  0.1130116E+00
         25   -1    0    0    0    0  0.00000000000E+00  0.00000000000E+00  0.99999998245E-14  0.12500000000E+03  0.12500000000E+03 0.  0.
        -13    1    1    0    0    0 -0.14010568418E+02  0.27800083534E+01  0.58748127085E+02  0.60459722741E+02  0.10566000000E+00 0. -1.
         13    1    1    0    0    0 -0.14270174834E+01 -0.30966612572E+01  0.37711527638E+00  0.34320649479E+01  0.10566000000E+00 0.  1.
         22    1    1    0    0    0  0.15437585901E+02  0.31665290373E+00 -0.59125242362E+02  0.61108212311E+02  0.00000000000E+00 0. -1.
</event>
<event>
 4    1  0.9856522E-003  0.9118800E+02  0.7818608E-02  0.1130116E+00
         25   -1    0    0    0    0  0.00000000000E+00  0.00000000000E+00  0.99999998245E-14  0.12500000000E+03  0.12500000000E+03 0.  0.
        -13    1    1    0    0    0  0.36664172772E+01 -0.37414036005E+02  0.46653840526E+01  0.37881785573E+02  0.10566000000E+00 0.  1.
         13    1    1    0    0    0  0.21600375829E+01 -0.24211869911E+02  0.39288906013E+01  0.24623723365E+02  0.10566000000E+00 0. -1.
         22    1    1    0    0    0 -0.58264548601E+01  0.61625905916E+02 -0.85942746539E+01  0.62494491062E+02  0.00000000000E+00 0.  1.
</event>
<event>
 4    1  0.9856522E-003  0.9118800E+02  0.7818608E-02  0.1130116E+00
         25   -1    0    0    0    0  0.00000000000E+00  0.00000000000E+00  0.99999998245E-14  0.12500000000E+03  0.12500000000E+03 0.  0.
        -13    1    1    0    0    0 -0.48397798786E+01  0.70248184339E+01  0.91832165232E+00  0.85805607040E+01  0.10566000000E+00 0.  1.
         13    1    1    0    0    0 -0.30016281375E+02  0.43802233201E+02  0.94155979614E+01  0.53928447316E+02  0.10566000000E+00 0. -1.
         22    1    1    0    0    0  0.34856061253E+02 -0.50827051635E+02 -0.10333919614E+02  0.62490991979E+02  0.00000000000E+00 0. -1.
</event>
<event>
 4    1  0.9856522E-003  0.9118800E+02  0.7818608E-02  0.1130116E+00
         25   -1    0    0    0    0  0.00000000000E+00  0.00000000000E+00  0.99999998245E-14  0.12500000000E+03  0.12500000000E+03 0.  0.
        -13    1    1    0    0    0 -0.24028124323E+02  0.18108372390E+01 -0.54574452782E+02  0.59657455112E+02  0.10566000000E+00 0. -1.
         13    1    1    0    0    0 -0.11847719875E+01  0.12377924651E+00 -0.25801869437E+01  0.28438591147E+01  0.10566000000E+00 0. -1.
         22    1    1    0    0    0  0.25212896310E+02 -0.19346164856E+01  0.57154639725E+02  0.62498685774E+02  0.00000000000E+00 0. -1.
</event>
<event>
 4    1  0.9856522E-003  0.9118800E+02  0.7818608E-02  0.1130116E+00
         25   -1    0    0    0    0  0.00000000000E+00  0.00000000000E+00  0.99999998245E-14  0.12500000000E+03  0.12500000000E+03 0.  0.
        -13    1    1    0    0    0 -0.39446345326E-01  0.20797439960E+02 -0.22504347303E+02  0.30642974341E+02  0.10566000000E+00 0.  1.
         13    1    1    0    0    0 -0.21987495520E+02  0.23773499125E+02  0.29921443490E+02  0.44090057433E+02  0.10566000000E+00 0. -1.
         22    1    1    0    0    0  0.22026941865E+02 -0.44570939084E+02 -0.74170961872E+01  0.50266968226E+02  0.00000000000E+00 0.  1.
</event>
<event>
 4    1  0.9856522E-003  0.9118800E+02  0.7818608E-02  0.1130116E+00
         25   -1    0    0    0    0  0.00000000000E+00  0.00000000000E+00  0.99999998245E-14  0.12500000000E+03  0.12500000000E+03 0.  0.
        -13    1    1    0    0    0  0.51038166612E+01  0.11841821674E+02 -0.13872727800E+02  0.18940470578E+02  0.10566000000E+00 0. -1.
         13    1    1    0    0    0  0.16296569683E+02  0.27819065706E+02 -0.29362280390E+02  0.43607720348E+02  0.10566000000E+00 0.  1.
         22    1    1    0    0    0 -0.21400386344E+02 -0.39660887380E+02  0.43235008190E+02  0.62451809074E+02  0.00000000000E+00 0.  1.
</event>
<event>
 4    1  0.9856522E-003  0.9118800E+02  0.7818608E-02  0.1130116E+00
         25   -1    0    0    0    0  0.00000000000E+00  0.00000000000E+00  0.99999998245E-14  0.12500000000E+03  0.12500000000E+03 0.  0.
        -13    1    1    0    0    0 -0.93071601438E-01 -0.18441504034E+00  0.12556516474E+01  0.12769088947E+01  0.10566000000E+00 0.  1.
         13    1    1    0    0    0  0.30467204083E+01 -0.20980385140E+01  0.61121960148E+02  0.61233891328E+02  0.10566000000E+00 0. -1.
         22    1    1    0    0    0 -0.29536488068E+01  0.22824535543E+01 -0.62377611795E+02  0.62489199777E+02  0.00000000000E+00 0. -1.
</event>
<event>
 4    1  0.9856522E-003  0.9118800E+02  0.7818608E-02  0.1130116E+00
         25   -1    0    0    0    0  0.00000000000E+00  0.00000000000E+00  0.99999998245E-14  0.12500000000E+03  0.12500000000E+03 0.  0.
        -13    1    1    0    0    0  0.90848452991E+01 -0.24467753455E+02  0.54261583023E+01  0.26658201950E+02  0.10566000000E+00 0. -1.
         13    1    1    0    0    0  0.13151288971E+02 -0.32247761024E+02  0.85059661989E+01  0.35850203872E+02  0.10566000000E+00 0.  1.
         22    1    1    0    0    0 -0.22236134270E+02  0.56715514478E+02 -0.13932124501E+02  0.62491594178E+02  0.00000000000E+00 0. -1.
</event>
<event>
 4    1  0.9856522E-003  0.9118800E+02  0.7818608E-02  0.1130116E+00
         25   -1    0    0    0    0  0.00000000000E+00  0.00000000000E+00  0.99999998245E-14  0.12500000000E+03  0.12500000000E+03 0.  0.
        -13    1    1    0    0    0 -0.24862734219E+01  0.53271282802E+01 -0.19180991093E+01  0.61846680971E+01  0.10566000000E+00 0.  1.
         13    1    1    0    0    0 -0.24203960122E+02  0.43589626554E+02 -0.26281932955E+02  0.56361674856E+02  0.10566000000E+00 0. -1.
         22    1    1    0    0    0  0.26690233544E+02 -0.48916754834E+02  0.28200032064E+02  0.62453657047E+02  0.00000000000E+00 0. -1.
</event>
<event>
 4    1  0.9856522E-003  0.9118800E+02  0.7818608E-02  0.1130116E+00
         25   -1    0    0    0    0  0.00000000000E+00  0.00000000000E+00  0.99999998245E-14  0.12500000000E+03  0.12500000000E+03 0.  0.
        -13    1    1    0    0    0  0.18961043943E+02  0.58016680488E+01  0.22733003506E+02  0.30165893853E+02  0.10566000000E+00 0. -1.
         13    1    1    0    0    0  0.21114539278E+02  0.62726894223E+01  0.23676801893E+02  0.32338406167E+02  0.10566000000E+00 0.  1.
         22    1    1    0    0    0 -0.40075583220E+02 -0.12074357471E+02 -0.46409805399E+02  0.62495699980E+02  0.00000000000E+00 0. -1.
</event>
<event>
 4    1  0.9856522E-003  0.9118800E+02  0.7818608E-02  0.1130116E+00
         25   -1    0    0    0    0  0.00000000000E+00  0.00000000000E+00  0.99999998245E-14  0.12500000000E+03  0.12500000000E+03 0.  0.
        -13    1    1    0    0    0 -0.14038485144E+02  0.16199288539E+02  0.39990617141E+01  0.21805954988E+02  0.10566000000E+00 0.  1.
         13    1    1    0    0    0 -0.10272735542E+02  0.40270811168E+02  0.31740841401E+00  0.41561752126E+02  0.10566000000E+00 0. -1.
         22    1    1    0    0    0  0.24311220686E+02 -0.56470099706E+02 -0.43164701281E+01  0.61632292887E+02  0.00000000000E+00 0. -1.
</event>
<event>
 4    1  0.9856522E-003  0.9118800E+02  0.7818608E-02  0.1130116E+00
         25   -1    0    0    0    0  0.00000000000E+00  0.00000000000E+00  0.99999998245E-14  0.12500000000E+03  0.12500000000E+03 0.  0.
        -13    1    1    0    0    0 -0.21345424546E+02 -0.12210818390E+02  0.45011824838E+02  0.51291390838E+02  0.10566000000E+00 0.  1.
         13    1    1    0    0    0 -0.46089646969E+01 -0.26064655700E+01  0.98790652881E+01  0.11209072814E+02  0.10566000000E+00 0.  1.
         22    1    1    0    0    0  0.25954389243E+02  0.14817283960E+02 -0.54890890126E+02  0.62499536348E+02  0.00000000000E+00 0.  1.
</event>
<event>
 4    1  0.9856522E-003  0.9118800E+02  0.7818608E-02  0.1130116E+00
         25   -1    0    0    0    0  0.00000000000E+00  0.00000000000E+00  0.99999998245E-14  0.12500000000E+03  0.12500000000E+03 0.  0.
        -13    1    1    0    0    0 -0.24332256767E+02  0.28807772644E+01 -0.51372216640E+02  0.56916372017E+02  0.10566000000E+00 0. -1.
         13    1    1    0    0    0 -0.52031134263E+01 -0.26132579364E+00 -0.31006793863E+01  0.60635020565E+01  0.10566000000E+00 0.  1.
         22    1    1    0    0    0  0.29535370193E+02 -0.26194514708E+01  0.54472896026E+02  0.62020125927E+02  0.00000000000E+00 0. -1.
</event>
<event>
 4    1  0.9856522E-003  0.9118800E+02  0.7818608E-02  0.1130116E+00
         25   -1    0    0    0    0  0.00000000000E+00  0.00000000000E+00  0.99999998245E-14  0.12500000000E+03  0.12500000000E+03 0.  0.
        -13    1    1    0    0    0 -0.58564572810E+00 -0.10471037010E+02  0.10307647253E+02  0.14705249161E+02  0.10566000000E+00 0. -1.
         13    1    1    0    0    0  0.42324341955E+02  0.40276666568E+02 -0.31650073387E+01  0.58511436721E+02  0.10566000000E+00 0.  1.
         22    1    1    0    0    0 -0.41738696226E+02 -0.29805629558E+02 -0.71426399141E+01  0.51783314117E+02  0.00000000000E+00 0.  1.
</event>
<event>
 4    1  0.9856522E-003  0.9118800E+02  0.7818608E-02  0.1130116E+00
         25   -1    0    0    0    0  0.00000000000E+00  0.00000000000E+00  0.99999998245E-14  0.12500000000E+03  0.12500000000E+03 0.  0.
        -13    1    1    0    0    0  0.41979152164E+01  0.24478923227E+02  0.26037430203E+02  0.35983317108E+02  0.10566000000E+00 0. -1.
         13    1    1    0    0    0  0.11031522851E+02  0.82053218361E+01  0.23810065902E+02  0.27494585015E+02  0.10566000000E+00 0.  1.
         22    1    1    0    0    0 -0.15229438067E+02 -0.32684245063E+02 -0.49847496105E+02  0.61522097877E+02  0.00000000000E+00 0. -1.
</event>
<event>
 4    1  0.9856522E-003  0.9118800E+02  0.7818608E-02  0.1130116E+00
         25   -1    0    0    0    0  0.00000000000E+00  0.00000000000E+00  0.99999998245E-14  0.12500000000E+03  0.12500000000E+03 0.  0.
        -13    1    1    0    0    0 -0.20458083280E+02 -0.18624909162E+02 -0.10026973347E+02  0.29427398311E+02  0.10566000000E+00 0. -1.
         13    1    1    0    0    0 -0.22391282934E+02 -0.21484729417E+02 -0.11445471010E+02  0.33075264477E+02  0.10566000000E+00 0.  1.
         22    1    1    0    0    0  0.42849366214E+02  0.40109638580E+02  0.21472444357E+02  0.62497337212E+02  0.00000000000E+00 0. -1.
</event>
<event>
 4    1  0.9856522E-003  0.9118800E+02  0.7818608E-02  0.1130116E+00
         25   -1    0    0    0    0  0.00000000000E+00  0.00000000000E+00  0.99999998245E-14  0.12500000000E+03  0.12500000000E+03 0.  0.
        -13    1    1    0    0    0  0.24123019816E+02  0.44530300176E+02  0.55429011796E+01  0.50947057190E+02  0.10566000000E+00 0.  1.
         13    1    1    0    0    0  0.13518497356E+02  0.23158096839E+01 -0.15600336865E+00  0.13716714124E+02  0.10566000000E+00 0. -1.
         22    1    1    0    0    0 -0.37641517173E+02 -0.46846109860E+02 -0.53868978109E+01  0.60336228686E+02  0.00000000000E+00 0.  1.
</event>
<event>
 4    1  0.9856522E-003  0.9118800E+02  0.7818608E-02  0.1130116E+00
         25   -1    0    0    0    0  0.00000000000E+00  0.00000000000E+00  0.99999998245E-14  0.12500000000E+03  0.12500000000E+03 0.  0.
        -13    1    1    0    0    0  0.24512655330E+02  0.15494897760E+02  0.44257648002E+02  0.52912311409E+02  0.10566000000E+00 0. -1.
         13    1    1    0    0    0  0.30182924979E+01  0.54782522353E+01  0.75364356858E+01  0.97944047312E+01  0.10566000000E+00 0.  1.
         22    1    1    0    0    0 -0.27530947828E+02 -0.20973149995E+02 -0.51794083687E+02  0.62293283860E+02  0.00000000000E+00 0. -1.
</event>
<event>
 4    1  0.9856522E-003  0.9118800E+02  0.7818608E-02  0.1130116E+00
         25   -1    0    0    0    0  0.00000000000E+00  0.00000000000E+00  0.99999998245E-14  0.12500000000E+03  0.12500000000E+03 0.  0.
        -13    1    1    0    0    0 -0.20516689524E+02 -0.50085953198E+02  0.19748755848E+02  0.57615638314E+02  0.10566000000E+00 0. -1.
         13    1    1    0    0    0 -0.19556516104E+01 -0.42365250408E+01  0.14568999144E+01  0.48894211353E+01  0.10566000000E+00 0.  1.
         22    1    1    0    0    0  0.22472341134E+02  0.54322478239E+02 -0.21205655763E+02  0.62494940550E+02  0.00000000000E+00 0. -1.
</event>
<event>
 4    1  0.9856522E-003  0.9118800E+02  0.7818608E-02  0.1130116E+00
         25   -1    0    0    0    0  0.00000000000E+00  0.00000000000E+00  0.99999998245E-14  0.12500000000E+03  0.12500000000E+03 0.  0.
        -13    1    1    0    0    0  0.23611454022E+01 -0.20751920495E+02  0.15622595244E+02  0.26082443483E+02  0.10566000000E+00 0. -1.
         13    1    1    0    0    0  0.53590052332E+01 -0.16246870233E+02  0.33096438708E+02  0.37256746350E+02  0.10566000000E+00 0.  1.
         22    1    1    0    0    0 -0.77201506354E+01  0.36998790728E+02 -0.48719033952E+02  0.61660810166E+02  0.00000000000E+00 0.  1.
</event>
<event>
 4    1  0.9856522E-003  0.9118800E+02  0.7818608E-02  0.1130116E+00
         25   -1    0    0    0    0  0.00000000000E+00  0.00000000000E+00  0.99999998245E-14  0.12500000000E+03  0.12500000000E+03 0.  0.
        -13    1    1    0    0    0 -0.44919155017E+01 -0.35391318454E+01 -0.34780346645E+01  0.66940756088E+01  0.10566000000E+00 0.  1.
         13    1    1    0    0    0 -0.40849022452E+02 -0.25794181147E+02 -0.27960223451E+02  0.55819061940E+02  0.10566000000E+00 0. -1.
         22    1    1    0    0    0  0.45340937954E+02  0.29333312992E+02  0.31438258116E+02  0.62486862451E+02  0.00000000000E+00 0. -1.
</event>
<event>
 4    1  0.9856522E-003  0.9118800E+02  0.7818608E-02  0.1130116E+00
         25   -1    0    0    0    0  0.00000000000E+00  0.00000000000E+00  0.99999998245E-14  0.12500000000E+03  0.12500000000E+03 0.  0.
        -13    1    1    0    0    0 -0.17457381429E+02  0.39383231653E+02  0.91403366252E+01  0.44038120072E+02  0.10566000000E+00 0. -1.
         13    1    1    0    0    0 -0.55600756468E+01  0.16889470631E+02  0.51393470169E+01  0.18509260147E+02  0.10566000000E+00 0.  1.
         22    1    1    0    0    0  0.23017457076E+02 -0.56272702284E+02 -0.14279683642E+02  0.62452619781E+02  0.00000000000E+00 0. -1.
</event>
<event>
 4    1  0.9856522E-003  0.9118800E+02  0.7818608E-02  0.1130116E+00
         25   -1    0    0    0    0  0.00000000000E+00  0.00000000000E+00  0.99999998245E-14  0.12500000000E+03  0.12500000000E+03 0.  0.
        -13    1    1    0    0    0  0.85278522504E+01 -0.55302702440E+01  0.31508002386E+01  0.10641750756E+02  0.10566000000E+00 0.  1.
         13    1    1    0    0    0  0.40665695420E+02 -0.30231734688E+02  0.11141768935E+02  0.51882624695E+02  0.10566000000E+00 0. -1.
         22    1    1    0    0    0 -0.49193547671E+02  0.35762004932E+02 -0.14292569174E+02  0.62475624549E+02  0.00000000000E+00 0. -1.
</event>
<event>
 4    1  0.9856522E-003  0.9118800E+02  0.7818608E-02  0.1130116E+00
         25   -1    0    0    0    0  0.00000000000E+00  0.00000000000E+00  0.99999998245E-14  0.12500000000E+03  0.12500000000E+03 0.  0.
        -13    1    1    0    0    0  0.73793948020E+01 -0.35930392729E+01 -0.30482960934E+01  0.87560648678E+01  0.10566000000E+00 0. -1.
         13    1    1    0    0    0  0.50223119582E+02 -0.10533472372E+02 -0.16325768855E+02  0.53850326587E+02  0.10566000000E+00 0.  1.
         22    1    1    0    0    0 -0.57602514384E+02  0.14126511645E+02  0.19374064949E+02  0.62393608545E+02  0.00000000000E+00 0.  1.
</event>
<event>
 4    1  0.9856522E-003  0.9118800E+02  0.7818608E-02  0.1130116E+00
         25   -1    0    0    0    0  0.00000000000E+00  0.00000000000E+00  0.99999998245E-14  0.12500000000E+03  0.12500000000E+03 0.  0.
        -13    1    1    0    0    0  0.14412258164E+02 -0.22094218121E+02 -0.35575233645E+02  0.44288554647E+02  0.10566000000E+00 0. -1.
         13    1    1    0    0    0  0.84995355608E+01 -0.88082069273E+01 -0.13586338834E+02  0.18287328426E+02  0.10566000000E+00 0.  1.
         22    1    1    0    0    0 -0.22911793725E+02  0.30902425048E+02  0.49161572479E+02  0.62424116927E+02  0.00000000000E+00 0. -1.
</event>
<event>
 4    1  0.9856522E-003  0.9118800E+02  0.7818608E-02  0.1130116E+00
         25   -1    0    0    0    0  0.00000000000E+00  0.00000000000E+00  0.99999998245E-14  0.12500000000E+03  0.12500000000E+03 0.  0.
        -13    1    1    0    0    0 -0.16324399904E+02 -0.28449607866E+01 -0.73787512321E+01  0.18139376171E+02  0.10566000000E+00 0.  1.
         13    1    1    0    0    0 -0.34019075835E+02 -0.28786961571E+02 -0.83932171765E+01  0.45348031223E+02  0.10566000000E+00 0. -1.
         22    1    1    0    0    0  0.50343475739E+02  0.31631922358E+02  0.15771968409E+02  0.61512592606E+02  0.00000000000E+00 0. -1.
</event>
<event>
 4    1  0.9856522E-003  0.9118800E+02  0.7818608E-02  0.1130116E+00
         25   -1    0    0    0    0  0.00000000000E+00  0.00000000000E+00  0.99999998245E-14  0.12500000000E+03  0.12500000000E+03 0.  0.
        -13    1    1    0    0    0  0.13392480535E+02 -0.20130809855E+02  0.44075939267E+00  0.24182916970E+02  0.10566000000E+00 0. -1.
         13    1    1    0    0    0  0.21703106199E+02 -0.31579763613E+02  0.14227054311E+00  0.38318894732E+02  0.10566000000E+00 0.  1.
         22    1    1    0    0    0 -0.35095586734E+02  0.51710573468E+02 -0.58302993579E+00  0.62498188298E+02  0.00000000000E+00 0.  1.
</event>
<event>
 4    1  0.9856522E-003  0.9118800E+02  0.7818608E-02  0.1130116E+00
         25   -1    0    0    0    0  0.00000000000E+00  0.00000000000E+00  0.99999998245E-14  0.12500000000E+03  0.12500000000E+03 0.  0.
        -13    1    1    0    0    0  0.11190054770E+01 -0.30462615991E+01 -0.33777971218E+01  0.46853559544E+01  0.10566000000E+00 0. -1.
         13    1    1    0    0    0  0.97282514744E+01 -0.43662568414E+02 -0.36667241759E+02  0.57840786125E+02  0.10566000000E+00 0.  1.
         22    1    1    0    0    0 -0.10847256951E+02  0.46708830013E+02  0.40045038881E+02  0.62473857921E+02  0.00000000000E+00 0.  1.
</event>
<event>
 4    1  0.9856522E-003  0.9118800E+02  0.7818608E-02  0.1130116E+00
         25   -1    0    0    0    0  0.00000000000E+00  0.00000000000E+00  0.99999998245E-14  0.12500000000E+03  0.12500000000E+03 0.  0.
        -13    1    1    0    0    0  0.42604135415E+00  0.60640877394E+00 -0.35421646323E+00  0.82817641537E+00  0.10566000000E+00 0.  1.
         13    1    1    0    0    0  0.30451507386E+02  0.47377462826E+02 -0.25138799247E+02  0.61675673304E+02  0.10566000000E+00 0.  1.
         22    1    1    0    0    0 -0.30877548740E+02 -0.47983871600E+02  0.25493015710E+02  0.62496150281E+02  0.00000000000E+00 0.  1.
</event>
<event>
 4    1  0.9856522E-003  0.9118800E+02  0.7818608E-02  0.1130116E+00
         25   -1    0    0    0    0  0.00000000000E+00  0.00000000000E+00  0.99999998245E-14  0.12500000000E+03  0.12500000000E+03 0.  0.
        -13    1    1    0    0    0  0.24500942524E+02 -0.17427721886E+02  0.41959882873E+02  0.51620389474E+02  0.10566000000E+00 0.  1.
         13    1    1    0    0    0  0.46012830580E+01 -0.31765388435E+01  0.93508431341E+01  0.10895486963E+02  0.10566000000E+00 0. -1.
         22    1    1    0    0    0 -0.29102225582E+02  0.20604260729E+02 -0.51310726007E+02  0.62484123563E+02  0.00000000000E+00 0.  1.
</event>
<event>
 4    1  0.9856522E-003  0.9118800E+02  0.7818608E-02  0.1130116E+00
         25   -1    0    0    0    0  0.00000000000E+00  0.00000000000E+00  0.99999998245E-14  0.12500000000E+03  0.12500000000E+03 0.  0.
        -13    1    1    0    0    0 -0.39680263213E+02 -0.37725751184E+02  0.21049708662E+02  0.58658818517E+02  0.10566000000E+00 0.  1.
         13    1    1    0    0    0  0.16780044186E+02  0.14716207623E+02  0.70495085474E+01  0.23406054441E+02  0.10566000000E+00 0. -1.
         22    1    1    0    0    0  0.22900219027E+02  0.23009543560E+02 -0.28099217209E+02  0.42935127042E+02  0.00000000000E+00 0.  1.
</event>
<event>
 4    1  0.9856522E-003  0.9118800E+02  0.7818608E-02  0.1130116E+00
         25   -1    0    0    0    0  0.00000000000E+00  0.00000000000E+00  0.99999998245E-14  0.12500000000E+03  0.12500000000E+03 0.  0.
        -13    1    1    0    0    0  0.50506797537E+02  0.14466061360E+02  0.18384696159E+02  0.55661582313E+02  0.10566000000E+00 0.  1.
         13    1    1    0    0    0  0.52232710714E+01  0.40959907217E+01  0.23559430502E+01  0.70442410782E+01  0.10566000000E+00 0. -1.
         22    1    1    0    0    0 -0.55730068608E+02 -0.18562052081E+02 -0.20740639210E+02  0.62294176609E+02  0.00000000000E+00 0.  1.
</event>
<event>
 4    1  0.9856522E-003  0.9118800E+02  0.7818608E-02  0.1130116E+00
         25   -1    0    0    0    0  0.00000000000E+00  0.00000000000E+00  0.99999998245E-14  0.12500000000E+03  0.12500000000E+03 0.  0.
        -13    1    1    0    0    0 -0.16177846681E+02 -0.41308060815E+02 -0.12682291695E+02  0.46140332662E+02  0.10566000000E+00 0. -1.
         13    1    1    0    0    0 -0.68194849696E+01 -0.14254212026E+02 -0.42956114712E+01  0.16375328323E+02  0.10566000000E+00 0.  1.
         22    1    1    0    0    0  0.22997331651E+02  0.55562272840E+02  0.16977903166E+02  0.62484339015E+02  0.00000000000E+00 0. -1.
</event>
<event>
 4    1  0.9856522E-003  0.9118800E+02  0.7818608E-02  0.1130116E+00
         25   -1    0    0    0    0  0.00000000000E+00  0.00000000000E+00  0.99999998245E-14  0.12500000000E+03  0.12500000000E+03 0.  0.
        -13    1    1    0    0    0 -0.28064190972E+02 -0.19964609811E+02  0.24374073457E+02  0.42193495716E+02  0.10566000000E+00 0.  1.
         13    1    1    0    0    0 -0.10910617816E+02 -0.13054205759E+02  0.11368385891E+02  0.20462288018E+02  0.10566000000E+00 0. -1.
         22    1    1    0    0    0  0.38974808787E+02  0.33018815570E+02 -0.35742459348E+02  0.62344216267E+02  0.00000000000E+00 0.  1.
</event>
<event>
 4    1  0.9856522E-003  0.9118800E+02  0.7818608E-02  0.1130116E+00
         25   -1    0    0    0    0  0.00000000000E+00  0.00000000000E+00  0.99999998245E-14  0.12500000000E+03  0.12500000000E+03 0.  0.
        -13    1    1    0    0    0 -0.89159985986E+00  0.73455633611E+01 -0.63561672183E+01  0.97552179445E+01  0.10566000000E+00 0. -1.
         13    1    1    0    0    0 -0.40532447345E+01  0.40232022569E+02 -0.33868544437E+02  0.52745937276E+02  0.10566000000E+00 0.  1.
         22    1    1    0    0    0  0.49448445944E+01 -0.47577585930E+02  0.40224711655E+02  0.62498844779E+02  0.00000000000E+00 0.  1.
</event>
<event>
 4    1  0.9856522E-003  0.9118800E+02  0.7818608E-02  0.1130116E+00
         25   -1    0    0    0    0  0.00000000000E+00  0.00000000000E+00  0.99999998245E-14  0.12500000000E+03  0.12500000000E+03 0.  0.
        -13    1    1    0    0    0 -0.73695264980E+01 -0.23026784167E+02  0.88179730969E-01  0.24177709767E+02  0.10566000000E+00 0.  1.
         13    1    1    0    0    0  0.49288389652E+01 -0.37956530811E+02  0.84466399433E+01  0.39196282670E+02  0.10566000000E+00 0. -1.
         22    1    1    0    0    0  0.24406875328E+01  0.60983314978E+02 -0.85348196743E+01  0.61626007563E+02  0.00000000000E+00 0.  1.
</event>
<event>
 4    1  0.9856522E-003  0.9118800E+02  0.7818608E-02  0.1130116E+00
         25   -1    0    0    0    0  0.00000000000E+00  0.00000000000E+00  0.99999998245E-14  0.12500000000E+03  0.12500000000E+03 0.  0.
        -13    1    1    0    0    0  0.16289777590E+01 -0.46619515485E+00  0.13364799033E+02  0.13472190753E+02  0.10566000000E+00 0. -1.
         13    1    1    0    0    0  0.58168027808E+01 -0.88514660489E+00  0.48674372949E+02  0.49028812194E+02  0.10566000000E+00 0.  1.
         22    1    1    0    0    0 -0.74457805399E+01  0.13513417597E+01 -0.62039171982E+02  0.62498997053E+02  0.00000000000E+00 0.  1.
</event>
<event>
 4    1  0.9856522E-003  0.9118800E+02  0.7818608E-02  0.1130116E+00
         25   -1    0    0    0    0  0.00000000000E+00  0.00000000000E+00  0.99999998245E-14  0.12500000000E+03  0.12500000000E+03 0.  0.
        -13    1    1    0    0    0 -0.50917747498E+00 -0.30590263130E+01  0.19071983153E+01  0.36421797229E+01  0.10566000000E+00 0. -1.
         13    1    1    0    0    0 -0.21248911041E+01 -0.53465683580E+02  0.24574972154E+02  0.58881532787E+02  0.10566000000E+00 0.  1.
         22    1    1    0    0    0  0.26340685791E+01  0.56524709893E+02 -0.26482170470E+02  0.62476287490E+02  0.00000000000E+00 0.  1.
</event>
<event>
 4    1  0.9856522E-003  0.9118800E+02  0.7818608E-02  0.1130116E+00
         25   -1    0    0    0    0  0.00000000000E+00  0.00000000000E+00  0.99999998245E-14  0.12500000000E+03  0.12500000000E+03 0.  0.
        -13    1    1    0    0    0 -0.16607289882E+02  0.20223411991E+02  0.58620889447E-01  0.26168742237E+02  0.10566000000E+00 0.  1.
         13    1    1    0    0    0 -0.29159778175E+02 -0.29860242379E+02 -0.21988603860E+02  0.47174533404E+02  0.10566000000E+00 0. -1.
         22    1    1    0    0    0  0.45767068057E+02  0.96368303877E+01  0.21929982971E+02  0.51656724360E+02  0.00000000000E+00 0. -1.
</event>
<event>
 4    1  0.9856522E-003  0.9118800E+02  0.7818608E-02  0.1130116E+00
         25   -1    0    0    0    0  0.00000000000E+00  0.00000000000E+00  0.99999998245E-14  0.12500000000E+03  0.12500000000E+03 0.  0.
        -13    1    1    0    0    0  0.39595921466E+02  0.25124918825E+02 -0.79198590925E+01  0.47558741308E+02  0.10566000000E+00 0.  1.
         13    1    1    0    0    0  0.11342938267E+02  0.10013577478E+02  0.22840235407E+01  0.15302349820E+02  0.10566000000E+00 0. -1.
         22    1    1    0    0    0 -0.50938859733E+02 -0.35138496304E+02  0.56358355519E+01  0.62138908872E+02  0.00000000000E+00 0.  1.
</event>
<event>
 4    1  0.9856522E-003  0.9118800E+02  0.7818608E-02  0.1130116E+00
         25   -1    0    0    0    0  0.00000000000E+00  0.00000000000E+00  0.99999998245E-14  0.12500000000E+03  0.12500000000E+03 0.  0.
        -13    1    1    0    0    0  0.32662806906E+02  0.15281496971E+02 -0.29876720474E+02  0.46829613440E+02  0.10566000000E+00 0. -1.
         13    1    1    0    0    0  0.11273175977E+02  0.52068031566E+01 -0.95645013030E+01  0.15674378614E+02  0.10566000000E+00 0.  1.
         22    1    1    0    0    0 -0.43935982882E+02 -0.20488300127E+02  0.39441221777E+02  0.62496007946E+02  0.00000000000E+00 0. -1.
</event>
<event>
 4    1  0.9856522E-003  0.9118800E+02  0.7818608E-02  0.1130116E+00
         25   -1    0    0    0    0  0.00000000000E+00  0.00000000000E+00  0.99999998245E-14  0.12500000000E+03  0.12500000000E+03 0.  0.
        -13    1    1    0    0    0 -0.19566971996E+02  0.32101356833E+00  0.63404862653E+01  0.20571396961E+02  0.10566000000E+00 0.  1.
         13    1    1    0    0    0 -0.39693018143E+02  0.45120424537E+00  0.13503418446E+02  0.41929616601E+02  0.10566000000E+00 0. -1.
         22    1    1    0    0    0  0.59259990139E+02 -0.77221781371E+00 -0.19843904712E+02  0.62498986438E+02  0.00000000000E+00 0. -1.
</event>
<event>
 4    1  0.9856522E-003  0.9118800E+02  0.7818608E-02  0.1130116E+00
         25   -1    0    0    0    0  0.00000000000E+00  0.00000000000E+00  0.99999998245E-14  0.12500000000E+03  0.12500000000E+03 0.  0.
        -13    1    1    0    0    0 -0.94235166642E+01 -0.26070837268E+01 -0.34293249390E+01  0.10361997175E+02  0.10566000000E+00 0. -1.
         13    1    1    0    0    0 -0.47387768462E+02 -0.13139891245E+02 -0.17324462619E+02  0.52138330534E+02  0.10566000000E+00 0. -1.
         22    1    1    0    0    0  0.56811285127E+02  0.15746974972E+02  0.20753787558E+02  0.62499672291E+02  0.00000000000E+00 0. -1.
</event>
<event>
 4    1  0.9856522E-003  0.9118800E+02  0.7818608E-02  0.1130116E+00
         25   -1    0    0    0    0  0.00000000000E+00  0.00000000000E+00  0.99999998245E-14  0.12500000000E+03  0.12500000000E+03 0.  0.
        -13    1    1    0    0    0 -0.16520927703E+02  0.42715612931E+02  0.17294543997E+02  0.48955868457E+02  0.10566000000E+00 0.  1.
         13    1    1    0    0    0 -0.46483711898E+01  0.11788695753E+02  0.47813656218E+01  0.13544494214E+02  0.10566000000E+00 0.  1.
         22    1    1    0    0    0  0.21169298893E+02 -0.54504308684E+02 -0.22075909619E+02  0.62499637329E+02  0.00000000000E+00 0.  1.
</event>
<event>
 4    1  0.9856522E-003  0.9118800E+02  0.7818608E-02  0.1130116E+00
         25   -1    0    0    0    0  0.00000000000E+00  0.00000000000E+00  0.99999998245E-14  0.12500000000E+03  0.12500000000E+03 0.  0.
        -13    1    1    0    0    0  0.14617497213E+01 -0.51364175822E+01 -0.91623207743E+01  0.10605601531E+02  0.10566000000E+00 0.  1.
         13    1    1    0    0    0  0.77021961762E+01 -0.24984125888E+02 -0.44827976447E+02  0.51894980573E+02  0.10566000000E+00 0.  1.
         22    1    1    0    0    0 -0.91639458975E+01  0.30120543470E+02  0.53990297221E+02  0.62499417896E+02  0.00000000000E+00 0.  1.
</event>
<event>
 4    1  0.9856522E-003  0.9118800E+02  0.7818608E-02  0.1130116E+00
         25   -1    0    0    0    0  0.00000000000E+00  0.00000000000E+00  0.99999998245E-14  0.12500000000E+03  0.12500000000E+03 0.  0.
        -13    1    1    0    0    0 -0.59276603142E+00 -0.13128376886E+02  0.35296583979E+01  0.13607913274E+02  0.10566000000E+00 0. -1.
         13    1    1    0    0    0 -0.10037055845E+01 -0.47276787606E+02  0.12429592580E+02  0.48893844265E+02  0.10566000000E+00 0.  1.
         22    1    1    0    0    0  0.15964716160E+01  0.60405164492E+02 -0.15959250978E+02  0.62498242461E+02  0.00000000000E+00 0.  1.
</event>
<event>
 4    1  0.9856522E-003  0.9118800E+02  0.7818608E-02  0.1130116E+00
         25   -1    0    0    0    0  0.00000000000E+00  0.00000000000E+00  0.99999998245E-14  0.12500000000E+03  0.12500000000E+03 0.  0.
        -13    1    1    0    0    0 -0.32640580170E+02 -0.15613116093E+02 -0.39847614637E+02  0.53823976296E+02  0.10566000000E+00 0.  1.
         13    1    1    0    0    0 -0.50708130304E+01 -0.26710661618E+01 -0.65154075766E+01  0.86781011261E+01  0.10566000000E+00 0. -1.
         22    1    1    0    0    0  0.37711393201E+02  0.18284182255E+02  0.46363022213E+02  0.62497922578E+02  0.00000000000E+00 0.  1.
</event>
<event>
 4    1  0.9856522E-003  0.9118800E+02  0.7818608E-02  0.1130116E+00
         25   -1    0    0    0    0  0.00000000000E+00  0.00000000000E+00  0.99999998245E-14  0.12500000000E+03  0.12500000000E+03 0.  0.
        -13    1    1    0    0    0  0.11102377485E+02  0.32384456301E+02 -0.50986946340E+02  0.61414132387E+02  0.10566000000E+00 0. -1.
         13    1    1    0    0    0 -0.19132064396E+01 -0.20066586572E+01 -0.76439847642E+00  0.28779344873E+01  0.10566000000E+00 0.  1.
         22    1    1    0    0    0 -0.91891710455E+01 -0.30377797643E+02  0.51751344816E+02  0.60707933126E+02  0.00000000000E+00 0. -1.
</event>
<event>
 4    1  0.9856522E-003  0.9118800E+02  0.7818608E-02  0.1130116E+00
         25   -1    0    0    0    0  0.00000000000E+00  0.00000000000E+00  0.99999998245E-14  0.12500000000E+03  0.12500000000E+03 0.  0.
        -13    1    1    0    0    0 -0.49772310189E+01 -0.15938741125E+02 -0.52982618609E+01  0.17518534187E+02  0.10566000000E+00 0.  1.
         13    1    1    0    0    0  0.33358519381E+02 -0.30806320013E+02 -0.16915250341E+02  0.48455722326E+02  0.10566000000E+00 0. -1.
         22    1    1    0    0    0 -0.28381288362E+02  0.46745061138E+02  0.22213512202E+02  0.59025743487E+02  0.00000000000E+00 0. -1.
</event>
<event>
 4    1  0.9856522E-003  0.9118800E+02  0.7818608E-02  0.1130116E+00
         25   -1    0    0    0    0  0.00000000000E+00  0.00000000000E+00  0.99999998245E-14  0.12500000000E+03  0.12500000000E+03 0.  0.
        -13    1    1    0    0    0  0.10490967108E+01 -0.41903324750E+00  0.80277735327E+00  0.13898950629E+01  0.10566000000E+00 0. -1.
         13    1    1    0    0    0  0.50276079376E+02  0.35090169321E+02  0.43031827183E+01  0.61461635887E+02  0.10566000000E+00 0.  1.
         22    1    1    0    0    0 -0.51325176087E+02 -0.34671136074E+02 -0.51059600716E+01  0.62148469050E+02  0.00000000000E+00 0.  1.
</event>
<event>
 4    1  0.9856522E-003  0.9118800E+02  0.7818608E-02  0.1130116E+00
         25   -1    0    0    0    0  0.00000000000E+00  0.00000000000E+00  0.99999998245E-14  0.12500000000E+03  0.12500000000E+03 0.  0.
        -13    1    1    0    0    0 -0.41212625969E+02 -0.17332487790E+02 -0.35966982538E+02  0.57380577455E+02  0.10566000000E+00 0.  1.
         13    1    1    0    0    0 -0.26830064493E+01 -0.40605743414E+01 -0.24853640317E+01  0.54658014961E+01  0.10566000000E+00 0. -1.
         22    1    1    0    0    0  0.43895632418E+02  0.21393062132E+02  0.38452346569E+02  0.62153621048E+02  0.00000000000E+00 0.  1.
</event>
<event>
 4    1  0.9856522E-003  0.9118800E+02  0.7818608E-02  0.1130116E+00
         25   -1    0    0    0    0  0.00000000000E+00  0.00000000000E+00  0.99999998245E-14  0.12500000000E+03  0.12500000000E+03 0.  0.
        -13    1    1    0    0    0  0.92549058827E+00  0.92994448747E+00  0.48371770538E+01  0.50130604887E+01  0.10566000000E+00 0.  1.
         13    1    1    0    0    0  0.89897367711E+01  0.13770276291E+02  0.55089647076E+02  0.57491879908E+02  0.10566000000E+00 0. -1.
         22    1    1    0    0    0 -0.99152273594E+01 -0.14700220778E+02 -0.59926824130E+02  0.62495059603E+02  0.00000000000E+00 0. -1.
</event>
<event>
 4    1  0.9856522E-003  0.9118800E+02  0.7818608E-02  0.1130116E+00
         25   -1    0    0    0    0  0.00000000000E+00  0.00000000000E+00  0.99999998245E-14  0.12500000000E+03  0.12500000000E+03 0.  0.
        -13    1    1    0    0    0  0.23729908605E+02 -0.22164736673E+02 -0.49687010373E+02  0.59356501565E+02  0.10566000000E+00 0.  1.
         13    1    1    0    0    0  0.13173937779E+01 -0.92771261207E+00 -0.27042880945E+01  0.31496849351E+01  0.10566000000E+00 0. -1.
         22    1    1    0    0    0 -0.25047302383E+02  0.23092449285E+02  0.52391298468E+02  0.62493813500E+02  0.00000000000E+00 0.  1.
</event>
<event>
 4    1  0.9856522E-003  0.9118800E+02  0.7818608E-02  0.1130116E+00
         25   -1    0    0    0    0  0.00000000000E+00  0.00000000000E+00  0.99999998245E-14  0.12500000000E+03  0.12500000000E+03 0.  0.
        -13    1    1    0    0    0  0.95204953901E+00  0.49475090446E+00  0.88540176628E-01  0.10817486680E+01  0.10566000000E+00 0.  1.
         13    1    1    0    0    0  0.20350705775E+02  0.33741846833E+02  0.47387012722E+02  0.61629567515E+02  0.10566000000E+00 0. -1.
         22    1    1    0    0    0 -0.21302755314E+02 -0.34236597738E+02 -0.47475552899E+02  0.62288683817E+02  0.00000000000E+00 0. -1.
</event>
<event>
 4    1  0.9856522E-003  0.9118800E+02  0.7818608E-02  0.1130116E+00
         25   -1    0    0    0    0  0.00000000000E+00  0.00000000000E+00  0.99999998245E-14  0.12500000000E+03  0.12500000000E+03 0.  0.
        -13    1    1    0    0    0  0.99492964063E+01  0.25139616709E+02  0.11360172275E+02  0.29326668842E+02  0.10566000000E+00 0. -1.
         13    1    1    0    0    0  0.40271690949E+02 -0.16860505255E+02 -0.67007996417E+00  0.43664011502E+02  0.10566000000E+00 0.  1.
         22    1    1    0    0    0 -0.50220987355E+02 -0.82791114542E+01 -0.10690092311E+02  0.52009319655E+02  0.00000000000E+00 0.  1.
</event>
<event>
 4    1  0.9856522E-003  0.9118800E+02  0.7818608E-02  0.1130116E+00
         25   -1    0    0    0    0  0.00000000000E+00  0.00000000000E+00  0.99999998245E-14  0.12500000000E+03  0.12500000000E+03 0.  0.
        -13    1    1    0    0    0  0.11236973422E+02  0.50128893693E+02  0.88019602174E+01  0.52121600343E+02  0.10566000000E+00 0.  1.
         13    1    1    0    0    0  0.76561974584E+00  0.10122516794E+02 -0.50238818514E+01  0.11327050487E+02  0.10566000000E+00 0. -1.
         22    1    1    0    0    0 -0.12002593167E+02 -0.60251410488E+02 -0.37780783660E+01  0.61551349170E+02  0.00000000000E+00 0.  1.
</event>
<event>
 4    1  0.9856522E-003  0.9118800E+02  0.7818608E-02  0.1130116E+00
         25   -1    0    0    0    0  0.00000000000E+00  0.00000000000E+00  0.99999998245E-14  0.12500000000E+03  0.12500000000E+03 0.  0.
        -13    1    1    0    0    0  0.39716023622E+01 -0.25634864147E+01 -0.22583275218E+01  0.52398754902E+01  0.10566000000E+00 0. -1.
         13    1    1    0    0    0  0.44452679522E+02 -0.30499556929E+02 -0.19339446956E+02  0.57273807819E+02  0.10566000000E+00 0.  1.
         22    1    1    0    0    0 -0.48424281884E+02  0.33063043343E+02  0.21597774478E+02  0.62486316690E+02  0.00000000000E+00 0.  1.
</event>
<event>
 4    1  0.9856522E-003  0.9118800E+02  0.7818608E-02  0.1130116E+00
         25   -1    0    0    0    0  0.00000000000E+00  0.00000000000E+00  0.99999998245E-14  0.12500000000E+03  0.12500000000E+03 0.  0.
        -13    1    1    0    0    0 -0.17962511518E+02 -0.10084446456E+02 -0.44577422425E+01  0.21076776563E+02  0.10566000000E+00 0. -1.
         13    1    1    0    0    0 -0.35531443244E+02 -0.19515233594E+02 -0.85202837290E+01  0.41423836134E+02  0.10566000000E+00 0.  1.
         22    1    1    0    0    0  0.53493954762E+02  0.29599680050E+02  0.12978025972E+02  0.62499387303E+02  0.00000000000E+00 0.  1.
</event>
<event>
 4    1  0.9856522E-003  0.9118800E+02  0.7818608E-02  0.1130116E+00
         25   -1    0    0    0    0  0.00000000000E+00  0.00000000000E+00  0.99999998245E-14  0.12500000000E+03  0.12500000000E+03 0.  0.
        -13    1    1    0    0    0  0.16916182500E+02  0.15045774320E+02  0.43397125122E+02  0.48947463551E+02  0.10566000000E+00 0. -1.
         13    1    1    0    0    0 -0.30006352377E+02 -0.23082054986E+02 -0.97916331828E+01  0.39103064967E+02  0.10566000000E+00 0.  1.
         22    1    1    0    0    0  0.13090169878E+02  0.80362806661E+01 -0.33605491939E+02  0.36949471482E+02  0.00000000000E+00 0.  1.
</event>
<event>
 4    1  0.9856522E-003  0.9118800E+02  0.7818608E-02  0.1130116E+00
         25   -1    0    0    0    0  0.00000000000E+00  0.00000000000E+00  0.99999998245E-14  0.12500000000E+03  0.12500000000E+03 0.  0.
        -13    1    1    0    0    0  0.52877245908E+00 -0.11758862053E+01 -0.69773752957E+00  0.14697994343E+01  0.10566000000E+00 0. -1.
         13    1    1    0    0    0  0.29369232411E+02 -0.26968077927E+02 -0.46312947232E+02  0.61112431508E+02  0.10566000000E+00 0.  1.
         22    1    1    0    0    0 -0.29898004870E+02  0.28143964133E+02  0.47010684762E+02  0.62417769057E+02  0.00000000000E+00 0.  1.
</event>
<event>
 4    1  0.9856522E-003  0.9118800E+02  0.7818608E-02  0.1130116E+00
         25   -1    0    0    0    0  0.00000000000E+00  0.00000000000E+00  0.99999998245E-14  0.12500000000E+03  0.12500000000E+03 0.  0.
        -13    1    1    0    0    0  0.10041942795E+02  0.32428039991E+02 -0.47914950017E+02  0.58721988998E+02  0.10566000000E+00 0.  1.
         13    1    1    0    0    0  0.53055840622E+00 -0.66826248254E+01 -0.36852010824E+01  0.76505449369E+01  0.10566000000E+00 0. -1.
         22    1    1    0    0    0 -0.10572501201E+02 -0.25745415166E+02  0.51600151099E+02  0.58627466065E+02  0.00000000000E+00 0.  1.
</event>
<event>
 4    1  0.9856522E-003  0.9118800E+02  0.7818608E-02  0.1130116E+00
         25   -1    0    0    0    0  0.00000000000E+00  0.00000000000E+00  0.99999998245E-14  0.12500000000E+03  0.12500000000E+03 0.  0.
        -13    1    1    0    0    0 -0.55119450022E+01 -0.25914181358E+01  0.44222917095E+01  0.75276034474E+01  0.10566000000E+00 0.  1.
         13    1    1    0    0    0 -0.37588484747E+02 -0.17266658995E+02  0.36228340428E+02  0.54986684866E+02  0.10566000000E+00 0. -1.
         22    1    1    0    0    0  0.43100429749E+02  0.19858077130E+02 -0.40650632137E+02  0.62485711687E+02  0.00000000000E+00 0. -1.
</event>
<event>
 4    1  0.9856522E-003  0.9118800E+02  0.7818608E-02  0.1130116E+00
         25   -1    0    0    0    0  0.00000000000E+00  0.00000000000E+00  0.99999998245E-14  0.12500000000E+03  0.12500000000E+03 0.  0.
        -13    1    1    0    0    0 -0.12832372097E+02  0.21758188630E+01  0.12093025837E+02  0.17766721681E+02  0.10566000000E+00 0.  1.
         13    1    1    0    0    0 -0.18597984014E+02  0.95197324132E+01  0.40087480919E+02  0.45205393540E+02  0.10566000000E+00 0. -1.
         22    1    1    0    0    0  0.31430356111E+02 -0.11695551276E+02 -0.52180506756E+02  0.62027884780E+02  0.00000000000E+00 0. -1.
</event>
<event>
 4    1  0.9856522E-003  0.9118800E+02  0.7818608E-02  0.1130116E+00
         25   -1    0    0    0    0  0.00000000000E+00  0.00000000000E+00  0.99999998245E-14  0.12500000000E+03  0.12500000000E+03 0.  0.
        -13    1    1    0    0    0 -0.11619096026E+02  0.50431134470E+01  0.11167379633E+02  0.16886619485E+02  0.10566000000E+00 0. -1.
         13    1    1    0    0    0 -0.30896148959E+02  0.12056610648E+02  0.31324129849E+02  0.45619580836E+02  0.10566000000E+00 0.  1.
         22    1    1    0    0    0  0.42515244985E+02 -0.17099724095E+02 -0.42491509482E+02  0.62493799679E+02  0.00000000000E+00 0.  1.
</event>
<event>
 4    1  0.9856522E-003  0.9118800E+02  0.7818608E-02  0.1130116E+00
         25   -1    0    0    0    0  0.00000000000E+00  0.00000000000E+00  0.99999998245E-14  0.12500000000E+03  0.12500000000E+03 0.  0.
        -13    1    1    0    0    0  0.11719691359E+00 -0.51241776269E+00  0.35043409039E+00  0.64052725733E+00  0.10566000000E+00 0.  1.
         13    1    1    0    0    0  0.38571890066E+02 -0.28145174416E+02  0.39414317376E+02  0.61914789222E+02  0.10566000000E+00 0. -1.
         22    1    1    0    0    0 -0.38689086979E+02  0.28657592179E+02 -0.39764751466E+02  0.62444683521E+02  0.00000000000E+00 0. -1.
</event>
<event>
 4    1  0.9856522E-003  0.9118800E+02  0.7818608E-02  0.1130116E+00
         25   -1    0    0    0    0  0.00000000000E+00  0.00000000000E+00  0.99999998245E-14  0.12500000000E+03  0.12500000000E+03 0.  0.
        -13    1    1    0    0    0 -0.14310552851E+02 -0.35149623142E+02  0.12901429024E+02  0.40084235864E+02  0.10566000000E+00 0. -1.
         13    1    1    0    0    0 -0.13038505699E+02 -0.17026004003E+02  0.72776768582E+01  0.22646482899E+02  0.10566000000E+00 0.  1.
         22    1    1    0    0    0  0.27349058550E+02  0.52175627145E+02 -0.20179105882E+02  0.62269281237E+02  0.00000000000E+00 0. -1.
</event>
<event>
 4    1  0.9856522E-003  0.9118800E+02  0.7818608E-02  0.1130116E+00
         25   -1    0    0    0    0  0.00000000000E+00  0.00000000000E+00  0.99999998245E-14  0.12500000000E+03  0.12500000000E+03 0.  0.
        -13    1    1    0    0    0  0.25604666359E+02  0.14459448210E+02 -0.32807516793E+02  0.44056996086E+02  0.10566000000E+00 0.  1.
         13    1    1    0    0    0  0.10987267284E+02  0.65266242731E+01 -0.13303907377E+02  0.18447817820E+02  0.10566000000E+00 0. -1.
         22    1    1    0    0    0 -0.36591933643E+02 -0.20986072483E+02  0.46111424170E+02  0.62495186095E+02  0.00000000000E+00 0.  1.
</event>
<event>
 4    1  0.9856522E-003  0.9118800E+02  0.7818608E-02  0.1130116E+00
         25   -1    0    0    0    0  0.00000000000E+00  0.00000000000E+00  0.99999998245E-14  0.12500000000E+03  0.12500000000E+03 0.  0.
        -13    1    1    0    0    0 -0.28805643283E+02 -0.21539795038E+01 -0.24703137670E+02  0.38008694893E+02  0.10566000000E+00 0.  1.
         13    1    1    0    0    0 -0.18159645526E+02  0.94535480072E+00 -0.16460578264E+02  0.24528110856E+02  0.10566000000E+00 0. -1.
         22    1    1    0    0    0  0.46965288810E+02  0.12086247031E+01  0.41163715934E+02  0.62463194252E+02  0.00000000000E+00 0.  1.
</event>
<event>
 4    1  0.9856522E-003  0.9118800E+02  0.7818608E-02  0.1130116E+00
         25   -1    0    0    0    0  0.00000000000E+00  0.00000000000E+00  0.99999998245E-14  0.12500000000E+03  0.12500000000E+03 0.  0.
        -13    1    1    0    0    0  0.29871790148E+02  0.11933526776E+02 -0.44904137209E+02  0.55236994944E+02  0.10566000000E+00 0. -1.
         13    1    1    0    0    0  0.11027860359E+02 -0.31823783703E+01  0.80799087563E+01  0.14036998459E+02  0.10566000000E+00 0.  1.
         22    1    1    0    0    0 -0.40899650507E+02 -0.87511484060E+01  0.36824228453E+02  0.55726006596E+02  0.00000000000E+00 0. -1.
</event>
<event>
 4    1  0.9856522E-003  0.9118800E+02  0.7818608E-02  0.1130116E+00
         25   -1    0    0    0    0  0.00000000000E+00  0.00000000000E+00  0.99999998245E-14  0.12500000000E+03  0.12500000000E+03 0.  0.
        -13    1    1    0    0    0 -0.35497495031E+02 -0.36145074100E+02 -0.94644928954E+01  0.51537620482E+02  0.10566000000E+00 0.  1.
         13    1    1    0    0    0 -0.89418163509E+01 -0.61659320702E+01 -0.19880171728E+01  0.11042561943E+02  0.10566000000E+00 0. -1.
         22    1    1    0    0    0  0.44439311382E+02  0.42311006170E+02  0.11452510068E+02  0.62419817575E+02  0.00000000000E+00 0.  1.
</event>
<event>
 4    1  0.9856522E-003  0.9118800E+02  0.7818608E-02  0.1130116E+00
         25   -1    0    0    0    0  0.00000000000E+00  0.00000000000E+00  0.99999998245E-14  0.12500000000E+03  0.12500000000E+03 0.  0.
        -13    1    1    0    0    0  0.34729340874E+02 -0.29258287928E+02 -0.17618536224E+02  0.48709326753E+02  0.10566000000E+00 0. -1.
         13    1    1    0    0    0 -0.11581545032E+01  0.12612040496E+02 -0.19690775037E+02  0.23412446965E+02  0.10566000000E+00 0.  1.
         22    1    1    0    0    0 -0.33571186371E+02  0.16646247433E+02  0.37309311261E+02  0.52878226282E+02  0.00000000000E+00 0. -1.
</event>
<event>
 4    1  0.9856522E-003  0.9118800E+02  0.7818608E-02  0.1130116E+00
         25   -1    0    0    0    0  0.00000000000E+00  0.00000000000E+00  0.99999998245E-14  0.12500000000E+03  0.12500000000E+03 0.  0.
        -13    1    1    0    0    0  0.21682904557E+02  0.16817467706E+02  0.18834332539E+02  0.33282410013E+02  0.10566000000E+00 0. -1.
         13    1    1    0    0    0  0.15479211062E+02  0.17539668806E+02  0.17668871098E+02  0.29316311617E+02  0.10566000000E+00 0.  1.
         22    1    1    0    0    0 -0.37162115618E+02 -0.34357136512E+02 -0.36503203636E+02  0.62401278370E+02  0.00000000000E+00 0. -1.
</event>
<event>
 4    1  0.9856522E-003  0.9118800E+02  0.7818608E-02  0.1130116E+00
         25   -1    0    0    0    0  0.00000000000E+00  0.00000000000E+00  0.99999998245E-14  0.12500000000E+03  0.12500000000E+03 0.  0.
        -13    1    1    0    0    0 -0.67869846739E+00  0.40568886690E+01 -0.13162483437E+02  0.13790616794E+02  0.10566000000E+00 0. -1.
         13    1    1    0    0    0 -0.52504521300E+01  0.19182541322E+02 -0.44508569991E+02  0.48749985701E+02  0.10566000000E+00 0.  1.
         22    1    1    0    0    0  0.59291505973E+01 -0.23239429991E+02  0.57671053429E+02  0.62459397505E+02  0.00000000000E+00 0.  1.
</event>
<event>
 4    1  0.9856522E-003  0.9118800E+02  0.7818608E-02  0.1130116E+00
         25   -1    0    0    0    0  0.00000000000E+00  0.00000000000E+00  0.99999998245E-14  0.12500000000E+03  0.12500000000E+03 0.  0.
        -13    1    1    0    0    0  0.17985188328E+02 -0.72879543109E+00 -0.23089034631E+02  0.29276489308E+02  0.10566000000E+00 0.  1.
         13    1    1    0    0    0  0.20530759738E+02 -0.96254075442E+00 -0.26103138458E+02  0.33223840559E+02  0.10566000000E+00 0.  1.
         22    1    1    0    0    0 -0.38515948066E+02  0.16913361855E+01  0.49192173089E+02  0.62499670133E+02  0.00000000000E+00 0.  1.
</event>
<event>
 4    1  0.9856522E-003  0.9118800E+02  0.7818608E-02  0.1130116E+00
         25   -1    0    0    0    0  0.00000000000E+00  0.00000000000E+00  0.99999998245E-14  0.12500000000E+03  0.12500000000E+03 0.  0.
        -13    1    1    0    0    0  0.12771974436E+01  0.62144595686E+00 -0.76882234065E+01  0.78190390440E+01  0.10566000000E+00 0. -1.
         13    1    1    0    0    0  0.50522082457E+01  0.78449435773E+00 -0.54457927107E+02  0.54697506601E+02  0.10566000000E+00 0.  1.
         22    1    1    0    0    0 -0.63294056893E+01 -0.14059403146E+01  0.62146150513E+02  0.62483454355E+02  0.00000000000E+00 0.  1.
</event>
<event>
 4    1  0.9856522E-003  0.9118800E+02  0.7818608E-02  0.1130116E+00
         25   -1    0    0    0    0  0.00000000000E+00  0.00000000000E+00  0.99999998245E-14  0.12500000000E+03  0.12500000000E+03 0.  0.
        -13    1    1    0    0    0 -0.27455925051E-01  0.10272161140E+01 -0.74074412765E+01  0.74791227476E+01  0.10566000000E+00 0. -1.
         13    1    1    0    0    0 -0.26361949678E+01  0.32333899820E+02 -0.44917873063E+02  0.55408095853E+02  0.10566000000E+00 0.  1.
         22    1    1    0    0    0  0.26636508928E+01 -0.33361115934E+02  0.52325314340E+02  0.62112781400E+02  0.00000000000E+00 0.  1.
</event>
<event>
 4    1  0.9856522E-003  0.9118800E+02  0.7818608E-02  0.1130116E+00
         25   -1    0    0    0    0  0.00000000000E+00  0.00000000000E+00  0.99999998245E-14  0.12500000000E+03  0.12500000000E+03 0.  0.
        -13    1    1    0    0    0 -0.24083208086E+02 -0.26609195146E+01  0.12942593095E+01  0.24264535346E+02  0.10566000000E+00 0.  1.
         13    1    1    0    0    0 -0.31431089005E+02  0.12669650833E+02  0.21236590836E+02  0.39992966415E+02  0.10566000000E+00 0. -1.
         22    1    1    0    0    0  0.55514297091E+02 -0.10008731318E+02 -0.22530850146E+02  0.60742498239E+02  0.00000000000E+00 0.  1.
</event>
<event>
 4    1  0.9856522E-003  0.9118800E+02  0.7818608E-02  0.1130116E+00
         25   -1    0    0    0    0  0.00000000000E+00  0.00000000000E+00  0.99999998245E-14  0.12500000000E+03  0.12500000000E+03 0.  0.
        -13    1    1    0    0    0 -0.87888785189E+01  0.22503338287E+01 -0.95972938982E+01  0.13207104231E+02  0.10566000000E+00 0. -1.
         13    1    1    0    0    0  0.28758786851E+02 -0.13817437347E+02 -0.43471223669E+02  0.53923537043E+02  0.10566000000E+00 0.  1.
         22    1    1    0    0    0 -0.19969908332E+02  0.11567103518E+02  0.53068517567E+02  0.57869358726E+02  0.00000000000E+00 0.  1.
</event>
<event>
 4    1  0.9856522E-003  0.9118800E+02  0.7818608E-02  0.1130116E+00
         25   -1    0    0    0    0  0.00000000000E+00  0.00000000000E+00  0.99999998245E-14  0.12500000000E+03  0.12500000000E+03 0.  0.
        -13    1    1    0    0    0  0.16268916903E+02 -0.14315894058E+02 -0.19316930207E+02  0.29030629283E+02  0.10566000000E+00 0. -1.
         13    1    1    0    0    0  0.18997777429E+02 -0.16791085890E+02 -0.21849877997E+02  0.33470650504E+02  0.10566000000E+00 0. -1.
         22    1    1    0    0    0 -0.35266694332E+02  0.31106979949E+02  0.41166808204E+02  0.62498720214E+02  0.00000000000E+00 0. -1.
</event>
<event>
 4    1  0.9856522E-003  0.9118800E+02  0.7818608E-02  0.1130116E+00
         25   -1    0    0    0    0  0.00000000000E+00  0.00000000000E+00  0.99999998245E-14  0.12500000000E+03  0.12500000000E+03 0.  0.
        -13    1    1    0    0    0  0.32381648798E+02 -0.98649927568E+01 -0.41406018105E+01  0.34103445696E+02  0.10566000000E+00 0. -1.
         13    1    1    0    0    0  0.27032793590E+02 -0.78618048545E+01 -0.37200680029E+01  0.28397710733E+02  0.10566000000E+00 0.  1.
         22    1    1    0    0    0 -0.59414442388E+02  0.17726797611E+02  0.78606698133E+01  0.62498843571E+02  0.00000000000E+00 0.  1.
</event>
<event>
 4    1  0.9856522E-003  0.9118800E+02  0.7818608E-02  0.1130116E+00
         25   -1    0    0    0    0  0.00000000000E+00  0.00000000000E+00  0.99999998245E-14  0.12500000000E+03  0.12500000000E+03 0.  0.
        -13    1    1    0    0    0  0.32154277723E+02 -0.18337497837E+02  0.13520414205E+02  0.39407793228E+02  0.10566000000E+00 0.  1.
         13    1    1    0    0    0  0.20885634911E+02 -0.10730592572E+02  0.57616789268E+00  0.23488262943E+02  0.10566000000E+00 0. -1.
         22    1    1    0    0    0 -0.53039912634E+02  0.29068090409E+02 -0.14096582098E+02  0.62103943829E+02  0.00000000000E+00 0.  1.
</event>
<event>
 4    1  0.9856522E-003  0.9118800E+02  0.7818608E-02  0.1130116E+00
         25   -1    0    0    0    0  0.00000000000E+00  0.00000000000E+00  0.99999998245E-14  0.12500000000E+03  0.12500000000E+03 0.  0.
        -13    1    1    0    0    0  0.16851202382E+01  0.62731690227E+01  0.24273373016E+02  0.25127675607E+02  0.10566000000E+00 0.  1.
         13    1    1    0    0    0  0.11281268049E+01  0.30049039985E+02  0.24644527378E+02  0.38879060789E+02  0.10566000000E+00 0. -1.
         22    1    1    0    0    0 -0.28132470431E+01 -0.36322209008E+02 -0.48917900394E+02  0.60993263604E+02  0.00000000000E+00 0. -1.
</event>
<event>
 4    1  0.9856522E-003  0.9118800E+02  0.7818608E-02  0.1130116E+00
         25   -1    0    0    0    0  0.00000000000E+00  0.00000000000E+00  0.99999998245E-14  0.12500000000E+03  0.12500000000E+03 0.  0.
        -13    1    1    0    0    0  0.99363947089E+01 -0.17762468094E+02  0.22569435359E+02  0.30391245271E+02  0.10566000000E+00 0. -1.
         13    1    1    0    0    0 -0.20208637702E+02 -0.29101716561E+02  0.97669609668E+01  0.36751920156E+02  0.10566000000E+00 0.  1.
         22    1    1    0    0    0  0.10272242993E+02  0.46864184655E+02 -0.32336396326E+02  0.57856834574E+02  0.00000000000E+00 0. -1.
</event>
<event>
 4    1  0.9856522E-003  0.9118800E+02  0.7818608E-02  0.1130116E+00
         25   -1    0    0    0    0  0.00000000000E+00  0.00000000000E+00  0.99999998245E-14  0.12500000000E+03  0.12500000000E+03 0.  0.
        -13    1    1    0    0    0  0.86069646704E+01  0.31674419847E+02 -0.50692161439E+02  0.60390852858E+02  0.10566000000E+00 0.  1.
         13    1    1    0    0    0  0.44340573250E+00  0.96099162071E+00 -0.18288565929E+01  0.21156545114E+01  0.10566000000E+00 0.  1.
         22    1    1    0    0    0 -0.90503704029E+01 -0.32635411468E+02  0.52521018032E+02  0.62493492631E+02  0.00000000000E+00 0.  1.
</event>
<event>
 4    1  0.9856522E-003  0.9118800E+02  0.7818608E-02  0.1130116E+00
         25   -1    0    0    0    0  0.00000000000E+00  0.00000000000E+00  0.99999998245E-14  0.12500000000E+03  0.12500000000E+03 0.  0.
        -13    1    1    0    0    0 -0.54060891685E+01 -0.31723152189E+01  0.27062889115E+00  0.62748536221E+01  0.10566000000E+00 0.  1.
         13    1    1    0    0    0 -0.28896161720E+02 -0.33072477603E+02  0.36201021243E+02  0.56914866600E+02  0.10566000000E+00 0. -1.
         22    1    1    0    0    0  0.34302250889E+02  0.36244792822E+02 -0.36471650135E+02  0.61810279778E+02  0.00000000000E+00 0. -1.
</event>
<event>
 4    1  0.9856522E-003  0.9118800E+02  0.7818608E-02  0.1130116E+00
         25   -1    0    0    0    0  0.00000000000E+00  0.00000000000E+00  0.99999998245E-14  0.12500000000E+03  0.12500000000E+03 0.  0.
        -13    1    1    0    0    0  0.57009650113E-01  0.69389797523E-01  0.65425411009E+00  0.66878809826E+00  0.10566000000E+00 0. -1.
         13    1    1    0    0    0 -0.40793382297E+01  0.52313378348E+01  0.61482371130E+02  0.61839316132E+02  0.10566000000E+00 0. -1.
         22    1    1    0    0    0  0.40223285795E+01 -0.53007276323E+01 -0.62136625240E+02  0.62491895769E+02  0.00000000000E+00 0. -1.
</event>
<event>
 4    1  0.9856522E-003  0.9118800E+02  0.7818608E-02  0.1130116E+00
         25   -1    0    0    0    0  0.00000000000E+00  0.00000000000E+00  0.99999998245E-14  0.12500000000E+03  0.12500000000E+03 0.  0.
        -13    1    1    0    0    0  0.42769056573E+02 -0.66846371443E+01 -0.16990332354E+02  0.46503323875E+02  0.10566000000E+00 0.  1.
         13    1    1    0    0    0  0.14775527534E+02 -0.77303144696E+00 -0.61547385848E+01  0.16025160299E+02  0.10566000000E+00 0. -1.
         22    1    1    0    0    0 -0.57544584107E+02  0.74576685913E+01  0.23145070939E+02  0.62471515826E+02  0.00000000000E+00 0.  1.
</event>
<event>
 4    1  0.9856522E-003  0.9118800E+02  0.7818608E-02  0.1130116E+00
         25   -1    0    0    0    0  0.00000000000E+00  0.00000000000E+00  0.99999998245E-14  0.12500000000E+03  0.12500000000E+03 0.  0.
        -13    1    1    0    0    0 -0.13511098522E+02 -0.19714197805E+00  0.46909414073E+02  0.48816932933E+02  0.10566000000E+00 0.  1.
         13    1    1    0    0    0 -0.36688937160E+01 -0.12976492435E+00  0.13181530185E+02  0.13683622404E+02  0.10566000000E+00 0. -1.
         22    1    1    0    0    0  0.17179992238E+02  0.32690690240E+00 -0.60090944258E+02  0.62499444664E+02  0.00000000000E+00 0.  1.
</event>
<event>
 4    1  0.9856522E-003  0.9118800E+02  0.7818608E-02  0.1130116E+00
         25   -1    0    0    0    0  0.00000000000E+00  0.00000000000E+00  0.99999998245E-14  0.12500000000E+03  0.12500000000E+03 0.  0.
        -13    1    1    0    0    0 -0.21086339676E+01  0.56519412953E+01 -0.70226459014E+01  0.92584824409E+01  0.10566000000E+00 0. -1.
         13    1    1    0    0    0 -0.11232744826E+02  0.32910021952E+02 -0.40317655618E+02  0.53242545203E+02  0.10566000000E+00 0.  1.
         22    1    1    0    0    0  0.13341378794E+02 -0.38561963247E+02  0.47340301519E+02  0.62498972356E+02  0.00000000000E+00 0.  1.
</event>
<event>
 4    1  0.9856522E-003  0.9118800E+02  0.7818608E-02  0.1130116E+00
         25   -1    0    0    0    0  0.00000000000E+00  0.00000000000E+00  0.99999998245E-14  0.12500000000E+03  0.12500000000E+03 0.  0.
        -13    1    1    0    0    0  0.59602256279E+00 -0.49058576823E+01  0.19975670026E+00  0.49470950333E+01  0.10566000000E+00 0. -1.
         13    1    1    0    0    0  0.12105466527E+01 -0.57512454295E+02 -0.23255944943E+01  0.57572279580E+02  0.10566000000E+00 0.  1.
         22    1    1    0    0    0 -0.18065692155E+01  0.62418311977E+02  0.21258377940E+01  0.62480625387E+02  0.00000000000E+00 0.  1.
</event>
<event>
 4    1  0.9856522E-003  0.9118800E+02  0.7818608E-02  0.1130116E+00
         25   -1    0    0    0    0  0.00000000000E+00  0.00000000000E+00  0.99999998245E-14  0.12500000000E+03  0.12500000000E+03 0.  0.
        -13    1    1    0    0    0 -0.35971488706E+01  0.30391506975E+01  0.17311192198E+00  0.47134964445E+01  0.10566000000E+00 0. -1.
         13    1    1    0    0    0 -0.34936496249E+02  0.44334791575E+02  0.12748682975E+02  0.57867716352E+02  0.10566000000E+00 0.  1.
         22    1    1    0    0    0  0.38533645120E+02 -0.47373942272E+02 -0.12921794897E+02  0.62418787204E+02  0.00000000000E+00 0.  1.
</event>
<event>
 4    1  0.9856522E-003  0.9118800E+02  0.7818608E-02  0.1130116E+00
         25   -1    0    0    0    0  0.00000000000E+00  0.00000000000E+00  0.99999998245E-14  0.12500000000E+03  0.12500000000E+03 0.  0.
        -13    1    1    0    0    0  0.89693499261E+01  0.19308205602E+01 -0.13909114335E+02  0.16662890858E+02  0.10566000000E+00 0. -1.
         13    1    1    0    0    0  0.22117354465E+02  0.45576418506E+01 -0.39904981631E+02  0.45851588748E+02  0.10566000000E+00 0.  1.
         22    1    1    0    0    0 -0.31086704391E+02 -0.64884624107E+01  0.53814095965E+02  0.62485520394E+02  0.00000000000E+00 0.  1.
</event>
<event>
 4    1  0.9856522E-003  0.9118800E+02  0.7818608E-02  0.1130116E+00
         25   -1    0    0    0    0  0.00000000000E+00  0.00000000000E+00  0.99999998245E-14  0.12500000000E+03  0.12500000000E+03 0.  0.
        -13    1    1    0    0    0 -0.23780811535E+02 -0.35865004559E+02 -0.24616636995E+02  0.49576360599E+02  0.10566000000E+00 0.  1.
         13    1    1    0    0    0 -0.51172712862E+01 -0.96252356584E+01 -0.69862728689E+01  0.12948003689E+02  0.10566000000E+00 0. -1.
         22    1    1    0    0    0  0.28898082821E+02  0.45490240217E+02  0.31602909864E+02  0.62475635712E+02  0.00000000000E+00 0.  1.
</event>
<event>
 4    1  0.9856522E-003  0.9118800E+02  0.7818608E-02  0.1130116E+00
         25   -1    0    0    0    0  0.00000000000E+00  0.00000000000E+00  0.99999998245E-14  0.12500000000E+03  0.12500000000E+03 0.  0.
        -13    1    1    0    0    0  0.49386833906E+01  0.26142752132E+02  0.11836232007E+02  0.29119437406E+02  0.10566000000E+00 0. -1.
         13    1    1    0    0    0  0.29871386196E+01  0.28754344829E+02  0.16822832959E+02  0.33447783431E+02  0.10566000000E+00 0.  1.
         22    1    1    0    0    0 -0.79258220101E+01 -0.54897096961E+02 -0.28659064966E+02  0.62432779163E+02  0.00000000000E+00 0. -1.
</event>
<event>
 4    1  0.9856522E-003  0.9118800E+02  0.7818608E-02  0.1130116E+00
         25   -1    0    0    0    0  0.00000000000E+00  0.00000000000E+00  0.99999998245E-14  0.12500000000E+03  0.12500000000E+03 0.  0.
        -13    1    1    0    0    0  0.93676740269E+00 -0.78632116383E+00 -0.10148482695E+01  0.15927696585E+01  0.10566000000E+00 0.  1.
         13    1    1    0    0    0  0.25227633620E+02  0.17564301561E+02 -0.52895207724E+02  0.61178855429E+02  0.10566000000E+00 0. -1.
         22    1    1    0    0    0 -0.26164401022E+02 -0.16777980397E+02  0.53910055993E+02  0.62228374913E+02  0.00000000000E+00 0. -1.
</event>
<event>
 4    1  0.9856522E-003  0.9118800E+02  0.7818608E-02  0.1130116E+00
         25   -1    0    0    0    0  0.00000000000E+00  0.00000000000E+00  0.99999998245E-14  0.12500000000E+03  0.12500000000E+03 0.  0.
        -13    1    1    0    0    0 -0.24388392477E+02  0.64511528008E+01 -0.45951196522E+02  0.52420746713E+02  0.10566000000E+00 0. -1.
         13    1    1    0    0    0 -0.48651715166E+01  0.13994147153E+01 -0.87171106684E+01  0.10081043491E+02  0.10566000000E+00 0.  1.
         22    1    1    0    0    0  0.29253563993E+02 -0.78505675161E+01  0.54668307191E+02  0.62498209796E+02  0.00000000000E+00 0. -1.
</event>
<event>
 4    1  0.9856522E-003  0.9118800E+02  0.7818608E-02  0.1130116E+00
         25   -1    0    0    0    0  0.00000000000E+00  0.00000000000E+00  0.99999998245E-14  0.12500000000E+03  0.12500000000E+03 0.  0.
        -13    1    1    0    0    0 -0.24948508350E+01 -0.13232705285E+02  0.12816531166E+02  0.18590411642E+02  0.10566000000E+00 0. -1.
         13    1    1    0    0    0 -0.10801862888E+02 -0.28169524763E+02  0.31989044851E+02  0.43971724116E+02  0.10566000000E+00 0.  1.
         22    1    1    0    0    0  0.13296713723E+02  0.41402230048E+02 -0.44805576018E+02  0.62437864242E+02  0.00000000000E+00 0. -1.
</event>
<event>
 4    1  0.9856522E-003  0.9118800E+02  0.7818608E-02  0.1130116E+00
         25   -1    0    0    0    0  0.00000000000E+00  0.00000000000E+00  0.99999998245E-14  0.12500000000E+03  0.12500000000E+03 0.  0.
        -13    1    1    0    0    0  0.25254557625E+01 -0.28340717937E+00  0.81200028269E+00  0.26699728337E+01  0.10566000000E+00 0.  1.
         13    1    1    0    0    0  0.57376771597E+02 -0.12604625288E+02  0.11428394145E+02  0.59846385474E+02  0.10566000000E+00 0. -1.
         22    1    1    0    0    0 -0.59902227359E+02  0.12888032467E+02 -0.12240394428E+02  0.62483641693E+02  0.00000000000E+00 0. -1.
</event>
<event>
 4    1  0.9856522E-003  0.9118800E+02  0.7818608E-02  0.1130116E+00
         25   -1    0    0    0    0  0.00000000000E+00  0.00000000000E+00  0.99999998245E-14  0.12500000000E+03  0.12500000000E+03 0.  0.
        -13    1    1    0    0    0 -0.23410167984E+02 -0.76012416300E+01  0.56798526121E+02  0.61902330916E+02  0.10566000000E+00 0. -1.
         13    1    1    0    0    0 -0.19635157345E+00 -0.15579201046E+00  0.54102866894E+00  0.60555854146E+00  0.10566000000E+00 0.  1.
         22    1    1    0    0    0  0.23606519558E+02  0.77570336404E+01 -0.57339554790E+02  0.62492110542E+02  0.00000000000E+00 0. -1.
</event>
<event>
 4    1  0.9856522E-003  0.9118800E+02  0.7818608E-02  0.1130116E+00
         25   -1    0    0    0    0  0.00000000000E+00  0.00000000000E+00  0.99999998245E-14  0.12500000000E+03  0.12500000000E+03 0.  0.
        -13    1    1    0    0    0 -0.31968012765E+02  0.94125293980E+01 -0.12296136460E+02  0.35521200510E+02  0.10566000000E+00 0.  1.
         13    1    1    0    0    0 -0.24162501455E+02  0.78970261727E+01 -0.90472073166E+01  0.26982450282E+02  0.10566000000E+00 0. -1.
         22    1    1    0    0    0  0.56130514221E+02 -0.17309555571E+02  0.21343343777E+02  0.62496349208E+02  0.00000000000E+00 0.  1.
</event>
<event>
 4    1  0.9856522E-003  0.9118800E+02  0.7818608E-02  0.1130116E+00
         25   -1    0    0    0    0  0.00000000000E+00  0.00000000000E+00  0.99999998245E-14  0.12500000000E+03  0.12500000000E+03 0.  0.
        -13    1    1    0    0    0 -0.33074939781E+02  0.37608932126E+02 -0.31764180954E+02  0.59307316352E+02  0.10566000000E+00 0.  1.
         13    1    1    0    0    0 -0.14917523061E+01 -0.19873848302E+01 -0.38626982085E+01  0.45941946946E+01  0.10566000000E+00 0. -1.
         22    1    1    0    0    0  0.34566692087E+02 -0.35621547296E+02  0.35626879162E+02  0.61098488954E+02  0.00000000000E+00 0.  1.
</event>
<event>
 4    1  0.9856522E-003  0.9118800E+02  0.7818608E-02  0.1130116E+00
         25   -1    0    0    0    0  0.00000000000E+00  0.00000000000E+00  0.99999998245E-14  0.12500000000E+03  0.12500000000E+03 0.  0.
        -13    1    1    0    0    0 -0.21444741348E+02  0.13015711108E+02 -0.93143750951E+01  0.26759193085E+02  0.10566000000E+00 0.  1.
         13    1    1    0    0    0 -0.26514293478E+02  0.15865682970E+02 -0.18200439941E+02  0.35860770110E+02  0.10566000000E+00 0. -1.
         22    1    1    0    0    0  0.47959034826E+02 -0.28881394078E+02  0.27514815036E+02  0.62380036805E+02  0.00000000000E+00 0. -1.
</event>
<event>
 4    1  0.9856522E-003  0.9118800E+02  0.7818608E-02  0.1130116E+00
         25   -1    0    0    0    0  0.00000000000E+00  0.00000000000E+00  0.99999998245E-14  0.12500000000E+03  0.12500000000E+03 0.  0.
        -13    1    1    0    0    0 -0.12462405597E+02 -0.16188155543E+02  0.53912669711E+01  0.21129241746E+02  0.10566000000E+00 0. -1.
         13    1    1    0    0    0 -0.23336430528E+02 -0.33915046871E+02 -0.91677887621E+01  0.42176757923E+02  0.10566000000E+00 0.  1.
         22    1    1    0    0    0  0.35798836125E+02  0.50103202414E+02  0.37765217910E+01  0.61694000332E+02  0.00000000000E+00 0.  1.
</event>
<event>
 4    1  0.9856522E-003  0.9118800E+02  0.7818608E-02  0.1130116E+00
         25   -1    0    0    0    0  0.00000000000E+00  0.00000000000E+00  0.99999998245E-14  0.12500000000E+03  0.12500000000E+03 0.  0.
        -13    1    1    0    0    0  0.16783673847E+01  0.16994478177E+01  0.38547662456E+00  0.24217341362E+01  0.10566000000E+00 0.  1.
         13    1    1    0    0    0  0.30355993415E+02  0.51699080130E+02  0.44701509150E+01  0.60118837611E+02  0.10566000000E+00 0. -1.
         22    1    1    0    0    0 -0.32034360800E+02 -0.53398527947E+02 -0.48556275395E+01  0.62459428252E+02  0.00000000000E+00 0. -1.
</event>
<event>
 4    1  0.9856522E-003  0.9118800E+02  0.7818608E-02  0.1130116E+00
         25   -1    0    0    0    0  0.00000000000E+00  0.00000000000E+00  0.99999998245E-14  0.12500000000E+03  0.12500000000E+03 0.  0.
        -13    1    1    0    0    0 -0.40632184207E+02  0.44938459344E+02 -0.38748946358E+01  0.60708034840E+02  0.10566000000E+00 0.  1.
         13    1    1    0    0    0 -0.46880609095E+00  0.18321409997E+01 -0.13688655835E+00  0.18990581242E+01  0.10566000000E+00 0. -1.
         22    1    1    0    0    0  0.41100990298E+02 -0.46770600344E+02  0.40117811941E+01  0.62392907036E+02  0.00000000000E+00 0.  1.
</event>
<event>
 4    1  0.9856522E-003  0.9118800E+02  0.7818608E-02  0.1130116E+00
         25   -1    0    0    0    0  0.00000000000E+00  0.00000000000E+00  0.99999998245E-14  0.12500000000E+03  0.12500000000E+03 0.  0.
        -13    1    1    0    0    0 -0.51804902770E+02 -0.42696516545E+01  0.21015242618E+02  0.56068078821E+02  0.10566000000E+00 0.  1.
         13    1    1    0    0    0 -0.48968483731E+01 -0.15736014978E+01  0.41618864976E+01  0.66172357459E+01  0.10566000000E+00 0. -1.
         22    1    1    0    0    0  0.56701751143E+02  0.58432531523E+01 -0.25177129116E+02  0.62314685433E+02  0.00000000000E+00 0.  1.
</event>
<event>
 4    1  0.9856522E-003  0.9118800E+02  0.7818608E-02  0.1130116E+00
         25   -1    0    0    0    0  0.00000000000E+00  0.00000000000E+00  0.99999998245E-14  0.12500000000E+03  0.12500000000E+03 0.  0.
        -13    1    1    0    0    0 -0.48286153290E+01  0.12222476784E+01  0.37992498790E+02  0.38317757551E+02  0.10566000000E+00 0.  1.
         13    1    1    0    0    0 -0.65703838048E+01 -0.25779475508E+01  0.23288793893E+02  0.24335053769E+02  0.10566000000E+00 0. -1.
         22    1    1    0    0    0  0.11398999134E+02  0.13556998724E+01 -0.61281292683E+02  0.62347188680E+02  0.00000000000E+00 0.  1.
</event>
<event>
 4    1  0.9856522E-003  0.9118800E+02  0.7818608E-02  0.1130116E+00
         25   -1    0    0    0    0  0.00000000000E+00  0.00000000000E+00  0.99999998245E-14  0.12500000000E+03  0.12500000000E+03 0.  0.
        -13    1    1    0    0    0 -0.49265109676E+01 -0.86293621393E+01  0.19780147208E+00  0.99391493953E+01  0.10566000000E+00 0. -1.
         13    1    1    0    0    0 -0.25160327826E+02 -0.46145430611E+02 -0.75178944186E+00  0.52564429170E+02  0.10566000000E+00 0.  1.
         22    1    1    0    0    0  0.30086838793E+02  0.54774792751E+02  0.55398796978E+00  0.62496421434E+02  0.00000000000E+00 0.  1.
</event>
<event>
 4    1  0.9856522E-003  0.9118800E+02  0.7818608E-02  0.1130116E+00
         25   -1    0    0    0    0  0.00000000000E+00  0.00000000000E+00  0.99999998245E-14  0.12500000000E+03  0.12500000000E+03 0.  0.
        -13    1    1    0    0    0  0.24960970617E+02  0.51057539994E+01  0.31500943134E+01  0.25672028285E+02  0.10566000000E+00 0.  1.
         13    1    1    0    0    0  0.35868527690E+02  0.72248752624E+01  0.41924358509E+01  0.36828491466E+02  0.10566000000E+00 0.  1.
         22    1    1    0    0    0 -0.60829498307E+02 -0.12330629262E+02 -0.73425301643E+01  0.62499480250E+02  0.00000000000E+00 0.  1.
</event>
<event>
 4    1  0.9856522E-003  0.9118800E+02  0.7818608E-02  0.1130116E+00
         25   -1    0    0    0    0  0.00000000000E+00  0.00000000000E+00  0.99999998245E-14  0.12500000000E+03  0.12500000000E+03 0.  0.
        -13    1    1    0    0    0  0.19237420014E+02 -0.12312308178E+02 -0.17995752626E+02  0.29077990612E+02  0.10566000000E+00 0. -1.
         13    1    1    0    0    0  0.22342650486E+02 -0.14042832135E+02 -0.20509964474E+02  0.33422521925E+02  0.10566000000E+00 0.  1.
         22    1    1    0    0    0 -0.41580070499E+02  0.26355140312E+02  0.38505717100E+02  0.62499487462E+02  0.00000000000E+00 0. -1.
</event>
<event>
 4    1  0.9856522E-003  0.9118800E+02  0.7818608E-02  0.1130116E+00
         25   -1    0    0    0    0  0.00000000000E+00  0.00000000000E+00  0.99999998245E-14  0.12500000000E+03  0.12500000000E+03 0.  0.
        -13    1    1    0    0    0 -0.47690366843E+01 -0.16839605925E+02  0.10481755857E+02  0.20400843328E+02  0.10566000000E+00 0. -1.
         13    1    1    0    0    0 -0.56243715365E+01 -0.35453117439E+02  0.22063602569E+02  0.42135149385E+02  0.10566000000E+00 0.  1.
         22    1    1    0    0    0  0.10393408221E+02  0.52292723364E+02 -0.32545358427E+02  0.62464007287E+02  0.00000000000E+00 0.  1.
</event>
<event>
 4    1  0.9856522E-003  0.9118800E+02  0.7818608E-02  0.1130116E+00
         25   -1    0    0    0    0  0.00000000000E+00  0.00000000000E+00  0.99999998245E-14  0.12500000000E+03  0.12500000000E+03 0.  0.
        -13    1    1    0    0    0  0.11050918012E+02 -0.55730179761E+01  0.27585186982E+01  0.12680769208E+02  0.10566000000E+00 0.  1.
         13    1    1    0    0    0  0.41956321222E+02 -0.19782322078E+02  0.18349275166E+02  0.49883666870E+02  0.10566000000E+00 0. -1.
         22    1    1    0    0    0 -0.53007239234E+02  0.25355340054E+02 -0.21107793864E+02  0.62435563922E+02  0.00000000000E+00 0. -1.
</event>
<event>
 4    1  0.9856522E-003  0.9118800E+02  0.7818608E-02  0.1130116E+00
         25   -1    0    0    0    0  0.00000000000E+00  0.00000000000E+00  0.99999998245E-14  0.12500000000E+03  0.12500000000E+03 0.  0.
        -13    1    1    0    0    0 -0.38702021472E+02 -0.14263689409E+02 -0.31742188358E+01  0.41368902945E+02  0.10566000000E+00 0. -1.
         13    1    1    0    0    0 -0.19617791286E+02 -0.72770242310E+01 -0.30671197892E+01  0.21147841602E+02  0.10566000000E+00 0.  1.
         22    1    1    0    0    0  0.58319812758E+02  0.21540713640E+02  0.62413386250E+01  0.62483255453E+02  0.00000000000E+00 0. -1.
</event>
<event>
 4    1  0.9856522E-003  0.9118800E+02  0.7818608E-02  0.1130116E+00
         25   -1    0    0    0    0  0.00000000000E+00  0.00000000000E+00  0.99999998245E-14  0.12500000000E+03  0.12500000000E+03 0.  0.
        -13    1    1    0    0    0  0.68993839382E+01 -0.13155853324E+02  0.27359677744E+02  0.31132637307E+02  0.10566000000E+00 0. -1.
         13    1    1    0    0    0  0.10333470864E+01 -0.10563681965E+02 -0.55333832916E+02  0.56342731670E+02  0.10566000000E+00 0.  1.
         22    1    1    0    0    0 -0.79327310246E+01  0.23719535289E+02  0.27974155171E+02  0.37524631023E+02  0.00000000000E+00 0.  1.
</event>
<event>
 4    1  0.9856522E-003  0.9118800E+02  0.7818608E-02  0.1130116E+00
         25   -1    0    0    0    0  0.00000000000E+00  0.00000000000E+00  0.99999998245E-14  0.12500000000E+03  0.12500000000E+03 0.  0.
        -13    1    1    0    0    0  0.10763413443E+02  0.33345209058E+01 -0.48743453797E+02  0.50029047070E+02  0.10566000000E+00 0. -1.
         13    1    1    0    0    0  0.32310492035E+01  0.67724773851E+00 -0.12031521056E+02  0.12476658464E+02  0.10566000000E+00 0.  1.
         22    1    1    0    0    0 -0.13994462647E+02 -0.40117686443E+01  0.60774974853E+02  0.62494294466E+02  0.00000000000E+00 0. -1.
</event>
<event>
 4    1  0.9856522E-003  0.9118800E+02  0.7818608E-02  0.1130116E+00
         25   -1    0    0    0    0  0.00000000000E+00  0.00000000000E+00  0.99999998245E-14  0.12500000000E+03  0.12500000000E+03 0.  0.
        -13    1    1    0    0    0 -0.10492564546E+02 -0.87229638433E+01  0.60108201353E+01  0.14910571139E+02  0.10566000000E+00 0. -1.
         13    1    1    0    0    0 -0.15385940438E+02  0.11509757033E+02  0.47141103936E+02  0.50906743310E+02  0.10566000000E+00 0.  1.
         22    1    1    0    0    0  0.25878504984E+02 -0.27867931894E+01 -0.53151924071E+02  0.59182685550E+02  0.00000000000E+00 0.  1.
</event>
<event>
 4    1  0.9856522E-003  0.9118800E+02  0.7818608E-02  0.1130116E+00
         25   -1    0    0    0    0  0.00000000000E+00  0.00000000000E+00  0.99999998245E-14  0.12500000000E+03  0.12500000000E+03 0.  0.
        -13    1    1    0    0    0 -0.38684192419E+02  0.17171544517E+02  0.34370767452E+02  0.54522376172E+02  0.10566000000E+00 0.  1.
         13    1    1    0    0    0 -0.61278452699E+01  0.61460580467E+01  0.11047807949E+01  0.87496412387E+01  0.10566000000E+00 0. -1.
         22    1    1    0    0    0  0.44812037689E+02 -0.23317602563E+02 -0.35475548247E+02  0.61727982589E+02  0.00000000000E+00 0.  1.
</event>
<event>
 4    1  0.9856522E-003  0.9118800E+02  0.7818608E-02  0.1130116E+00
         25   -1    0    0    0    0  0.00000000000E+00  0.00000000000E+00  0.99999998245E-14  0.12500000000E+03  0.12500000000E+03 0.  0.
        -13    1    1    0    0    0 -0.30585994020E+02 -0.14032769661E+02 -0.18087805974E+02  0.38204731952E+02  0.10566000000E+00 0. -1.
         13    1    1    0    0    0 -0.22939908555E+02 -0.96983307240E+01 -0.17698357949E+01  0.24968790642E+02  0.10566000000E+00 0.  1.
         22    1    1    0    0    0  0.53525902575E+02  0.23731100385E+02  0.19857641769E+02  0.61826477407E+02  0.00000000000E+00 0.  1.
</event>
<event>
 4    1  0.9856522E-003  0.9118800E+02  0.7818608E-02  0.1130116E+00
         25   -1    0    0    0    0  0.00000000000E+00  0.00000000000E+00  0.99999998245E-14  0.12500000000E+03  0.12500000000E+03 0.  0.
        -13    1    1    0    0    0 -0.39666921203E+02 -0.16966368914E+02  0.50636872987E+01  0.43439318652E+02  0.10566000000E+00 0.  1.
         13    1    1    0    0    0 -0.19156402831E+02  0.11314478335E+02 -0.27896077527E+01  0.22422717607E+02  0.10566000000E+00 0. -1.
         22    1    1    0    0    0  0.58823324035E+02  0.56518905791E+01 -0.22740795461E+01  0.59137963741E+02  0.00000000000E+00 0.  1.
</event>
<event>
 4    1  0.9856522E-003  0.9118800E+02  0.7818608E-02  0.1130116E+00
         25   -1    0    0    0    0  0.00000000000E+00  0.00000000000E+00  0.99999998245E-14  0.12500000000E+03  0.12500000000E+03 0.  0.
        -13    1    1    0    0    0 -0.54617438631E+02  0.23953125761E+02  0.31684928724E+01  0.59723256337E+02  0.10566000000E+00 0. -1.
         13    1    1    0    0    0 -0.29423994287E+01 -0.28801104617E+00 -0.33795346049E+00  0.29775898539E+01  0.10566000000E+00 0.  1.
         22    1    1    0    0    0  0.57559838060E+02 -0.23665114715E+02 -0.28305394119E+01  0.62299153809E+02  0.00000000000E+00 0. -1.
</event>
<event>
 4    1  0.9856522E-003  0.9118800E+02  0.7818608E-02  0.1130116E+00
         25   -1    0    0    0    0  0.00000000000E+00  0.00000000000E+00  0.99999998245E-14  0.12500000000E+03  0.12500000000E+03 0.  0.
        -13    1    1    0    0    0  0.21356775191E+01 -0.71850120430E+01  0.92278012063E+01  0.11889028373E+02  0.10566000000E+00 0. -1.
         13    1    1    0    0    0  0.73733149427E+01 -0.29682187042E+02  0.40330555145E+02  0.50615835894E+02  0.10566000000E+00 0.  1.
         22    1    1    0    0    0 -0.95089924618E+01  0.36867199085E+02 -0.49558356351E+02  0.62495135733E+02  0.00000000000E+00 0.  1.
</event>
<event>
 4    1  0.9856522E-003  0.9118800E+02  0.7818608E-02  0.1130116E+00
         25   -1    0    0    0    0  0.00000000000E+00  0.00000000000E+00  0.99999998245E-14  0.12500000000E+03  0.12500000000E+03 0.  0.
        -13    1    1    0    0    0  0.97545852448E+01  0.31359929626E+02  0.19825296672E+02  0.38362099416E+02  0.10566000000E+00 0. -1.
         13    1    1    0    0    0  0.62289682363E+01  0.19624498913E+02  0.12598651614E+02  0.24138313723E+02  0.10566000000E+00 0. -1.
         22    1    1    0    0    0 -0.15983553481E+02 -0.50984428539E+02 -0.32423948286E+02  0.62499586861E+02  0.00000000000E+00 0. -1.
</event>
<event>
 4    1  0.9856522E-003  0.9118800E+02  0.7818608E-02  0.1130116E+00
         25   -1    0    0    0    0  0.00000000000E+00  0.00000000000E+00  0.99999998245E-14  0.12500000000E+03  0.12500000000E+03 0.  0.
        -13    1    1    0    0    0  0.24880685020E+02  0.82697299015E+01  0.21454419486E+02  0.33878314587E+02  0.10566000000E+00 0. -1.
         13    1    1    0    0    0  0.17028950692E+02  0.10731167623E+02  0.20587334540E+02  0.28792232072E+02  0.10566000000E+00 0.  1.
         22    1    1    0    0    0 -0.41909635712E+02 -0.19000897524E+02 -0.42041754026E+02  0.62329453341E+02  0.00000000000E+00 0. -1.
</event>
<event>
 4    1  0.9856522E-003  0.9118800E+02  0.7818608E-02  0.1130116E+00
         25   -1    0    0    0    0  0.00000000000E+00  0.00000000000E+00  0.99999998245E-14  0.12500000000E+03  0.12500000000E+03 0.  0.
        -13    1    1    0    0    0 -0.30150753705E+02  0.21461629730E+01 -0.16538015818E+02  0.34455639534E+02  0.10566000000E+00 0. -1.
         13    1    1    0    0    0 -0.20450556492E+02  0.67445248181E+01 -0.18473531601E+02  0.28372458647E+02  0.10566000000E+00 0.  1.
         22    1    1    0    0    0  0.50601310197E+02 -0.88906877911E+01  0.35011547419E+02  0.62171901818E+02  0.00000000000E+00 0.  1.
</event>
<event>
 4    1  0.9856522E-003  0.9118800E+02  0.7818608E-02  0.1130116E+00
         25   -1    0    0    0    0  0.00000000000E+00  0.00000000000E+00  0.99999998245E-14  0.12500000000E+03  0.12500000000E+03 0.  0.
        -13    1    1    0    0    0  0.46253567397E+01  0.11343484238E+02 -0.27548663058E+02  0.30149768821E+02  0.10566000000E+00 0.  1.
         13    1    1    0    0    0  0.19474395424E+02  0.44817959763E+01 -0.26739088218E+02  0.33381560404E+02  0.10566000000E+00 0. -1.
         22    1    1    0    0    0 -0.24099752163E+02 -0.15825280214E+02  0.54287751276E+02  0.61468670775E+02  0.00000000000E+00 0.  1.
</event>
<event>
 4    1  0.9856522E-003  0.9118800E+02  0.7818608E-02  0.1130116E+00
         25   -1    0    0    0    0  0.00000000000E+00  0.00000000000E+00  0.99999998245E-14  0.12500000000E+03  0.12500000000E+03 0.  0.
        -13    1    1    0    0    0 -0.90413716742E+01  0.43262514172E+02 -0.24341863099E+02  0.50457199659E+02  0.10566000000E+00 0. -1.
         13    1    1    0    0    0 -0.19935731508E+01  0.10355996792E+02 -0.58150731759E+01  0.12043556100E+02  0.10566000000E+00 0.  1.
         22    1    1    0    0    0  0.11034944825E+02 -0.53618510964E+02  0.30156936275E+02  0.62499244241E+02  0.00000000000E+00 0. -1.
</event>
<event>
 4    1  0.9856522E-003  0.9118800E+02  0.7818608E-02  0.1130116E+00
         25   -1    0    0    0    0  0.00000000000E+00  0.00000000000E+00  0.99999998245E-14  0.12500000000E+03  0.12500000000E+03 0.  0.
        -13    1    1    0    0    0  0.12865282265E+02 -0.52351172995E+02 -0.29680652328E+02  0.61539524603E+02  0.10566000000E+00 0. -1.
         13    1    1    0    0    0  0.40757660641E+00 -0.94692785745E+00  0.17534400144E-01  0.10364663758E+01  0.10566000000E+00 0.  1.
         22    1    1    0    0    0 -0.13272858871E+02  0.53298100852E+02  0.29663117928E+02  0.62424009021E+02  0.00000000000E+00 0. -1.
</event>
<event>
 4    1  0.9856522E-003  0.9118800E+02  0.7818608E-02  0.1130116E+00
         25   -1    0    0    0    0  0.00000000000E+00  0.00000000000E+00  0.99999998245E-14  0.12500000000E+03  0.12500000000E+03 0.  0.
        -13    1    1    0    0    0  0.15460262591E+02 -0.23161458035E+02 -0.31852251773E+02  0.42308982081E+02  0.10566000000E+00 0. -1.
         13    1    1    0    0    0  0.51920690377E+01 -0.37098788825E+01 -0.19861333148E+02  0.20861555567E+02  0.10566000000E+00 0.  1.
         22    1    1    0    0    0 -0.20652331628E+02  0.26871336918E+02  0.51713584921E+02  0.61829462352E+02  0.00000000000E+00 0.  1.
</event>
<event>
 4    1  0.9856522E-003  0.9118800E+02  0.7818608E-02  0.1130116E+00
         25   -1    0    0    0    0  0.00000000000E+00  0.00000000000E+00  0.99999998245E-14  0.12500000000E+03  0.12500000000E+03 0.  0.
        -13    1    1    0    0    0 -0.16581488330E+01 -0.10675493287E+01  0.11914029981E+01  0.23064527442E+01  0.10566000000E+00 0. -1.
         13    1    1    0    0    0 -0.36040421449E+02 -0.39610618860E+02  0.27554222229E+02  0.60225903326E+02  0.10566000000E+00 0.  1.
         22    1    1    0    0    0  0.37698570282E+02  0.40678168189E+02 -0.28745625227E+02  0.62467643930E+02  0.00000000000E+00 0.  1.
</event>
<event>
 4    1  0.9856522E-003  0.9118800E+02  0.7818608E-02  0.1130116E+00
         25   -1    0    0    0    0  0.00000000000E+00  0.00000000000E+00  0.99999998245E-14  0.12500000000E+03  0.12500000000E+03 0.  0.
        -13    1    1    0    0    0 -0.29610172516E+02  0.37265222924E+02  0.39300118000E+02  0.61724951154E+02  0.10566000000E+00 0. -1.
         13    1    1    0    0    0 -0.40815109205E+00  0.42326050330E+00  0.50112834640E+00  0.77976305553E+00  0.10566000000E+00 0. -1.
         22    1    1    0    0    0  0.30018323608E+02 -0.37688483428E+02 -0.39801246347E+02  0.62495285791E+02  0.00000000000E+00 0. -1.
</event>
<event>
 4    1  0.9856522E-003  0.9118800E+02  0.7818608E-02  0.1130116E+00
         25   -1    0    0    0    0  0.00000000000E+00  0.00000000000E+00  0.99999998245E-14  0.12500000000E+03  0.12500000000E+03 0.  0.
        -13    1    1    0    0    0 -0.42679275223E+01 -0.43572246355E+01 -0.23274854555E+02  0.24060977338E+02  0.10566000000E+00 0. -1.
         13    1    1    0    0    0 -0.70109021688E+01 -0.68596340309E+01 -0.37166700679E+02  0.38439330530E+02  0.10566000000E+00 0. -1.
         22    1    1    0    0    0  0.11278829691E+02  0.11216858666E+02  0.60441555233E+02  0.62499692132E+02  0.00000000000E+00 0. -1.
</event>
<event>
 4    1  0.9856522E-003  0.9118800E+02  0.7818608E-02  0.1130116E+00
         25   -1    0    0    0    0  0.00000000000E+00  0.00000000000E+00  0.99999998245E-14  0.12500000000E+03  0.12500000000E+03 0.  0.
        -13    1    1    0    0    0 -0.27576253971E+01 -0.60032911997E+01  0.61042170295E+01  0.89953672876E+01  0.10566000000E+00 0.  1.
         13    1    1    0    0    0 -0.23208251209E+02 -0.45546537443E+02  0.16942912755E+02  0.53853351371E+02  0.10566000000E+00 0. -1.
         22    1    1    0    0    0  0.25965876606E+02  0.51549828643E+02 -0.23047129784E+02  0.62151281341E+02  0.00000000000E+00 0. -1.
</event>
<event>
 4    1  0.9856522E-003  0.9118800E+02  0.7818608E-02  0.1130116E+00
         25   -1    0    0    0    0  0.00000000000E+00  0.00000000000E+00  0.99999998245E-14  0.12500000000E+03  0.12500000000E+03 0.  0.
        -13    1    1    0    0    0  0.50661715584E+01 -0.43976064508E+01 -0.29719911931E+02  0.30467841506E+02  0.10566000000E+00 0. -1.
         13    1    1    0    0    0  0.51729617857E+01 -0.47556193160E+01 -0.31252104198E+02  0.32032493340E+02  0.10566000000E+00 0. -1.
         22    1    1    0    0    0 -0.10239133344E+02  0.91532257669E+01  0.60972016129E+02  0.62499665155E+02  0.00000000000E+00 0. -1.
</event>
<event>
 4    1  0.9856522E-003  0.9118800E+02  0.7818608E-02  0.1130116E+00
         25   -1    0    0    0    0  0.00000000000E+00  0.00000000000E+00  0.99999998245E-14  0.12500000000E+03  0.12500000000E+03 0.  0.
        -13    1    1    0    0    0  0.28367524075E+02  0.12500615397E+02  0.30478663644E+02  0.43473462123E+02  0.10566000000E+00 0. -1.
         13    1    1    0    0    0  0.10172730053E+02  0.73636217704E+01  0.14411756701E+02  0.19115890185E+02  0.10566000000E+00 0.  1.
         22    1    1    0    0    0 -0.38540254128E+02 -0.19864237168E+02 -0.44890420345E+02  0.62410647692E+02  0.00000000000E+00 0. -1.
</event>
<event>
 4    1  0.9856522E-003  0.9118800E+02  0.7818608E-02  0.1130116E+00
         25   -1    0    0    0    0  0.00000000000E+00  0.00000000000E+00  0.99999998245E-14  0.12500000000E+03  0.12500000000E+03 0.  0.
        -13    1    1    0    0    0  0.46009963735E+01  0.12685877006E+02 -0.98141202630E+01  0.16686184813E+02  0.10566000000E+00 0. -1.
         13    1    1    0    0    0 -0.46031276376E+02 -0.32706805967E+02  0.22178755689E+02  0.60667305275E+02  0.10566000000E+00 0.  1.
         22    1    1    0    0    0  0.41430280003E+02  0.20020928961E+02 -0.12364635426E+02  0.47646509912E+02  0.00000000000E+00 0.  1.
</event>
<event>
 4    1  0.9856522E-003  0.9118800E+02  0.7818608E-02  0.1130116E+00
         25   -1    0    0    0    0  0.00000000000E+00  0.00000000000E+00  0.99999998245E-14  0.12500000000E+03  0.12500000000E+03 0.  0.
        -13    1    1    0    0    0  0.35459418037E+02  0.54963712685E+01 -0.27726823981E+02  0.45347197893E+02  0.10566000000E+00 0. -1.
         13    1    1    0    0    0  0.16566642014E+02 -0.16851949142E+01 -0.58101453805E+01  0.17636962972E+02  0.10566000000E+00 0.  1.
         22    1    1    0    0    0 -0.52026060051E+02 -0.38111763543E+01  0.33536969362E+02  0.62015839135E+02  0.00000000000E+00 0. -1.
</event>
<event>
 4    1  0.9856522E-003  0.9118800E+02  0.7818608E-02  0.1130116E+00
         25   -1    0    0    0    0  0.00000000000E+00  0.00000000000E+00  0.99999998245E-14  0.12500000000E+03  0.12500000000E+03 0.  0.
        -13    1    1    0    0    0 -0.54958988814E+02  0.43551057069E+01  0.26109318264E+01  0.55193165575E+02  0.10566000000E+00 0.  1.
         13    1    1    0    0    0 -0.72732725344E+01 -0.65046816793E+00 -0.14944626966E+01  0.74544070847E+01  0.10566000000E+00 0. -1.
         22    1    1    0    0    0  0.62232261349E+02 -0.37046375389E+01 -0.11164691298E+01  0.62352427340E+02  0.00000000000E+00 0.  1.
</event>
<event>
 4    1  0.9856522E-003  0.9118800E+02  0.7818608E-02  0.1130116E+00
         25   -1    0    0    0    0  0.00000000000E+00  0.00000000000E+00  0.99999998245E-14  0.12500000000E+03  0.12500000000E+03 0.  0.
        -13    1    1    0    0    0 -0.27569143328E+01 -0.25333911831E+01  0.35432676883E+01  0.51560214770E+01  0.10566000000E+00 0. -1.
         13    1    1    0    0    0 -0.32566643417E+02 -0.29889106654E+02  0.36538386982E+02  0.57349889689E+02  0.10566000000E+00 0.  1.
         22    1    1    0    0    0  0.35323557749E+02  0.32422497837E+02 -0.40081654671E+02  0.62494088834E+02  0.00000000000E+00 0.  1.
</event>
<event>
 4    1  0.9856522E-003  0.9118800E+02  0.7818608E-02  0.1130116E+00
         25   -1    0    0    0    0  0.00000000000E+00  0.00000000000E+00  0.99999998245E-14  0.12500000000E+03  0.12500000000E+03 0.  0.
        -13    1    1    0    0    0  0.14312361113E+02 -0.51827711619E+01  0.15046465319E+02  0.21403552980E+02  0.10566000000E+00 0.  1.
         13    1    1    0    0    0  0.36136419807E+02  0.49066360408E+01  0.20543695471E+02  0.41856546696E+02  0.10566000000E+00 0. -1.
         22    1    1    0    0    0 -0.50448780920E+02  0.27613512108E+00 -0.35590160790E+02  0.61739900323E+02  0.00000000000E+00 0.  1.
</event>
<event>
 4    1  0.9856522E-003  0.9118800E+02  0.7818608E-02  0.1130116E+00
         25   -1    0    0    0    0  0.00000000000E+00  0.00000000000E+00  0.99999998245E-14  0.12500000000E+03  0.12500000000E+03 0.  0.
        -13    1    1    0    0    0 -0.18281644698E+02 -0.28161510642E+02 -0.17113776182E+01  0.33618881479E+02  0.10566000000E+00 0.  1.
         13    1    1    0    0    0 -0.20516750541E+02 -0.20361157955E+02 -0.30829870470E+01  0.29069395921E+02  0.10566000000E+00 0. -1.
         22    1    1    0    0    0  0.38798395239E+02  0.48522668597E+02  0.47943646652E+01  0.62311722600E+02  0.00000000000E+00 0.  1.
</event>
<event>
 4    1  0.9856522E-003  0.9118800E+02  0.7818608E-02  0.1130116E+00
         25   -1    0    0    0    0  0.00000000000E+00  0.00000000000E+00  0.99999998245E-14  0.12500000000E+03  0.12500000000E+03 0.  0.
        -13    1    1    0    0    0 -0.31003549278E+02 -0.34149956442E+02 -0.11910149004E+02  0.47637195616E+02  0.10566000000E+00 0.  1.
         13    1    1    0    0    0 -0.84328130900E+01 -0.11267733157E+02 -0.49089653306E+01  0.14905812684E+02  0.10566000000E+00 0. -1.
         22    1    1    0    0    0  0.39436362368E+02  0.45417689599E+02  0.16819114335E+02  0.62456991701E+02  0.00000000000E+00 0.  1.
</event>
<event>
 4    1  0.9856522E-003  0.9118800E+02  0.7818608E-02  0.1130116E+00
         25   -1    0    0    0    0  0.00000000000E+00  0.00000000000E+00  0.99999998245E-14  0.12500000000E+03  0.12500000000E+03 0.  0.
        -13    1    1    0    0    0  0.90297977630E+00  0.81077117010E+01 -0.18301036146E+00  0.81605770832E+01  0.10566000000E+00 0.  1.
         13    1    1    0    0    0 -0.55612630079E+00  0.43026690387E+02 -0.34414234796E+02  0.55099510731E+02  0.10566000000E+00 0. -1.
         22    1    1    0    0    0 -0.34685347551E+00 -0.51134402088E+02  0.34597245157E+02  0.61739912186E+02  0.00000000000E+00 0. -1.
</event>
<event>
 4    1  0.9856522E-003  0.9118800E+02  0.7818608E-02  0.1130116E+00
         25   -1    0    0    0    0  0.00000000000E+00  0.00000000000E+00  0.99999998245E-14  0.12500000000E+03  0.12500000000E+03 0.  0.
        -13    1    1    0    0    0  0.25634678024E+02 -0.28390442306E+02 -0.32416499782E+02  0.50139750237E+02  0.10566000000E+00 0.  1.
         13    1    1    0    0    0  0.11148452330E+02 -0.46203157839E+01 -0.48033829738E+01  0.12989186246E+02  0.10566000000E+00 0. -1.
         22    1    1    0    0    0 -0.36783130354E+02  0.33010758089E+02  0.37219882756E+02  0.61871063517E+02  0.00000000000E+00 0.  1.
</event>
<event>
 4    1  0.9856522E-003  0.9118800E+02  0.7818608E-02  0.1130116E+00
         25   -1    0    0    0    0  0.00000000000E+00  0.00000000000E+00  0.99999998245E-14  0.12500000000E+03  0.12500000000E+03 0.  0.
        -13    1    1    0    0    0 -0.47808426512E+01  0.24119945320E+01 -0.35854333259E+01  0.64452052138E+01  0.10566000000E+00 0. -1.
         13    1    1    0    0    0 -0.37770417674E+02  0.21356140882E+02 -0.35513611130E+02  0.56070642445E+02  0.10566000000E+00 0.  1.
         22    1    1    0    0    0  0.42551260326E+02 -0.23768135414E+02  0.39099044456E+02  0.62484152341E+02  0.00000000000E+00 0.  1.
</event>
<event>
 4    1  0.9856522E-003  0.9118800E+02  0.7818608E-02  0.1130116E+00
         25   -1    0    0    0    0  0.00000000000E+00  0.00000000000E+00  0.99999998245E-14  0.12500000000E+03  0.12500000000E+03 0.  0.
        -13    1    1    0    0    0 -0.99686288841E+01  0.28791480387E+02  0.15388990119E+02  0.34134368100E+02  0.10566000000E+00 0. -1.
         13    1    1    0    0    0 -0.94414828670E+01  0.22363269240E+02  0.14745520445E+02  0.28402446146E+02  0.10566000000E+00 0.  1.
         22    1    1    0    0    0  0.19410111751E+02 -0.51154749627E+02 -0.30134510564E+02  0.62463185754E+02  0.00000000000E+00 0. -1.
</event>
<event>
 4    1  0.9856522E-003  0.9118800E+02  0.7818608E-02  0.1130116E+00
         25   -1    0    0    0    0  0.00000000000E+00  0.00000000000E+00  0.99999998245E-14  0.12500000000E+03  0.12500000000E+03 0.  0.
        -13    1    1    0    0    0  0.22389173192E+02  0.48036513684E+02 -0.14178244944E+01  0.53017007775E+02  0.10566000000E+00 0.  1.
         13    1    1    0    0    0  0.40546442415E+01  0.85700926968E+01 -0.19642065346E+00  0.94834789960E+01  0.10566000000E+00 0.  1.
         22    1    1    0    0    0 -0.26443817434E+02 -0.56606606381E+02  0.16142451479E+01  0.62499513229E+02  0.00000000000E+00 0.  1.
</event>
<event>
 4    1  0.9856522E-003  0.9118800E+02  0.7818608E-02  0.1130116E+00
         25   -1    0    0    0    0  0.00000000000E+00  0.00000000000E+00  0.99999998245E-14  0.12500000000E+03  0.12500000000E+03 0.  0.
        -13    1    1    0    0    0 -0.45566663480E+02  0.22568163949E+02 -0.17601188211E+01  0.50879780140E+02  0.10566000000E+00 0.  1.
         13    1    1    0    0    0 -0.10504024117E+02  0.48583260609E+01 -0.11689034519E+01  0.11632512802E+02  0.10566000000E+00 0. -1.
         22    1    1    0    0    0  0.56070687597E+02 -0.27426490010E+02  0.29290222730E+01  0.62487707058E+02  0.00000000000E+00 0.  1.
</event>
<event>
 4    1  0.9856522E-003  0.9118800E+02  0.7818608E-02  0.1130116E+00
         25   -1    0    0    0    0  0.00000000000E+00  0.00000000000E+00  0.99999998245E-14  0.12500000000E+03  0.12500000000E+03 0.  0.
        -13    1    1    0    0    0  0.10707521947E+01 -0.10860165049E+02 -0.14201636336E+01  0.11005349787E+02  0.10566000000E+00 0.  1.
         13    1    1    0    0    0  0.63787971974E+01 -0.50481780242E+02 -0.79335528759E+01  0.51498073900E+02  0.10566000000E+00 0. -1.
         22    1    1    0    0    0 -0.74495493921E+01  0.61341945292E+02  0.93537165095E+01  0.62496576313E+02  0.00000000000E+00 0. -1.
</event>
<event>
 4    1  0.9856522E-003  0.9118800E+02  0.7818608E-02  0.1130116E+00
         25   -1    0    0    0    0  0.00000000000E+00  0.00000000000E+00  0.99999998245E-14  0.12500000000E+03  0.12500000000E+03 0.  0.
        -13    1    1    0    0    0  0.26280888951E+02 -0.64396577866E+01 -0.14293100067E+02  0.30601604370E+02  0.10566000000E+00 0. -1.
         13    1    1    0    0    0  0.55807337639E+01  0.70116012390E+01 -0.34763533620E+02  0.35900161212E+02  0.10566000000E+00 0.  1.
         22    1    1    0    0    0 -0.31861622715E+02 -0.57194345243E+00  0.49056633687E+02  0.58498234418E+02  0.00000000000E+00 0.  1.
</event>
<event>
 4    1  0.9856522E-003  0.9118800E+02  0.7818608E-02  0.1130116E+00
         25   -1    0    0    0    0  0.00000000000E+00  0.00000000000E+00  0.99999998245E-14  0.12500000000E+03  0.12500000000E+03 0.  0.
        -13    1    1    0    0    0  0.26533891524E+02 -0.74005071005E+01 -0.61673109258E+01  0.28228740546E+02  0.10566000000E+00 0. -1.
         13    1    1    0    0    0  0.28981630200E+02 -0.13925337859E+02 -0.12411573631E+02  0.34466044850E+02  0.10566000000E+00 0.  1.
         22    1    1    0    0    0 -0.55515521724E+02  0.21325844959E+02  0.18578884556E+02  0.62305214604E+02  0.00000000000E+00 0.  1.
</event>
<event>
 4    1  0.9856522E-003  0.9118800E+02  0.7818608E-02  0.1130116E+00
         25   -1    0    0    0    0  0.00000000000E+00  0.00000000000E+00  0.99999998245E-14  0.12500000000E+03  0.12500000000E+03 0.  0.
        -13    1    1    0    0    0 -0.74064653858E+01  0.15480194583E+02 -0.12394514293E+02  0.21169017512E+02  0.10566000000E+00 0. -1.
         13    1    1    0    0    0 -0.13518476872E+02  0.30692542111E+02 -0.24159094534E+02  0.41333453411E+02  0.10566000000E+00 0.  1.
         22    1    1    0    0    0  0.20924942258E+02 -0.46172736695E+02  0.36553608827E+02  0.62497529076E+02  0.00000000000E+00 0.  1.
</event>
<event>
 4    1  0.9856522E-003  0.9118800E+02  0.7818608E-02  0.1130116E+00
         25   -1    0    0    0    0  0.00000000000E+00  0.00000000000E+00  0.99999998245E-14  0.12500000000E+03  0.12500000000E+03 0.  0.
        -13    1    1    0    0    0  0.17476794786E+02 -0.30893203773E+02  0.44274479478E+02  0.56745652631E+02  0.10566000000E+00 0. -1.
         13    1    1    0    0    0  0.17854805286E+01 -0.30058725402E+01  0.45710701492E+01  0.57557846372E+01  0.10566000000E+00 0.  1.
         22    1    1    0    0    0 -0.19262275315E+02  0.33899076314E+02 -0.48845549627E+02  0.62498562732E+02  0.00000000000E+00 0. -1.
</event>
<event>
 4    1  0.9856522E-003  0.9118800E+02  0.7818608E-02  0.1130116E+00
         25   -1    0    0    0    0  0.00000000000E+00  0.00000000000E+00  0.99999998245E-14  0.12500000000E+03  0.12500000000E+03 0.  0.
        -13    1    1    0    0    0  0.67681798970E+01  0.14927729217E+02 -0.49120553176E+01  0.17110955853E+02  0.10566000000E+00 0. -1.
         13    1    1    0    0    0  0.35518225359E+02  0.29241138808E+02  0.78475827512E+01  0.46671021528E+02  0.10566000000E+00 0.  1.
         22    1    1    0    0    0 -0.42286405256E+02 -0.44168868025E+02 -0.29355274335E+01  0.61218022619E+02  0.00000000000E+00 0.  1.
</event>
<event>
 4    1  0.9856522E-003  0.9118800E+02  0.7818608E-02  0.1130116E+00
         25   -1    0    0    0    0  0.00000000000E+00  0.00000000000E+00  0.99999998245E-14  0.12500000000E+03  0.12500000000E+03 0.  0.
        -13    1    1    0    0    0  0.30241735780E+02  0.22192694955E+01 -0.52751918169E+02  0.60846230570E+02  0.10566000000E+00 0.  1.
         13    1    1    0    0    0  0.48950428300E+00  0.59612688076E-01 -0.15979754903E+01  0.16756663805E+01  0.10566000000E+00 0. -1.
         22    1    1    0    0    0 -0.30731240063E+02 -0.22788821835E+01  0.54349893660E+02  0.62478103049E+02  0.00000000000E+00 0.  1.
</event>
<event>
 4    1  0.9856522E-003  0.9118800E+02  0.7818608E-02  0.1130116E+00
         25   -1    0    0    0    0  0.00000000000E+00  0.00000000000E+00  0.99999998245E-14  0.12500000000E+03  0.12500000000E+03 0.  0.
        -13    1    1    0    0    0 -0.11714009655E+02  0.15741637706E+02  0.69361797191E+01  0.20811990126E+02  0.10566000000E+00 0. -1.
         13    1    1    0    0    0 -0.24441959795E+02  0.32267666501E+02  0.10096297938E+02  0.41719996358E+02  0.10566000000E+00 0.  1.
         22    1    1    0    0    0  0.36155969451E+02 -0.48009304207E+02 -0.17032477658E+02  0.62468013515E+02  0.00000000000E+00 0. -1.
</event>
<event>
 4    1  0.9856522E-003  0.9118800E+02  0.7818608E-02  0.1130116E+00
         25   -1    0    0    0    0  0.00000000000E+00  0.00000000000E+00  0.99999998245E-14  0.12500000000E+03  0.12500000000E+03 0.  0.
        -13    1    1    0    0    0  0.38367239176E+02 -0.27821926116E+01 -0.22974759099E+02  0.44806655280E+02  0.10566000000E+00 0. -1.
         13    1    1    0    0    0  0.15047468868E+02 -0.13264725905E+01 -0.92138382236E+01  0.17694401027E+02  0.10566000000E+00 0.  1.
         22    1    1    0    0    0 -0.53414708044E+02  0.41086652021E+01  0.32188597322E+02  0.62498943693E+02  0.00000000000E+00 0. -1.
</event>
<event>
 4    1  0.9856522E-003  0.9118800E+02  0.7818608E-02  0.1130116E+00
         25   -1    0    0    0    0  0.00000000000E+00  0.00000000000E+00  0.99999998245E-14  0.12500000000E+03  0.12500000000E+03 0.  0.
        -13    1    1    0    0    0 -0.70358654820E+01  0.10874998561E+02 -0.25914381896E+02  0.28971284919E+02  0.10566000000E+00 0. -1.
         13    1    1    0    0    0 -0.10698608572E+02  0.11311354566E+02 -0.29726687963E+02  0.33557325709E+02  0.10566000000E+00 0.  1.
         22    1    1    0    0    0  0.17734474054E+02 -0.22186353127E+02  0.55641069858E+02  0.62471389372E+02  0.00000000000E+00 0. -1.
</event>
<event>
 4    1  0.9856522E-003  0.9118800E+02  0.7818608E-02  0.1130116E+00
         25   -1    0    0    0    0  0.00000000000E+00  0.00000000000E+00  0.99999998245E-14  0.12500000000E+03  0.12500000000E+03 0.  0.
        -13    1    1    0    0    0  0.22422393479E+02 -0.20572240318E+02 -0.44565184302E+02  0.53963391451E+02  0.10566000000E+00 0.  1.
         13    1    1    0    0    0  0.78269993829E+01 -0.15281639962E+01 -0.46139501762E+01  0.92139516389E+01  0.10566000000E+00 0. -1.
         22    1    1    0    0    0 -0.30249392862E+02  0.22100404315E+02  0.49179134478E+02  0.61822656910E+02  0.00000000000E+00 0.  1.
</event>
<event>
 4    1  0.9856522E-003  0.9118800E+02  0.7818608E-02  0.1130116E+00
         25   -1    0    0    0    0  0.00000000000E+00  0.00000000000E+00  0.99999998245E-14  0.12500000000E+03  0.12500000000E+03 0.  0.
        -13    1    1    0    0    0 -0.14850829231E+02  0.39214240315E+01 -0.10436552725E+02  0.18570339041E+02  0.10566000000E+00 0.  1.
         13    1    1    0    0    0 -0.42600554825E+02  0.73829376599E+01  0.19050135096E+02  0.47246522106E+02  0.10566000000E+00 0. -1.
         22    1    1    0    0    0  0.57451384056E+02 -0.11304361691E+02 -0.86135823707E+01  0.59183138853E+02  0.00000000000E+00 0. -1.
</event>
<event>
 4    1  0.9856522E-003  0.9118800E+02  0.7818608E-02  0.1130116E+00
         25   -1    0    0    0    0  0.00000000000E+00  0.00000000000E+00  0.99999998245E-14  0.12500000000E+03  0.12500000000E+03 0.  0.
        -13    1    1    0    0    0  0.33034551237E+02 -0.62405258992E+01  0.43159519853E+02  0.54708144338E+02  0.10566000000E+00 0. -1.
         13    1    1    0    0    0 -0.79390193319E+01  0.15124153285E+02  0.26723843480E+01  0.17289327422E+02  0.10566000000E+00 0.  1.
         22    1    1    0    0    0 -0.25095531905E+02 -0.88836273861E+01 -0.45831904201E+02  0.53002528240E+02  0.00000000000E+00 0. -1.
</event>
<event>
 4    1  0.9856522E-003  0.9118800E+02  0.7818608E-02  0.1130116E+00
         25   -1    0    0    0    0  0.00000000000E+00  0.00000000000E+00  0.99999998245E-14  0.12500000000E+03  0.12500000000E+03 0.  0.
        -13    1    1    0    0    0  0.65556841845E+01  0.13861056005E+02 -0.94708388142E+00  0.15362747171E+02  0.10566000000E+00 0.  1.
         13    1    1    0    0    0  0.19163169163E+02  0.43016833804E+02 -0.21152749021E+01  0.47139798417E+02  0.10566000000E+00 0. -1.
         22    1    1    0    0    0 -0.25718853348E+02 -0.56877889809E+02  0.30623587835E+01  0.62497454412E+02  0.00000000000E+00 0. -1.
</event>
<event>
 4    1  0.9856522E-003  0.9118800E+02  0.7818608E-02  0.1130116E+00
         25   -1    0    0    0    0  0.00000000000E+00  0.00000000000E+00  0.99999998245E-14  0.12500000000E+03  0.12500000000E+03 0.  0.
        -13    1    1    0    0    0  0.27128176655E+02 -0.27554347202E+02  0.10252353332E+02  0.40003773963E+02  0.10566000000E+00 0. -1.
         13    1    1    0    0    0  0.14558476945E+02 -0.15571412754E+02  0.72470517471E+01  0.22515529512E+02  0.10566000000E+00 0.  1.
         22    1    1    0    0    0 -0.41686653600E+02  0.43125759957E+02 -0.17499405079E+02  0.62480696526E+02  0.00000000000E+00 0. -1.
</event>
<event>
 4    1  0.9856522E-003  0.9118800E+02  0.7818608E-02  0.1130116E+00
         25   -1    0    0    0    0  0.00000000000E+00  0.00000000000E+00  0.99999998245E-14  0.12500000000E+03  0.12500000000E+03 0.  0.
        -13    1    1    0    0    0  0.58965789942E+01 -0.43444112011E+02 -0.87968068146E+01  0.44716389461E+02  0.10566000000E+00 0.  1.
         13    1    1    0    0    0  0.99949815963E-01 -0.17276726615E+02 -0.44603373794E+01  0.17843795730E+02  0.10566000000E+00 0. -1.
         22    1    1    0    0    0 -0.59965288102E+01  0.60720838626E+02  0.13257144194E+02  0.62439814809E+02  0.00000000000E+00 0.  1.
</event>
<event>
 4    1  0.9856522E-003  0.9118800E+02  0.7818608E-02  0.1130116E+00
         25   -1    0    0    0    0  0.00000000000E+00  0.00000000000E+00  0.99999998245E-14  0.12500000000E+03  0.12500000000E+03 0.  0.
        -13    1    1    0    0    0 -0.59204033919E+02  0.29115825844E+00  0.86765248423E+01  0.59837243025E+02  0.10566000000E+00 0.  1.
         13    1    1    0    0    0 -0.26678680778E+01  0.31238523031E+00 -0.43227507738E-01  0.26885195305E+01  0.10566000000E+00 0. -1.
         22    1    1    0    0    0  0.61871901997E+02 -0.60354348875E+00 -0.86332973346E+01  0.62474237445E+02  0.00000000000E+00 0.  1.
</event>
<event>
 4    1  0.9856522E-003  0.9118800E+02  0.7818608E-02  0.1130116E+00
         25   -1    0    0    0    0  0.00000000000E+00  0.00000000000E+00  0.99999998245E-14  0.12500000000E+03  0.12500000000E+03 0.  0.
        -13    1    1    0    0    0 -0.91351397419E+01 -0.94838091195E+01  0.84838644751E+01  0.15664626838E+02  0.10566000000E+00 0.  1.
         13    1    1    0    0    0 -0.32098460562E+02 -0.31758913146E+02  0.13311797746E+02  0.47076053976E+02  0.10566000000E+00 0. -1.
         22    1    1    0    0    0  0.41233600304E+02  0.41242722265E+02 -0.21795662221E+02  0.62259319186E+02  0.00000000000E+00 0. -1.
</event>
<event>
 4    1  0.9856522E-003  0.9118800E+02  0.7818608E-02  0.1130116E+00
         25   -1    0    0    0    0  0.00000000000E+00  0.00000000000E+00  0.99999998245E-14  0.12500000000E+03  0.12500000000E+03 0.  0.
        -13    1    1    0    0    0 -0.73917213653E+01 -0.21609053077E+01 -0.10380349266E+02  0.12925551107E+02  0.10566000000E+00 0. -1.
         13    1    1    0    0    0 -0.32661686040E+02  0.27575572879E+01 -0.37395386926E+02  0.49727416830E+02  0.10566000000E+00 0.  1.
         22    1    1    0    0    0  0.40053407406E+02 -0.59665198021E+00  0.47775736192E+02  0.62347032063E+02  0.00000000000E+00 0.  1.
</event>
<event>
 4    1  0.9856522E-003  0.9118800E+02  0.7818608E-02  0.1130116E+00
         25   -1    0    0    0    0  0.00000000000E+00  0.00000000000E+00  0.99999998245E-14  0.12500000000E+03  0.12500000000E+03 0.  0.
        -13    1    1    0    0    0 -0.16153653422E+02  0.96278577417E+01  0.25585870621E+02  0.31753489620E+02  0.10566000000E+00 0. -1.
         13    1    1    0    0    0  0.11573460665E+02  0.23831457880E+02  0.22314147703E+02  0.34638356315E+02  0.10566000000E+00 0.  1.
         22    1    1    0    0    0  0.45801927572E+01 -0.33459315622E+02 -0.47900018324E+02  0.58608154066E+02  0.00000000000E+00 0. -1.
</event>
<event>
 4    1  0.9856522E-003  0.9118800E+02  0.7818608E-02  0.1130116E+00
         25   -1    0    0    0    0  0.00000000000E+00  0.00000000000E+00  0.99999998245E-14  0.12500000000E+03  0.12500000000E+03 0.  0.
        -13    1    1    0    0    0  0.40322606401E+02 -0.25928226128E+02 -0.10167863294E+02  0.49005939488E+02  0.10566000000E+00 0.  1.
         13    1    1    0    0    0  0.11571353252E+02 -0.61863052597E+01 -0.32301792374E+01  0.13513393755E+02  0.10566000000E+00 0. -1.
         22    1    1    0    0    0 -0.51893959653E+02  0.32114531387E+02  0.13398042532E+02  0.62480666757E+02  0.00000000000E+00 0.  1.
</event>
<event>
 4    1  0.9856522E-003  0.9118800E+02  0.7818608E-02  0.1130116E+00
         25   -1    0    0    0    0  0.00000000000E+00  0.00000000000E+00  0.99999998245E-14  0.12500000000E+03  0.12500000000E+03 0.  0.
        -13    1    1    0    0    0  0.14104011576E+02 -0.50799090121E+01 -0.29166566342E+02  0.32793724619E+02  0.10566000000E+00 0.  1.
         13    1    1    0    0    0 -0.64860245643E+01  0.60586122194E+01 -0.30644485778E+02  0.31904090166E+02  0.10566000000E+00 0. -1.
         22    1    1    0    0    0 -0.76179870119E+01 -0.97870320733E+00  0.59811052120E+02  0.60302185216E+02  0.00000000000E+00 0.  1.
</event>
<event>
 4    1  0.9856522E-003  0.9118800E+02  0.7818608E-02  0.1130116E+00
         25   -1    0    0    0    0  0.00000000000E+00  0.00000000000E+00  0.99999998245E-14  0.12500000000E+03  0.12500000000E+03 0.  0.
        -13    1    1    0    0    0 -0.70374792886E+01  0.14233309912E+02 -0.50354415055E+02  0.52798593782E+02  0.10566000000E+00 0.  1.
         13    1    1    0    0    0 -0.13073277009E+01  0.30410420395E+01 -0.91235601994E+01  0.97060577554E+01  0.10566000000E+00 0. -1.
         22    1    1    0    0    0  0.83448069895E+01 -0.17274351952E+02  0.59477975255E+02  0.62495348462E+02  0.00000000000E+00 0.  1.
</event>
<event>
 4    1  0.9856522E-003  0.9118800E+02  0.7818608E-02  0.1130116E+00
         25   -1    0    0    0    0  0.00000000000E+00  0.00000000000E+00  0.99999998245E-14  0.12500000000E+03  0.12500000000E+03 0.  0.
        -13    1    1    0    0    0  0.22133067837E+02 -0.13877802358E+02 -0.62852499726E+01  0.26869715693E+02  0.10566000000E+00 0.  1.
         13    1    1    0    0    0  0.28269364623E+02 -0.19674763631E+02 -0.91658596933E+01  0.35640951840E+02  0.10566000000E+00 0. -1.
         22    1    1    0    0    0 -0.50402432460E+02  0.33552565989E+02  0.15451109666E+02  0.62489332467E+02  0.00000000000E+00 0.  1.
</event>
<event>
 4    1  0.9856522E-003  0.9118800E+02  0.7818608E-02  0.1130116E+00
         25   -1    0    0    0    0  0.00000000000E+00  0.00000000000E+00  0.99999998245E-14  0.12500000000E+03  0.12500000000E+03 0.  0.
        -13    1    1    0    0    0 -0.93865262743E+01 -0.12495016958E+01 -0.67700218565E+01  0.11640983204E+02  0.10566000000E+00 0.  1.
         13    1    1    0    0    0 -0.44051357813E+02 -0.27790536972E+02 -0.65122737347E+00  0.52089071132E+02  0.10566000000E+00 0. -1.
         22    1    1    0    0    0  0.53437884087E+02  0.29040038667E+02  0.74212492300E+01  0.61269945664E+02  0.00000000000E+00 0. -1.
</event>
<event>
 4    1  0.9856522E-003  0.9118800E+02  0.7818608E-02  0.1130116E+00
         25   -1    0    0    0    0  0.00000000000E+00  0.00000000000E+00  0.99999998245E-14  0.12500000000E+03  0.12500000000E+03 0.  0.
        -13    1    1    0    0    0 -0.24472606038E+01  0.19203639215E+02  0.44415648748E+01  0.19862213022E+02  0.10566000000E+00 0.  1.
         13    1    1    0    0    0 -0.77609703809E+01  0.39776784297E+02  0.13388641552E+02  0.42681285324E+02  0.10566000000E+00 0. -1.
         22    1    1    0    0    0  0.10208230985E+02 -0.58980423513E+02 -0.17830206427E+02  0.62456501653E+02  0.00000000000E+00 0. -1.
</event>
<event>
 4    1  0.9856522E-003  0.9118800E+02  0.7818608E-02  0.1130116E+00
         25   -1    0    0    0    0  0.00000000000E+00  0.00000000000E+00  0.99999998245E-14  0.12500000000E+03  0.12500000000E+03 0.  0.
        -13    1    1    0    0    0  0.26470002009E+01  0.32615029763E+01 -0.32040041566E+00  0.42140042940E+01  0.10566000000E+00 0.  1.
         13    1    1    0    0    0 -0.17262165889E+02 -0.59500442848E+02 -0.64366671759E+01  0.62287453943E+02  0.10566000000E+00 0. -1.
         22    1    1    0    0    0  0.14615165688E+02  0.56238939872E+02  0.67570675916E+01  0.58498541763E+02  0.00000000000E+00 0. -1.
</event>
<event>
 4    1  0.9856522E-003  0.9118800E+02  0.7818608E-02  0.1130116E+00
         25   -1    0    0    0    0  0.00000000000E+00  0.00000000000E+00  0.99999998245E-14  0.12500000000E+03  0.12500000000E+03 0.  0.
        -13    1    1    0    0    0  0.77210427840E-01 -0.20847164101E+01 -0.28958049042E+01  0.35705537441E+01  0.10566000000E+00 0.  1.
         13    1    1    0    0    0  0.16558034077E+01 -0.35645857438E+02 -0.46898488524E+02  0.58930876689E+02  0.10566000000E+00 0.  1.
         22    1    1    0    0    0 -0.17330138355E+01  0.37730573848E+02  0.49794293429E+02  0.62498569567E+02  0.00000000000E+00 0.  1.
</event>
<event>
 4    1  0.9856522E-003  0.9118800E+02  0.7818608E-02  0.1130116E+00
         25   -1    0    0    0    0  0.00000000000E+00  0.00000000000E+00  0.99999998245E-14  0.12500000000E+03  0.12500000000E+03 0.  0.
        -13    1    1    0    0    0 -0.32268892540E+01 -0.15096268962E+01  0.15542527383E+01  0.38882712397E+01  0.10566000000E+00 0. -1.
         13    1    1    0    0    0 -0.48778564350E+02  0.22054732820E+02  0.25149244355E+02  0.59146050042E+02  0.10566000000E+00 0.  1.
         22    1    1    0    0    0  0.52005453604E+02 -0.20545105924E+02 -0.26703497093E+02  0.61965678719E+02  0.00000000000E+00 0.  1.
</event>
<event>
 4    1  0.9856522E-003  0.9118800E+02  0.7818608E-02  0.1130116E+00
         25   -1    0    0    0    0  0.00000000000E+00  0.00000000000E+00  0.99999998245E-14  0.12500000000E+03  0.12500000000E+03 0.  0.
        -13    1    1    0    0    0  0.13901408988E+02 -0.17331386369E+02  0.41867379402E+02  0.47397412876E+02  0.10566000000E+00 0.  1.
         13    1    1    0    0    0  0.45057068760E+01 -0.55604800976E+01  0.13299150368E+02  0.15102943353E+02  0.10566000000E+00 0.  1.
         22    1    1    0    0    0 -0.18407115864E+02  0.22891866467E+02 -0.55166529770E+02  0.62499643772E+02  0.00000000000E+00 0.  1.
</event>
<event>
 4    1  0.9856522E-003  0.9118800E+02  0.7818608E-02  0.1130116E+00
         25   -1    0    0    0    0  0.00000000000E+00  0.00000000000E+00  0.99999998245E-14  0.12500000000E+03  0.12500000000E+03 0.  0.
        -13    1    1    0    0    0  0.22224880140E+02  0.39376059083E+02  0.14891752838E+02  0.47604566932E+02  0.10566000000E+00 0.  1.
         13    1    1    0    0    0  0.35332954949E+01 -0.14278823732E+02  0.21617887040E+02  0.26147909828E+02  0.10566000000E+00 0. -1.
         22    1    1    0    0    0 -0.25758175635E+02 -0.25097235351E+02 -0.36509639878E+02  0.51247523241E+02  0.00000000000E+00 0.  1.
</event>
<event>
 4    1  0.9856522E-003  0.9118800E+02  0.7818608E-02  0.1130116E+00
         25   -1    0    0    0    0  0.00000000000E+00  0.00000000000E+00  0.99999998245E-14  0.12500000000E+03  0.12500000000E+03 0.  0.
        -13    1    1    0    0    0  0.79003398027E+01  0.15454052320E+02 -0.32059111722E+01  0.17650272876E+02  0.10566000000E+00 0.  1.
         13    1    1    0    0    0  0.20121650475E+02  0.39293572743E+02 -0.79151050560E+01  0.44850035996E+02  0.10566000000E+00 0.  1.
         22    1    1    0    0    0 -0.28021990278E+02 -0.54747625063E+02  0.11121016228E+02  0.62499691128E+02  0.00000000000E+00 0.  1.
</event>
<event>
 4    1  0.9856522E-003  0.9118800E+02  0.7818608E-02  0.1130116E+00
         25   -1    0    0    0    0  0.00000000000E+00  0.00000000000E+00  0.99999998245E-14  0.12500000000E+03  0.12500000000E+03 0.  0.
        -13    1    1    0    0    0 -0.37992572043E+01  0.45272175507E+00 -0.12339863564E+01  0.40215915575E+01  0.10566000000E+00 0.  1.
         13    1    1    0    0    0 -0.21954265248E+02  0.45566463913E+01 -0.54743512778E+02  0.59157553569E+02  0.10566000000E+00 0. -1.
         22    1    1    0    0    0  0.25753522453E+02 -0.50093681464E+01  0.55977499134E+02  0.61820854874E+02  0.00000000000E+00 0. -1.
</event>
<event>
 4    1  0.9856522E-003  0.9118800E+02  0.7818608E-02  0.1130116E+00
         25   -1    0    0    0    0  0.00000000000E+00  0.00000000000E+00  0.99999998245E-14  0.12500000000E+03  0.12500000000E+03 0.  0.
        -13    1    1    0    0    0 -0.28507349119E+02 -0.16361317513E+02  0.41257385923E+02  0.52749831486E+02  0.10566000000E+00 0.  1.
         13    1    1    0    0    0 -0.57306287272E+01 -0.22033733852E+01  0.75987474060E+01  0.97697024550E+01  0.10566000000E+00 0. -1.
         22    1    1    0    0    0  0.34237977846E+02  0.18564690899E+02 -0.48856133329E+02  0.62480466059E+02  0.00000000000E+00 0.  1.
</event>
<event>
 4    1  0.9856522E-003  0.9118800E+02  0.7818608E-02  0.1130116E+00
         25   -1    0    0    0    0  0.00000000000E+00  0.00000000000E+00  0.99999998245E-14  0.12500000000E+03  0.12500000000E+03 0.  0.
        -13    1    1    0    0    0 -0.64360387155E+01  0.37827663333E+02  0.15871292067E+02  0.41524255363E+02  0.10566000000E+00 0.  1.
         13    1    1    0    0    0 -0.10819831639E+02  0.16352916618E+02  0.87992018537E+01  0.21492411589E+02  0.10566000000E+00 0. -1.
         22    1    1    0    0    0  0.17255870355E+02 -0.54180579950E+02 -0.24670493921E+02  0.61983333048E+02  0.00000000000E+00 0.  1.
</event>
<event>
 4    1  0.9856522E-003  0.9118800E+02  0.7818608E-02  0.1130116E+00
         25   -1    0    0    0    0  0.00000000000E+00  0.00000000000E+00  0.99999998245E-14  0.12500000000E+03  0.12500000000E+03 0.  0.
        -13    1    1    0    0    0  0.15273226535E+02  0.38505005462E+02  0.88337119558E+01  0.42355076737E+02  0.10566000000E+00 0. -1.
         13    1    1    0    0    0  0.58635039049E+01  0.18542970929E+02  0.53600911862E+01  0.20173353476E+02  0.10566000000E+00 0.  1.
         22    1    1    0    0    0 -0.21136730440E+02 -0.57047976391E+02 -0.14193803142E+02  0.62471569787E+02  0.00000000000E+00 0. -1.
</event>
<event>
 4    1  0.9856522E-003  0.9118800E+02  0.7818608E-02  0.1130116E+00
         25   -1    0    0    0    0  0.00000000000E+00  0.00000000000E+00  0.99999998245E-14  0.12500000000E+03  0.12500000000E+03 0.  0.
        -13    1    1    0    0    0  0.30986200817E+02  0.10355053127E+02  0.87212033592E+00  0.32682465088E+02  0.10566000000E+00 0. -1.
         13    1    1    0    0    0  0.28877912009E+02  0.75127166347E+01 -0.16594928642E+00  0.29839795851E+02  0.10566000000E+00 0.  1.
         22    1    1    0    0    0 -0.59864112825E+02 -0.17867769762E+02 -0.70617104950E+00  0.62477739061E+02  0.00000000000E+00 0.  1.
</event>
<event>
 4    1  0.9856522E-003  0.9118800E+02  0.7818608E-02  0.1130116E+00
         25   -1    0    0    0    0  0.00000000000E+00  0.00000000000E+00  0.99999998245E-14  0.12500000000E+03  0.12500000000E+03 0.  0.
        -13    1    1    0    0    0 -0.60520309667E+01 -0.68550646351E+01 -0.11681510848E+02  0.14835358091E+02  0.10566000000E+00 0. -1.
         13    1    1    0    0    0 -0.19566455983E+02 -0.22644382070E+02 -0.37099672291E+02  0.47665617453E+02  0.10566000000E+00 0. -1.
         22    1    1    0    0    0  0.25618486949E+02  0.29499446706E+02  0.48781183139E+02  0.62499024456E+02  0.00000000000E+00 0. -1.
</event>
<event>
 4    1  0.9856522E-003  0.9118800E+02  0.7818608E-02  0.1130116E+00
         25   -1    0    0    0    0  0.00000000000E+00  0.00000000000E+00  0.99999998245E-14  0.12500000000E+03  0.12500000000E+03 0.  0.
        -13    1    1    0    0    0  0.38255657353E+02 -0.14548818920E+02 -0.36550175335E+02  0.54873399134E+02  0.10566000000E+00 0. -1.
         13    1    1    0    0    0  0.54696925348E+01 -0.21452697579E+01 -0.48659554109E+01  0.76294432861E+01  0.10566000000E+00 0. -1.
         22    1    1    0    0    0 -0.43725349888E+02  0.16694088678E+02  0.41416130746E+02  0.62497157580E+02  0.00000000000E+00 0. -1.
</event>
<event>
 4    1  0.9856522E-003  0.9118800E+02  0.7818608E-02  0.1130116E+00
         25   -1    0    0    0    0  0.00000000000E+00  0.00000000000E+00  0.99999998245E-14  0.12500000000E+03  0.12500000000E+03 0.  0.
        -13    1    1    0    0    0  0.12830968510E+01  0.40137721108E+02  0.46095288365E+02  0.61134849037E+02  0.10566000000E+00 0. -1.
         13    1    1    0    0    0  0.11509873312E+01  0.27379263836E+00  0.11454794253E+01  0.16501579908E+01  0.10566000000E+00 0.  1.
         22    1    1    0    0    0 -0.24340841823E+01 -0.40411513746E+02 -0.47240767791E+02  0.62214992972E+02  0.00000000000E+00 0. -1.
</event>
<event>
 4    1  0.9856522E-003  0.9118800E+02  0.7818608E-02  0.1130116E+00
         25   -1    0    0    0    0  0.00000000000E+00  0.00000000000E+00  0.99999998245E-14  0.12500000000E+03  0.12500000000E+03 0.  0.
        -13    1    1    0    0    0  0.50620558498E+01 -0.53599720550E+02 -0.26080706417E+02  0.59822812235E+02  0.10566000000E+00 0. -1.
         13    1    1    0    0    0 -0.43613544109E+01  0.69224599708E+01 -0.45308229778E+01  0.93531484130E+01  0.10566000000E+00 0.  1.
         22    1    1    0    0    0 -0.70070143898E+00  0.46677260579E+02  0.30611529395E+02  0.55824039352E+02  0.00000000000E+00 0. -1.
</event>
<event>
 4    1  0.9856522E-003  0.9118800E+02  0.7818608E-02  0.1130116E+00
         25   -1    0    0    0    0  0.00000000000E+00  0.00000000000E+00  0.99999998245E-14  0.12500000000E+03  0.12500000000E+03 0.  0.
        -13    1    1    0    0    0  0.12198071283E+02 -0.41895729128E+02  0.33423646681E+02  0.54965410794E+02  0.10566000000E+00 0.  1.
         13    1    1    0    0    0 -0.27002017509E+01 -0.41668912708E+01  0.66125874582E+01  0.82699183361E+01  0.10566000000E+00 0. -1.
         22    1    1    0    0    0 -0.94978695324E+01  0.46062620399E+02 -0.40036234139E+02  0.61764670870E+02  0.00000000000E+00 0.  1.
</event>
<event>
 4    1  0.9856522E-003  0.9118800E+02  0.7818608E-02  0.1130116E+00
         25   -1    0    0    0    0  0.00000000000E+00  0.00000000000E+00  0.99999998245E-14  0.12500000000E+03  0.12500000000E+03 0.  0.
        -13    1    1    0    0    0 -0.75558554544E+01  0.97672488126E+01 -0.96381170102E+01  0.15665074674E+02  0.10566000000E+00 0. -1.
         13    1    1    0    0    0 -0.25444017724E+02  0.36721056413E+02 -0.15143297882E+02  0.47171650986E+02  0.10566000000E+00 0.  1.
         22    1    1    0    0    0  0.32999873178E+02 -0.46488305226E+02  0.24781414892E+02  0.62163274339E+02  0.00000000000E+00 0. -1.
</event>
<event>
 4    1  0.9856522E-003  0.9118800E+02  0.7818608E-02  0.1130116E+00
         25   -1    0    0    0    0  0.00000000000E+00  0.00000000000E+00  0.99999998245E-14  0.12500000000E+03  0.12500000000E+03 0.  0.
        -13    1    1    0    0    0 -0.10437424222E+02  0.19122069969E+02 -0.36922536034E+02  0.42870481867E+02  0.10566000000E+00 0.  1.
         13    1    1    0    0    0 -0.48403690774E+01  0.86084713012E+01 -0.16964371002E+02  0.19629977037E+02  0.10566000000E+00 0.  1.
         22    1    1    0    0    0  0.15277793299E+02 -0.27730541270E+02  0.53886907036E+02  0.62499541096E+02  0.00000000000E+00 0.  1.
</event>
<event>
 4    1  0.9856522E-003  0.9118800E+02  0.7818608E-02  0.1130116E+00
         25   -1    0    0    0    0  0.00000000000E+00  0.00000000000E+00  0.99999998245E-14  0.12500000000E+03  0.12500000000E+03 0.  0.
        -13    1    1    0    0    0  0.58285481867E+01  0.31074229868E+01 -0.33440425486E+01  0.74041769418E+01  0.10566000000E+00 0.  1.
         13    1    1    0    0    0  0.43194680308E+02  0.23158428664E+02 -0.25169410170E+02  0.55096312013E+02  0.10566000000E+00 0.  1.
         22    1    1    0    0    0 -0.49023228495E+02 -0.26265851651E+02  0.28513452718E+02  0.62499511045E+02  0.00000000000E+00 0.  1.
</event>
<event>
 4    1  0.9856522E-003  0.9118800E+02  0.7818608E-02  0.1130116E+00
         25   -1    0    0    0    0  0.00000000000E+00  0.00000000000E+00  0.99999998245E-14  0.12500000000E+03  0.12500000000E+03 0.  0.
        -13    1    1    0    0    0 -0.18315818512E+02 -0.13913140799E+02  0.53794997168E+00  0.23007504186E+02  0.10566000000E+00 0. -1.
         13    1    1    0    0    0 -0.31583818689E+02 -0.23678378220E+02  0.12188409321E+01  0.39493036543E+02  0.10566000000E+00 0.  1.
         22    1    1    0    0    0  0.49899637201E+02  0.37591519019E+02 -0.17567909038E+01  0.62499459271E+02  0.00000000000E+00 0.  1.
</event>
<event>
 4    1  0.9856522E-003  0.9118800E+02  0.7818608E-02  0.1130116E+00
         25   -1    0    0    0    0  0.00000000000E+00  0.00000000000E+00  0.99999998245E-14  0.12500000000E+03  0.12500000000E+03 0.  0.
        -13    1    1    0    0    0 -0.10318030693E+01  0.19617139162E+01  0.16969718459E+01  0.27935311962E+01  0.10566000000E+00 0. -1.
         13    1    1    0    0    0 -0.21141315384E+02  0.29387639367E+02  0.47547513334E+02  0.59760904879E+02  0.10566000000E+00 0.  1.
         22    1    1    0    0    0  0.22173118453E+02 -0.31349353283E+02 -0.49244485180E+02  0.62445563924E+02  0.00000000000E+00 0.  1.
</event>
<event>
 4    1  0.9856522E-003  0.9118800E+02  0.7818608E-02  0.1130116E+00
         25   -1    0    0    0    0  0.00000000000E+00  0.00000000000E+00  0.99999998245E-14  0.12500000000E+03  0.12500000000E+03 0.  0.
        -13    1    1    0    0    0  0.87938493374E+01 -0.14869205575E+02  0.43596875628E+01  0.17816932965E+02  0.10566000000E+00 0.  1.
         13    1    1    0    0    0  0.23740979894E+02 -0.36615781646E+02  0.96407523880E+01  0.44691216839E+02  0.10566000000E+00 0. -1.
         22    1    1    0    0    0 -0.32534829232E+02  0.51484987220E+02 -0.14000439951E+02  0.62491850197E+02  0.00000000000E+00 0. -1.
</event>
<event>
 4    1  0.9856522E-003  0.9118800E+02  0.7818608E-02  0.1130116E+00
         25   -1    0    0    0    0  0.00000000000E+00  0.00000000000E+00  0.99999998245E-14  0.12500000000E+03  0.12500000000E+03 0.  0.
        -13    1    1    0    0    0  0.49810755788E+01 -0.45350501192E+01 -0.13312101097E+02  0.14919818805E+02  0.10566000000E+00 0. -1.
         13    1    1    0    0    0  0.19720258911E+02 -0.37290021019E+02 -0.24267582087E+02  0.48665809184E+02  0.10566000000E+00 0.  1.
         22    1    1    0    0    0 -0.24701334489E+02  0.41825071139E+02  0.37579683184E+02  0.61414372011E+02  0.00000000000E+00 0.  1.
</event>
<event>
 4    1  0.9856522E-003  0.9118800E+02  0.7818608E-02  0.1130116E+00
         25   -1    0    0    0    0  0.00000000000E+00  0.00000000000E+00  0.99999998245E-14  0.12500000000E+03  0.12500000000E+03 0.  0.
        -13    1    1    0    0    0 -0.21036207202E+02 -0.12970578681E+02 -0.52732048694E+02  0.58236054539E+02  0.10566000000E+00 0.  1.
         13    1    1    0    0    0  0.33410357342E+01  0.29971817420E+01 -0.43037010400E+01  0.62192141665E+01  0.10566000000E+00 0. -1.
         22    1    1    0    0    0  0.17695171468E+02  0.99733969388E+01  0.57035749734E+02  0.60544731294E+02  0.00000000000E+00 0.  1.
</event>
<event>
 4    1  0.9856522E-003  0.9118800E+02  0.7818608E-02  0.1130116E+00
         25   -1    0    0    0    0  0.00000000000E+00  0.00000000000E+00  0.99999998245E-14  0.12500000000E+03  0.12500000000E+03 0.  0.
        -13    1    1    0    0    0  0.16927289419E+02  0.24132099627E+02 -0.11808560275E+02  0.31754442512E+02  0.10566000000E+00 0.  1.
         13    1    1    0    0    0  0.16302037036E+02  0.23397923948E+02 -0.11492300233E+02  0.30745786464E+02  0.10566000000E+00 0. -1.
         22    1    1    0    0    0 -0.33229326455E+02 -0.47530023574E+02  0.23300860508E+02  0.62499771024E+02  0.00000000000E+00 0.  1.
</event>
<event>
 4    1  0.9856522E-003  0.9118800E+02  0.7818608E-02  0.1130116E+00
         25   -1    0    0    0    0  0.00000000000E+00  0.00000000000E+00  0.99999998245E-14  0.12500000000E+03  0.12500000000E+03 0.  0.
        -13    1    1    0    0    0 -0.10856451136E+01 -0.48591277540E+01 -0.58315546969E+02  0.58527804761E+02  0.10566000000E+00 0.  1.
         13    1    1    0    0    0  0.10590667573E+01  0.68043618038E+00 -0.39087137722E+01  0.41077759409E+01  0.10566000000E+00 0. -1.
         22    1    1    0    0    0  0.26578356334E-01  0.41786915736E+01  0.62224260741E+02  0.62364419298E+02  0.00000000000E+00 0.  1.
</event>
<event>
 4    1  0.9856522E-003  0.9118800E+02  0.7818608E-02  0.1130116E+00
         25   -1    0    0    0    0  0.00000000000E+00  0.00000000000E+00  0.99999998245E-14  0.12500000000E+03  0.12500000000E+03 0.  0.
        -13    1    1    0    0    0  0.22163463750E+02  0.39657796091E+02  0.15375452787E+02  0.47962231272E+02  0.10566000000E+00 0. -1.
         13    1    1    0    0    0  0.68200645693E+01  0.12064875425E+02  0.43932310529E+01  0.14539124556E+02  0.10566000000E+00 0.  1.
         22    1    1    0    0    0 -0.28983528319E+02 -0.51722671515E+02 -0.19768683840E+02  0.62498644172E+02  0.00000000000E+00 0. -1.
</event>
<event>
 4    1  0.9856522E-003  0.9118800E+02  0.7818608E-02  0.1130116E+00
         25   -1    0    0    0    0  0.00000000000E+00  0.00000000000E+00  0.99999998245E-14  0.12500000000E+03  0.12500000000E+03 0.  0.
        -13    1    1    0    0    0  0.11005305938E+01  0.18645363266E+01  0.65377597693E+01  0.68877521832E+01  0.10566000000E+00 0. -1.
         13    1    1    0    0    0  0.95298981302E+01  0.17657421363E+02  0.51870998754E+02  0.55616680621E+02  0.10566000000E+00 0.  1.
         22    1    1    0    0    0 -0.10630428724E+02 -0.19521957690E+02 -0.58408758523E+02  0.62495567196E+02  0.00000000000E+00 0.  1.
</event>
<event>
 4    1  0.9856522E-003  0.9118800E+02  0.7818608E-02  0.1130116E+00
         25   -1    0    0    0    0  0.00000000000E+00  0.00000000000E+00  0.99999998245E-14  0.12500000000E+03  0.12500000000E+03 0.  0.
        -13    1    1    0    0    0  0.45236703172E+01  0.70706318254E+01 -0.24271467938E+01  0.87383999189E+01  0.10566000000E+00 0. -1.
         13    1    1    0    0    0 -0.69966428612E+00  0.46000178646E+02  0.31377504928E+02  0.55687206297E+02  0.10566000000E+00 0.  1.
         22    1    1    0    0    0 -0.38240060311E+01 -0.53070810472E+02 -0.28950358134E+02  0.60574393784E+02  0.00000000000E+00 0.  1.
</event>
<event>
 4    1  0.9856522E-003  0.9118800E+02  0.7818608E-02  0.1130116E+00
         25   -1    0    0    0    0  0.00000000000E+00  0.00000000000E+00  0.99999998245E-14  0.12500000000E+03  0.12500000000E+03 0.  0.
        -13    1    1    0    0    0  0.51057910102E+02  0.71766452837E+01  0.87391496881E+01  0.52295299242E+02  0.10566000000E+00 0. -1.
         13    1    1    0    0    0 -0.14946881647E+02  0.20234433348E+02  0.43206787279E+01  0.25524909258E+02  0.10566000000E+00 0.  1.
         22    1    1    0    0    0 -0.36111028454E+02 -0.27411078632E+02 -0.13059828416E+02  0.47179791501E+02  0.00000000000E+00 0. -1.
</event>
<event>
 4    1  0.9856522E-003  0.9118800E+02  0.7818608E-02  0.1130116E+00
         25   -1    0    0    0    0  0.00000000000E+00  0.00000000000E+00  0.99999998245E-14  0.12500000000E+03  0.12500000000E+03 0.  0.
        -13    1    1    0    0    0 -0.49881290325E+02 -0.14684268075E+02 -0.20777542998E+01  0.52039399309E+02  0.10566000000E+00 0. -1.
         13    1    1    0    0    0 -0.10064641097E+02 -0.28156778989E+01 -0.45103325419E+00  0.10461340138E+02  0.10566000000E+00 0. -1.
         22    1    1    0    0    0  0.59945931423E+02  0.17499945974E+02  0.25287875540E+01  0.62499260553E+02  0.00000000000E+00 0. -1.
</event>
<event>
 4    1  0.9856522E-003  0.9118800E+02  0.7818608E-02  0.1130116E+00
         25   -1    0    0    0    0  0.00000000000E+00  0.00000000000E+00  0.99999998245E-14  0.12500000000E+03  0.12500000000E+03 0.  0.
        -13    1    1    0    0    0  0.67535870913E+01 -0.18643863302E+02  0.14857441280E+02  0.24778202171E+02  0.10566000000E+00 0. -1.
         13    1    1    0    0    0  0.10852886813E+02 -0.27703376600E+02  0.23192591524E+02  0.37724921377E+02  0.10566000000E+00 0.  1.
         22    1    1    0    0    0 -0.17606473904E+02  0.46347239902E+02 -0.38050032804E+02  0.62496876452E+02  0.00000000000E+00 0.  1.
</event>
<event>
 4    1  0.9856522E-003  0.9118800E+02  0.7818608E-02  0.1130116E+00
         25   -1    0    0    0    0  0.00000000000E+00  0.00000000000E+00  0.99999998245E-14  0.12500000000E+03  0.12500000000E+03 0.  0.
        -13    1    1    0    0    0 -0.44470977447E+01 -0.75340117058E+01 -0.30477170784E+01  0.92648666563E+01  0.10566000000E+00 0. -1.
         13    1    1    0    0    0 -0.47850877086E+02 -0.56340269363E+01 -0.25714893300E+02  0.54614243553E+02  0.10566000000E+00 0.  1.
         22    1    1    0    0    0  0.52297974830E+02  0.13168038642E+02  0.28762610378E+02  0.61120889791E+02  0.00000000000E+00 0.  1.
</event>
<event>
 4    1  0.9856522E-003  0.9118800E+02  0.7818608E-02  0.1130116E+00
         25   -1    0    0    0    0  0.00000000000E+00  0.00000000000E+00  0.99999998245E-14  0.12500000000E+03  0.12500000000E+03 0.  0.
        -13    1    1    0    0    0 -0.17691838686E+02 -0.15746536283E+02 -0.10734804407E+02  0.26003879531E+02  0.10566000000E+00 0. -1.
         13    1    1    0    0    0 -0.24241708569E+02 -0.20846092553E+02 -0.17650440509E+02  0.36520805348E+02  0.10566000000E+00 0.  1.
         22    1    1    0    0    0  0.41933547255E+02  0.36592628835E+02  0.28385244916E+02  0.62475315121E+02  0.00000000000E+00 0. -1.
</event>
<event>
 4    1  0.9856522E-003  0.9118800E+02  0.7818608E-02  0.1130116E+00
         25   -1    0    0    0    0  0.00000000000E+00  0.00000000000E+00  0.99999998245E-14  0.12500000000E+03  0.12500000000E+03 0.  0.
        -13    1    1    0    0    0 -0.15577420311E+02  0.24199531423E+02  0.29984361929E+02  0.41561357882E+02  0.10566000000E+00 0. -1.
         13    1    1    0    0    0 -0.72923395939E+01  0.12707397757E+02  0.14965474361E+02  0.20943561335E+02  0.10566000000E+00 0.  1.
         22    1    1    0    0    0  0.22869759905E+02 -0.36906929180E+02 -0.44949836290E+02  0.62495080783E+02  0.00000000000E+00 0. -1.
</event>
<event>
 4    1  0.9856522E-003  0.9118800E+02  0.7818608E-02  0.1130116E+00
         25   -1    0    0    0    0  0.00000000000E+00  0.00000000000E+00  0.99999998245E-14  0.12500000000E+03  0.12500000000E+03 0.  0.
        -13    1    1    0    0    0  0.12696013367E+02  0.10038822057E+02 -0.10973894894E+02  0.19555158831E+02  0.10566000000E+00 0. -1.
         13    1    1    0    0    0  0.27929362586E+02  0.21860247843E+02 -0.24214750994E+02  0.42945140120E+02  0.10566000000E+00 0. -1.
         22    1    1    0    0    0 -0.40625375953E+02 -0.31899069900E+02  0.35188645888E+02  0.62499701049E+02  0.00000000000E+00 0. -1.
</event>
<event>
 4    1  0.9856522E-003  0.9118800E+02  0.7818608E-02  0.1130116E+00
         25   -1    0    0    0    0  0.00000000000E+00  0.00000000000E+00  0.99999998245E-14  0.12500000000E+03  0.12500000000E+03 0.  0.
        -13    1    1    0    0    0 -0.33841609434E+01  0.13357649633E+02 -0.13039630456E+02  0.18971622900E+02  0.10566000000E+00 0. -1.
         13    1    1    0    0    0 -0.87052546002E+01  0.30584798435E+02 -0.29726351275E+02  0.43530201896E+02  0.10566000000E+00 0.  1.
         22    1    1    0    0    0  0.12089415544E+02 -0.43942448068E+02  0.42765981730E+02  0.62498175204E+02  0.00000000000E+00 0.  1.
</event>
<event>
 4    1  0.9856522E-003  0.9118800E+02  0.7818608E-02  0.1130116E+00
         25   -1    0    0    0    0  0.00000000000E+00  0.00000000000E+00  0.99999998245E-14  0.12500000000E+03  0.12500000000E+03 0.  0.
        -13    1    1    0    0    0 -0.18593654299E+02  0.24505567582E+02 -0.61366531278E+01  0.31367443287E+02  0.10566000000E+00 0.  1.
         13    1    1    0    0    0 -0.18247737638E+02  0.24495215023E+02 -0.60216275454E+01  0.31133047558E+02  0.10566000000E+00 0.  1.
         22    1    1    0    0    0  0.36841391937E+02 -0.49000782605E+02  0.12158280673E+02  0.62499509155E+02  0.00000000000E+00 0.  1.
</event>
<event>
 4    1  0.9856522E-003  0.9118800E+02  0.7818608E-02  0.1130116E+00
         25   -1    0    0    0    0  0.00000000000E+00  0.00000000000E+00  0.99999998245E-14  0.12500000000E+03  0.12500000000E+03 0.  0.
        -13    1    1    0    0    0  0.42169251461E+02 -0.32202140177E+02  0.28043433577E+02  0.60013906151E+02  0.10566000000E+00 0.  1.
         13    1    1    0    0    0  0.10226089666E+01 -0.26492176825E+01 -0.86149751190E-01  0.28430035601E+01  0.10566000000E+00 0. -1.
         22    1    1    0    0    0 -0.43191860427E+02  0.34851357859E+02 -0.27957283825E+02  0.62143090289E+02  0.00000000000E+00 0.  1.
</event>
<event>
 4    1  0.9856522E-003  0.9118800E+02  0.7818608E-02  0.1130116E+00
         25   -1    0    0    0    0  0.00000000000E+00  0.00000000000E+00  0.99999998245E-14  0.12500000000E+03  0.12500000000E+03 0.  0.
        -13    1    1    0    0    0  0.11530116809E+02  0.29675109791E+02 -0.54272170469E+01  0.32295844681E+02  0.10566000000E+00 0. -1.
         13    1    1    0    0    0  0.11571706875E+02  0.27191042817E+02 -0.62977420626E+01  0.30214730325E+02  0.10566000000E+00 0.  1.
         22    1    1    0    0    0 -0.23101823684E+02 -0.56866152608E+02  0.11724959109E+02  0.62489424994E+02  0.00000000000E+00 0. -1.
</event>
<event>
 4    1  0.9856522E-003  0.9118800E+02  0.7818608E-02  0.1130116E+00
         25   -1    0    0    0    0  0.00000000000E+00  0.00000000000E+00  0.99999998245E-14  0.12500000000E+03  0.12500000000E+03 0.  0.
        -13    1    1    0    0    0  0.22278163748E+00  0.26359297317E+01 -0.93685924814E+01  0.97354736057E+01  0.10566000000E+00 0.  1.
         13    1    1    0    0    0  0.73393426821E+00 -0.27821736659E+01 -0.52905060331E+02  0.52983353258E+02  0.10566000000E+00 0. -1.
         22    1    1    0    0    0 -0.95671590569E+00  0.14624393413E+00  0.62273652812E+02  0.62281173136E+02  0.00000000000E+00 0. -1.
</event>
<event>
 4    1  0.9856522E-003  0.9118800E+02  0.7818608E-02  0.1130116E+00
         25   -1    0    0    0    0  0.00000000000E+00  0.00000000000E+00  0.99999998245E-14  0.12500000000E+03  0.12500000000E+03 0.  0.
        -13    1    1    0    0    0  0.14018128601E+02  0.11071037408E+02  0.32410900757E+01  0.18154658567E+02  0.10566000000E+00 0.  1.
         13    1    1    0    0    0  0.36429343954E+02  0.24559648263E+02  0.61862810113E+01  0.44368397092E+02  0.10566000000E+00 0. -1.
         22    1    1    0    0    0 -0.50447472555E+02 -0.35630685671E+02 -0.94273710870E+01  0.62476944341E+02  0.00000000000E+00 0. -1.
</event>
<event>
 4    1  0.9856522E-003  0.9118800E+02  0.7818608E-02  0.1130116E+00
         25   -1    0    0    0    0  0.00000000000E+00  0.00000000000E+00  0.99999998245E-14  0.12500000000E+03  0.12500000000E+03 0.  0.
        -13    1    1    0    0    0 -0.35258620181E+01 -0.28520695673E+01  0.14630770383E+02  0.15317852650E+02  0.10566000000E+00 0.  1.
         13    1    1    0    0    0 -0.83074551345E+01 -0.99877577426E+01  0.45369426632E+02  0.47192850650E+02  0.10566000000E+00 0. -1.
         22    1    1    0    0    0  0.11833317153E+02  0.12839827310E+02 -0.60000197015E+02  0.62489296699E+02  0.00000000000E+00 0. -1.
</event>
<event>
 4    1  0.9856522E-003  0.9118800E+02  0.7818608E-02  0.1130116E+00
         25   -1    0    0    0    0  0.00000000000E+00  0.00000000000E+00  0.99999998245E-14  0.12500000000E+03  0.12500000000E+03 0.  0.
        -13    1    1    0    0    0  0.85972568886E+01  0.25375922728E+02  0.16112128737E+02  0.31264390874E+02  0.10566000000E+00 0. -1.
         13    1    1    0    0    0  0.70541324903E+01  0.24979063879E+02  0.17406965808E+02  0.31252648530E+02  0.10566000000E+00 0.  1.
         22    1    1    0    0    0 -0.15651389379E+02 -0.50354986607E+02 -0.33519094545E+02  0.62482960595E+02  0.00000000000E+00 0.  1.
</event>
<event>
 4    1  0.9856522E-003  0.9118800E+02  0.7818608E-02  0.1130116E+00
         25   -1    0    0    0    0  0.00000000000E+00  0.00000000000E+00  0.99999998245E-14  0.12500000000E+03  0.12500000000E+03 0.  0.
        -13    1    1    0    0    0 -0.18234272335E+02 -0.15140365428E+02  0.12248010258E+02  0.26678535795E+02  0.10566000000E+00 0. -1.
         13    1    1    0    0    0 -0.32269810584E+02 -0.32742383856E+01  0.17528573935E+02  0.36869002974E+02  0.10566000000E+00 0.  1.
         22    1    1    0    0    0  0.50504082918E+02  0.18414603814E+02 -0.29776584193E+02  0.61452461230E+02  0.00000000000E+00 0.  1.
</event>
<event>
 4    1  0.9856522E-003  0.9118800E+02  0.7818608E-02  0.1130116E+00
         25   -1    0    0    0    0  0.00000000000E+00  0.00000000000E+00  0.99999998245E-14  0.12500000000E+03  0.12500000000E+03 0.  0.
        -13    1    1    0    0    0 -0.34861003304E+02 -0.89434905934E+01  0.43604892203E+01  0.36253284066E+02  0.10566000000E+00 0.  1.
         13    1    1    0    0    0 -0.25326409931E+02 -0.61251400321E+01  0.31594133274E+01  0.26247617739E+02  0.10566000000E+00 0. -1.
         22    1    1    0    0    0  0.60187413234E+02  0.15068630625E+02 -0.75199025477E+01  0.62499098194E+02  0.00000000000E+00 0. -1.
</event>
<event>
 4    1  0.9856522E-003  0.9118800E+02  0.7818608E-02  0.1130116E+00
         25   -1    0    0    0    0  0.00000000000E+00  0.00000000000E+00  0.99999998245E-14  0.12500000000E+03  0.12500000000E+03 0.  0.
        -13    1    1    0    0    0  0.34759284612E+02 -0.39694823657E+02  0.32020502893E+01  0.52859731194E+02  0.10566000000E+00 0. -1.
         13    1    1    0    0    0  0.81486113977E+01 -0.54364317826E+01 -0.45612308154E+00  0.98068277511E+01  0.10566000000E+00 0.  1.
         22    1    1    0    0    0 -0.42907896009E+02  0.45131255439E+02 -0.27459272077E+01  0.62333441055E+02  0.00000000000E+00 0. -1.
</event>
<event>
 4    1  0.9856522E-003  0.9118800E+02  0.7818608E-02  0.1130116E+00
         25   -1    0    0    0    0  0.00000000000E+00  0.00000000000E+00  0.99999998245E-14  0.12500000000E+03  0.12500000000E+03 0.  0.
        -13    1    1    0    0    0  0.11552203545E+02 -0.21244605874E+02  0.39001554332E+02  0.45890294070E+02  0.10566000000E+00 0.  1.
         13    1    1    0    0    0  0.34166955281E+01 -0.76722289155E+01  0.14337873474E+02  0.16616939690E+02  0.10566000000E+00 0. -1.
         22    1    1    0    0    0 -0.14968899073E+02  0.28916834789E+02 -0.53339427806E+02  0.62492766240E+02  0.00000000000E+00 0.  1.
</event>
<event>
 4    1  0.9856522E-003  0.9118800E+02  0.7818608E-02  0.1130116E+00
         25   -1    0    0    0    0  0.00000000000E+00  0.00000000000E+00  0.99999998245E-14  0.12500000000E+03  0.12500000000E+03 0.  0.
        -13    1    1    0    0    0  0.39758959890E+00  0.13870368916E+02  0.17822196826E+02  0.22587321114E+02  0.10566000000E+00 0. -1.
         13    1    1    0    0    0  0.97079990379E+01  0.15912508296E+02  0.35734572052E+02  0.40304143327E+02  0.10566000000E+00 0.  1.
         22    1    1    0    0    0 -0.10105588637E+02 -0.29782877211E+02 -0.53556768878E+02  0.62108535559E+02  0.00000000000E+00 0.  1.
</event>
<event>
 4    1  0.9856522E-003  0.9118800E+02  0.7818608E-02  0.1130116E+00
         25   -1    0    0    0    0  0.00000000000E+00  0.00000000000E+00  0.99999998245E-14  0.12500000000E+03  0.12500000000E+03 0.  0.
        -13    1    1    0    0    0 -0.45421802381E+01 -0.40565284019E+02 -0.20343418155E+02  0.45607449996E+02  0.10566000000E+00 0. -1.
         13    1    1    0    0    0 -0.17965232772E+01 -0.15196800309E+02 -0.71590223134E+01  0.16894762503E+02  0.10566000000E+00 0.  1.
         22    1    1    0    0    0  0.63387035153E+01  0.55762084328E+02  0.27502440468E+02  0.62497787501E+02  0.00000000000E+00 0.  1.
</event>
<event>
 4    1  0.9856522E-003  0.9118800E+02  0.7818608E-02  0.1130116E+00
         25   -1    0    0    0    0  0.00000000000E+00  0.00000000000E+00  0.99999998245E-14  0.12500000000E+03  0.12500000000E+03 0.  0.
        -13    1    1    0    0    0  0.87695393725E+01 -0.87007225462E+01 -0.74707372905E+01  0.14437121366E+02  0.10566000000E+00 0.  1.
         13    1    1    0    0    0  0.26468539160E+02 -0.23798306890E+02 -0.32461011151E+02  0.48173347248E+02  0.10566000000E+00 0. -1.
         22    1    1    0    0    0 -0.35238078532E+02  0.32499029437E+02  0.39931748442E+02  0.62389531386E+02  0.00000000000E+00 0. -1.
</event>
<event>
 4    1  0.9856522E-003  0.9118800E+02  0.7818608E-02  0.1130116E+00
         25   -1    0    0    0    0  0.00000000000E+00  0.00000000000E+00  0.99999998245E-14  0.12500000000E+03  0.12500000000E+03 0.  0.
        -13    1    1    0    0    0 -0.18498121382E+02 -0.53853630259E+00  0.67198828561E+01  0.19688537418E+02  0.10566000000E+00 0.  1.
         13    1    1    0    0    0 -0.39571647923E+02  0.42828811218E+01  0.15924689682E+02  0.42870331181E+02  0.10566000000E+00 0. -1.
         22    1    1    0    0    0  0.58069769305E+02 -0.37443448192E+01 -0.22644572539E+02  0.62441131401E+02  0.00000000000E+00 0. -1.
</event>
<event>
 4    1  0.9856522E-003  0.9118800E+02  0.7818608E-02  0.1130116E+00
         25   -1    0    0    0    0  0.00000000000E+00  0.00000000000E+00  0.99999998245E-14  0.12500000000E+03  0.12500000000E+03 0.  0.
        -13    1    1    0    0    0  0.80975525069E+01  0.57298052083E+01  0.76462129237E+01  0.12525045327E+02  0.10566000000E+00 0.  1.
         13    1    1    0    0    0  0.32266709976E+02  0.21524697769E+02  0.31517312065E+02  0.49978048287E+02  0.10566000000E+00 0.  1.
         22    1    1    0    0    0 -0.40364262483E+02 -0.27254502977E+02 -0.39163524989E+02  0.62496906386E+02  0.00000000000E+00 0.  1.
</event>
<event>
 4    1  0.9856522E-003  0.9118800E+02  0.7818608E-02  0.1130116E+00
         25   -1    0    0    0    0  0.00000000000E+00  0.00000000000E+00  0.99999998245E-14  0.12500000000E+03  0.12500000000E+03 0.  0.
        -13    1    1    0    0    0  0.31451918609E+02 -0.35973597112E+02 -0.16973626285E+02  0.50709348513E+02  0.10566000000E+00 0. -1.
         13    1    1    0    0    0  0.75192926853E+01 -0.82878428547E+01 -0.37185764631E+01  0.11792670462E+02  0.10566000000E+00 0.  1.
         22    1    1    0    0    0 -0.38971211294E+02  0.44261439966E+02  0.20692202748E+02  0.62497981025E+02  0.00000000000E+00 0. -1.
</event>
<event>
 4    1  0.9856522E-003  0.9118800E+02  0.7818608E-02  0.1130116E+00
         25   -1    0    0    0    0  0.00000000000E+00  0.00000000000E+00  0.99999998245E-14  0.12500000000E+03  0.12500000000E+03 0.  0.
        -13    1    1    0    0    0 -0.18346944814E+02  0.41536912891E+02 -0.17423829059E+02  0.48636678542E+02  0.10566000000E+00 0.  1.
         13    1    1    0    0    0 -0.77670309043E+01  0.10751193507E+02 -0.44012323056E+01  0.13974868183E+02  0.10566000000E+00 0. -1.
         22    1    1    0    0    0  0.26113975718E+02 -0.52288106398E+02  0.21825061364E+02  0.62388453275E+02  0.00000000000E+00 0.  1.
</event>
<event>
 4    1  0.9856522E-003  0.9118800E+02  0.7818608E-02  0.1130116E+00
         25   -1    0    0    0    0  0.00000000000E+00  0.00000000000E+00  0.99999998245E-14  0.12500000000E+03  0.12500000000E+03 0.  0.
        -13    1    1    0    0    0  0.53512994769E+01  0.78073896275E+01 -0.20285643719E+02  0.22385491820E+02  0.10566000000E+00 0.  1.
         13    1    1    0    0    0  0.19770735426E+02  0.92862237352E+01 -0.33994919815E+02  0.40407693176E+02  0.10566000000E+00 0. -1.
         22    1    1    0    0    0 -0.25122034903E+02 -0.17093613363E+02  0.54280563534E+02  0.62206815004E+02  0.00000000000E+00 0. -1.
</event>
<event>
 4    1  0.9856522E-003  0.9118800E+02  0.7818608E-02  0.1130116E+00
         25   -1    0    0    0    0  0.00000000000E+00  0.00000000000E+00  0.99999998245E-14  0.12500000000E+03  0.12500000000E+03 0.  0.
        -13    1    1    0    0    0  0.29920313701E+01 -0.66548481275E+01  0.31448673529E+02  0.32284198706E+02  0.10566000000E+00 0.  1.
         13    1    1    0    0    0  0.33451744908E+01 -0.77469546596E+01  0.29025920348E+02  0.30227813598E+02  0.10566000000E+00 0. -1.
         22    1    1    0    0    0 -0.63372058609E+01  0.14401802787E+02 -0.60474593877E+02  0.62487987695E+02  0.00000000000E+00 0.  1.
</event>
<event>
 4    1  0.9856522E-003  0.9118800E+02  0.7818608E-02  0.1130116E+00
         25   -1    0    0    0    0  0.00000000000E+00  0.00000000000E+00  0.99999998245E-14  0.12500000000E+03  0.12500000000E+03 0.  0.
        -13    1    1    0    0    0  0.29712570697E+01  0.40750091039E+01 -0.97125408730E+01  0.10944344750E+02  0.10566000000E+00 0. -1.
         13    1    1    0    0    0  0.12002320127E+02  0.14026404485E+02 -0.48170650532E+02  0.51586998827E+02  0.10566000000E+00 0.  1.
         22    1    1    0    0    0 -0.14973577197E+02 -0.18101413589E+02  0.57883191405E+02  0.62468656423E+02  0.00000000000E+00 0.  1.
</event>
<event>
 4    1  0.9856522E-003  0.9118800E+02  0.7818608E-02  0.1130116E+00
         25   -1    0    0    0    0  0.00000000000E+00  0.00000000000E+00  0.99999998245E-14  0.12500000000E+03  0.12500000000E+03 0.  0.
        -13    1    1    0    0    0  0.21075993337E+01  0.29419231968E+01  0.32709701118E+01  0.48792721337E+01  0.10566000000E+00 0.  1.
         13    1    1    0    0    0  0.24863467047E+02  0.33132654043E+02  0.40055268399E+02  0.57622915998E+02  0.10566000000E+00 0. -1.
         22    1    1    0    0    0 -0.26971066381E+02 -0.36074577240E+02 -0.43326238511E+02  0.62497811868E+02  0.00000000000E+00 0. -1.
</event>
<event>
 4    1  0.9856522E-003  0.9118800E+02  0.7818608E-02  0.1130116E+00
         25   -1    0    0    0    0  0.00000000000E+00  0.00000000000E+00  0.99999998245E-14  0.12500000000E+03  0.12500000000E+03 0.  0.
        -13    1    1    0    0    0 -0.19039356878E+02  0.34626486078E+02 -0.35484274836E+02  0.53109656120E+02  0.10566000000E+00 0.  1.
         13    1    1    0    0    0 -0.29684858438E+01  0.51634605758E+01 -0.73230914298E+01  0.94399187204E+01  0.10566000000E+00 0. -1.
         22    1    1    0    0    0  0.22007842721E+02 -0.39789946654E+02  0.42807366266E+02  0.62450425160E+02  0.00000000000E+00 0.  1.
</event>
<event>
 4    1  0.9856522E-003  0.9118800E+02  0.7818608E-02  0.1130116E+00
         25   -1    0    0    0    0  0.00000000000E+00  0.00000000000E+00  0.99999998245E-14  0.12500000000E+03  0.12500000000E+03 0.  0.
        -13    1    1    0    0    0  0.54285125359E+01 -0.99584421750E+01  0.14502741488E+02  0.18411409332E+02  0.10566000000E+00 0. -1.
         13    1    1    0    0    0  0.78079614337E+01 -0.23185083217E+02  0.36741424689E+02  0.44141316222E+02  0.10566000000E+00 0.  1.
         22    1    1    0    0    0 -0.13236473970E+02  0.33143525392E+02 -0.51244166177E+02  0.62447274446E+02  0.00000000000E+00 0.  1.
</event>
<event>
 4    1  0.9856522E-003  0.9118800E+02  0.7818608E-02  0.1130116E+00
         25   -1    0    0    0    0  0.00000000000E+00  0.00000000000E+00  0.99999998245E-14  0.12500000000E+03  0.12500000000E+03 0.  0.
        -13    1    1    0    0    0  0.36518916450E+02  0.28396137701E+02 -0.49609740910E+01  0.46525200945E+02  0.10566000000E+00 0.  1.
         13    1    1    0    0    0 -0.16973560188E+02  0.14265529874E+01 -0.26113201295E+02  0.31177672216E+02  0.10566000000E+00 0. -1.
         22    1    1    0    0    0 -0.19545356262E+02 -0.29822690688E+02  0.31074175386E+02  0.47297126839E+02  0.00000000000E+00 0.  1.
</event>
<event>
 4    1  0.9856522E-003  0.9118800E+02  0.7818608E-02  0.1130116E+00
         25   -1    0    0    0    0  0.00000000000E+00  0.00000000000E+00  0.99999998245E-14  0.12500000000E+03  0.12500000000E+03 0.  0.
        -13    1    1    0    0    0 -0.26966098048E+02 -0.43238506067E+02 -0.17003970975E+02  0.53720434136E+02  0.10566000000E+00 0.  1.
         13    1    1    0    0    0 -0.60678039815E+01  0.68788999506E+00  0.16299983479E+02  0.17406667207E+02  0.10566000000E+00 0. -1.
         22    1    1    0    0    0  0.33033902029E+02  0.42550616072E+02  0.70398749689E+00  0.53872898657E+02  0.00000000000E+00 0.  1.
</event>
<event>
 4    1  0.9856522E-003  0.9118800E+02  0.7818608E-02  0.1130116E+00
         25   -1    0    0    0    0  0.00000000000E+00  0.00000000000E+00  0.99999998245E-14  0.12500000000E+03  0.12500000000E+03 0.  0.
        -13    1    1    0    0    0  0.12137222557E+02 -0.12617655739E+01 -0.75606895486E+01  0.14355466354E+02  0.10566000000E+00 0. -1.
         13    1    1    0    0    0  0.33794016892E+02 -0.35612792198E+01 -0.34321700188E+02  0.48298121653E+02  0.10566000000E+00 0.  1.
         22    1    1    0    0    0 -0.45931239448E+02  0.48230447937E+01  0.41882389737E+02  0.62346411993E+02  0.00000000000E+00 0.  1.
</event>
<event>
 4    1  0.9856522E-003  0.9118800E+02  0.7818608E-02  0.1130116E+00
         25   -1    0    0    0    0  0.00000000000E+00  0.00000000000E+00  0.99999998245E-14  0.12500000000E+03  0.12500000000E+03 0.  0.
        -13    1    1    0    0    0  0.11522688191E+02 -0.32393541466E+02  0.70825051309E+01  0.35103944434E+02  0.10566000000E+00 0.  1.
         13    1    1    0    0    0  0.84729755718E+01 -0.25197808542E+02  0.66524467971E+01  0.27404143533E+02  0.10566000000E+00 0. -1.
         22    1    1    0    0    0 -0.19995663763E+02  0.57591350008E+02 -0.13734951928E+02  0.62491912033E+02  0.00000000000E+00 0.  1.
</event>
<event>
 4    1  0.9856522E-003  0.9118800E+02  0.7818608E-02  0.1130116E+00
         25   -1    0    0    0    0  0.00000000000E+00  0.00000000000E+00  0.99999998245E-14  0.12500000000E+03  0.12500000000E+03 0.  0.
        -13    1    1    0    0    0  0.55454144969E+01  0.26070928134E+02  0.39728246483E+00  0.26657342574E+02  0.10566000000E+00 0. -1.
         13    1    1    0    0    0  0.74888889239E+01  0.35048860278E+02  0.44051706677E+00  0.35842869352E+02  0.10566000000E+00 0. -1.
         22    1    1    0    0    0 -0.13034303421E+02 -0.61119788412E+02 -0.83779953160E+00  0.62499788074E+02  0.00000000000E+00 0. -1.
</event>
<event>
 4    1  0.9856522E-003  0.9118800E+02  0.7818608E-02  0.1130116E+00
         25   -1    0    0    0    0  0.00000000000E+00  0.00000000000E+00  0.99999998245E-14  0.12500000000E+03  0.12500000000E+03 0.  0.
        -13    1    1    0    0    0 -0.64918800821E+01 -0.22576359970E+01 -0.20244158405E+02  0.21379395240E+02  0.10566000000E+00 0. -1.
         13    1    1    0    0    0 -0.11214540227E+02 -0.31065497074E+01 -0.39447117394E+02  0.41127883465E+02  0.10566000000E+00 0.  1.
         22    1    1    0    0    0  0.17706420309E+02  0.53641857043E+01  0.59691275798E+02  0.62492721295E+02  0.00000000000E+00 0.  1.
</event>
<event>
 4    1  0.9856522E-003  0.9118800E+02  0.7818608E-02  0.1130116E+00
         25   -1    0    0    0    0  0.00000000000E+00  0.00000000000E+00  0.99999998245E-14  0.12500000000E+03  0.12500000000E+03 0.  0.
        -13    1    1    0    0    0  0.57756175300E+00 -0.31872251817E+01 -0.16427407780E+02  0.16744039905E+02  0.10566000000E+00 0.  1.
         13    1    1    0    0    0 -0.69093243322E+00 -0.81825719142E+01 -0.45021272826E+02  0.45764156735E+02  0.10566000000E+00 0. -1.
         22    1    1    0    0    0  0.11337068022E+00  0.11369797096E+02  0.61448680606E+02  0.62491803360E+02  0.00000000000E+00 0. -1.
</event>
<event>
 4    1  0.9856522E-003  0.9118800E+02  0.7818608E-02  0.1130116E+00
         25   -1    0    0    0    0  0.00000000000E+00  0.00000000000E+00  0.99999998245E-14  0.12500000000E+03  0.12500000000E+03 0.  0.
        -13    1    1    0    0    0  0.15802093893E+00 -0.91321005662E+01 -0.92421787751E+01  0.12994201165E+02  0.10566000000E+00 0. -1.
         13    1    1    0    0    0 -0.53580439626E+00 -0.35209671421E+02 -0.34799455724E+02  0.49507790606E+02  0.10566000000E+00 0.  1.
         22    1    1    0    0    0  0.37778345733E+00  0.44341771987E+02  0.44041634499E+02  0.62498008229E+02  0.00000000000E+00 0.  1.
</event>
<event>
 4    1  0.9856522E-003  0.9118800E+02  0.7818608E-02  0.1130116E+00
         25   -1    0    0    0    0  0.00000000000E+00  0.00000000000E+00  0.99999998245E-14  0.12500000000E+03  0.12500000000E+03 0.  0.
        -13    1    1    0    0    0  0.10560299043E+02 -0.22934503797E+02  0.24562533177E+02  0.35225567141E+02  0.10566000000E+00 0. -1.
         13    1    1    0    0    0  0.78964355801E+01 -0.18408947612E+02  0.18516559148E+02  0.27278511209E+02  0.10566000000E+00 0.  1.
         22    1    1    0    0    0 -0.18456734623E+02  0.41343451409E+02 -0.43079092325E+02  0.62495921650E+02  0.00000000000E+00 0.  1.
</event>
<event>
 4    1  0.9856522E-003  0.9118800E+02  0.7818608E-02  0.1130116E+00
         25   -1    0    0    0    0  0.00000000000E+00  0.00000000000E+00  0.99999998245E-14  0.12500000000E+03  0.12500000000E+03 0.  0.
        -13    1    1    0    0    0  0.75260332549E+01  0.48929968478E+02  0.12543679726E+02  0.51069933003E+02  0.10566000000E+00 0.  1.
         13    1    1    0    0    0  0.81084472833E+01  0.70992161293E+01  0.66637638266E+01  0.12671333764E+02  0.10566000000E+00 0. -1.
         22    1    1    0    0    0 -0.15634480538E+02 -0.56029184607E+02 -0.19207443553E+02  0.61258733233E+02  0.00000000000E+00 0.  1.
</event>
<event>
 4    1  0.9856522E-003  0.9118800E+02  0.7818608E-02  0.1130116E+00
         25   -1    0    0    0    0  0.00000000000E+00  0.00000000000E+00  0.99999998245E-14  0.12500000000E+03  0.12500000000E+03 0.  0.
        -13    1    1    0    0    0 -0.30537824533E+00 -0.33689006941E+01 -0.13748965728E+02  0.14159377471E+02  0.10566000000E+00 0.  1.
         13    1    1    0    0    0 -0.13240565910E+01 -0.12247871616E+02 -0.46745503616E+02  0.48341666886E+02  0.10566000000E+00 0.  1.
         22    1    1    0    0    0  0.16294348364E+01  0.15616772310E+02  0.60494469343E+02  0.62498955643E+02  0.00000000000E+00 0.  1.
</event>
<event>
 4    1  0.9856522E-003  0.9118800E+02  0.7818608E-02  0.1130116E+00
         25   -1    0    0    0    0  0.00000000000E+00  0.00000000000E+00  0.99999998245E-14  0.12500000000E+03  0.12500000000E+03 0.  0.
        -13    1    1    0    0    0 -0.15141697133E+01 -0.66573419021E+01 -0.67881963794E+01  0.96282752995E+01  0.10566000000E+00 0. -1.
         13    1    1    0    0    0 -0.78837018798E+01 -0.38294807601E+02 -0.35598635484E+02  0.52876450873E+02  0.10566000000E+00 0.  1.
         22    1    1    0    0    0  0.93978715931E+01  0.44952149503E+02  0.42386831863E+02  0.62495273828E+02  0.00000000000E+00 0.  1.
</event>
<event>
 4    1  0.9856522E-003  0.9118800E+02  0.7818608E-02  0.1130116E+00
         25   -1    0    0    0    0  0.00000000000E+00  0.00000000000E+00  0.99999998245E-14  0.12500000000E+03  0.12500000000E+03 0.  0.
        -13    1    1    0    0    0 -0.42482161080E+01  0.35756475226E+01  0.35813799430E+01  0.66083312294E+01  0.10566000000E+00 0. -1.
         13    1    1    0    0    0 -0.44459128992E+02  0.17409086781E+02  0.29271974868E+02  0.56004911660E+02  0.10566000000E+00 0.  1.
         22    1    1    0    0    0  0.48707345100E+02 -0.20984734304E+02 -0.32853354811E+02  0.62386757111E+02  0.00000000000E+00 0.  1.
</event>
<event>
 4    1  0.9856522E-003  0.9118800E+02  0.7818608E-02  0.1130116E+00
         25   -1    0    0    0    0  0.00000000000E+00  0.00000000000E+00  0.99999998245E-14  0.12500000000E+03  0.12500000000E+03 0.  0.
        -13    1    1    0    0    0 -0.11461647707E+02  0.92569551791E+01 -0.59074803346E+02  0.60884350549E+02  0.10566000000E+00 0. -1.
         13    1    1    0    0    0  0.11392792031E+00 -0.43927833958E+00 -0.16494864306E+01  0.17140345828E+01  0.10566000000E+00 0.  1.
         22    1    1    0    0    0  0.11347719787E+02 -0.88176768395E+01  0.60724289777E+02  0.62401614868E+02  0.00000000000E+00 0. -1.
</event>
<event>
 4    1  0.9856522E-003  0.9118800E+02  0.7818608E-02  0.1130116E+00
         25   -1    0    0    0    0  0.00000000000E+00  0.00000000000E+00  0.99999998245E-14  0.12500000000E+03  0.12500000000E+03 0.  0.
        -13    1    1    0    0    0 -0.34053038345E+02  0.42428214797E+02  0.22781249099E+02  0.58981008011E+02  0.10566000000E+00 0.  1.
         13    1    1    0    0    0  0.10322876372E+01  0.44549170342E+01 -0.10367368584E+01  0.46901909233E+01  0.10566000000E+00 0. -1.
         22    1    1    0    0    0  0.33020750708E+02 -0.46883131832E+02 -0.21744512240E+02  0.61328801066E+02  0.00000000000E+00 0.  1.
</event>
<event>
 4    1  0.9856522E-003  0.9118800E+02  0.7818608E-02  0.1130116E+00
         25   -1    0    0    0    0  0.00000000000E+00  0.00000000000E+00  0.99999998245E-14  0.12500000000E+03  0.12500000000E+03 0.  0.
        -13    1    1    0    0    0 -0.10679076589E+01  0.31309505807E+01 -0.77537870075E+00  0.33993608917E+01  0.10566000000E+00 0.  1.
         13    1    1    0    0    0 -0.23193272063E+02  0.52943286611E+02 -0.12358577578E+02  0.59107233651E+02  0.10566000000E+00 0. -1.
         22    1    1    0    0    0  0.24261179722E+02 -0.56074237191E+02  0.13133956279E+02  0.62493405457E+02  0.00000000000E+00 0. -1.
</event>
<event>
 4    1  0.9856522E-003  0.9118800E+02  0.7818608E-02  0.1130116E+00
         25   -1    0    0    0    0  0.00000000000E+00  0.00000000000E+00  0.99999998245E-14  0.12500000000E+03  0.12500000000E+03 0.  0.
        -13    1    1    0    0    0 -0.72179443545E+01  0.15831079186E+02 -0.10423365574E+02  0.20282492520E+02  0.10566000000E+00 0.  1.
         13    1    1    0    0    0 -0.14976920987E+02  0.32820767634E+02 -0.21927719720E+02  0.42217851751E+02  0.10566000000E+00 0.  1.
         22    1    1    0    0    0  0.22194865342E+02 -0.48651846820E+02  0.32351085294E+02  0.62499655729E+02  0.00000000000E+00 0.  1.
</event>
<event>
 4    1  0.9856522E-003  0.9118800E+02  0.7818608E-02  0.1130116E+00
         25   -1    0    0    0    0  0.00000000000E+00  0.00000000000E+00  0.99999998245E-14  0.12500000000E+03  0.12500000000E+03 0.  0.
        -13    1    1    0    0    0  0.95089420842E+01  0.44559379911E+02 -0.14928098273E+02  0.47945986273E+02  0.10566000000E+00 0. -1.
         13    1    1    0    0    0  0.15656121841E+01  0.14190803637E+02 -0.31002636498E+01  0.14610025603E+02  0.10566000000E+00 0.  1.
         22    1    1    0    0    0 -0.11074554268E+02 -0.58750183548E+02  0.18028361923E+02  0.62443988124E+02  0.00000000000E+00 0. -1.
</event>
<event>
 4    1  0.9856522E-003  0.9118800E+02  0.7818608E-02  0.1130116E+00
         25   -1    0    0    0    0  0.00000000000E+00  0.00000000000E+00  0.99999998245E-14  0.12500000000E+03  0.12500000000E+03 0.  0.
        -13    1    1    0    0    0  0.25122699746E+02  0.43507838766E+02 -0.56786138582E+01  0.50560260047E+02  0.10566000000E+00 0. -1.
         13    1    1    0    0    0 -0.40201074313E+01  0.11867543010E+02 -0.62319988853E+01  0.13994599494E+02  0.10566000000E+00 0.  1.
         22    1    1    0    0    0 -0.21102592315E+02 -0.55375381776E+02  0.11910612744E+02  0.60445140459E+02  0.00000000000E+00 0. -1.
</event>
<event>
 4    1  0.9856522E-003  0.9118800E+02  0.7818608E-02  0.1130116E+00
         25   -1    0    0    0    0  0.00000000000E+00  0.00000000000E+00  0.99999998245E-14  0.12500000000E+03  0.12500000000E+03 0.  0.
        -13    1    1    0    0    0 -0.11927925374E+02  0.12281680495E+02 -0.16994875813E+02  0.24123682294E+02  0.10566000000E+00 0.  1.
         13    1    1    0    0    0 -0.17338516319E+02  0.19378743607E+02 -0.28238025516E+02  0.38386939198E+02  0.10566000000E+00 0. -1.
         22    1    1    0    0    0  0.29266441693E+02 -0.31660424102E+02  0.45232901329E+02  0.62489378508E+02  0.00000000000E+00 0.  1.
</event>
<event>
 4    1  0.9856522E-003  0.9118800E+02  0.7818608E-02  0.1130116E+00
         25   -1    0    0    0    0  0.00000000000E+00  0.00000000000E+00  0.99999998245E-14  0.12500000000E+03  0.12500000000E+03 0.  0.
        -13    1    1    0    0    0 -0.87242200479E+00 -0.11408977824E+01 -0.15260517094E+01  0.20982768548E+01  0.10566000000E+00 0. -1.
         13    1    1    0    0    0 -0.36825698450E+02 -0.34606457147E+02 -0.33152526635E+02  0.60438730371E+02  0.10566000000E+00 0.  1.
         22    1    1    0    0    0  0.37698120455E+02  0.35747354929E+02  0.34678578344E+02  0.62462992774E+02  0.00000000000E+00 0.  1.
</event>
<event>
 4    1  0.9856522E-003  0.9118800E+02  0.7818608E-02  0.1130116E+00
         25   -1    0    0    0    0  0.00000000000E+00  0.00000000000E+00  0.99999998245E-14  0.12500000000E+03  0.12500000000E+03 0.  0.
        -13    1    1    0    0    0  0.54222998124E+01 -0.29611604672E+02 -0.82162600350E+01  0.31205232887E+02  0.10566000000E+00 0. -1.
         13    1    1    0    0    0  0.10767708060E+02 -0.29582733432E+02 -0.21585017514E+01  0.31555537518E+02  0.10566000000E+00 0.  1.
         22    1    1    0    0    0 -0.16190007872E+02  0.59194338104E+02  0.10374761786E+02  0.62239229596E+02  0.00000000000E+00 0.  1.
</event>
<event>
 4    1  0.9856522E-003  0.9118800E+02  0.7818608E-02  0.1130116E+00
         25   -1    0    0    0    0  0.00000000000E+00  0.00000000000E+00  0.99999998245E-14  0.12500000000E+03  0.12500000000E+03 0.  0.
        -13    1    1    0    0    0  0.42929984709E+01 -0.36658085636E+01  0.24536057890E+01  0.61562434730E+01  0.10566000000E+00 0. -1.
         13    1    1    0    0    0  0.41907016910E+02 -0.37276345202E+02  0.65180920845E+01  0.56464330921E+02  0.10566000000E+00 0.  1.
         22    1    1    0    0    0 -0.46200015381E+02  0.40942153766E+02 -0.89716978735E+01  0.62379425606E+02  0.00000000000E+00 0.  1.
</event>
<event>
 4    1  0.9856522E-003  0.9118800E+02  0.7818608E-02  0.1130116E+00
         25   -1    0    0    0    0  0.00000000000E+00  0.00000000000E+00  0.99999998245E-14  0.12500000000E+03  0.12500000000E+03 0.  0.
        -13    1    1    0    0    0  0.82085981207E+01  0.35232508809E+01 -0.34413311384E+01  0.95733120662E+01  0.10566000000E+00 0.  1.
         13    1    1    0    0    0  0.41459130075E+02  0.22027501176E+02  0.27723543002E+02  0.54522254862E+02  0.10566000000E+00 0. -1.
         22    1    1    0    0    0 -0.49667728196E+02 -0.25550752057E+02 -0.24282211863E+02  0.60904433072E+02  0.00000000000E+00 0. -1.
</event>
<event>
 4    1  0.9856522E-003  0.9118800E+02  0.7818608E-02  0.1130116E+00
         25   -1    0    0    0    0  0.00000000000E+00  0.00000000000E+00  0.99999998245E-14  0.12500000000E+03  0.12500000000E+03 0.  0.
        -13    1    1    0    0    0  0.11486151336E+01 -0.89059322038E+00  0.15199892401E+01  0.21057075615E+01  0.10566000000E+00 0.  1.
         13    1    1    0    0    0  0.25142411044E+02 -0.38334717080E+02  0.39370256977E+02  0.60429460242E+02  0.10566000000E+00 0. -1.
         22    1    1    0    0    0 -0.26291026178E+02  0.39225310300E+02 -0.40890246217E+02  0.62464832196E+02  0.00000000000E+00 0. -1.
</event>
<event>
 4    1  0.9856522E-003  0.9118800E+02  0.7818608E-02  0.1130116E+00
         25   -1    0    0    0    0  0.00000000000E+00  0.00000000000E+00  0.99999998245E-14  0.12500000000E+03  0.12500000000E+03 0.  0.
        -13    1    1    0    0    0  0.97363559219E+00 -0.38286994944E+02  0.27254160594E+02  0.47006833353E+02  0.10566000000E+00 0. -1.
         13    1    1    0    0    0 -0.24552693988E+01 -0.12477802241E+02  0.90123374593E+01  0.15587087191E+02  0.10566000000E+00 0.  1.
         22    1    1    0    0    0  0.14816338066E+01  0.50764797186E+02 -0.36266498053E+02  0.62406079456E+02  0.00000000000E+00 0. -1.
</event>
<event>
 4    1  0.9856522E-003  0.9118800E+02  0.7818608E-02  0.1130116E+00
         25   -1    0    0    0    0  0.00000000000E+00  0.00000000000E+00  0.99999998245E-14  0.12500000000E+03  0.12500000000E+03 0.  0.
        -13    1    1    0    0    0 -0.82780171000E+01  0.29626528653E+02 -0.30092636416E+02  0.43032948977E+02  0.10566000000E+00 0.  1.
         13    1    1    0    0    0 -0.36995550497E+01  0.13398276666E+02 -0.13629500902E+02  0.19467279832E+02  0.10566000000E+00 0.  1.
         22    1    1    0    0    0  0.11977572150E+02 -0.43024805318E+02  0.43722137319E+02  0.62499771191E+02  0.00000000000E+00 0.  1.
</event>
<event>
 4    1  0.9856522E-003  0.9118800E+02  0.7818608E-02  0.1130116E+00
         25   -1    0    0    0    0  0.00000000000E+00  0.00000000000E+00  0.99999998245E-14  0.12500000000E+03  0.12500000000E+03 0.  0.
        -13    1    1    0    0    0  0.55625458384E+02 -0.51253365480E+01 -0.23130151826E+02  0.60460530784E+02  0.10566000000E+00 0.  1.
         13    1    1    0    0    0  0.91048258285E+00 -0.62660140214E+00 -0.20900635997E+01  0.23666722919E+01  0.10566000000E+00 0. -1.
         22    1    1    0    0    0 -0.56535940967E+02  0.57519379502E+01  0.25220215425E+02  0.62172796924E+02  0.00000000000E+00 0.  1.
</event>
<event>
 4    1  0.9856522E-003  0.9118800E+02  0.7818608E-02  0.1130116E+00
         25   -1    0    0    0    0  0.00000000000E+00  0.00000000000E+00  0.99999998245E-14  0.12500000000E+03  0.12500000000E+03 0.  0.
        -13    1    1    0    0    0  0.45055810338E+01 -0.12054717254E+02  0.77645703950E+01  0.15030508507E+02  0.10566000000E+00 0.  1.
         13    1    1    0    0    0  0.39809233212E+02  0.14799061224E+02  0.29740873087E+02  0.51848991871E+02  0.10566000000E+00 0. -1.
         22    1    1    0    0    0 -0.44314814246E+02 -0.27443439704E+01 -0.37505443482E+02  0.58120499622E+02  0.00000000000E+00 0. -1.
</event>
<event>
 4    1  0.9856522E-003  0.9118800E+02  0.7818608E-02  0.1130116E+00
         25   -1    0    0    0    0  0.00000000000E+00  0.00000000000E+00  0.99999998245E-14  0.12500000000E+03  0.12500000000E+03 0.  0.
        -13    1    1    0    0    0 -0.28682930740E+01  0.70782039877E+01 -0.56729684855E+00  0.76590512859E+01  0.10566000000E+00 0. -1.
         13    1    1    0    0    0  0.59232778736E+02  0.39902001708E+01  0.58653873384E+01  0.59656162354E+02  0.10566000000E+00 0.  1.
         22    1    1    0    0    0 -0.56364485662E+02 -0.11068404158E+02 -0.52980904898E+01  0.57684786360E+02  0.00000000000E+00 0.  1.
</event>
<event>
 4    1  0.9856522E-003  0.9118800E+02  0.7818608E-02  0.1130116E+00
         25   -1    0    0    0    0  0.00000000000E+00  0.00000000000E+00  0.99999998245E-14  0.12500000000E+03  0.12500000000E+03 0.  0.
        -13    1    1    0    0    0 -0.20375289060E+02 -0.72781221896E+01 -0.15941131369E+01  0.21695064592E+02  0.10566000000E+00 0. -1.
         13    1    1    0    0    0 -0.16265684294E+02 -0.29505309360E+02 -0.27766401798E+02  0.43659134197E+02  0.10566000000E+00 0.  1.
         22    1    1    0    0    0  0.36640973354E+02  0.36783431550E+02  0.29360514935E+02  0.59645801211E+02  0.00000000000E+00 0.  1.
</event>
<event>
 4    1  0.9856522E-003  0.9118800E+02  0.7818608E-02  0.1130116E+00
         25   -1    0    0    0    0  0.00000000000E+00  0.00000000000E+00  0.99999998245E-14  0.12500000000E+03  0.12500000000E+03 0.  0.
        -13    1    1    0    0    0 -0.52644264185E+02  0.21662013063E+02 -0.19237741372E+02  0.60089626548E+02  0.10566000000E+00 0.  1.
         13    1    1    0    0    0  0.48292822127E+01 -0.39699453256E+01 -0.54225750823E+01  0.82763468473E+01  0.10566000000E+00 0. -1.
         22    1    1    0    0    0  0.47814981972E+02 -0.17692067737E+02  0.24660316454E+02  0.56634026605E+02  0.00000000000E+00 0.  1.
</event>
<event>
 4    1  0.9856522E-003  0.9118800E+02  0.7818608E-02  0.1130116E+00
         25   -1    0    0    0    0  0.00000000000E+00  0.00000000000E+00  0.99999998245E-14  0.12500000000E+03  0.12500000000E+03 0.  0.
        -13    1    1    0    0    0 -0.38074107514E+02 -0.33397421087E+02 -0.13516098171E+02  0.52418712995E+02  0.10566000000E+00 0.  1.
         13    1    1    0    0    0 -0.92289362675E+01 -0.42968052925E+01 -0.14204631024E+01  0.10279332654E+02  0.10566000000E+00 0. -1.
         22    1    1    0    0    0  0.47303043782E+02  0.37694226379E+02  0.14936561273E+02  0.62301954351E+02  0.00000000000E+00 0.  1.
</event>
<event>
 4    1  0.9856522E-003  0.9118800E+02  0.7818608E-02  0.1130116E+00
         25   -1    0    0    0    0  0.00000000000E+00  0.00000000000E+00  0.99999998245E-14  0.12500000000E+03  0.12500000000E+03 0.  0.
        -13    1    1    0    0    0  0.13595326136E+02  0.60646623414E+02 -0.85199857582E+00  0.62157725907E+02  0.10566000000E+00 0.  1.
         13    1    1    0    0    0  0.90315167366E+00 -0.54004982129E+01 -0.14958843825E+01  0.56771381888E+01  0.10566000000E+00 0. -1.
         22    1    1    0    0    0 -0.14498477810E+02 -0.55246125201E+02  0.23478829583E+01  0.57165135904E+02  0.00000000000E+00 0.  1.
</event>
<event>
 4    1  0.9856522E-003  0.9118800E+02  0.7818608E-02  0.1130116E+00
         25   -1    0    0    0    0  0.00000000000E+00  0.00000000000E+00  0.99999998245E-14  0.12500000000E+03  0.12500000000E+03 0.  0.
        -13    1    1    0    0    0 -0.12887483319E+02 -0.87903365592E+00 -0.20134366562E+01  0.13073829495E+02  0.10566000000E+00 0.  1.
         13    1    1    0    0    0 -0.38986726130E+02 -0.11390386596E+02  0.31141813285E+02  0.51181338590E+02  0.10566000000E+00 0. -1.
         22    1    1    0    0    0  0.51874209449E+02  0.12269420251E+02 -0.29128376629E+02  0.60744831915E+02  0.00000000000E+00 0. -1.
</event>
<event>
 4    1  0.9856522E-003  0.9118800E+02  0.7818608E-02  0.1130116E+00
         25   -1    0    0    0    0  0.00000000000E+00  0.00000000000E+00  0.99999998245E-14  0.12500000000E+03  0.12500000000E+03 0.  0.
        -13    1    1    0    0    0 -0.14099279532E+02  0.52513930682E+02 -0.29487293112E+02  0.61854783308E+02  0.10566000000E+00 0. -1.
         13    1    1    0    0    0  0.10152651193E+01  0.13312610026E-01  0.24125721273E+01  0.26196581443E+01  0.10566000000E+00 0.  1.
         22    1    1    0    0    0  0.13084014413E+02 -0.52527243293E+02  0.27074720984E+02  0.60525558547E+02  0.00000000000E+00 0. -1.
</event>
<event>
 4    1  0.9856522E-003  0.9118800E+02  0.7818608E-02  0.1130116E+00
         25   -1    0    0    0    0  0.00000000000E+00  0.00000000000E+00  0.99999998245E-14  0.12500000000E+03  0.12500000000E+03 0.  0.
        -13    1    1    0    0    0  0.11266254831E+02 -0.31228849949E+02  0.21294182584E+02  0.39441386170E+02  0.10566000000E+00 0. -1.
         13    1    1    0    0    0  0.21041199205E+02  0.31310311857E+01  0.17679288149E+02  0.27660510005E+02  0.10566000000E+00 0.  1.
         22    1    1    0    0    0 -0.32307454036E+02  0.28097818763E+02 -0.38973470733E+02  0.57898103825E+02  0.00000000000E+00 0. -1.
</event>
<event>
 4    1  0.9856522E-003  0.9118800E+02  0.7818608E-02  0.1130116E+00
         25   -1    0    0    0    0  0.00000000000E+00  0.00000000000E+00  0.99999998245E-14  0.12500000000E+03  0.12500000000E+03 0.  0.
        -13    1    1    0    0    0  0.14508231655E+01 -0.11343025312E+02 -0.30105174430E+02  0.32204065001E+02  0.10566000000E+00 0. -1.
         13    1    1    0    0    0  0.73369633591E+00 -0.10429084848E+02 -0.28436954320E+02  0.30298113078E+02  0.10566000000E+00 0.  1.
         22    1    1    0    0    0 -0.21845195014E+01  0.21772110160E+02  0.58542128750E+02  0.62497821921E+02  0.00000000000E+00 0. -1.
</event>
<event>
 4    1  0.9856522E-003  0.9118800E+02  0.7818608E-02  0.1130116E+00
         25   -1    0    0    0    0  0.00000000000E+00  0.00000000000E+00  0.99999998245E-14  0.12500000000E+03  0.12500000000E+03 0.  0.
        -13    1    1    0    0    0  0.62704096212E+01  0.21874564132E+02  0.54163999411E+02  0.58750017779E+02  0.10566000000E+00 0.  1.
         13    1    1    0    0    0 -0.68254858456E+00  0.33569164119E+01  0.23173988308E+01  0.41371804098E+01  0.10566000000E+00 0. -1.
         22    1    1    0    0    0 -0.55878610366E+01 -0.25231480544E+02 -0.56481398242E+02  0.62112801811E+02  0.00000000000E+00 0.  1.
</event>
<event>
 4    1  0.9856522E-003  0.9118800E+02  0.7818608E-02  0.1130116E+00
         25   -1    0    0    0    0  0.00000000000E+00  0.00000000000E+00  0.99999998245E-14  0.12500000000E+03  0.12500000000E+03 0.  0.
        -13    1    1    0    0    0 -0.14763840780E+01 -0.56294941255E+01 -0.67660619247E+01  0.89253387644E+01  0.10566000000E+00 0. -1.
         13    1    1    0    0    0 -0.29530231492E+02  0.52139184834E+02  0.16591917826E+01  0.59944084350E+02  0.10566000000E+00 0.  1.
         22    1    1    0    0    0  0.31006615570E+02 -0.46509690709E+02  0.51068701421E+01  0.56130576886E+02  0.00000000000E+00 0.  1.
</event>
<event>
 4    1  0.9856522E-003  0.9118800E+02  0.7818608E-02  0.1130116E+00
         25   -1    0    0    0    0  0.00000000000E+00  0.00000000000E+00  0.99999998245E-14  0.12500000000E+03  0.12500000000E+03 0.  0.
        -13    1    1    0    0    0  0.12770193738E+02  0.90157772647E+01  0.38706249375E+02  0.41743825801E+02  0.10566000000E+00 0.  1.
         13    1    1    0    0    0  0.50885190804E+01  0.38306817016E+01  0.19774111165E+02  0.20774835382E+02  0.10566000000E+00 0. -1.
         22    1    1    0    0    0 -0.17858712819E+02 -0.12846458966E+02 -0.58480360540E+02  0.62481338817E+02  0.00000000000E+00 0.  1.
</event>
<event>
 4    1  0.9856522E-003  0.9118800E+02  0.7818608E-02  0.1130116E+00
         25   -1    0    0    0    0  0.00000000000E+00  0.00000000000E+00  0.99999998245E-14  0.12500000000E+03  0.12500000000E+03 0.  0.
        -13    1    1    0    0    0 -0.23155535034E+02 -0.33369908874E+02  0.23808586158E+02  0.47080670767E+02  0.10566000000E+00 0.  1.
         13    1    1    0    0    0 -0.74525921606E+01 -0.11002874232E+02  0.78202500601E+01  0.15419852344E+02  0.10566000000E+00 0.  1.
         22    1    1    0    0    0  0.30608127195E+02  0.44372783106E+02 -0.31628836218E+02  0.62499476889E+02  0.00000000000E+00 0.  1.
</event>
<event>
 4    1  0.9856522E-003  0.9118800E+02  0.7818608E-02  0.1130116E+00
         25   -1    0    0    0    0  0.00000000000E+00  0.00000000000E+00  0.99999998245E-14  0.12500000000E+03  0.12500000000E+03 0.  0.
        -13    1    1    0    0    0  0.31486793720E+02 -0.13146803538E+02 -0.40589804921E+02  0.53026408982E+02  0.10566000000E+00 0. -1.
         13    1    1    0    0    0  0.53131519310E+01 -0.29132900094E+01 -0.72941657608E+01  0.94832937475E+01  0.10566000000E+00 0.  1.
         22    1    1    0    0    0 -0.36799945651E+02  0.16060093547E+02  0.47883970681E+02  0.62490297270E+02  0.00000000000E+00 0. -1.
</event>
<event>
 4    1  0.9856522E-003  0.9118800E+02  0.7818608E-02  0.1130116E+00
         25   -1    0    0    0    0  0.00000000000E+00  0.00000000000E+00  0.99999998245E-14  0.12500000000E+03  0.12500000000E+03 0.  0.
        -13    1    1    0    0    0  0.83076368347E+01  0.21488210505E+02 -0.36447370023E+01  0.23324992869E+02  0.10566000000E+00 0.  1.
         13    1    1    0    0    0  0.49641374493E+00  0.33823624753E+02 -0.21710399837E+02  0.40194982811E+02  0.10566000000E+00 0. -1.
         22    1    1    0    0    0 -0.88040505796E+01 -0.55311835258E+02  0.25355136839E+02  0.61480024320E+02  0.00000000000E+00 0. -1.
</event>
<event>
 4    1  0.9856522E-003  0.9118800E+02  0.7818608E-02  0.1130116E+00
         25   -1    0    0    0    0  0.00000000000E+00  0.00000000000E+00  0.99999998245E-14  0.12500000000E+03  0.12500000000E+03 0.  0.
        -13    1    1    0    0    0  0.26508201491E+02 -0.14426330989E+02 -0.14369947197E+02  0.33426192105E+02  0.10566000000E+00 0. -1.
         13    1    1    0    0    0 -0.40017228521E+02 -0.16556372857E+00  0.41686773754E+02  0.57785848267E+02  0.10566000000E+00 0.  1.
         22    1    1    0    0    0  0.13509027029E+02  0.14591894718E+02 -0.27316826557E+02  0.33787959629E+02  0.00000000000E+00 0.  1.
</event>
<event>
 4    1  0.9856522E-003  0.9118800E+02  0.7818608E-02  0.1130116E+00
         25   -1    0    0    0    0  0.00000000000E+00  0.00000000000E+00  0.99999998245E-14  0.12500000000E+03  0.12500000000E+03 0.  0.
        -13    1    1    0    0    0  0.45126150866E+02  0.32865113732E+01  0.16301619525E+02  0.48092874859E+02  0.10566000000E+00 0.  1.
         13    1    1    0    0    0  0.13513392405E+02  0.11860324649E+01  0.48537478423E+01  0.14407931130E+02  0.10566000000E+00 0. -1.
         22    1    1    0    0    0 -0.58639543272E+02 -0.44725438381E+01 -0.21155367368E+02  0.62499194010E+02  0.00000000000E+00 0.  1.
</event>
<event>
 4    1  0.9856522E-003  0.9118800E+02  0.7818608E-02  0.1130116E+00
         25   -1    0    0    0    0  0.00000000000E+00  0.00000000000E+00  0.99999998245E-14  0.12500000000E+03  0.12500000000E+03 0.  0.
        -13    1    1    0    0    0  0.16071806804E+02 -0.27085425326E+02 -0.95072118921E+01  0.32898654699E+02  0.10566000000E+00 0.  1.
         13    1    1    0    0    0  0.13165047239E+02 -0.24640918639E+02 -0.98303439989E+01  0.29616552253E+02  0.10566000000E+00 0. -1.
         22    1    1    0    0    0 -0.29236854043E+02  0.51726343965E+02  0.19337555891E+02  0.62484793047E+02  0.00000000000E+00 0. -1.
</event>
<event>
 4    1  0.9856522E-003  0.9118800E+02  0.7818608E-02  0.1130116E+00
         25   -1    0    0    0    0  0.00000000000E+00  0.00000000000E+00  0.99999998245E-14  0.12500000000E+03  0.12500000000E+03 0.  0.
        -13    1    1    0    0    0  0.37318970856E+01 -0.11133148588E+02 -0.80758773778E+01  0.14251491599E+02  0.10566000000E+00 0.  1.
         13    1    1    0    0    0  0.12482677478E+02 -0.47745609787E+02  0.49462121051E+01  0.49597748630E+02  0.10566000000E+00 0. -1.
         22    1    1    0    0    0 -0.16214574563E+02  0.58878758374E+02  0.31296652726E+01  0.61150759772E+02  0.00000000000E+00 0.  1.
</event>
<event>
 4    1  0.9856522E-003  0.9118800E+02  0.7818608E-02  0.1130116E+00
         25   -1    0    0    0    0  0.00000000000E+00  0.00000000000E+00  0.99999998245E-14  0.12500000000E+03  0.12500000000E+03 0.  0.
        -13    1    1    0    0    0  0.93738909920E+01  0.27504181306E+01  0.64509093179E+01  0.11707263869E+02  0.10566000000E+00 0.  1.
         13    1    1    0    0    0 -0.12507529883E+01 -0.49117283216E+02  0.26508359841E+02  0.55828095069E+02  0.10566000000E+00 0. -1.
         22    1    1    0    0    0 -0.81231380038E+01  0.46366865086E+02 -0.32959269159E+02  0.57464641062E+02  0.00000000000E+00 0. -1.
</event>
<event>
 4    1  0.9856522E-003  0.9118800E+02  0.7818608E-02  0.1130116E+00
         25   -1    0    0    0    0  0.00000000000E+00  0.00000000000E+00  0.99999998245E-14  0.12500000000E+03  0.12500000000E+03 0.  0.
        -13    1    1    0    0    0 -0.44787018266E+02  0.78917156190E+01  0.18940167634E+02  0.49263549350E+02  0.10566000000E+00 0.  1.
         13    1    1    0    0    0 -0.12007242238E+02  0.13168464329E+01  0.54401309495E+01  0.13248174948E+02  0.10566000000E+00 0. -1.
         22    1    1    0    0    0  0.56794260503E+02 -0.92085620519E+01 -0.24380298583E+02  0.62488275702E+02  0.00000000000E+00 0.  1.
</event>
<event>
 4    1  0.9856522E-003  0.9118800E+02  0.7818608E-02  0.1130116E+00
         25   -1    0    0    0    0  0.00000000000E+00  0.00000000000E+00  0.99999998245E-14  0.12500000000E+03  0.12500000000E+03 0.  0.
        -13    1    1    0    0    0  0.31554242204E+01  0.81859938594E+01  0.91512544156E+01  0.12677689809E+02  0.10566000000E+00 0.  1.
         13    1    1    0    0    0  0.12898879788E+02  0.34866052233E+02  0.33193329134E+02  0.49838047325E+02  0.10566000000E+00 0. -1.
         22    1    1    0    0    0 -0.16054304008E+02 -0.43052046093E+02 -0.42344583550E+02  0.62484262866E+02  0.00000000000E+00 0. -1.
</event>
<event>
 4    1  0.9856522E-003  0.9118800E+02  0.7818608E-02  0.1130116E+00
         25   -1    0    0    0    0  0.00000000000E+00  0.00000000000E+00  0.99999998245E-14  0.12500000000E+03  0.12500000000E+03 0.  0.
        -13    1    1    0    0    0  0.46723955249E+00  0.13344039967E+02 -0.16547034269E+02  0.21262577985E+02  0.10566000000E+00 0.  1.
         13    1    1    0    0    0  0.15059007533E+02  0.41786483013E+02  0.11642428598E+01  0.44432538707E+02  0.10566000000E+00 0. -1.
         22    1    1    0    0    0 -0.15526247086E+02 -0.55130522980E+02  0.15382791409E+02  0.59304883308E+02  0.00000000000E+00 0. -1.
</event>
<event>
 4    1  0.9856522E-003  0.9118800E+02  0.7818608E-02  0.1130116E+00
         25   -1    0    0    0    0  0.00000000000E+00  0.00000000000E+00  0.99999998245E-14  0.12500000000E+03  0.12500000000E+03 0.  0.
        -13    1    1    0    0    0  0.23407222419E+01  0.35419876230E+02 -0.61080409625E+01  0.36018966409E+02  0.10566000000E+00 0.  1.
         13    1    1    0    0    0 -0.80054086944E+00  0.26128712479E+02 -0.44417260328E+01  0.26515855176E+02  0.10566000000E+00 0. -1.
         22    1    1    0    0    0 -0.15401813725E+01 -0.61548588709E+02  0.10549766995E+02  0.62465178415E+02  0.00000000000E+00 0.  1.
</event>
<event>
 4    1  0.9856522E-003  0.9118800E+02  0.7818608E-02  0.1130116E+00
         25   -1    0    0    0    0  0.00000000000E+00  0.00000000000E+00  0.99999998245E-14  0.12500000000E+03  0.12500000000E+03 0.  0.
        -13    1    1    0    0    0  0.46223816713E+01 -0.60758490163E+01  0.30939917233E+02  0.31868040354E+02  0.10566000000E+00 0.  1.
         13    1    1    0    0    0  0.47357617486E+01 -0.73001975436E+01  0.29380176174E+02  0.30641903328E+02  0.10566000000E+00 0. -1.
         22    1    1    0    0    0 -0.93581434200E+01  0.13376046560E+02 -0.60320093408E+02  0.62490056317E+02  0.00000000000E+00 0.  1.
</event>
<event>
 4    1  0.9856522E-003  0.9118800E+02  0.7818608E-02  0.1130116E+00
         25   -1    0    0    0    0  0.00000000000E+00  0.00000000000E+00  0.99999998245E-14  0.12500000000E+03  0.12500000000E+03 0.  0.
        -13    1    1    0    0    0 -0.76051941457E+01 -0.11372740199E+01  0.52815675868E+00  0.77085980429E+01  0.10566000000E+00 0.  1.
         13    1    1    0    0    0 -0.51233078022E+02 -0.12745763666E+02  0.14982084718E+02  0.54879475230E+02  0.10566000000E+00 0. -1.
         22    1    1    0    0    0  0.58838272168E+02  0.13883037686E+02 -0.15510241477E+02  0.62411926727E+02  0.00000000000E+00 0. -1.
</event>
<event>
 4    1  0.9856522E-003  0.9118800E+02  0.7818608E-02  0.1130116E+00
         25   -1    0    0    0    0  0.00000000000E+00  0.00000000000E+00  0.99999998245E-14  0.12500000000E+03  0.12500000000E+03 0.  0.
        -13    1    1    0    0    0 -0.35805959622E+02 -0.25483616395E+02  0.38844296455E+00  0.43950466448E+02  0.10566000000E+00 0.  1.
         13    1    1    0    0    0 -0.18153965241E+02  0.78509407753E+01  0.11739488002E+02  0.23000662329E+02  0.10566000000E+00 0. -1.
         22    1    1    0    0    0  0.53959924863E+02  0.17632675620E+02 -0.12127930966E+02  0.58048871223E+02  0.00000000000E+00 0.  1.
</event>
<event>
 4    1  0.9856522E-003  0.9118800E+02  0.7818608E-02  0.1130116E+00
         25   -1    0    0    0    0  0.00000000000E+00  0.00000000000E+00  0.99999998245E-14  0.12500000000E+03  0.12500000000E+03 0.  0.
        -13    1    1    0    0    0 -0.81598952860E+00 -0.71025462435E+00 -0.16408562874E+00  0.10992673339E+01  0.10566000000E+00 0. -1.
         13    1    1    0    0    0  0.54265990438E+02 -0.23059827032E+02  0.19796505556E+02  0.62196994600E+02  0.10566000000E+00 0.  1.
         22    1    1    0    0    0 -0.53450000909E+02  0.23770081656E+02 -0.19632419927E+02  0.61703738066E+02  0.00000000000E+00 0.  1.
</event>
<event>
 4    1  0.9856522E-003  0.9118800E+02  0.7818608E-02  0.1130116E+00
         25   -1    0    0    0    0  0.00000000000E+00  0.00000000000E+00  0.99999998245E-14  0.12500000000E+03  0.12500000000E+03 0.  0.
        -13    1    1    0    0    0  0.39646414167E+02 -0.12478548276E+02 -0.12126875142E+02  0.43296935090E+02  0.10566000000E+00 0.  1.
         13    1    1    0    0    0  0.91296176580E+01  0.16359068905E+02 -0.16542302860E+02  0.24992558932E+02  0.10566000000E+00 0. -1.
         22    1    1    0    0    0 -0.48776031825E+02 -0.38805206291E+01  0.28669178002E+02  0.56710505978E+02  0.00000000000E+00 0.  1.
</event>
<event>
 4    1  0.9856522E-003  0.9118800E+02  0.7818608E-02  0.1130116E+00
         25   -1    0    0    0    0  0.00000000000E+00  0.00000000000E+00  0.99999998245E-14  0.12500000000E+03  0.12500000000E+03 0.  0.
        -13    1    1    0    0    0 -0.90039424230E+01 -0.19442614375E+01  0.51950288543E+00  0.92267100842E+01  0.10566000000E+00 0. -1.
         13    1    1    0    0    0 -0.52145557579E+02 -0.97083720432E+01  0.50129303281E+01  0.53278065820E+02  0.10566000000E+00 0.  1.
         22    1    1    0    0    0  0.61149500002E+02  0.11652633481E+02 -0.55324332135E+01  0.62495224096E+02  0.00000000000E+00 0.  1.
</event>
<event>
 4    1  0.9856522E-003  0.9118800E+02  0.7818608E-02  0.1130116E+00
         25   -1    0    0    0    0  0.00000000000E+00  0.00000000000E+00  0.99999998245E-14  0.12500000000E+03  0.12500000000E+03 0.  0.
        -13    1    1    0    0    0  0.12919728162E+02  0.55198030436E+01  0.57444399619E+02  0.59137617580E+02  0.10566000000E+00 0.  1.
         13    1    1    0    0    0  0.41558601349E+00  0.47705791767E-01  0.33481776782E+01  0.33758621681E+01  0.10566000000E+00 0. -1.
         22    1    1    0    0    0 -0.13335314175E+02 -0.55675088354E+01 -0.60792577297E+02  0.62486520252E+02  0.00000000000E+00 0.  1.
</event>
<event>
 4    1  0.9856522E-003  0.9118800E+02  0.7818608E-02  0.1130116E+00
         25   -1    0    0    0    0  0.00000000000E+00  0.00000000000E+00  0.99999998245E-14  0.12500000000E+03  0.12500000000E+03 0.  0.
        -13    1    1    0    0    0 -0.19302665140E+02  0.22354978514E+02 -0.19276921603E+02  0.35269658581E+02  0.10566000000E+00 0. -1.
         13    1    1    0    0    0 -0.25693835168E+02  0.11148703213E+02 -0.52619105325E+01  0.28498519531E+02  0.10566000000E+00 0.  1.
         22    1    1    0    0    0  0.44996500308E+02 -0.33503681727E+02  0.24538832136E+02  0.61231821889E+02  0.00000000000E+00 0.  1.
</event>
<event>
 4    1  0.9856522E-003  0.9118800E+02  0.7818608E-02  0.1130116E+00
         25   -1    0    0    0    0  0.00000000000E+00  0.00000000000E+00  0.99999998245E-14  0.12500000000E+03  0.12500000000E+03 0.  0.
        -13    1    1    0    0    0  0.21530952612E+02 -0.13121203876E+02  0.36386228482E+01  0.25475451945E+02  0.10566000000E+00 0.  1.
         13    1    1    0    0    0 -0.11468935467E+01 -0.35853322570E+02  0.20419844948E+02  0.41276595497E+02  0.10566000000E+00 0. -1.
         22    1    1    0    0    0 -0.20384059065E+02  0.48974526445E+02 -0.24058467796E+02  0.58247952558E+02  0.00000000000E+00 0. -1.
</event>
<event>
 4    1  0.9856522E-003  0.9118800E+02  0.7818608E-02  0.1130116E+00
         25   -1    0    0    0    0  0.00000000000E+00  0.00000000000E+00  0.99999998245E-14  0.12500000000E+03  0.12500000000E+03 0.  0.
        -13    1    1    0    0    0  0.33445007622E+02  0.25035483883E+02  0.18446762995E+02  0.45668788216E+02  0.10566000000E+00 0. -1.
         13    1    1    0    0    0  0.91438041330E+01 -0.27325343530E+01 -0.28639032269E+02  0.30187434991E+02  0.10566000000E+00 0.  1.
         22    1    1    0    0    0 -0.42588811755E+02 -0.22302949530E+02  0.10192269274E+02  0.49143776793E+02  0.00000000000E+00 0. -1.
</event>
<event>
 4    1  0.9856522E-003  0.9118800E+02  0.7818608E-02  0.1130116E+00
         25   -1    0    0    0    0  0.00000000000E+00  0.00000000000E+00  0.99999998245E-14  0.12500000000E+03  0.12500000000E+03 0.  0.
        -13    1    1    0    0    0 -0.89190449976E-01 -0.48454262927E+00  0.65923823800E+00  0.82975634134E+00  0.10566000000E+00 0. -1.
         13    1    1    0    0    0 -0.29358941191E+02 -0.18313820150E+02  0.51106023421E+02  0.61718556612E+02  0.10566000000E+00 0.  1.
         22    1    1    0    0    0  0.29448131641E+02  0.18798362780E+02 -0.51765261659E+02  0.62451687046E+02  0.00000000000E+00 0.  1.
</event>
<event>
 4    1  0.9856522E-003  0.9118800E+02  0.7818608E-02  0.1130116E+00
         25   -1    0    0    0    0  0.00000000000E+00  0.00000000000E+00  0.99999998245E-14  0.12500000000E+03  0.12500000000E+03 0.  0.
        -13    1    1    0    0    0 -0.27003685466E+01 -0.79854062183E+00  0.38526801774E+01  0.47732552830E+01  0.10566000000E+00 0. -1.
         13    1    1    0    0    0 -0.32322111438E+02 -0.96538946258E+01  0.46845801775E+02  0.57727436088E+02  0.10566000000E+00 0. -1.
         22    1    1    0    0    0  0.35022479984E+02  0.10452435248E+02 -0.50698481953E+02  0.62499308629E+02  0.00000000000E+00 0. -1.
</event>
<event>
 4    1  0.9856522E-003  0.9118800E+02  0.7818608E-02  0.1130116E+00
         25   -1    0    0    0    0  0.00000000000E+00  0.00000000000E+00  0.99999998245E-14  0.12500000000E+03  0.12500000000E+03 0.  0.
        -13    1    1    0    0    0  0.19993261296E+02  0.29749342943E+02  0.23714094331E+02  0.42978172795E+02  0.10566000000E+00 0. -1.
         13    1    1    0    0    0  0.95318494553E+01  0.13138261420E+02  0.10851212913E+02  0.19525113390E+02  0.10566000000E+00 0.  1.
         22    1    1    0    0    0 -0.29525110751E+02 -0.42887604363E+02 -0.34565307245E+02  0.62496713815E+02  0.00000000000E+00 0. -1.
</event>
<event>
 4    1  0.9856522E-003  0.9118800E+02  0.7818608E-02  0.1130116E+00
         25   -1    0    0    0    0  0.00000000000E+00  0.00000000000E+00  0.99999998245E-14  0.12500000000E+03  0.12500000000E+03 0.  0.
        -13    1    1    0    0    0 -0.17918154090E+02  0.13696049222E+02  0.40289243008E+02  0.46172245738E+02  0.10566000000E+00 0. -1.
         13    1    1    0    0    0 -0.66432681009E+00 -0.35708897943E+02 -0.10136785185E+02  0.37125897973E+02  0.10566000000E+00 0.  1.
         22    1    1    0    0    0  0.18582480900E+02  0.22012848721E+02 -0.30152457823E+02  0.41701856289E+02  0.00000000000E+00 0. -1.
</event>
<event>
 4    1  0.9856522E-003  0.9118800E+02  0.7818608E-02  0.1130116E+00
         25   -1    0    0    0    0  0.00000000000E+00  0.00000000000E+00  0.99999998245E-14  0.12500000000E+03  0.12500000000E+03 0.  0.
        -13    1    1    0    0    0 -0.44159679557E+02 -0.34238546302E+02  0.25005235669E+02  0.61217875873E+02  0.10566000000E+00 0.  1.
         13    1    1    0    0    0  0.60530891407E+00  0.14528065561E+01  0.23174083464E+01  0.28033179004E+01  0.10566000000E+00 0. -1.
         22    1    1    0    0    0  0.43554370643E+02  0.32785739746E+02 -0.27322644016E+02  0.60978806227E+02  0.00000000000E+00 0.  1.
</event>
<event>
 4    1  0.9856522E-003  0.9118800E+02  0.7818608E-02  0.1130116E+00
         25   -1    0    0    0    0  0.00000000000E+00  0.00000000000E+00  0.99999998245E-14  0.12500000000E+03  0.12500000000E+03 0.  0.
        -13    1    1    0    0    0 -0.27680739554E+02 -0.45418172394E+02  0.24344336556E+02  0.58495227261E+02  0.10566000000E+00 0.  1.
         13    1    1    0    0    0 -0.23645575745E+01 -0.26484135880E+01  0.19129081380E+01  0.40343039841E+01  0.10566000000E+00 0. -1.
         22    1    1    0    0    0  0.30045297129E+02  0.48066585982E+02 -0.26257244694E+02  0.62470468755E+02  0.00000000000E+00 0.  1.
</event>
<event>
 4    1  0.9856522E-003  0.9118800E+02  0.7818608E-02  0.1130116E+00
         25   -1    0    0    0    0  0.00000000000E+00  0.00000000000E+00  0.99999998245E-14  0.12500000000E+03  0.12500000000E+03 0.  0.
        -13    1    1    0    0    0  0.19895699831E+02  0.71990702358E+01  0.50846676526E+02  0.55073234532E+02  0.10566000000E+00 0. -1.
         13    1    1    0    0    0  0.25748771591E+01  0.18422924914E+01  0.67434207476E+01  0.74504309555E+01  0.10566000000E+00 0.  1.
         22    1    1    0    0    0 -0.22470576990E+02 -0.90413627272E+01 -0.57590097273E+02  0.62476334513E+02  0.00000000000E+00 0. -1.
</event>
<event>
 4    1  0.9856522E-003  0.9118800E+02  0.7818608E-02  0.1130116E+00
         25   -1    0    0    0    0  0.00000000000E+00  0.00000000000E+00  0.99999998245E-14  0.12500000000E+03  0.12500000000E+03 0.  0.
        -13    1    1    0    0    0 -0.39141555123E+02  0.20135226710E+02  0.17807059578E+02  0.47482536021E+02  0.10566000000E+00 0. -1.
         13    1    1    0    0    0 -0.12219972855E+02  0.64340993746E+01  0.59020390642E+01  0.15019007973E+02  0.10566000000E+00 0. -1.
         22    1    1    0    0    0  0.51361527978E+02 -0.26569326084E+02 -0.23709098643E+02  0.62498456007E+02  0.00000000000E+00 0. -1.
</event>
<event>
 4    1  0.9856522E-003  0.9118800E+02  0.7818608E-02  0.1130116E+00
         25   -1    0    0    0    0  0.00000000000E+00  0.00000000000E+00  0.99999998245E-14  0.12500000000E+03  0.12500000000E+03 0.  0.
        -13    1    1    0    0    0  0.14879906259E+02  0.40872153582E+01 -0.32099603842E+02  0.35616185513E+02  0.10566000000E+00 0. -1.
         13    1    1    0    0    0 -0.42647923328E+02  0.13061548633E+02  0.14733543216E+01  0.44627697161E+02  0.10566000000E+00 0.  1.
         22    1    1    0    0    0  0.27768017069E+02 -0.17148763992E+02  0.30626249521E+02  0.44756117326E+02  0.00000000000E+00 0.  1.
</event>
<event>
 4    1  0.9856522E-003  0.9118800E+02  0.7818608E-02  0.1130116E+00
         25   -1    0    0    0    0  0.00000000000E+00  0.00000000000E+00  0.99999998245E-14  0.12500000000E+03  0.12500000000E+03 0.  0.
        -13    1    1    0    0    0  0.24341528277E+02  0.25830595213E+02  0.33167550069E+02  0.48578052550E+02  0.10566000000E+00 0. -1.
         13    1    1    0    0    0  0.89055082273E+01  0.48528983282E+01  0.97450723225E+01  0.14065429164E+02  0.10566000000E+00 0.  1.
         22    1    1    0    0    0 -0.33247036504E+02 -0.30683493541E+02 -0.42912622392E+02  0.62356518286E+02  0.00000000000E+00 0. -1.
</event>
<event>
 4    1  0.9856522E-003  0.9118800E+02  0.7818608E-02  0.1130116E+00
         25   -1    0    0    0    0  0.00000000000E+00  0.00000000000E+00  0.99999998245E-14  0.12500000000E+03  0.12500000000E+03 0.  0.
        -13    1    1    0    0    0  0.20767623149E+02  0.40302489446E+02  0.28454039638E+02  0.53527827926E+02  0.10566000000E+00 0. -1.
         13    1    1    0    0    0 -0.35019247039E+01  0.22483335891E+01  0.10474621620E+02  0.11271527966E+02  0.10566000000E+00 0.  1.
         22    1    1    0    0    0 -0.17265698445E+02 -0.42550823035E+02 -0.38928661258E+02  0.60200644108E+02  0.00000000000E+00 0. -1.
</event>
<event>
 4    1  0.9856522E-003  0.9118800E+02  0.7818608E-02  0.1130116E+00
         25   -1    0    0    0    0  0.00000000000E+00  0.00000000000E+00  0.99999998245E-14  0.12500000000E+03  0.12500000000E+03 0.  0.
        -13    1    1    0    0    0 -0.84815895508E+01 -0.47804387397E+01  0.73884790680E+01  0.12222550586E+02  0.10566000000E+00 0.  1.
         13    1    1    0    0    0 -0.34355870954E+02 -0.20033158944E+02  0.30761019929E+02  0.50278274010E+02  0.10566000000E+00 0. -1.
         22    1    1    0    0    0  0.42837460505E+02  0.24813597683E+02 -0.38149498997E+02  0.62499175404E+02  0.00000000000E+00 0. -1.
</event>
<event>
 4    1  0.9856522E-003  0.9118800E+02  0.7818608E-02  0.1130116E+00
         25   -1    0    0    0    0  0.00000000000E+00  0.00000000000E+00  0.99999998245E-14  0.12500000000E+03  0.12500000000E+03 0.  0.
        -13    1    1    0    0    0 -0.13052063276E+01 -0.81733601327E+01 -0.95207647762E+01  0.12616001957E+02  0.10566000000E+00 0.  1.
         13    1    1    0    0    0 -0.47870417875E+01 -0.30842357028E+02 -0.38918638450E+02  0.49888258528E+02  0.10566000000E+00 0. -1.
         22    1    1    0    0    0  0.60922481150E+01  0.39015717161E+02  0.48439403226E+02  0.62495739515E+02  0.00000000000E+00 0. -1.
</event>
<event>
 4    1  0.9856522E-003  0.9118800E+02  0.7818608E-02  0.1130116E+00
         25   -1    0    0    0    0  0.00000000000E+00  0.00000000000E+00  0.99999998245E-14  0.12500000000E+03  0.12500000000E+03 0.  0.
        -13    1    1    0    0    0 -0.52756614220E+01 -0.12125281423E+02  0.52920466927E+02  0.54547612567E+02  0.10566000000E+00 0. -1.
         13    1    1    0    0    0  0.30315116471E+00  0.32931535844E-01  0.80698771271E+01  0.80763275068E+01  0.10566000000E+00 0.  1.
         22    1    1    0    0    0  0.49725102573E+01  0.12092349887E+02 -0.60990344054E+02  0.62376059926E+02  0.00000000000E+00 0. -1.
</event>
<event>
 4    1  0.9856522E-003  0.9118800E+02  0.7818608E-02  0.1130116E+00
         25   -1    0    0    0    0  0.00000000000E+00  0.00000000000E+00  0.99999998245E-14  0.12500000000E+03  0.12500000000E+03 0.  0.
        -13    1    1    0    0    0 -0.15587694478E+02 -0.25474377843E+02  0.17888731879E+02  0.34812900452E+02  0.10566000000E+00 0. -1.
         13    1    1    0    0    0 -0.13859930499E+02 -0.13375513832E+02  0.20505898749E+02  0.28133700277E+02  0.10566000000E+00 0.  1.
         22    1    1    0    0    0  0.29447624977E+02  0.38849891676E+02 -0.38394630628E+02  0.62053399271E+02  0.00000000000E+00 0. -1.
</event>
<event>
 4    1  0.9856522E-003  0.9118800E+02  0.7818608E-02  0.1130116E+00
         25   -1    0    0    0    0  0.00000000000E+00  0.00000000000E+00  0.99999998245E-14  0.12500000000E+03  0.12500000000E+03 0.  0.
        -13    1    1    0    0    0  0.15324457403E+02 -0.13050271414E+02  0.30581469026E+02  0.36611282284E+02  0.10566000000E+00 0.  1.
         13    1    1    0    0    0  0.10731763968E+02 -0.91659261065E+01  0.21703577099E+02  0.25889020495E+02  0.10566000000E+00 0.  1.
         22    1    1    0    0    0 -0.26056221371E+02  0.22216197520E+02 -0.52285046125E+02  0.62499697221E+02  0.00000000000E+00 0.  1.
</event>
<event>
 4    1  0.9856522E-003  0.9118800E+02  0.7818608E-02  0.1130116E+00
         25   -1    0    0    0    0  0.00000000000E+00  0.00000000000E+00  0.99999998245E-14  0.12500000000E+03  0.12500000000E+03 0.  0.
        -13    1    1    0    0    0 -0.13879318016E+02  0.27618823926E+02 -0.17747743883E+02  0.35643070583E+02  0.10566000000E+00 0. -1.
         13    1    1    0    0    0 -0.19619713967E+02 -0.97254835679E+01 -0.24290339774E+02  0.32703974944E+02  0.10566000000E+00 0.  1.
         22    1    1    0    0    0  0.33499031983E+02 -0.17893340358E+02  0.42038083657E+02  0.56652954473E+02  0.00000000000E+00 0. -1.
</event>
<event>
 4    1  0.9856522E-003  0.9118800E+02  0.7818608E-02  0.1130116E+00
         25   -1    0    0    0    0  0.00000000000E+00  0.00000000000E+00  0.99999998245E-14  0.12500000000E+03  0.12500000000E+03 0.  0.
        -13    1    1    0    0    0 -0.15435617623E+01  0.58351182375E+01 -0.67325722473E+01  0.90426700072E+01  0.10566000000E+00 0.  1.
         13    1    1    0    0    0 -0.19189789895E+02 -0.22149152483E+02 -0.47405806250E+02  0.55732886362E+02  0.10566000000E+00 0. -1.
         22    1    1    0    0    0  0.20733351657E+02  0.16314034246E+02  0.54138378498E+02  0.60224443631E+02  0.00000000000E+00 0. -1.
</event>
<event>
 4    1  0.9856522E-003  0.9118800E+02  0.7818608E-02  0.1130116E+00
         25   -1    0    0    0    0  0.00000000000E+00  0.00000000000E+00  0.99999998245E-14  0.12500000000E+03  0.12500000000E+03 0.  0.
        -13    1    1    0    0    0  0.37184462249E+02 -0.42088287733E+02  0.41280690394E+01  0.56313056347E+02  0.10566000000E+00 0. -1.
         13    1    1    0    0    0 -0.65497918289E+01 -0.52089774162E+01  0.73960238628E+01  0.11168954819E+02  0.10566000000E+00 0.  1.
         22    1    1    0    0    0 -0.30634670420E+02  0.47297265149E+02 -0.11524092902E+02  0.57517988835E+02  0.00000000000E+00 0. -1.
</event>
<event>
 4    1  0.9856522E-003  0.9118800E+02  0.7818608E-02  0.1130116E+00
         25   -1    0    0    0    0  0.00000000000E+00  0.00000000000E+00  0.99999998245E-14  0.12500000000E+03  0.12500000000E+03 0.  0.
        -13    1    1    0    0    0  0.60411399346E+02 -0.93771283477E+01 -0.10077855730E+02  0.61960003609E+02  0.10566000000E+00 0.  1.
         13    1    1    0    0    0 -0.91668536350E-01 -0.87436866903E+00 -0.38784431304E+00  0.96670105860E+00  0.10566000000E+00 0. -1.
         22    1    1    0    0    0 -0.60319730810E+02  0.10251497017E+02  0.10465700043E+02  0.62073295333E+02  0.00000000000E+00 0.  1.
</event>
<event>
 4    1  0.9856522E-003  0.9118800E+02  0.7818608E-02  0.1130116E+00
         25   -1    0    0    0    0  0.00000000000E+00  0.00000000000E+00  0.99999998245E-14  0.12500000000E+03  0.12500000000E+03 0.  0.
        -13    1    1    0    0    0 -0.14797499219E+02  0.14219662479E+02 -0.28204156658E+02  0.34880516065E+02  0.10566000000E+00 0. -1.
         13    1    1    0    0    0 -0.22395703688E+02  0.12438924566E+02 -0.12833526359E+02  0.28653183957E+02  0.10566000000E+00 0.  1.
         22    1    1    0    0    0  0.37193202907E+02 -0.26658587044E+02  0.41037683016E+02  0.61466299978E+02  0.00000000000E+00 0.  1.
</event>
<event>
 4    1  0.9856522E-003  0.9118800E+02  0.7818608E-02  0.1130116E+00
         25   -1    0    0    0    0  0.00000000000E+00  0.00000000000E+00  0.99999998245E-14  0.12500000000E+03  0.12500000000E+03 0.  0.
        -13    1    1    0    0    0 -0.94158255488E+01  0.65822376402E+01 -0.63936338921E+01  0.13148130723E+02  0.10566000000E+00 0.  1.
         13    1    1    0    0    0  0.53985672182E+01  0.24673648157E+02  0.51189732004E+02  0.57081812060E+02  0.10566000000E+00 0. -1.
         22    1    1    0    0    0  0.40172583306E+01 -0.31255885797E+02 -0.44796098112E+02  0.54770057217E+02  0.00000000000E+00 0. -1.
</event>
<event>
 4    1  0.9856522E-003  0.9118800E+02  0.7818608E-02  0.1130116E+00
         25   -1    0    0    0    0  0.00000000000E+00  0.00000000000E+00  0.99999998245E-14  0.12500000000E+03  0.12500000000E+03 0.  0.
        -13    1    1    0    0    0  0.38798018720E+01 -0.50556268862E+01 -0.13139286648E+01  0.65076722682E+01  0.10566000000E+00 0. -1.
         13    1    1    0    0    0  0.32270497079E+02 -0.44607356112E+02 -0.10206524211E+02  0.55994513138E+02  0.10566000000E+00 0.  1.
         22    1    1    0    0    0 -0.36150298951E+02  0.49662982999E+02  0.11520452875E+02  0.62497814594E+02  0.00000000000E+00 0.  1.
</event>
<event>
 4    1  0.9856522E-003  0.9118800E+02  0.7818608E-02  0.1130116E+00
         25   -1    0    0    0    0  0.00000000000E+00  0.00000000000E+00  0.99999998245E-14  0.12500000000E+03  0.12500000000E+03 0.  0.
        -13    1    1    0    0    0  0.43809851984E+02  0.27466161147E+02  0.11881969836E+02  0.53055494628E+02  0.10566000000E+00 0. -1.
         13    1    1    0    0    0 -0.18766734484E+01  0.65200907558E+01  0.11315681187E+02  0.13194290108E+02  0.10566000000E+00 0.  1.
         22    1    1    0    0    0 -0.41933178536E+02 -0.33986251903E+02 -0.23197651023E+02  0.58750215264E+02  0.00000000000E+00 0. -1.
</event>
<event>
 4    1  0.9856522E-003  0.9118800E+02  0.7818608E-02  0.1130116E+00
         25   -1    0    0    0    0  0.00000000000E+00  0.00000000000E+00  0.99999998245E-14  0.12500000000E+03  0.12500000000E+03 0.  0.
        -13    1    1    0    0    0  0.49150680179E+00 -0.93753519021E+01 -0.86182130932E+01  0.12744550333E+02  0.10566000000E+00 0.  1.
         13    1    1    0    0    0 -0.83292866340E+01 -0.24858715890E+02 -0.42678732852E+02  0.50088104111E+02  0.10566000000E+00 0. -1.
         22    1    1    0    0    0  0.78377798322E+01  0.34234067792E+02  0.51296945945E+02  0.62167345557E+02  0.00000000000E+00 0. -1.
</event>
<event>
 4    1  0.9856522E-003  0.9118800E+02  0.7818608E-02  0.1130116E+00
         25   -1    0    0    0    0  0.00000000000E+00  0.00000000000E+00  0.99999998245E-14  0.12500000000E+03  0.12500000000E+03 0.  0.
        -13    1    1    0    0    0  0.20212094302E+02  0.31021502678E+02  0.46382630773E+02  0.59348310725E+02  0.10566000000E+00 0.  1.
         13    1    1    0    0    0  0.23825735730E+00  0.22372725153E+01  0.23184879052E+01  0.32324456807E+01  0.10566000000E+00 0. -1.
         22    1    1    0    0    0 -0.20450351659E+02 -0.33258775193E+02 -0.48701118679E+02  0.62419243594E+02  0.00000000000E+00 0.  1.
</event>
<event>
 4    1  0.9856522E-003  0.9118800E+02  0.7818608E-02  0.1130116E+00
         25   -1    0    0    0    0  0.00000000000E+00  0.00000000000E+00  0.99999998245E-14  0.12500000000E+03  0.12500000000E+03 0.  0.
        -13    1    1    0    0    0  0.10483612116E+00  0.11500583621E+02 -0.55823894376E+01  0.12784703755E+02  0.10566000000E+00 0. -1.
         13    1    1    0    0    0  0.19908812697E+02 -0.94303810632E+01 -0.49171931978E+02  0.53881193087E+02  0.10566000000E+00 0.  1.
         22    1    1    0    0    0 -0.20013648818E+02 -0.20702025575E+01  0.54754321415E+02  0.58334103158E+02  0.00000000000E+00 0.  1.
</event>
<event>
 4    1  0.9856522E-003  0.9118800E+02  0.7818608E-02  0.1130116E+00
         25   -1    0    0    0    0  0.00000000000E+00  0.00000000000E+00  0.99999998245E-14  0.12500000000E+03  0.12500000000E+03 0.  0.
        -13    1    1    0    0    0  0.33271711051E+01  0.49251096507E+02  0.32951769880E+02  0.59351250003E+02  0.10566000000E+00 0.  1.
         13    1    1    0    0    0  0.18952921264E+00  0.24750543575E+01  0.19428419070E+01  0.31539838468E+01  0.10566000000E+00 0.  1.
         22    1    1    0    0    0 -0.35167003177E+01 -0.51726150865E+02 -0.34894611787E+02  0.62494766150E+02  0.00000000000E+00 0.  1.
</event>
<event>
 4    1  0.9856522E-003  0.9118800E+02  0.7818608E-02  0.1130116E+00
         25   -1    0    0    0    0  0.00000000000E+00  0.00000000000E+00  0.99999998245E-14  0.12500000000E+03  0.12500000000E+03 0.  0.
        -13    1    1    0    0    0  0.31464648833E+02  0.27017267776E+02  0.38139788036E+02  0.56343690683E+02  0.10566000000E+00 0. -1.
         13    1    1    0    0    0  0.34800825490E+01  0.26293654168E+01  0.43512794488E+01  0.61619261534E+01  0.10566000000E+00 0.  1.
         22    1    1    0    0    0 -0.34944731382E+02 -0.29646633193E+02 -0.42491067485E+02  0.62494383164E+02  0.00000000000E+00 0. -1.
</event>
<event>
 4    1  0.9856522E-003  0.9118800E+02  0.7818608E-02  0.1130116E+00
         25   -1    0    0    0    0  0.00000000000E+00  0.00000000000E+00  0.99999998245E-14  0.12500000000E+03  0.12500000000E+03 0.  0.
        -13    1    1    0    0    0 -0.11295819195E+02  0.17191962874E+02 -0.17030856191E+01  0.20641482103E+02  0.10566000000E+00 0.  1.
         13    1    1    0    0    0 -0.22916556457E+02  0.34822378188E+02 -0.37939545535E+01  0.41858951703E+02  0.10566000000E+00 0. -1.
         22    1    1    0    0    0  0.34212375652E+02 -0.52014341062E+02  0.54970401726E+01  0.62499566194E+02  0.00000000000E+00 0. -1.
</event>
<event>
 4    1  0.9856522E-003  0.9118800E+02  0.7818608E-02  0.1130116E+00
         25   -1    0    0    0    0  0.00000000000E+00  0.00000000000E+00  0.99999998245E-14  0.12500000000E+03  0.12500000000E+03 0.  0.
        -13    1    1    0    0    0 -0.36395906359E+02  0.39240655186E+02 -0.16014478208E+02  0.55865603867E+02  0.10566000000E+00 0. -1.
         13    1    1    0    0    0  0.35735112130E+01 -0.17199324744E+02 -0.11473001834E+02  0.20981603589E+02  0.10566000000E+00 0.  1.
         22    1    1    0    0    0  0.32822395146E+02 -0.22041330442E+02  0.27487480042E+02  0.48152792544E+02  0.00000000000E+00 0. -1.
</event>
<event>
 4    1  0.9856522E-003  0.9118800E+02  0.7818608E-02  0.1130116E+00
         25   -1    0    0    0    0  0.00000000000E+00  0.00000000000E+00  0.99999998245E-14  0.12500000000E+03  0.12500000000E+03 0.  0.
        -13    1    1    0    0    0 -0.61085328265E+01 -0.36749307933E+02 -0.10297007431E+02  0.38650554109E+02  0.10566000000E+00 0. -1.
         13    1    1    0    0    0 -0.38674561742E+01 -0.22667452842E+02 -0.63266521792E+01  0.23849702880E+02  0.10566000000E+00 0. -1.
         22    1    1    0    0    0  0.99759890007E+01  0.59416760776E+02  0.16623659610E+02  0.62499743011E+02  0.00000000000E+00 0. -1.
</event>
<event>
 4    1  0.9856522E-003  0.9118800E+02  0.7818608E-02  0.1130116E+00
         25   -1    0    0    0    0  0.00000000000E+00  0.00000000000E+00  0.99999998245E-14  0.12500000000E+03  0.12500000000E+03 0.  0.
        -13    1    1    0    0    0  0.38790689558E-01 -0.35412373465E+01  0.22668927213E+01  0.42061661055E+01  0.10566000000E+00 0.  1.
         13    1    1    0    0    0  0.19082057149E+02 -0.54953457650E+02 -0.90823753685E+01  0.58877059362E+02  0.10566000000E+00 0. -1.
         22    1    1    0    0    0 -0.19120847839E+02  0.58494694996E+02  0.68154826472E+01  0.61916774533E+02  0.00000000000E+00 0. -1.
</event>
<event>
 4    1  0.9856522E-003  0.9118800E+02  0.7818608E-02  0.1130116E+00
         25   -1    0    0    0    0  0.00000000000E+00  0.00000000000E+00  0.99999998245E-14  0.12500000000E+03  0.12500000000E+03 0.  0.
        -13    1    1    0    0    0  0.21776156203E+01 -0.23250027874E+01 -0.10801500231E+01  0.33653433494E+01  0.10566000000E+00 0.  1.
         13    1    1    0    0    0  0.33925528021E+02 -0.43185345563E+02 -0.21953949772E+02  0.59143068888E+02  0.10566000000E+00 0. -1.
         22    1    1    0    0    0 -0.36103143641E+02  0.45510348350E+02  0.23034099795E+02  0.62491587763E+02  0.00000000000E+00 0. -1.
</event>
<event>
 4    1  0.9856522E-003  0.9118800E+02  0.7818608E-02  0.1130116E+00
         25   -1    0    0    0    0  0.00000000000E+00  0.00000000000E+00  0.99999998245E-14  0.12500000000E+03  0.12500000000E+03 0.  0.
        -13    1    1    0    0    0 -0.67553150322E+01 -0.80268506553E+01 -0.61502788586E+01  0.12161484560E+02  0.10566000000E+00 0.  1.
         13    1    1    0    0    0 -0.47748515603E+02 -0.19478958342E+02  0.45024464132E+01  0.51765178915E+02  0.10566000000E+00 0. -1.
         22    1    1    0    0    0  0.54503830635E+02  0.27505808998E+02  0.16478324454E+01  0.61073336525E+02  0.00000000000E+00 0. -1.
</event>
<event>
 4    1  0.9856522E-003  0.9118800E+02  0.7818608E-02  0.1130116E+00
         25   -1    0    0    0    0  0.00000000000E+00  0.00000000000E+00  0.99999998245E-14  0.12500000000E+03  0.12500000000E+03 0.  0.
        -13    1    1    0    0    0 -0.36969601832E+01 -0.52937103044E+00 -0.24224409893E+00  0.37440078156E+01  0.10566000000E+00 0. -1.
         13    1    1    0    0    0  0.36799706365E+02  0.71561779983E+01 -0.48911126921E+02  0.61625796327E+02  0.10566000000E+00 0.  1.
         22    1    1    0    0    0 -0.33102746182E+02 -0.66268069678E+01  0.49153371020E+02  0.59630195858E+02  0.00000000000E+00 0.  1.
</event>
<event>
 4    1  0.9856522E-003  0.9118800E+02  0.7818608E-02  0.1130116E+00
         25   -1    0    0    0    0  0.00000000000E+00  0.00000000000E+00  0.99999998245E-14  0.12500000000E+03  0.12500000000E+03 0.  0.
        -13    1    1    0    0    0 -0.29530572066E+02 -0.46991006337E+01 -0.19883902986E+02  0.35909845381E+02  0.10566000000E+00 0.  1.
         13    1    1    0    0    0 -0.26664475354E+02  0.63473299609E+01 -0.45605509100E+01  0.27786554882E+02  0.10566000000E+00 0. -1.
         22    1    1    0    0    0  0.56195047420E+02 -0.16482293272E+01  0.24444453896E+02  0.61303599737E+02  0.00000000000E+00 0. -1.
</event>
<event>
 4    1  0.9856522E-003  0.9118800E+02  0.7818608E-02  0.1130116E+00
         25   -1    0    0    0    0  0.00000000000E+00  0.00000000000E+00  0.99999998245E-14  0.12500000000E+03  0.12500000000E+03 0.  0.
        -13    1    1    0    0    0  0.11993690069E+01  0.15241146588E+01 -0.93383473999E+01  0.95382025406E+01  0.10566000000E+00 0. -1.
         13    1    1    0    0    0 -0.91238667878E+00 -0.13385313395E+01 -0.53048840775E+02  0.53073673202E+02  0.10566000000E+00 0.  1.
         22    1    1    0    0    0 -0.28698232815E+00 -0.18558331931E+00  0.62387188175E+02  0.62388124257E+02  0.00000000000E+00 0.  1.
</event>
<event>
 4    1  0.9856522E-003  0.9118800E+02  0.7818608E-02  0.1130116E+00
         25   -1    0    0    0    0  0.00000000000E+00  0.00000000000E+00  0.99999998245E-14  0.12500000000E+03  0.12500000000E+03 0.  0.
        -13    1    1    0    0    0  0.12420490895E+02 -0.15704166730E+02  0.42888276261E+01  0.20476685601E+02  0.10566000000E+00 0. -1.
         13    1    1    0    0    0  0.29292957520E+02 -0.28362650112E+02  0.10425969176E+02  0.42085974848E+02  0.10566000000E+00 0.  1.
         22    1    1    0    0    0 -0.41713448415E+02  0.44066816842E+02 -0.14714796802E+02  0.62437339551E+02  0.00000000000E+00 0.  1.
</event>
<event>
 4    1  0.9856522E-003  0.9118800E+02  0.7818608E-02  0.1130116E+00
         25   -1    0    0    0    0  0.00000000000E+00  0.00000000000E+00  0.99999998245E-14  0.12500000000E+03  0.12500000000E+03 0.  0.
        -13    1    1    0    0    0 -0.29396355339E+02 -0.15601686373E+02  0.10462786845E+02  0.34886091749E+02  0.10566000000E+00 0. -1.
         13    1    1    0    0    0 -0.28986339893E+02  0.66852378588E-01 -0.13665456433E+01  0.29018803915E+02  0.10566000000E+00 0.  1.
         22    1    1    0    0    0  0.58382695232E+02  0.15534833994E+02 -0.90962412020E+01  0.61095104336E+02  0.00000000000E+00 0. -1.
</event>
<event>
 4    1  0.9856522E-003  0.9118800E+02  0.7818608E-02  0.1130116E+00
         25   -1    0    0    0    0  0.00000000000E+00  0.00000000000E+00  0.99999998245E-14  0.12500000000E+03  0.12500000000E+03 0.  0.
        -13    1    1    0    0    0 -0.10587662762E+01  0.43279967793E+02 -0.30470678403E+02  0.52941004945E+02  0.10566000000E+00 0. -1.
         13    1    1    0    0    0  0.30155128335E+01  0.39295538456E+01 -0.91437301966E+01  0.10399696006E+02  0.10566000000E+00 0.  1.
         22    1    1    0    0    0 -0.19567465573E+01 -0.47209521639E+02  0.39614408600E+02  0.61659299049E+02  0.00000000000E+00 0. -1.
</event>
<event>
 4    1  0.9856522E-003  0.9118800E+02  0.7818608E-02  0.1130116E+00
         25   -1    0    0    0    0  0.00000000000E+00  0.00000000000E+00  0.99999998245E-14  0.12500000000E+03  0.12500000000E+03 0.  0.
        -13    1    1    0    0    0 -0.11999487182E+02  0.15037957088E+02 -0.25262082402E+02  0.31753926014E+02  0.10566000000E+00 0. -1.
         13    1    1    0    0    0 -0.15112685690E+02  0.17885574025E+02 -0.20189099706E+02  0.30917599162E+02  0.10566000000E+00 0.  1.
         22    1    1    0    0    0  0.27112172872E+02 -0.32923531113E+02  0.45451182108E+02  0.62328474823E+02  0.00000000000E+00 0.  1.
</event>
<event>
 4    1  0.9856522E-003  0.9118800E+02  0.7818608E-02  0.1130116E+00
         25   -1    0    0    0    0  0.00000000000E+00  0.00000000000E+00  0.99999998245E-14  0.12500000000E+03  0.12500000000E+03 0.  0.
        -13    1    1    0    0    0 -0.36841309726E+02 -0.48280122678E+02 -0.27711035041E+01  0.60794263930E+02  0.10566000000E+00 0. -1.
         13    1    1    0    0    0  0.16184216085E+01  0.91325101642E+00  0.47947259584E+01  0.51433332551E+01  0.10566000000E+00 0.  1.
         22    1    1    0    0    0  0.35222888118E+02  0.47366871662E+02 -0.20236224543E+01  0.59062402814E+02  0.00000000000E+00 0. -1.
</event>
<event>
 4    1  0.9856522E-003  0.9118800E+02  0.7818608E-02  0.1130116E+00
         25   -1    0    0    0    0  0.00000000000E+00  0.00000000000E+00  0.99999998245E-14  0.12500000000E+03  0.12500000000E+03 0.  0.
        -13    1    1    0    0    0  0.54866884306E+02 -0.25998692544E+02 -0.63882644906E+01  0.61050209620E+02  0.10566000000E+00 0. -1.
         13    1    1    0    0    0 -0.93358489603E+01 -0.18348858002E+01  0.45664520640E+01  0.10554076473E+02  0.10566000000E+00 0.  1.
         22    1    1    0    0    0 -0.45531035346E+02  0.27833578344E+02  0.18218124265E+01  0.53395713907E+02  0.00000000000E+00 0. -1.
</event>
<event>
 4    1  0.9856522E-003  0.9118800E+02  0.7818608E-02  0.1130116E+00
         25   -1    0    0    0    0  0.00000000000E+00  0.00000000000E+00  0.99999998245E-14  0.12500000000E+03  0.12500000000E+03 0.  0.
        -13    1    1    0    0    0  0.53936985498E+02 -0.85132368802E+01  0.96792413613E+00  0.54613383414E+02  0.10566000000E+00 0.  1.
         13    1    1    0    0    0  0.79353861575E+01  0.12078459156E+01 -0.95813380637E+00  0.80844560517E+01  0.10566000000E+00 0. -1.
         22    1    1    0    0    0 -0.61872371655E+02  0.73053909647E+01 -0.97903297578E-02  0.62302160534E+02  0.00000000000E+00 0.  1.
</event>
<event>
 4    1  0.9856522E-003  0.9118800E+02  0.7818608E-02  0.1130116E+00
         25   -1    0    0    0    0  0.00000000000E+00  0.00000000000E+00  0.99999998245E-14  0.12500000000E+03  0.12500000000E+03 0.  0.
        -13    1    1    0    0    0 -0.10405667875E+02 -0.45244291768E+01  0.17120424348E+02  0.20539437119E+02  0.10566000000E+00 0.  1.
         13    1    1    0    0    0 -0.22444051796E+02 -0.17738431480E+02  0.30937085866E+02  0.42136704407E+02  0.10566000000E+00 0. -1.
         22    1    1    0    0    0  0.32849719671E+02  0.22262860657E+02 -0.48057510214E+02  0.62323858473E+02  0.00000000000E+00 0. -1.
</event>
<event>
 4    1  0.9856522E-003  0.9118800E+02  0.7818608E-02  0.1130116E+00
         25   -1    0    0    0    0  0.00000000000E+00  0.00000000000E+00  0.99999998245E-14  0.12500000000E+03  0.12500000000E+03 0.  0.
        -13    1    1    0    0    0  0.18943284907E+02  0.79313486642E+01 -0.45591071440E+01  0.21036895129E+02  0.10566000000E+00 0. -1.
         13    1    1    0    0    0  0.42081997149E+02  0.46949258919E+00 -0.11319687543E+01  0.42099969413E+02  0.10566000000E+00 0.  1.
         22    1    1    0    0    0 -0.61025282056E+02 -0.84008412534E+01  0.56910758983E+01  0.61863135457E+02  0.00000000000E+00 0.  1.
</event>
<event>
 4    1  0.9856522E-003  0.9118800E+02  0.7818608E-02  0.1130116E+00
         25   -1    0    0    0    0  0.00000000000E+00  0.00000000000E+00  0.99999998245E-14  0.12500000000E+03  0.12500000000E+03 0.  0.
        -13    1    1    0    0    0  0.38885195402E+02  0.24239892049E+02  0.91444860495E+00  0.45830973896E+02  0.10566000000E+00 0.  1.
         13    1    1    0    0    0  0.20096198147E+01  0.13726168168E+02 -0.16183878605E+02  0.21316082077E+02  0.10566000000E+00 0. -1.
         22    1    1    0    0    0 -0.40894815217E+02 -0.37966060217E+02  0.15269430000E+02  0.57852944027E+02  0.00000000000E+00 0.  1.
</event>
<event>
 4    1  0.9856522E-003  0.9118800E+02  0.7818608E-02  0.1130116E+00
         25   -1    0    0    0    0  0.00000000000E+00  0.00000000000E+00  0.99999998245E-14  0.12500000000E+03  0.12500000000E+03 0.  0.
        -13    1    1    0    0    0  0.27383351462E+02 -0.59766965469E+01 -0.77237722480E+01  0.29072954110E+02  0.10566000000E+00 0. -1.
         13    1    1    0    0    0  0.30841749000E+02 -0.60605747180E+01 -0.11454925747E+02  0.33454006265E+02  0.10566000000E+00 0.  1.
         22    1    1    0    0    0 -0.58225100461E+02  0.12037271265E+02  0.19178697995E+02  0.62473039625E+02  0.00000000000E+00 0.  1.
</event>
<event>
 4    1  0.9856522E-003  0.9118800E+02  0.7818608E-02  0.1130116E+00
         25   -1    0    0    0    0  0.00000000000E+00  0.00000000000E+00  0.99999998245E-14  0.12500000000E+03  0.12500000000E+03 0.  0.
        -13    1    1    0    0    0  0.28752281930E+02 -0.43495808427E+02  0.23571576903E+02  0.57220708390E+02  0.10566000000E+00 0. -1.
         13    1    1    0    0    0 -0.38193840156E+01 -0.10858682254E+01  0.71450005343E+01  0.81749006558E+01  0.10566000000E+00 0.  1.
         22    1    1    0    0    0 -0.24932897914E+02  0.44581676653E+02 -0.30716577437E+02  0.59604390954E+02  0.00000000000E+00 0. -1.
</event>
<event>
 4    1  0.9856522E-003  0.9118800E+02  0.7818608E-02  0.1130116E+00
         25   -1    0    0    0    0  0.00000000000E+00  0.00000000000E+00  0.99999998245E-14  0.12500000000E+03  0.12500000000E+03 0.  0.
        -13    1    1    0    0    0 -0.26983025240E+02 -0.12622299002E+02 -0.84042517233E-01  0.29789667847E+02  0.10566000000E+00 0.  1.
         13    1    1    0    0    0 -0.29313601666E+02 -0.14408671518E+02  0.20681826417E+01  0.32728971890E+02  0.10566000000E+00 0.  1.
         22    1    1    0    0    0  0.56296626906E+02  0.27030970520E+02 -0.19841401245E+01  0.62481360263E+02  0.00000000000E+00 0.  1.
</event>
<event>
 4    1  0.9856522E-003  0.9118800E+02  0.7818608E-02  0.1130116E+00
         25   -1    0    0    0    0  0.00000000000E+00  0.00000000000E+00  0.99999998245E-14  0.12500000000E+03  0.12500000000E+03 0.  0.
        -13    1    1    0    0    0  0.40833813551E+00  0.15311820377E+02 -0.24983390768E+00  0.15319665933E+02  0.10566000000E+00 0.  1.
         13    1    1    0    0    0  0.33541892353E+01  0.42857759377E+02  0.20950936330E+02  0.47822494931E+02  0.10566000000E+00 0. -1.
         22    1    1    0    0    0 -0.37625273708E+01 -0.58169579754E+02 -0.20701102423E+02  0.61857839136E+02  0.00000000000E+00 0. -1.
</event>
<event>
 4    1  0.9856522E-003  0.9118800E+02  0.7818608E-02  0.1130116E+00
         25   -1    0    0    0    0  0.00000000000E+00  0.00000000000E+00  0.99999998245E-14  0.12500000000E+03  0.12500000000E+03 0.  0.
        -13    1    1    0    0    0  0.27569755275E+01  0.17931885541E+01 -0.39819382053E+00  0.33145379172E+01  0.10566000000E+00 0. -1.
         13    1    1    0    0    0  0.11080946469E+02  0.53593705251E+02  0.24192258735E+02  0.59836018951E+02  0.10566000000E+00 0.  1.
         22    1    1    0    0    0 -0.13837921997E+02 -0.55386893805E+02 -0.23794064914E+02  0.61849443132E+02  0.00000000000E+00 0.  1.
</event>
<event>
 4    1  0.9856522E-003  0.9118800E+02  0.7818608E-02  0.1130116E+00
         25   -1    0    0    0    0  0.00000000000E+00  0.00000000000E+00  0.99999998245E-14  0.12500000000E+03  0.12500000000E+03 0.  0.
        -13    1    1    0    0    0  0.86281406078E+01 -0.11561775625E+00 -0.67695963342E+00  0.86560739481E+01  0.10566000000E+00 0. -1.
         13    1    1    0    0    0  0.53706160488E+02 -0.26931026152E+00 -0.38466356420E+01  0.53844516640E+02  0.10566000000E+00 0. -1.
         22    1    1    0    0    0 -0.62334301096E+02  0.38492801778E+00  0.45235952755E+01  0.62499409412E+02  0.00000000000E+00 0. -1.
</event>
<event>
 4    1  0.9856522E-003  0.9118800E+02  0.7818608E-02  0.1130116E+00
         25   -1    0    0    0    0  0.00000000000E+00  0.00000000000E+00  0.99999998245E-14  0.12500000000E+03  0.12500000000E+03 0.  0.
        -13    1    1    0    0    0  0.67069620659E-01 -0.24912786566E+01  0.30277973671E+01  0.39229693615E+01  0.10566000000E+00 0. -1.
         13    1    1    0    0    0  0.87246632179E+01 -0.38946923588E+02  0.42901040062E+02  0.58596015288E+02  0.10566000000E+00 0. -1.
         22    1    1    0    0    0 -0.87917328386E+01  0.41438202244E+02 -0.45928837429E+02  0.62481015350E+02  0.00000000000E+00 0. -1.
</event>
<event>
 4    1  0.9856522E-003  0.9118800E+02  0.7818608E-02  0.1130116E+00
         25   -1    0    0    0    0  0.00000000000E+00  0.00000000000E+00  0.99999998245E-14  0.12500000000E+03  0.12500000000E+03 0.  0.
        -13    1    1    0    0    0 -0.68586081682E+01  0.42974744884E+01  0.66370528639E+01  0.10467589395E+02  0.10566000000E+00 0. -1.
         13    1    1    0    0    0 -0.34390847454E+02  0.21867294380E+02  0.32350397411E+02  0.52033338628E+02  0.10566000000E+00 0.  1.
         22    1    1    0    0    0  0.41249455622E+02 -0.26164768869E+02 -0.38987450275E+02  0.62499071977E+02  0.00000000000E+00 0.  1.
</event>
<event>
 4    1  0.9856522E-003  0.9118800E+02  0.7818608E-02  0.1130116E+00
         25   -1    0    0    0    0  0.00000000000E+00  0.00000000000E+00  0.99999998245E-14  0.12500000000E+03  0.12500000000E+03 0.  0.
        -13    1    1    0    0    0 -0.16610666253E+02 -0.10021229624E+02 -0.15057650749E+02  0.24557754105E+02  0.10566000000E+00 0. -1.
         13    1    1    0    0    0 -0.25457470393E+02 -0.15718070827E+02 -0.23334453121E+02  0.37942699111E+02  0.10566000000E+00 0. -1.
         22    1    1    0    0    0  0.42068136647E+02  0.25739300452E+02  0.38392103870E+02  0.62499546784E+02  0.00000000000E+00 0. -1.
</event>
<event>
 4    1  0.9856522E-003  0.9118800E+02  0.7818608E-02  0.1130116E+00
         25   -1    0    0    0    0  0.00000000000E+00  0.00000000000E+00  0.99999998245E-14  0.12500000000E+03  0.12500000000E+03 0.  0.
        -13    1    1    0    0    0 -0.42753424229E+01  0.21112721046E+02 -0.56150004483E+01  0.22261287852E+02  0.10566000000E+00 0. -1.
         13    1    1    0    0    0 -0.74711392258E+01  0.38154616332E+02 -0.10372386472E+02  0.40239162938E+02  0.10566000000E+00 0.  1.
         22    1    1    0    0    0  0.11746481649E+02 -0.59267337377E+02  0.15987386920E+02  0.62499549210E+02  0.00000000000E+00 0.  1.
</event>
<event>
 4    1  0.9856522E-003  0.9118800E+02  0.7818608E-02  0.1130116E+00
         25   -1    0    0    0    0  0.00000000000E+00  0.00000000000E+00  0.99999998245E-14  0.12500000000E+03  0.12500000000E+03 0.  0.
        -13    1    1    0    0    0  0.20826366417E+02  0.16499153476E+01 -0.32148602135E+00  0.20894359911E+02  0.10566000000E+00 0.  1.
         13    1    1    0    0    0  0.40165815909E+02  0.11325433313E+02  0.10218423443E+01  0.41744622805E+02  0.10566000000E+00 0. -1.
         22    1    1    0    0    0 -0.60992182326E+02 -0.12975348660E+02 -0.70035632296E+00  0.62361017284E+02  0.00000000000E+00 0. -1.
</event>
<event>
 4    1  0.9856522E-003  0.9118800E+02  0.7818608E-02  0.1130116E+00
         25   -1    0    0    0    0  0.00000000000E+00  0.00000000000E+00  0.99999998245E-14  0.12500000000E+03  0.12500000000E+03 0.  0.
        -13    1    1    0    0    0 -0.56704045433E+01  0.16292320056E+02  0.26852541864E+01  0.17458949985E+02  0.10566000000E+00 0. -1.
         13    1    1    0    0    0 -0.52071946843E+00  0.28884483868E+02  0.37102833746E+02  0.47023568486E+02  0.10566000000E+00 0.  1.
         22    1    1    0    0    0  0.61911240117E+01 -0.45176803924E+02 -0.39788087933E+02  0.60517481529E+02  0.00000000000E+00 0.  1.
</event>
<event>
 4    1  0.9856522E-003  0.9118800E+02  0.7818608E-02  0.1130116E+00
         25   -1    0    0    0    0  0.00000000000E+00  0.00000000000E+00  0.99999998245E-14  0.12500000000E+03  0.12500000000E+03 0.  0.
        -13    1    1    0    0    0  0.39062087405E+01 -0.53929090318E+01  0.52023894149E+00  0.66801008332E+01  0.10566000000E+00 0.  1.
         13    1    1    0    0    0  0.33480484811E+02 -0.44378292955E+02  0.50612751231E+01  0.55821173570E+02  0.10566000000E+00 0.  1.
         22    1    1    0    0    0 -0.37386693552E+02  0.49771201987E+02 -0.55815140646E+01  0.62498725597E+02  0.00000000000E+00 0.  1.
</event>
<event>
 4    1  0.9856522E-003  0.9118800E+02  0.7818608E-02  0.1130116E+00
         25   -1    0    0    0    0  0.00000000000E+00  0.00000000000E+00  0.99999998245E-14  0.12500000000E+03  0.12500000000E+03 0.  0.
        -13    1    1    0    0    0 -0.17504641153E+01  0.46467797873E+02  0.32394224917E+02  0.56672015456E+02  0.10566000000E+00 0. -1.
         13    1    1    0    0    0  0.74724262165E+00  0.49896190799E+01  0.29946602786E+01  0.58680341102E+01  0.10566000000E+00 0.  1.
         22    1    1    0    0    0  0.10032214936E+01 -0.51457416953E+02 -0.35388885196E+02  0.62459950434E+02  0.00000000000E+00 0. -1.
</event>
<event>
 4    1  0.9856522E-003  0.9118800E+02  0.7818608E-02  0.1130116E+00
         25   -1    0    0    0    0  0.00000000000E+00  0.00000000000E+00  0.99999998245E-14  0.12500000000E+03  0.12500000000E+03 0.  0.
        -13    1    1    0    0    0  0.47214109318E+01 -0.40935910731E+01  0.13802991498E+01  0.64004373943E+01  0.10566000000E+00 0.  1.
         13    1    1    0    0    0  0.38542044181E+02 -0.39716318673E+02  0.92685546235E+01  0.56114101681E+02  0.10566000000E+00 0. -1.
         22    1    1    0    0    0 -0.43263455113E+02  0.43809909746E+02 -0.10648853773E+02  0.62485460925E+02  0.00000000000E+00 0. -1.
</event>
<event>
 4    1  0.9856522E-003  0.9118800E+02  0.7818608E-02  0.1130116E+00
         25   -1    0    0    0    0  0.00000000000E+00  0.00000000000E+00  0.99999998245E-14  0.12500000000E+03  0.12500000000E+03 0.  0.
        -13    1    1    0    0    0 -0.47494010481E+02 -0.26990313368E+02  0.70392819654E+01  0.55079222052E+02  0.10566000000E+00 0. -1.
         13    1    1    0    0    0 -0.65155721187E+01 -0.34290500954E+01  0.93651605118E+00  0.74228896624E+01  0.10566000000E+00 0.  1.
         22    1    1    0    0    0  0.54009582600E+02  0.30419363463E+02 -0.79757980166E+01  0.62497888285E+02  0.00000000000E+00 0. -1.
</event>
<event>
 4    1  0.9856522E-003  0.9118800E+02  0.7818608E-02  0.1130116E+00
         25   -1    0    0    0    0  0.00000000000E+00  0.00000000000E+00  0.99999998245E-14  0.12500000000E+03  0.12500000000E+03 0.  0.
        -13    1    1    0    0    0  0.13693993597E+02  0.71439183409E+01 -0.33072183000E+02  0.36501253161E+02  0.10566000000E+00 0. -1.
         13    1    1    0    0    0  0.41549014772E+01  0.28793963337E+01 -0.25736817243E+02  0.26228782956E+02  0.10566000000E+00 0.  1.
         22    1    1    0    0    0 -0.17848895074E+02 -0.10023314675E+02  0.58809000243E+02  0.62269963883E+02  0.00000000000E+00 0. -1.
</event>
<event>
 4    1  0.9856522E-003  0.9118800E+02  0.7818608E-02  0.1130116E+00
         25   -1    0    0    0    0  0.00000000000E+00  0.00000000000E+00  0.99999998245E-14  0.12500000000E+03  0.12500000000E+03 0.  0.
        -13    1    1    0    0    0 -0.43629701305E+02 -0.15231756841E+02  0.30363817795E+02  0.55294935099E+02  0.10566000000E+00 0. -1.
         13    1    1    0    0    0 -0.64122741309E+01 -0.30159579905E+01  0.20187100594E+01  0.73688273470E+01  0.10566000000E+00 0.  1.
         22    1    1    0    0    0  0.50041975436E+02  0.18247714832E+02 -0.32382527855E+02  0.62336237554E+02  0.00000000000E+00 0. -1.
</event>
<event>
 4    1  0.9856522E-003  0.9118800E+02  0.7818608E-02  0.1130116E+00
         25   -1    0    0    0    0  0.00000000000E+00  0.00000000000E+00  0.99999998245E-14  0.12500000000E+03  0.12500000000E+03 0.  0.
        -13    1    1    0    0    0 -0.20504359470E+01 -0.14277814269E+00 -0.23764359734E+01  0.31437692571E+01  0.10566000000E+00 0.  1.
         13    1    1    0    0    0 -0.43565217650E+02 -0.14333556190E+02 -0.37751254924E+02  0.59401577709E+02  0.10566000000E+00 0. -1.
         22    1    1    0    0    0  0.45615653597E+02  0.14476334333E+02  0.40127690897E+02  0.62454653034E+02  0.00000000000E+00 0. -1.
</event>
<event>
 4    1  0.9856522E-003  0.9118800E+02  0.7818608E-02  0.1130116E+00
         25   -1    0    0    0    0  0.00000000000E+00  0.00000000000E+00  0.99999998245E-14  0.12500000000E+03  0.12500000000E+03 0.  0.
        -13    1    1    0    0    0 -0.86468902691E+01 -0.28395933300E+01 -0.50105450902E+01  0.10389837715E+02  0.10566000000E+00 0.  1.
         13    1    1    0    0    0 -0.42100564902E+02 -0.19886571401E+02 -0.23464261275E+02  0.52139390181E+02  0.10566000000E+00 0. -1.
         22    1    1    0    0    0  0.50747455171E+02  0.22726164731E+02  0.28474806366E+02  0.62470772104E+02  0.00000000000E+00 0. -1.
</event>
<event>
 4    1  0.9856522E-003  0.9118800E+02  0.7818608E-02  0.1130116E+00
         25   -1    0    0    0    0  0.00000000000E+00  0.00000000000E+00  0.99999998245E-14  0.12500000000E+03  0.12500000000E+03 0.  0.
        -13    1    1    0    0    0 -0.35526745586E+02  0.21428699488E+02 -0.22990623758E+02  0.47433308535E+02  0.10566000000E+00 0. -1.
         13    1    1    0    0    0 -0.11346412194E+02 -0.26022443744E+01 -0.11530066562E+02  0.16384942613E+02  0.10566000000E+00 0.  1.
         22    1    1    0    0    0  0.46873157781E+02 -0.18826455114E+02  0.34520690320E+02  0.61181748853E+02  0.00000000000E+00 0. -1.
</event>
<event>
 4    1  0.9856522E-003  0.9118800E+02  0.7818608E-02  0.1130116E+00
         25   -1    0    0    0    0  0.00000000000E+00  0.00000000000E+00  0.99999998245E-14  0.12500000000E+03  0.12500000000E+03 0.  0.
        -13    1    1    0    0    0 -0.20474920856E+01 -0.18216276641E+02  0.46627135675E+02  0.50101156711E+02  0.10566000000E+00 0. -1.
         13    1    1    0    0    0  0.23946885455E+02  0.16862916902E+02 -0.78136636666E+01  0.30312964114E+02  0.10566000000E+00 0.  1.
         22    1    1    0    0    0 -0.21899393369E+02  0.13533597385E+01 -0.38813472008E+02  0.44585879175E+02  0.00000000000E+00 0. -1.
</event>
<event>
 4    1  0.9856522E-003  0.9118800E+02  0.7818608E-02  0.1130116E+00
         25   -1    0    0    0    0  0.00000000000E+00  0.00000000000E+00  0.99999998245E-14  0.12500000000E+03  0.12500000000E+03 0.  0.
        -13    1    1    0    0    0  0.28012861851E+02  0.64599731665E+01  0.13189325741E+02  0.31629435024E+02  0.10566000000E+00 0.  1.
         13    1    1    0    0    0  0.27447465654E+02  0.57435387218E+01  0.12912128955E+02  0.30872088463E+02  0.10566000000E+00 0. -1.
         22    1    1    0    0    0 -0.55460327505E+02 -0.12203511888E+02 -0.26101454696E+02  0.62498476514E+02  0.00000000000E+00 0. -1.
</event>
<event>
 4    1  0.9856522E-003  0.9118800E+02  0.7818608E-02  0.1130116E+00
         25   -1    0    0    0    0  0.00000000000E+00  0.00000000000E+00  0.99999998245E-14  0.12500000000E+03  0.12500000000E+03 0.  0.
        -13    1    1    0    0    0 -0.24535601289E+01 -0.52551608221E+02 -0.29749548313E+02  0.60437887726E+02  0.10566000000E+00 0. -1.
         13    1    1    0    0    0  0.59726204175E-02 -0.23050356086E+01  0.55882451094E+00  0.23741680014E+01  0.10566000000E+00 0.  1.
         22    1    1    0    0    0  0.24475875084E+01  0.54856643829E+02  0.29190723802E+02  0.62187944273E+02  0.00000000000E+00 0. -1.
</event>
<event>
 4    1  0.9856522E-003  0.9118800E+02  0.7818608E-02  0.1130116E+00
         25   -1    0    0    0    0  0.00000000000E+00  0.00000000000E+00  0.99999998245E-14  0.12500000000E+03  0.12500000000E+03 0.  0.
        -13    1    1    0    0    0  0.13286448124E+02  0.24249167427E+02  0.33522550864E+01  0.27853197354E+02  0.10566000000E+00 0. -1.
         13    1    1    0    0    0 -0.37904961479E+02  0.22328222124E+02 -0.59849344510E+01  0.44397817653E+02  0.10566000000E+00 0.  1.
         22    1    1    0    0    0  0.24618513355E+02 -0.46577389550E+02  0.26326793646E+01  0.52748984993E+02  0.00000000000E+00 0. -1.
</event>
<event>
 4    1  0.9856522E-003  0.9118800E+02  0.7818608E-02  0.1130116E+00
         25   -1    0    0    0    0  0.00000000000E+00  0.00000000000E+00  0.99999998245E-14  0.12500000000E+03  0.12500000000E+03 0.  0.
        -13    1    1    0    0    0  0.26875811046E+02  0.25820812405E+02 -0.58116235071E+01  0.37720149847E+02  0.10566000000E+00 0. -1.
         13    1    1    0    0    0  0.38225299145E+01  0.25790028237E+02  0.77454919065E+01  0.27198181930E+02  0.10566000000E+00 0.  1.
         22    1    1    0    0    0 -0.30698340961E+02 -0.51610840642E+02 -0.19338683994E+01  0.60081668223E+02  0.00000000000E+00 0.  1.
</event>
<event>
 4    1  0.9856522E-003  0.9118800E+02  0.7818608E-02  0.1130116E+00
         25   -1    0    0    0    0  0.00000000000E+00  0.00000000000E+00  0.99999998245E-14  0.12500000000E+03  0.12500000000E+03 0.  0.
        -13    1    1    0    0    0  0.18520005723E+02 -0.24244647476E+02  0.22697693260E+02  0.38026175019E+02  0.10566000000E+00 0.  1.
         13    1    1    0    0    0  0.13959029837E+02 -0.20344777851E+02  0.51100776089E+01  0.25196994999E+02  0.10566000000E+00 0. -1.
         22    1    1    0    0    0 -0.32479035561E+02  0.44589425326E+02 -0.27807770869E+02  0.61776829982E+02  0.00000000000E+00 0. -1.
</event>
<event>
 4    1  0.9856522E-003  0.9118800E+02  0.7818608E-02  0.1130116E+00
         25   -1    0    0    0    0  0.00000000000E+00  0.00000000000E+00  0.99999998245E-14  0.12500000000E+03  0.12500000000E+03 0.  0.
        -13    1    1    0    0    0  0.57994897521E+01 -0.17921136469E+02  0.34084798265E+02  0.38943367221E+02  0.10566000000E+00 0. -1.
         13    1    1    0    0    0  0.35000366886E+01 -0.98776382792E+01  0.21105871885E+02  0.23564528148E+02  0.10566000000E+00 0.  1.
         22    1    1    0    0    0 -0.92995264407E+01  0.27798774748E+02 -0.55190670150E+02  0.62492104630E+02  0.00000000000E+00 0.  1.
</event>
<event>
 4    1  0.9856522E-003  0.9118800E+02  0.7818608E-02  0.1130116E+00
         25   -1    0    0    0    0  0.00000000000E+00  0.00000000000E+00  0.99999998245E-14  0.12500000000E+03  0.12500000000E+03 0.  0.
        -13    1    1    0    0    0 -0.13293134780E+02 -0.72640125885E+01  0.80515582724E+01  0.17155525810E+02  0.10566000000E+00 0.  1.
         13    1    1    0    0    0 -0.35835592422E+02 -0.17918822345E+02  0.21240276033E+02  0.45347925735E+02  0.10566000000E+00 0.  1.
         22    1    1    0    0    0  0.49128727203E+02  0.25182834933E+02 -0.29291834305E+02  0.62496548455E+02  0.00000000000E+00 0.  1.
</event>
<event>
 4    1  0.9856522E-003  0.9118800E+02  0.7818608E-02  0.1130116E+00
         25   -1    0    0    0    0  0.00000000000E+00  0.00000000000E+00  0.99999998245E-14  0.12500000000E+03  0.12500000000E+03 0.  0.
        -13    1    1    0    0    0  0.43967341910E+02  0.13826561688E+02 -0.10266359269E+02  0.47219807914E+02  0.10566000000E+00 0.  1.
         13    1    1    0    0    0  0.97211982299E+01  0.12320720089E+02 -0.43781568377E+01  0.16293595670E+02  0.10566000000E+00 0. -1.
         22    1    1    0    0    0 -0.53688540140E+02 -0.26147281777E+02  0.14644516107E+02  0.61486596415E+02  0.00000000000E+00 0. -1.
</event>
<event>
 4    1  0.9856522E-003  0.9118800E+02  0.7818608E-02  0.1130116E+00
         25   -1    0    0    0    0  0.00000000000E+00  0.00000000000E+00  0.99999998245E-14  0.12500000000E+03  0.12500000000E+03 0.  0.
        -13    1    1    0    0    0  0.82527155420E+00  0.33402079189E+02 -0.17523487620E+02  0.37728818557E+02  0.10566000000E+00 0. -1.
         13    1    1    0    0    0 -0.20762926729E+02 -0.14738674121E+02 -0.25677594047E+02  0.36161825746E+02  0.10566000000E+00 0.  1.
         22    1    1    0    0    0  0.19937655175E+02 -0.18663405068E+02  0.43201081667E+02  0.51109355697E+02  0.00000000000E+00 0. -1.
</event>
<event>
 4    1  0.9856522E-003  0.9118800E+02  0.7818608E-02  0.1130116E+00
         25   -1    0    0    0    0  0.00000000000E+00  0.00000000000E+00  0.99999998245E-14  0.12500000000E+03  0.12500000000E+03 0.  0.
        -13    1    1    0    0    0 -0.23589605225E+01  0.97709712038E+01  0.28757073462E+02  0.30463371631E+02  0.10566000000E+00 0. -1.
         13    1    1    0    0    0 -0.23302747370E+01  0.99079470340E+01  0.30377478012E+02  0.32037476948E+02  0.10566000000E+00 0.  1.
         22    1    1    0    0    0  0.46892352596E+01 -0.19678918238E+02 -0.59134551474E+02  0.62499151421E+02  0.00000000000E+00 0.  1.
</event>
<event>
 4    1  0.9856522E-003  0.9118800E+02  0.7818608E-02  0.1130116E+00
         25   -1    0    0    0    0  0.00000000000E+00  0.00000000000E+00  0.99999998245E-14  0.12500000000E+03  0.12500000000E+03 0.  0.
        -13    1    1    0    0    0 -0.12840725957E+02 -0.37977694784E+02  0.29829825242E+02  0.49970182931E+02  0.10566000000E+00 0. -1.
         13    1    1    0    0    0 -0.35285566173E+01 -0.94403492405E+01  0.74473138436E+01  0.12531741823E+02  0.10566000000E+00 0.  1.
         22    1    1    0    0    0  0.16369282574E+02  0.47418044024E+02 -0.37277139086E+02  0.62498075246E+02  0.00000000000E+00 0. -1.
</event>
<event>
 4    1  0.9856522E-003  0.9118800E+02  0.7818608E-02  0.1130116E+00
         25   -1    0    0    0    0  0.00000000000E+00  0.00000000000E+00  0.99999998245E-14  0.12500000000E+03  0.12500000000E+03 0.  0.
        -13    1    1    0    0    0  0.16617874784E+02 -0.23506588238E+02  0.48901174481E+02  0.56745479843E+02  0.10566000000E+00 0.  1.
         13    1    1    0    0    0  0.23408007075E+01 -0.34170824290E+01  0.41180924318E+01  0.58417163224E+01  0.10566000000E+00 0. -1.
         22    1    1    0    0    0 -0.18958675491E+02  0.26923670667E+02 -0.53019266913E+02  0.62412803835E+02  0.00000000000E+00 0.  1.
</event>
<event>
 4    1  0.9856522E-003  0.9118800E+02  0.7818608E-02  0.1130116E+00
         25   -1    0    0    0    0  0.00000000000E+00  0.00000000000E+00  0.99999998245E-14  0.12500000000E+03  0.12500000000E+03 0.  0.
        -13    1    1    0    0    0 -0.58598453769E+01  0.65563958946E+01 -0.31678065899E+02  0.32876057217E+02  0.10566000000E+00 0. -1.
         13    1    1    0    0    0 -0.57752764598E+01  0.77811717698E+01 -0.28013191934E+02  0.29642040056E+02  0.10566000000E+00 0.  1.
         22    1    1    0    0    0  0.11635121837E+02 -0.14337567664E+02  0.59691257833E+02  0.62481902727E+02  0.00000000000E+00 0.  1.
</event>
<event>
 4    1  0.9856522E-003  0.9118800E+02  0.7818608E-02  0.1130116E+00
         25   -1    0    0    0    0  0.00000000000E+00  0.00000000000E+00  0.99999998245E-14  0.12500000000E+03  0.12500000000E+03 0.  0.
        -13    1    1    0    0    0  0.10161858757E+02 -0.24975713083E+02 -0.15321827220E+02  0.31013209618E+02  0.10566000000E+00 0.  1.
         13    1    1    0    0    0  0.99896652799E+01 -0.24959147285E+02 -0.16398403990E+02  0.31490812359E+02  0.10566000000E+00 0. -1.
         22    1    1    0    0    0 -0.20151524037E+02  0.49934860368E+02  0.31720231210E+02  0.62495978023E+02  0.00000000000E+00 0. -1.
</event>
<event>
 4    1  0.9856522E-003  0.9118800E+02  0.7818608E-02  0.1130116E+00
         25   -1    0    0    0    0  0.00000000000E+00  0.00000000000E+00  0.99999998245E-14  0.12500000000E+03  0.12500000000E+03 0.  0.
        -13    1    1    0    0    0 -0.76188156002E+01 -0.10449076374E+02  0.10141828218E+02  0.16434639998E+02  0.10566000000E+00 0.  1.
         13    1    1    0    0    0 -0.20028791286E+02 -0.30193949145E+02  0.28452410471E+02  0.46069272525E+02  0.10566000000E+00 0. -1.
         22    1    1    0    0    0  0.27647606887E+02  0.40643025519E+02 -0.38594238690E+02  0.62496087477E+02  0.00000000000E+00 0.  1.
</event>
<event>
 4    1  0.9856522E-003  0.9118800E+02  0.7818608E-02  0.1130116E+00
         25   -1    0    0    0    0  0.00000000000E+00  0.00000000000E+00  0.99999998245E-14  0.12500000000E+03  0.12500000000E+03 0.  0.
        -13    1    1    0    0    0 -0.36995544403E+02 -0.41813786422E+02  0.23129787671E+02  0.60432286754E+02  0.10566000000E+00 0. -1.
         13    1    1    0    0    0 -0.10789923244E+01 -0.15286628790E+01  0.89187503975E+00  0.20754854266E+01  0.10566000000E+00 0.  1.
         22    1    1    0    0    0  0.38074536727E+02  0.43342449301E+02 -0.24021662711E+02  0.62492227819E+02  0.00000000000E+00 0. -1.
</event>
<event>
 4    1  0.9856522E-003  0.9118800E+02  0.7818608E-02  0.1130116E+00
         25   -1    0    0    0    0  0.00000000000E+00  0.00000000000E+00  0.99999998245E-14  0.12500000000E+03  0.12500000000E+03 0.  0.
        -13    1    1    0    0    0  0.24344295722E+01 -0.76984554798E+00 -0.28648878459E+01  0.38389915232E+01  0.10566000000E+00 0. -1.
         13    1    1    0    0    0 -0.42089341571E+02 -0.29007828896E+01  0.46024190135E+02  0.62435282148E+02  0.10566000000E+00 0.  1.
         22    1    1    0    0    0  0.39654911999E+02  0.36706284376E+01 -0.43159302289E+02  0.58725726329E+02  0.00000000000E+00 0.  1.
</event>
<event>
 4    1  0.9856522E-003  0.9118800E+02  0.7818608E-02  0.1130116E+00
         25   -1    0    0    0    0  0.00000000000E+00  0.00000000000E+00  0.99999998245E-14  0.12500000000E+03  0.12500000000E+03 0.  0.
        -13    1    1    0    0    0  0.25208295646E+01  0.42839825602E+02 -0.12670269957E+02  0.44745414783E+02  0.10566000000E+00 0.  1.
         13    1    1    0    0    0 -0.68103208940E+01  0.13899137718E+02 -0.10620403025E+02  0.18771537615E+02  0.10566000000E+00 0. -1.
         22    1    1    0    0    0  0.42894913294E+01 -0.56738963320E+02  0.23290672982E+02  0.61483047602E+02  0.00000000000E+00 0.  1.
</event>
<event>
 4    1  0.9856522E-003  0.9118800E+02  0.7818608E-02  0.1130116E+00
         25   -1    0    0    0    0  0.00000000000E+00  0.00000000000E+00  0.99999998245E-14  0.12500000000E+03  0.12500000000E+03 0.  0.
        -13    1    1    0    0    0 -0.60574919435E+01  0.50247994755E+01 -0.91501032315E+01  0.12069688132E+02  0.10566000000E+00 0.  1.
         13    1    1    0    0    0 -0.17482913477E+02  0.21908987262E+02 -0.42011407075E+02  0.50503717437E+02  0.10566000000E+00 0. -1.
         22    1    1    0    0    0  0.23540405420E+02 -0.26933786738E+02  0.51161510307E+02  0.62426594431E+02  0.00000000000E+00 0. -1.
</event>
<event>
 4    1  0.9856522E-003  0.9118800E+02  0.7818608E-02  0.1130116E+00
         25   -1    0    0    0    0  0.00000000000E+00  0.00000000000E+00  0.99999998245E-14  0.12500000000E+03  0.12500000000E+03 0.  0.
        -13    1    1    0    0    0  0.21731634446E+02 -0.16468394977E+02  0.26111751799E+02  0.37753234495E+02  0.10566000000E+00 0.  1.
         13    1    1    0    0    0  0.29033085948E+02  0.14204934075E+02 -0.12350355710E+02  0.34601194805E+02  0.10566000000E+00 0. -1.
         22    1    1    0    0    0 -0.50764720394E+02  0.22634609021E+01 -0.13761396088E+02  0.52645570699E+02  0.00000000000E+00 0.  1.
</event>
<event>
 4    1  0.9856522E-003  0.9118800E+02  0.7818608E-02  0.1130116E+00
         25   -1    0    0    0    0  0.00000000000E+00  0.00000000000E+00  0.99999998245E-14  0.12500000000E+03  0.12500000000E+03 0.  0.
        -13    1    1    0    0    0 -0.18441895188E+01  0.36038559766E+02  0.64063353168E+01  0.36650117615E+02  0.10566000000E+00 0. -1.
         13    1    1    0    0    0 -0.20683074249E+02  0.15825182181E+02 -0.16613830892E+02  0.30891042268E+02  0.10566000000E+00 0.  1.
         22    1    1    0    0    0  0.22527263768E+02 -0.51863741947E+02  0.10207495575E+02  0.57458840117E+02  0.00000000000E+00 0. -1.
</event>
<event>
 4    1  0.9856522E-003  0.9118800E+02  0.7818608E-02  0.1130116E+00
         25   -1    0    0    0    0  0.00000000000E+00  0.00000000000E+00  0.99999998245E-14  0.12500000000E+03  0.12500000000E+03 0.  0.
        -13    1    1    0    0    0 -0.57460027729E+01  0.21259001813E+01  0.13498855000E+02  0.14824515162E+02  0.10566000000E+00 0. -1.
         13    1    1    0    0    0  0.14474358268E+02 -0.66449335563E+01 -0.60292505628E+02  0.62360721517E+02  0.10566000000E+00 0.  1.
         22    1    1    0    0    0 -0.87283554951E+01  0.45190333751E+01  0.46793650628E+02  0.47814763321E+02  0.00000000000E+00 0.  1.
</event>
<event>
 4    1  0.9856522E-003  0.9118800E+02  0.7818608E-02  0.1130116E+00
         25   -1    0    0    0    0  0.00000000000E+00  0.00000000000E+00  0.99999998245E-14  0.12500000000E+03  0.12500000000E+03 0.  0.
        -13    1    1    0    0    0 -0.23002512773E+02  0.18560713362E+02 -0.21801425825E+02  0.36727768873E+02  0.10566000000E+00 0.  1.
         13    1    1    0    0    0 -0.19853647943E+02  0.32764547108E+01 -0.17103086844E+02  0.26408885545E+02  0.10566000000E+00 0. -1.
         22    1    1    0    0    0  0.42856160715E+02 -0.21837168073E+02  0.38904512668E+02  0.61863345582E+02  0.00000000000E+00 0. -1.
</event>
<event>
 4    1  0.9856522E-003  0.9118800E+02  0.7818608E-02  0.1130116E+00
         25   -1    0    0    0    0  0.00000000000E+00  0.00000000000E+00  0.99999998245E-14  0.12500000000E+03  0.12500000000E+03 0.  0.
        -13    1    1    0    0    0 -0.41858655049E+01  0.50338625360E+02  0.31772584338E+02  0.59674173247E+02  0.10566000000E+00 0. -1.
         13    1    1    0    0    0 -0.17040213097E-01  0.25924288992E+01  0.11625271376E+01  0.28431692435E+01  0.10566000000E+00 0.  1.
         22    1    1    0    0    0  0.42029057180E+01 -0.52931054260E+02 -0.32935111476E+02  0.62482657509E+02  0.00000000000E+00 0. -1.
</event>
<event>
 4    1  0.9856522E-003  0.9118800E+02  0.7818608E-02  0.1130116E+00
         25   -1    0    0    0    0  0.00000000000E+00  0.00000000000E+00  0.99999998245E-14  0.12500000000E+03  0.12500000000E+03 0.  0.
        -13    1    1    0    0    0 -0.29857593391E+01 -0.57133384555E+01  0.21316996996E+02  0.22270665013E+02  0.10566000000E+00 0. -1.
         13    1    1    0    0    0  0.73116864233E+01 -0.16406432672E+02  0.36496785170E+02  0.40677491112E+02  0.10566000000E+00 0.  1.
         22    1    1    0    0    0 -0.43259270842E+01  0.22119771127E+02 -0.57813782167E+02  0.62051843875E+02  0.00000000000E+00 0.  1.
</event>
<event>
 4    1  0.9856522E-003  0.9118800E+02  0.7818608E-02  0.1130116E+00
         25   -1    0    0    0    0  0.00000000000E+00  0.00000000000E+00  0.99999998245E-14  0.12500000000E+03  0.12500000000E+03 0.  0.
        -13    1    1    0    0    0 -0.49737827391E+01 -0.11521000426E+02  0.37181477919E+01  0.13088458756E+02  0.10566000000E+00 0. -1.
         13    1    1    0    0    0 -0.17975684177E+02 -0.44379546927E+02  0.12220525668E+02  0.49416817165E+02  0.10566000000E+00 0.  1.
         22    1    1    0    0    0  0.22949466916E+02  0.55900547353E+02 -0.15938673460E+02  0.62494724080E+02  0.00000000000E+00 0.  1.
</event>
<event>
 4    1  0.9856522E-003  0.9118800E+02  0.7818608E-02  0.1130116E+00
         25   -1    0    0    0    0  0.00000000000E+00  0.00000000000E+00  0.99999998245E-14  0.12500000000E+03  0.12500000000E+03 0.  0.
        -13    1    1    0    0    0  0.28225551277E+02 -0.79358668835E+01 -0.23371439948E+02  0.37495267667E+02  0.10566000000E+00 0.  1.
         13    1    1    0    0    0  0.19828128257E+02 -0.61184373937E+01 -0.13996805041E+02  0.25030214975E+02  0.10566000000E+00 0. -1.
         22    1    1    0    0    0 -0.48053679535E+02  0.14054304277E+02  0.37368244989E+02  0.62474517358E+02  0.00000000000E+00 0. -1.
</event>
<event>
 4    1  0.9856522E-003  0.9118800E+02  0.7818608E-02  0.1130116E+00
         25   -1    0    0    0    0  0.00000000000E+00  0.00000000000E+00  0.99999998245E-14  0.12500000000E+03  0.12500000000E+03 0.  0.
        -13    1    1    0    0    0  0.27415345665E+02 -0.18977117410E+02  0.35364610273E+02  0.48604516117E+02  0.10566000000E+00 0. -1.
         13    1    1    0    0    0  0.69612029270E+01  0.11242228464E+02  0.11662946374E+02  0.17631832837E+02  0.10566000000E+00 0.  1.
         22    1    1    0    0    0 -0.34376548592E+02  0.77348889462E+01 -0.47027556647E+02  0.58763651046E+02  0.00000000000E+00 0. -1.
</event>
<event>
 4    1  0.9856522E-003  0.9118800E+02  0.7818608E-02  0.1130116E+00
         25   -1    0    0    0    0  0.00000000000E+00  0.00000000000E+00  0.99999998245E-14  0.12500000000E+03  0.12500000000E+03 0.  0.
        -13    1    1    0    0    0  0.14778108993E+02 -0.26892520862E+02 -0.42960061718E+02  0.52793733061E+02  0.10566000000E+00 0. -1.
         13    1    1    0    0    0  0.19909281189E+01 -0.41789362442E+01 -0.85697655953E+01  0.97406031283E+01  0.10566000000E+00 0.  1.
         22    1    1    0    0    0 -0.16769037112E+02  0.31071457106E+02  0.51529827313E+02  0.62465663810E+02  0.00000000000E+00 0. -1.
</event>
<event>
 4    1  0.9856522E-003  0.9118800E+02  0.7818608E-02  0.1130116E+00
         25   -1    0    0    0    0  0.00000000000E+00  0.00000000000E+00  0.99999998245E-14  0.12500000000E+03  0.12500000000E+03 0.  0.
        -13    1    1    0    0    0  0.85251058210E+01  0.26345431654E+02  0.45163234288E+02  0.52976297471E+02  0.10566000000E+00 0.  1.
         13    1    1    0    0    0  0.24390337041E+01  0.39648646949E+01  0.83456599922E+01  0.95566857331E+01  0.10566000000E+00 0. -1.
         22    1    1    0    0    0 -0.10964139525E+02 -0.30310296349E+02 -0.53508894281E+02  0.62467016796E+02  0.00000000000E+00 0.  1.
</event>
<event>
 4    1  0.9856522E-003  0.9118800E+02  0.7818608E-02  0.1130116E+00
         25   -1    0    0    0    0  0.00000000000E+00  0.00000000000E+00  0.99999998245E-14  0.12500000000E+03  0.12500000000E+03 0.  0.
        -13    1    1    0    0    0 -0.53058139466E+02  0.11239296228E+02  0.17387131851E+02  0.56954468317E+02  0.10566000000E+00 0.  1.
         13    1    1    0    0    0 -0.57342513604E+01  0.65487692877E+00 -0.94445987479E+00  0.58492453314E+01  0.10566000000E+00 0. -1.
         22    1    1    0    0    0  0.58792390826E+02 -0.11894173157E+02 -0.16442671977E+02  0.62196286351E+02  0.00000000000E+00 0.  1.
</event>
<event>
 4    1  0.9856522E-003  0.9118800E+02  0.7818608E-02  0.1130116E+00
         25   -1    0    0    0    0  0.00000000000E+00  0.00000000000E+00  0.99999998245E-14  0.12500000000E+03  0.12500000000E+03 0.  0.
        -13    1    1    0    0    0 -0.13366318317E+01  0.14513460139E+01  0.97910083285E+00  0.22051740027E+01  0.10566000000E+00 0.  1.
         13    1    1    0    0    0 -0.18688546366E+02 -0.58920011028E+02 -0.32105051952E+01  0.61896267839E+02  0.10566000000E+00 0. -1.
         22    1    1    0    0    0  0.20025178197E+02  0.57468665014E+02  0.22314043624E+01  0.60898558158E+02  0.00000000000E+00 0. -1.
</event>
<event>
 4    1  0.9856522E-003  0.9118800E+02  0.7818608E-02  0.1130116E+00
         25   -1    0    0    0    0  0.00000000000E+00  0.00000000000E+00  0.99999998245E-14  0.12500000000E+03  0.12500000000E+03 0.  0.
        -13    1    1    0    0    0 -0.54883851894E+00 -0.75177804661E+01 -0.41609136550E+01  0.86106105089E+01  0.10566000000E+00 0. -1.
         13    1    1    0    0    0  0.10543456789E+01 -0.46279558949E+02 -0.27618602878E+02  0.53904615853E+02  0.10566000000E+00 0.  1.
         22    1    1    0    0    0 -0.50550716000E+00  0.53797339415E+02  0.31779516533E+02  0.62484773638E+02  0.00000000000E+00 0.  1.
</event>
<event>
 4    1  0.9856522E-003  0.9118800E+02  0.7818608E-02  0.1130116E+00
         25   -1    0    0    0    0  0.00000000000E+00  0.00000000000E+00  0.99999998245E-14  0.12500000000E+03  0.12500000000E+03 0.  0.
        -13    1    1    0    0    0 -0.10178709924E+02 -0.66210486253E+01  0.22866688402E+02  0.25890944810E+02  0.10566000000E+00 0. -1.
         13    1    1    0    0    0  0.96119433897E+00  0.50800722683E+02 -0.17104613951E+02  0.53611717956E+02  0.10566000000E+00 0.  1.
         22    1    1    0    0    0  0.92175155852E+01 -0.44179674058E+02 -0.57620744517E+01  0.45497337235E+02  0.00000000000E+00 0.  1.
</event>
<event>
 4    1  0.9856522E-003  0.9118800E+02  0.7818608E-02  0.1130116E+00
         25   -1    0    0    0    0  0.00000000000E+00  0.00000000000E+00  0.99999998245E-14  0.12500000000E+03  0.12500000000E+03 0.  0.
        -13    1    1    0    0    0 -0.18550491456E+02 -0.88372639211E+01 -0.41814317746E+01  0.20969346738E+02  0.10566000000E+00 0.  1.
         13    1    1    0    0    0 -0.36603040556E+02 -0.17698851249E+02 -0.84725707774E+01  0.41531043005E+02  0.10566000000E+00 0.  1.
         22    1    1    0    0    0  0.55153532012E+02  0.26536115170E+02  0.12654002552E+02  0.62499610257E+02  0.00000000000E+00 0.  1.
</event>
<event>
 4    1  0.9856522E-003  0.9118800E+02  0.7818608E-02  0.1130116E+00
         25   -1    0    0    0    0  0.00000000000E+00  0.00000000000E+00  0.99999998245E-14  0.12500000000E+03  0.12500000000E+03 0.  0.
        -13    1    1    0    0    0 -0.19780233281E+02 -0.18890796753E+01 -0.52165829779E+02  0.55822139078E+02  0.10566000000E+00 0. -1.
         13    1    1    0    0    0 -0.24840275516E+01 -0.11123539305E+01 -0.61273461301E+01  0.67054648442E+01  0.10566000000E+00 0.  1.
         22    1    1    0    0    0  0.22264260833E+02  0.30014336058E+01  0.58293175909E+02  0.62472396078E+02  0.00000000000E+00 0. -1.
</event>
<event>
 4    1  0.9856522E-003  0.9118800E+02  0.7818608E-02  0.1130116E+00
         25   -1    0    0    0    0  0.00000000000E+00  0.00000000000E+00  0.99999998245E-14  0.12500000000E+03  0.12500000000E+03 0.  0.
        -13    1    1    0    0    0  0.14956961385E+00 -0.27183644052E+02 -0.33715944628E+02  0.43309917585E+02  0.10566000000E+00 0. -1.
         13    1    1    0    0    0 -0.22495226135E+01 -0.13159803131E+02 -0.13881465986E+02  0.19259985264E+02  0.10566000000E+00 0.  1.
         22    1    1    0    0    0  0.20999529996E+01  0.40343447183E+02  0.47597410614E+02  0.62430097151E+02  0.00000000000E+00 0. -1.
</event>
<event>
 4    1  0.9856522E-003  0.9118800E+02  0.7818608E-02  0.1130116E+00
         25   -1    0    0    0    0  0.00000000000E+00  0.00000000000E+00  0.99999998245E-14  0.12500000000E+03  0.12500000000E+03 0.  0.
        -13    1    1    0    0    0 -0.39162422314E+00 -0.31951863388E+02 -0.29023001682E+02  0.43167357275E+02  0.10566000000E+00 0. -1.
         13    1    1    0    0    0 -0.41224891411E+01 -0.17835911241E+02 -0.76409842398E+01  0.19837097840E+02  0.10566000000E+00 0.  1.
         22    1    1    0    0    0  0.45141133642E+01  0.49787774629E+02  0.36663985922E+02  0.61995544885E+02  0.00000000000E+00 0. -1.
</event>
<event>
 4    1  0.9856522E-003  0.9118800E+02  0.7818608E-02  0.1130116E+00
         25   -1    0    0    0    0  0.00000000000E+00  0.00000000000E+00  0.99999998245E-14  0.12500000000E+03  0.12500000000E+03 0.  0.
        -13    1    1    0    0    0  0.12699569798E+02  0.36617066719E+02  0.40034332198E+01  0.38963152974E+02  0.10566000000E+00 0. -1.
         13    1    1    0    0    0  0.60539280146E+01  0.22497678144E+02  0.35253383245E+01  0.23563419544E+02  0.10566000000E+00 0.  1.
         22    1    1    0    0    0 -0.18753497813E+02 -0.59114744862E+02 -0.75287715443E+01  0.62473427482E+02  0.00000000000E+00 0. -1.
</event>
<event>
 4    1  0.9856522E-003  0.9118800E+02  0.7818608E-02  0.1130116E+00
         25   -1    0    0    0    0  0.00000000000E+00  0.00000000000E+00  0.99999998245E-14  0.12500000000E+03  0.12500000000E+03 0.  0.
        -13    1    1    0    0    0 -0.35576101621E+01 -0.20472048046E+01 -0.11855178457E+02  0.12546077390E+02  0.10566000000E+00 0. -1.
         13    1    1    0    0    0  0.12454620840E+02 -0.39254406458E+02 -0.31552001981E+02  0.51880304545E+02  0.10566000000E+00 0.  1.
         22    1    1    0    0    0 -0.88970106778E+01  0.41301611263E+02  0.43407180438E+02  0.60573618065E+02  0.00000000000E+00 0.  1.
</event>
<event>
 4    1  0.9856522E-003  0.9118800E+02  0.7818608E-02  0.1130116E+00
         25   -1    0    0    0    0  0.00000000000E+00  0.00000000000E+00  0.99999998245E-14  0.12500000000E+03  0.12500000000E+03 0.  0.
        -13    1    1    0    0    0  0.37304959954E+01  0.32884478499E+02 -0.47402633661E+02  0.57812856430E+02  0.10566000000E+00 0. -1.
         13    1    1    0    0    0 -0.85993615599E+00  0.26817855611E+01 -0.38288711629E+01  0.47542488793E+01  0.10566000000E+00 0.  1.
         22    1    1    0    0    0 -0.28705598395E+01 -0.35566264061E+02  0.51231504824E+02  0.62432894691E+02  0.00000000000E+00 0. -1.
</event>
<event>
 4    1  0.9856522E-003  0.9118800E+02  0.7818608E-02  0.1130116E+00
         25   -1    0    0    0    0  0.00000000000E+00  0.00000000000E+00  0.99999998245E-14  0.12500000000E+03  0.12500000000E+03 0.  0.
        -13    1    1    0    0    0 -0.26761112691E+02  0.12327073672E+01 -0.36658932823E+02  0.45404462772E+02  0.10566000000E+00 0. -1.
         13    1    1    0    0    0 -0.94590605056E+01  0.24010793965E+01 -0.14090682890E+02  0.17140522637E+02  0.10566000000E+00 0.  1.
         22    1    1    0    0    0  0.36220173196E+02 -0.36337867637E+01  0.50749615713E+02  0.62455014591E+02  0.00000000000E+00 0. -1.
</event>
<event>
 4    1  0.9856522E-003  0.9118800E+02  0.7818608E-02  0.1130116E+00
         25   -1    0    0    0    0  0.00000000000E+00  0.00000000000E+00  0.99999998245E-14  0.12500000000E+03  0.12500000000E+03 0.  0.
        -13    1    1    0    0    0  0.39654894349E+02  0.27348636802E+02  0.44462429660E+01  0.48376014938E+02  0.10566000000E+00 0.  1.
         13    1    1    0    0    0  0.12006050678E+02  0.73359386271E+01  0.13251426508E+01  0.14132530400E+02  0.10566000000E+00 0. -1.
         22    1    1    0    0    0 -0.51660945027E+02 -0.34684575429E+02 -0.57713856168E+01  0.62491454662E+02  0.00000000000E+00 0.  1.
</event>
<event>
 4    1  0.9856522E-003  0.9118800E+02  0.7818608E-02  0.1130116E+00
         25   -1    0    0    0    0  0.00000000000E+00  0.00000000000E+00  0.99999998245E-14  0.12500000000E+03  0.12500000000E+03 0.  0.
        -13    1    1    0    0    0 -0.88818207221E+01 -0.23651823795E+02  0.49782730282E+02  0.55826757979E+02  0.10566000000E+00 0.  1.
         13    1    1    0    0    0 -0.66158312178E+00 -0.31932935056E+01  0.58335220518E+01  0.66840077203E+01  0.10566000000E+00 0. -1.
         22    1    1    0    0    0  0.95434038439E+01  0.26845117300E+02 -0.55616252334E+02  0.62489234300E+02  0.00000000000E+00 0.  1.
</event>
<event>
 4    1  0.9856522E-003  0.9118800E+02  0.7818608E-02  0.1130116E+00
         25   -1    0    0    0    0  0.00000000000E+00  0.00000000000E+00  0.99999998245E-14  0.12500000000E+03  0.12500000000E+03 0.  0.
        -13    1    1    0    0    0 -0.28552406678E+02  0.51525534913E+01  0.12393832223E+02  0.31550070932E+02  0.10566000000E+00 0. -1.
         13    1    1    0    0    0 -0.28231280435E+02  0.53582184864E+01  0.11503313897E+02  0.30952432780E+02  0.10566000000E+00 0.  1.
         22    1    1    0    0    0  0.56783687113E+02 -0.10510771978E+02 -0.23897146120E+02  0.62497496289E+02  0.00000000000E+00 0.  1.
</event>
<event>
 4    1  0.9856522E-003  0.9118800E+02  0.7818608E-02  0.1130116E+00
         25   -1    0    0    0    0  0.00000000000E+00  0.00000000000E+00  0.99999998245E-14  0.12500000000E+03  0.12500000000E+03 0.  0.
        -13    1    1    0    0    0  0.39783841805E+02  0.46100049618E+00  0.39500237005E+01  0.39982251582E+02  0.10566000000E+00 0.  1.
         13    1    1    0    0    0  0.21955276210E+02  0.28238154819E+01  0.45812884600E+01  0.22605474012E+02  0.10566000000E+00 0. -1.
         22    1    1    0    0    0 -0.61739118016E+02 -0.32848159780E+01 -0.85313121605E+01  0.62412274406E+02  0.00000000000E+00 0. -1.
</event>
<event>
 4    1  0.9856522E-003  0.9118800E+02  0.7818608E-02  0.1130116E+00
         25   -1    0    0    0    0  0.00000000000E+00  0.00000000000E+00  0.99999998245E-14  0.12500000000E+03  0.12500000000E+03 0.  0.
        -13    1    1    0    0    0 -0.27649115175E+01  0.17614401505E+02 -0.41736112291E+02  0.45385307196E+02  0.10566000000E+00 0.  1.
         13    1    1    0    0    0  0.11812501689E+01  0.10213500134E+02 -0.13957347743E+02  0.17335791214E+02  0.10566000000E+00 0. -1.
         22    1    1    0    0    0  0.15836613486E+01 -0.27827901638E+02  0.55693460034E+02  0.62278901591E+02  0.00000000000E+00 0.  1.
</event>
<event>
 4    1  0.9856522E-003  0.9118800E+02  0.7818608E-02  0.1130116E+00
         25   -1    0    0    0    0  0.00000000000E+00  0.00000000000E+00  0.99999998245E-14  0.12500000000E+03  0.12500000000E+03 0.  0.
        -13    1    1    0    0    0  0.30254821857E+01 -0.30548378117E+01  0.71530413854E+01  0.83464208862E+01  0.10566000000E+00 0. -1.
         13    1    1    0    0    0  0.19926657547E+02 -0.16703635311E+02  0.47510978719E+02  0.54160754947E+02  0.10566000000E+00 0. -1.
         22    1    1    0    0    0 -0.22952139733E+02  0.19758473122E+02 -0.54664020104E+02  0.62492824167E+02  0.00000000000E+00 0. -1.
</event>
<event>
 4    1  0.9856522E-003  0.9118800E+02  0.7818608E-02  0.1130116E+00
         25   -1    0    0    0    0  0.00000000000E+00  0.00000000000E+00  0.99999998245E-14  0.12500000000E+03  0.12500000000E+03 0.  0.
        -13    1    1    0    0    0  0.15088876146E+02  0.23589461876E+01  0.76683138975E+01  0.17089558582E+02  0.10566000000E+00 0.  1.
         13    1    1    0    0    0  0.40419428786E+02  0.63125027810E+01  0.19713303755E+02  0.45411489996E+02  0.10566000000E+00 0. -1.
         22    1    1    0    0    0 -0.55508304931E+02 -0.86714489686E+01 -0.27381617652E+02  0.62498951422E+02  0.00000000000E+00 0. -1.
</event>
<event>
 4    1  0.9856522E-003  0.9118800E+02  0.7818608E-02  0.1130116E+00
         25   -1    0    0    0    0  0.00000000000E+00  0.00000000000E+00  0.99999998245E-14  0.12500000000E+03  0.12500000000E+03 0.  0.
        -13    1    1    0    0    0 -0.47802382881E+02 -0.31002156735E+02  0.22170236608E+00  0.56975976054E+02  0.10566000000E+00 0. -1.
         13    1    1    0    0    0 -0.28177565376E+01 -0.42246114479E+01 -0.36547797604E+01  0.62574493944E+01  0.10566000000E+00 0.  1.
         22    1    1    0    0    0  0.50620139419E+02  0.35226768183E+02  0.34330773943E+01  0.61766574551E+02  0.00000000000E+00 0. -1.
</event>
<event>
 4    1  0.9856522E-003  0.9118800E+02  0.7818608E-02  0.1130116E+00
         25   -1    0    0    0    0  0.00000000000E+00  0.00000000000E+00  0.99999998245E-14  0.12500000000E+03  0.12500000000E+03 0.  0.
        -13    1    1    0    0    0  0.16143737792E+02  0.60581372163E+01 -0.30444374370E+02  0.34988460830E+02  0.10566000000E+00 0.  1.
         13    1    1    0    0    0  0.12843901162E+02  0.42429447478E+01 -0.23958244659E+02  0.27513215522E+02  0.10566000000E+00 0.  1.
         22    1    1    0    0    0 -0.28987638953E+02 -0.10301081964E+02  0.54402619029E+02  0.62498323649E+02  0.00000000000E+00 0.  1.
</event>
<event>
 4    1  0.9856522E-003  0.9118800E+02  0.7818608E-02  0.1130116E+00
         25   -1    0    0    0    0  0.00000000000E+00  0.00000000000E+00  0.99999998245E-14  0.12500000000E+03  0.12500000000E+03 0.  0.
        -13    1    1    0    0    0  0.42044987098E+02  0.12175789193E+02 -0.96051477275E+01  0.44814069325E+02  0.10566000000E+00 0.  1.
         13    1    1    0    0    0  0.16617527532E+02  0.47103720223E+01 -0.38029501625E+01  0.17686249457E+02  0.10566000000E+00 0.  1.
         22    1    1    0    0    0 -0.58662514630E+02 -0.16886161216E+02  0.13408097890E+02  0.62499681218E+02  0.00000000000E+00 0.  1.
</event>
<event>
 4    1  0.9856522E-003  0.9118800E+02  0.7818608E-02  0.1130116E+00
         25   -1    0    0    0    0  0.00000000000E+00  0.00000000000E+00  0.99999998245E-14  0.12500000000E+03  0.12500000000E+03 0.  0.
        -13    1    1    0    0    0  0.70230392226E+01 -0.32920597128E+01  0.16001039935E+02  0.17782159040E+02  0.10566000000E+00 0.  1.
         13    1    1    0    0    0  0.16600627569E+02 -0.10202886946E+02  0.40257928892E+02  0.44725739127E+02  0.10566000000E+00 0. -1.
         22    1    1    0    0    0 -0.23623666792E+02  0.13494946659E+02 -0.56258968827E+02  0.62492101833E+02  0.00000000000E+00 0. -1.
</event>
<event>
 4    1  0.9856522E-003  0.9118800E+02  0.7818608E-02  0.1130116E+00
         25   -1    0    0    0    0  0.00000000000E+00  0.00000000000E+00  0.99999998245E-14  0.12500000000E+03  0.12500000000E+03 0.  0.
        -13    1    1    0    0    0 -0.16256623189E+02  0.52162597968E+01 -0.82894592479E+01  0.18979290357E+02  0.10566000000E+00 0.  1.
         13    1    1    0    0    0 -0.39896184112E+02  0.10665074044E+02 -0.13922521555E+02  0.43580925662E+02  0.10566000000E+00 0. -1.
         22    1    1    0    0    0  0.56152807302E+02 -0.15881333840E+02  0.22211980803E+02  0.62439783981E+02  0.00000000000E+00 0. -1.
</event>
<event>
 4    1  0.9856522E-003  0.9118800E+02  0.7818608E-02  0.1130116E+00
         25   -1    0    0    0    0  0.00000000000E+00  0.00000000000E+00  0.99999998245E-14  0.12500000000E+03  0.12500000000E+03 0.  0.
        -13    1    1    0    0    0 -0.37972463244E+02  0.25778921470E+02  0.35334252024E+01  0.46032130242E+02  0.10566000000E+00 0.  1.
         13    1    1    0    0    0 -0.13118659354E+02  0.95471736223E+01  0.30355962885E+01  0.16506779101E+02  0.10566000000E+00 0. -1.
         22    1    1    0    0    0  0.51091122597E+02 -0.35326095092E+02 -0.65690214909E+01  0.62461090657E+02  0.00000000000E+00 0.  1.
</event>
<event>
 4    1  0.9856522E-003  0.9118800E+02  0.7818608E-02  0.1130116E+00
         25   -1    0    0    0    0  0.00000000000E+00  0.00000000000E+00  0.99999998245E-14  0.12500000000E+03  0.12500000000E+03 0.  0.
        -13    1    1    0    0    0  0.18680853170E+02  0.24084512384E+02  0.62414253931E+00  0.30486697589E+02  0.10566000000E+00 0.  1.
         13    1    1    0    0    0  0.19221413314E+02  0.25593121122E+02  0.66454026366E+00  0.32014424192E+02  0.10566000000E+00 0. -1.
         22    1    1    0    0    0 -0.37902266484E+02 -0.49677633506E+02 -0.12886828030E+01  0.62498878219E+02  0.00000000000E+00 0. -1.
</event>
<event>
 4    1  0.9856522E-003  0.9118800E+02  0.7818608E-02  0.1130116E+00
         25   -1    0    0    0    0  0.00000000000E+00  0.00000000000E+00  0.99999998245E-14  0.12500000000E+03  0.12500000000E+03 0.  0.
        -13    1    1    0    0    0 -0.77445696429E+01 -0.13246302157E+02  0.14176660787E+01  0.15409861159E+02  0.10566000000E+00 0. -1.
         13    1    1    0    0    0 -0.20970106076E+02 -0.41469090390E+02  0.77811277969E+01  0.47116747770E+02  0.10566000000E+00 0.  1.
         22    1    1    0    0    0  0.28714675719E+02  0.54715392547E+02 -0.91987938756E+01  0.62473391071E+02  0.00000000000E+00 0.  1.
</event>
<event>
 4    1  0.9856522E-003  0.9118800E+02  0.7818608E-02  0.1130116E+00
         25   -1    0    0    0    0  0.00000000000E+00  0.00000000000E+00  0.99999998245E-14  0.12500000000E+03  0.12500000000E+03 0.  0.
        -13    1    1    0    0    0  0.66465860560E+01 -0.55335602823E+02 -0.21339453313E+02  0.59679053928E+02  0.10566000000E+00 0.  1.
         13    1    1    0    0    0  0.52020949660E+00 -0.23609735076E+01 -0.15096979075E+01  0.28522211751E+01  0.10566000000E+00 0. -1.
         22    1    1    0    0    0 -0.71667955526E+01  0.57696576331E+02  0.22849151220E+02  0.62468724897E+02  0.00000000000E+00 0.  1.
</event>
<event>
 4    1  0.9856522E-003  0.9118800E+02  0.7818608E-02  0.1130116E+00
         25   -1    0    0    0    0  0.00000000000E+00  0.00000000000E+00  0.99999998245E-14  0.12500000000E+03  0.12500000000E+03 0.  0.
        -13    1    1    0    0    0  0.23076947040E+02 -0.15716094282E+02 -0.31712778241E+02  0.42252249313E+02  0.10566000000E+00 0.  1.
         13    1    1    0    0    0  0.11147785560E+02 -0.76034017711E+01 -0.15096077208E+02  0.20248149359E+02  0.10566000000E+00 0.  1.
         22    1    1    0    0    0 -0.34224732601E+02  0.23319496053E+02  0.46808855449E+02  0.62499601328E+02  0.00000000000E+00 0.  1.
</event>
<event>
 4    1  0.9856522E-003  0.9118800E+02  0.7818608E-02  0.1130116E+00
         25   -1    0    0    0    0  0.00000000000E+00  0.00000000000E+00  0.99999998245E-14  0.12500000000E+03  0.12500000000E+03 0.  0.
        -13    1    1    0    0    0 -0.25690354970E+01  0.40572603104E+02 -0.51758520840E+01  0.40982150686E+02  0.10566000000E+00 0. -1.
         13    1    1    0    0    0 -0.14292492709E+01  0.21181437721E+02 -0.35424824031E+01  0.21523391996E+02  0.10566000000E+00 0.  1.
         22    1    1    0    0    0  0.39982847678E+01 -0.61754040825E+02  0.87183344870E+01  0.62494457318E+02  0.00000000000E+00 0.  1.
</event>
<event>
 4    1  0.9856522E-003  0.9118800E+02  0.7818608E-02  0.1130116E+00
         25   -1    0    0    0    0  0.00000000000E+00  0.00000000000E+00  0.99999998245E-14  0.12500000000E+03  0.12500000000E+03 0.  0.
        -13    1    1    0    0    0 -0.13542009386E+02  0.20054017144E+02  0.10960589838E+02  0.26564926415E+02  0.10566000000E+00 0.  1.
         13    1    1    0    0    0 -0.20739441255E+02  0.22325940784E+02  0.19318629451E+02  0.36080363958E+02  0.10566000000E+00 0. -1.
         22    1    1    0    0    0  0.34281450640E+02 -0.42379957928E+02 -0.30279219289E+02  0.62354709627E+02  0.00000000000E+00 0. -1.
</event>
<event>
 4    1  0.9856522E-003  0.9118800E+02  0.7818608E-02  0.1130116E+00
         25   -1    0    0    0    0  0.00000000000E+00  0.00000000000E+00  0.99999998245E-14  0.12500000000E+03  0.12500000000E+03 0.  0.
        -13    1    1    0    0    0  0.32977870910E+02  0.37690045656E+01  0.31993906527E+02  0.46101698278E+02  0.10566000000E+00 0. -1.
         13    1    1    0    0    0  0.11903700931E+02  0.18392666082E+01  0.11133060927E+02  0.16402353708E+02  0.10566000000E+00 0. -1.
         22    1    1    0    0    0 -0.44881571841E+02 -0.56082711738E+01 -0.43126967454E+02  0.62495948015E+02  0.00000000000E+00 0. -1.
</event>
<event>
 4    1  0.9856522E-003  0.9118800E+02  0.7818608E-02  0.1130116E+00
         25   -1    0    0    0    0  0.00000000000E+00  0.00000000000E+00  0.99999998245E-14  0.12500000000E+03  0.12500000000E+03 0.  0.
        -13    1    1    0    0    0 -0.68330113025E+00  0.16956678050E+01 -0.16316818100E+01  0.24527004106E+01  0.10566000000E+00 0. -1.
         13    1    1    0    0    0 -0.45976667807E+02  0.37247702142E+02 -0.11722252529E+02  0.60321369894E+02  0.10566000000E+00 0.  1.
         22    1    1    0    0    0  0.46659968938E+02 -0.38943369947E+02  0.13353934339E+02  0.62225929695E+02  0.00000000000E+00 0.  1.
</event>
<event>
 4    1  0.9856522E-003  0.9118800E+02  0.7818608E-02  0.1130116E+00
         25   -1    0    0    0    0  0.00000000000E+00  0.00000000000E+00  0.99999998245E-14  0.12500000000E+03  0.12500000000E+03 0.  0.
        -13    1    1    0    0    0  0.14015541689E+02 -0.37818664139E+02  0.13190055333E+01  0.40353905706E+02  0.10566000000E+00 0.  1.
         13    1    1    0    0    0 -0.15968198078E+00 -0.16851463713E+02 -0.19137085541E+02  0.25499735972E+02  0.10566000000E+00 0. -1.
         22    1    1    0    0    0 -0.13855859709E+02  0.54670127852E+02  0.17818080008E+02  0.59146358322E+02  0.00000000000E+00 0. -1.
</event>
<event>
 4    1  0.9856522E-003  0.9118800E+02  0.7818608E-02  0.1130116E+00
         25   -1    0    0    0    0  0.00000000000E+00  0.00000000000E+00  0.99999998245E-14  0.12500000000E+03  0.12500000000E+03 0.  0.
        -13    1    1    0    0    0 -0.32011503211E+02  0.16577030479E+02  0.72771622008E+01  0.36776385508E+02  0.10566000000E+00 0. -1.
         13    1    1    0    0    0 -0.22641116644E+02  0.11358401695E+02  0.44953518502E+01  0.25726500039E+02  0.10566000000E+00 0.  1.
         22    1    1    0    0    0  0.54652619855E+02 -0.27935432174E+02 -0.11772514051E+02  0.62497114452E+02  0.00000000000E+00 0.  1.
</event>
<event>
 4    1  0.9856522E-003  0.9118800E+02  0.7818608E-02  0.1130116E+00
         25   -1    0    0    0    0  0.00000000000E+00  0.00000000000E+00  0.99999998245E-14  0.12500000000E+03  0.12500000000E+03 0.  0.
        -13    1    1    0    0    0  0.67101074158E-01  0.57422918882E+00 -0.10877752832E+01  0.12363902368E+01  0.10566000000E+00 0.  1.
         13    1    1    0    0    0  0.26769718070E+01  0.20899061840E+02 -0.57534887668E+02  0.61271620076E+02  0.10566000000E+00 0.  1.
         22    1    1    0    0    0 -0.27440728812E+01 -0.21473291028E+02  0.58622662951E+02  0.62491989687E+02  0.00000000000E+00 0.  1.
</event>
<event>
 4    1  0.9856522E-003  0.9118800E+02  0.7818608E-02  0.1130116E+00
         25   -1    0    0    0    0  0.00000000000E+00  0.00000000000E+00  0.99999998245E-14  0.12500000000E+03  0.12500000000E+03 0.  0.
        -13    1    1    0    0    0  0.29247238957E+02  0.30933865059E+02 -0.34863827709E+01  0.42713827070E+02  0.10566000000E+00 0. -1.
         13    1    1    0    0    0  0.14783221781E+02  0.12231368190E+02 -0.55352308406E+01  0.19969976428E+02  0.10566000000E+00 0.  1.
         22    1    1    0    0    0 -0.44030460739E+02 -0.43165233249E+02  0.90216136115E+01  0.62316196502E+02  0.00000000000E+00 0. -1.
</event>
<event>
 4    1  0.9856522E-003  0.9118800E+02  0.7818608E-02  0.1130116E+00
         25   -1    0    0    0    0  0.00000000000E+00  0.00000000000E+00  0.99999998245E-14  0.12500000000E+03  0.12500000000E+03 0.  0.
        -13    1    1    0    0    0  0.15834121816E+02  0.39768331266E+01  0.99738688869E+01  0.19131749528E+02  0.10566000000E+00 0. -1.
         13    1    1    0    0    0  0.42815889608E+02  0.98630730191E+01  0.36429278702E+01  0.44088124249E+02  0.10566000000E+00 0.  1.
         22    1    1    0    0    0 -0.58650011424E+02 -0.13839906146E+02 -0.13616796757E+02  0.61780126223E+02  0.00000000000E+00 0.  1.
</event>
<event>
 4    1  0.9856522E-003  0.9118800E+02  0.7818608E-02  0.1130116E+00
         25   -1    0    0    0    0  0.00000000000E+00  0.00000000000E+00  0.99999998245E-14  0.12500000000E+03  0.12500000000E+03 0.  0.
        -13    1    1    0    0    0  0.82400230054E+01  0.30001555143E+02  0.24432897048E+02  0.39559687971E+02  0.10566000000E+00 0.  1.
         13    1    1    0    0    0  0.80156970945E+01  0.24020934489E+02 -0.53258345679E+01  0.25877255873E+02  0.10566000000E+00 0. -1.
         22    1    1    0    0    0 -0.16255720100E+02 -0.54022489632E+02 -0.19107062480E+02  0.59563056156E+02  0.00000000000E+00 0.  1.
</event>
<event>
 4    1  0.9856522E-003  0.9118800E+02  0.7818608E-02  0.1130116E+00
         25   -1    0    0    0    0  0.00000000000E+00  0.00000000000E+00  0.99999998245E-14  0.12500000000E+03  0.12500000000E+03 0.  0.
        -13    1    1    0    0    0  0.13319960955E+02  0.35666978601E+02  0.55233851589E+01  0.38471725592E+02  0.10566000000E+00 0.  1.
         13    1    1    0    0    0  0.56606927791E+01  0.23319085977E+02  0.21387520337E+01  0.24091671545E+02  0.10566000000E+00 0. -1.
         22    1    1    0    0    0 -0.18980653735E+02 -0.58986064578E+02 -0.76621371925E+01  0.62436602862E+02  0.00000000000E+00 0.  1.
</event>
<event>
 4    1  0.9856522E-003  0.9118800E+02  0.7818608E-02  0.1130116E+00
         25   -1    0    0    0    0  0.00000000000E+00  0.00000000000E+00  0.99999998245E-14  0.12500000000E+03  0.12500000000E+03 0.  0.
        -13    1    1    0    0    0 -0.22220085223E+01 -0.19710109598E+01 -0.10786176791E+01  0.31617694745E+01  0.10566000000E+00 0. -1.
         13    1    1    0    0    0 -0.28676156474E+02 -0.49050913755E+02 -0.17349279125E+02  0.59408103324E+02  0.10566000000E+00 0.  1.
         22    1    1    0    0    0  0.30898164996E+02  0.51021924715E+02  0.18427896804E+02  0.62430127202E+02  0.00000000000E+00 0.  1.
</event>
<event>
 4    1  0.9856522E-003  0.9118800E+02  0.7818608E-02  0.1130116E+00
         25   -1    0    0    0    0  0.00000000000E+00  0.00000000000E+00  0.99999998245E-14  0.12500000000E+03  0.12500000000E+03 0.  0.
        -13    1    1    0    0    0 -0.14479551090E+01 -0.69214094798E+01 -0.35429050735E+00  0.70809017070E+01  0.10566000000E+00 0.  1.
         13    1    1    0    0    0 -0.10128102082E+02 -0.51633775232E+02 -0.17773470442E+02  0.55538568689E+02  0.10566000000E+00 0. -1.
         22    1    1    0    0    0  0.11576057191E+02  0.58555184711E+02  0.18127760949E+02  0.62380529604E+02  0.00000000000E+00 0. -1.
</event>
<event>
 4    1  0.9856522E-003  0.9118800E+02  0.7818608E-02  0.1130116E+00
         25   -1    0    0    0    0  0.00000000000E+00  0.00000000000E+00  0.99999998245E-14  0.12500000000E+03  0.12500000000E+03 0.  0.
        -13    1    1    0    0    0 -0.79647212562E+01  0.75313280773E+01  0.30369440097E+01  0.11375055176E+02  0.10566000000E+00 0. -1.
         13    1    1    0    0    0 -0.35806924723E+02  0.34016750679E+02  0.13210767460E+02  0.51125441082E+02  0.10566000000E+00 0. -1.
         22    1    1    0    0    0  0.43771645980E+02 -0.41548078756E+02 -0.16247711469E+02  0.62499503743E+02  0.00000000000E+00 0. -1.
</event>
<event>
 4    1  0.9856522E-003  0.9118800E+02  0.7818608E-02  0.1130116E+00
         25   -1    0    0    0    0  0.00000000000E+00  0.00000000000E+00  0.99999998245E-14  0.12500000000E+03  0.12500000000E+03 0.  0.
        -13    1    1    0    0    0 -0.81480344978E+01 -0.51952492601E+01  0.53739378168E+02  0.54601401181E+02  0.10566000000E+00 0. -1.
         13    1    1    0    0    0 -0.11048386673E+01 -0.75525574322E+00  0.77842433344E+01  0.78991574261E+01  0.10566000000E+00 0. -1.
         22    1    1    0    0    0  0.92528731651E+01  0.59505050033E+01 -0.61523621502E+02  0.62499441392E+02  0.00000000000E+00 0. -1.
</event>
<event>
 4    1  0.9856522E-003  0.9118800E+02  0.7818608E-02  0.1130116E+00
         25   -1    0    0    0    0  0.00000000000E+00  0.00000000000E+00  0.99999998245E-14  0.12500000000E+03  0.12500000000E+03 0.  0.
        -13    1    1    0    0    0 -0.20139373419E+02 -0.11957225048E+02 -0.14596073579E+01  0.23467236954E+02  0.10566000000E+00 0.  1.
         13    1    1    0    0    0 -0.33508412809E+02 -0.19860840765E+02 -0.25089781052E+01  0.39032971448E+02  0.10566000000E+00 0.  1.
         22    1    1    0    0    0  0.53647786229E+02  0.31818065813E+02  0.39685854631E+01  0.62499791598E+02  0.00000000000E+00 0.  1.
</event>
<event>
 4    1  0.9856522E-003  0.9118800E+02  0.7818608E-02  0.1130116E+00
         25   -1    0    0    0    0  0.00000000000E+00  0.00000000000E+00  0.99999998245E-14  0.12500000000E+03  0.12500000000E+03 0.  0.
        -13    1    1    0    0    0 -0.10881245894E+02  0.16980888358E+02 -0.60189669193E+01  0.21047356329E+02  0.10566000000E+00 0.  1.
         13    1    1    0    0    0 -0.20645597769E+02  0.29721787696E+02 -0.20591767630E+02  0.41637212073E+02  0.10566000000E+00 0. -1.
         22    1    1    0    0    0  0.31526843663E+02 -0.46702676054E+02  0.26610734549E+02  0.62315431598E+02  0.00000000000E+00 0. -1.
</event>
<event>
 4    1  0.9856522E-003  0.9118800E+02  0.7818608E-02  0.1130116E+00
         25   -1    0    0    0    0  0.00000000000E+00  0.00000000000E+00  0.99999998245E-14  0.12500000000E+03  0.12500000000E+03 0.  0.
        -13    1    1    0    0    0 -0.23690080172E+00  0.27332106317E+01 -0.18895843639E+01  0.33329049568E+01  0.10566000000E+00 0.  1.
         13    1    1    0    0    0 -0.34708243623E+01  0.52777413874E+02 -0.26554418917E+02  0.59183193264E+02  0.10566000000E+00 0. -1.
         22    1    1    0    0    0  0.37077251640E+01 -0.55510624505E+02  0.28444003281E+02  0.62483901779E+02  0.00000000000E+00 0. -1.
</event>
<event>
 4    1  0.9856522E-003  0.9118800E+02  0.7818608E-02  0.1130116E+00
         25   -1    0    0    0    0  0.00000000000E+00  0.00000000000E+00  0.99999998245E-14  0.12500000000E+03  0.12500000000E+03 0.  0.
        -13    1    1    0    0    0 -0.66161933163E+00  0.67345699708E+01  0.20111003285E+02  0.21219231607E+02  0.10566000000E+00 0. -1.
         13    1    1    0    0    0 -0.13361389865E+01  0.13507205171E+02  0.38986008340E+02  0.41281350138E+02  0.10566000000E+00 0. -1.
         22    1    1    0    0    0  0.19977583182E+01 -0.20241775142E+02 -0.59097011625E+02  0.62499418255E+02  0.00000000000E+00 0. -1.
</event>
<event>
 4    1  0.9856522E-003  0.9118800E+02  0.7818608E-02  0.1130116E+00
         25   -1    0    0    0    0  0.00000000000E+00  0.00000000000E+00  0.99999998245E-14  0.12500000000E+03  0.12500000000E+03 0.  0.
        -13    1    1    0    0    0  0.52392679739E+01 -0.22726584915E+02  0.15574494938E+02  0.28045028925E+02  0.10566000000E+00 0. -1.
         13    1    1    0    0    0  0.94557599495E+01 -0.23181919112E+02  0.23929060875E+02  0.34632699698E+02  0.10566000000E+00 0.  1.
         22    1    1    0    0    0 -0.14695027923E+02  0.45908504027E+02 -0.39503555813E+02  0.62322271377E+02  0.00000000000E+00 0.  1.
</event>
<event>
 4    1  0.9856522E-003  0.9118800E+02  0.7818608E-02  0.1130116E+00
         25   -1    0    0    0    0  0.00000000000E+00  0.00000000000E+00  0.99999998245E-14  0.12500000000E+03  0.12500000000E+03 0.  0.
        -13    1    1    0    0    0 -0.24476927978E+01  0.72060243006E+00 -0.11666960237E+01  0.28076345100E+01  0.10566000000E+00 0. -1.
         13    1    1    0    0    0  0.86447488430E+01 -0.35715923121E+02  0.49841494989E+02  0.61923700097E+02  0.10566000000E+00 0.  1.
         22    1    1    0    0    0 -0.61970560452E+01  0.34995320691E+02 -0.48674798966E+02  0.60268665393E+02  0.00000000000E+00 0.  1.
</event>
<event>
 4    1  0.9856522E-003  0.9118800E+02  0.7818608E-02  0.1130116E+00
         25   -1    0    0    0    0  0.00000000000E+00  0.00000000000E+00  0.99999998245E-14  0.12500000000E+03  0.12500000000E+03 0.  0.
        -13    1    1    0    0    0  0.35690559400E+02 -0.13479520039E+02  0.15113503080E+02  0.41035870042E+02  0.10566000000E+00 0. -1.
         13    1    1    0    0    0  0.16824438036E+02 -0.45504036232E+01  0.12985732354E+02  0.21734955651E+02  0.10566000000E+00 0.  1.
         22    1    1    0    0    0 -0.52514997435E+02  0.18029923662E+02 -0.28099235434E+02  0.62229174307E+02  0.00000000000E+00 0. -1.
</event>
<event>
 4    1  0.9856522E-003  0.9118800E+02  0.7818608E-02  0.1130116E+00
         25   -1    0    0    0    0  0.00000000000E+00  0.00000000000E+00  0.99999998245E-14  0.12500000000E+03  0.12500000000E+03 0.  0.
        -13    1    1    0    0    0 -0.11533677004E+02  0.34890137859E+01  0.10484184517E+02  0.15972733374E+02  0.10566000000E+00 0. -1.
         13    1    1    0    0    0 -0.35271317202E+02  0.79081336076E+01  0.29315399512E+02  0.46540393283E+02  0.10566000000E+00 0.  1.
         22    1    1    0    0    0  0.46804994206E+02 -0.11397147393E+02 -0.39799584029E+02  0.62486873343E+02  0.00000000000E+00 0.  1.
</event>
<event>
 4    1  0.9856522E-003  0.9118800E+02  0.7818608E-02  0.1130116E+00
         25   -1    0    0    0    0  0.00000000000E+00  0.00000000000E+00  0.99999998245E-14  0.12500000000E+03  0.12500000000E+03 0.  0.
        -13    1    1    0    0    0 -0.90366859940E+01 -0.16962894432E+02  0.20749200856E+02  0.28283245597E+02  0.10566000000E+00 0.  1.
         13    1    1    0    0    0 -0.37135865636E+02  0.27095569903E+02 -0.24767929961E+01  0.46036812363E+02  0.10566000000E+00 0. -1.
         22    1    1    0    0    0  0.46172551630E+02 -0.10132675472E+02 -0.18272407860E+02  0.50679942041E+02  0.00000000000E+00 0. -1.
</event>
<event>
 4    1  0.9856522E-003  0.9118800E+02  0.7818608E-02  0.1130116E+00
         25   -1    0    0    0    0  0.00000000000E+00  0.00000000000E+00  0.99999998245E-14  0.12500000000E+03  0.12500000000E+03 0.  0.
        -13    1    1    0    0    0 -0.17284240531E+01  0.26208702312E+01  0.53721202749E+01  0.62231222677E+01  0.10566000000E+00 0. -1.
         13    1    1    0    0    0 -0.13868013040E+02  0.12137402307E+02  0.53248423075E+02  0.56347529178E+02  0.10566000000E+00 0.  1.
         22    1    1    0    0    0  0.15596437093E+02 -0.14758272538E+02 -0.58620543350E+02  0.62429348554E+02  0.00000000000E+00 0.  1.
</event>
<event>
 4    1  0.9856522E-003  0.9118800E+02  0.7818608E-02  0.1130116E+00
         25   -1    0    0    0    0  0.00000000000E+00  0.00000000000E+00  0.99999998245E-14  0.12500000000E+03  0.12500000000E+03 0.  0.
        -13    1    1    0    0    0  0.47146006794E+02  0.28086868534E+02 -0.21949236307E+02  0.59104976771E+02  0.10566000000E+00 0. -1.
         13    1    1    0    0    0  0.18963456712E+01  0.11271015700E+01 -0.28929032896E+01  0.36395794170E+01  0.10566000000E+00 0.  1.
         22    1    1    0    0    0 -0.49042352465E+02 -0.29213970104E+02  0.24842139596E+02  0.62255443812E+02  0.00000000000E+00 0. -1.
</event>
<event>
 4    1  0.9856522E-003  0.9118800E+02  0.7818608E-02  0.1130116E+00
         25   -1    0    0    0    0  0.00000000000E+00  0.00000000000E+00  0.99999998245E-14  0.12500000000E+03  0.12500000000E+03 0.  0.
        -13    1    1    0    0    0 -0.83914509907E+01  0.10096961954E+02 -0.43838158998E+01  0.13841751923E+02  0.10566000000E+00 0.  1.
         13    1    1    0    0    0 -0.30180344009E+02  0.36458041075E+02 -0.11381963091E+02  0.48678559668E+02  0.10566000000E+00 0. -1.
         22    1    1    0    0    0  0.38571794999E+02 -0.46555003029E+02  0.15765778990E+02  0.62479688409E+02  0.00000000000E+00 0. -1.
</event>
<event>
 4    1  0.9856522E-003  0.9118800E+02  0.7818608E-02  0.1130116E+00
         25   -1    0    0    0    0  0.00000000000E+00  0.00000000000E+00  0.99999998245E-14  0.12500000000E+03  0.12500000000E+03 0.  0.
        -13    1    1    0    0    0 -0.39853026352E+02  0.23956433932E+02 -0.30724413066E+02  0.55733070599E+02  0.10566000000E+00 0. -1.
         13    1    1    0    0    0 -0.93033128592E+00  0.73333261488E+01 -0.27911941722E+01  0.79022223234E+01  0.10566000000E+00 0.  1.
         22    1    1    0    0    0  0.40783357638E+02 -0.31289760080E+02  0.33515607238E+02  0.61364707077E+02  0.00000000000E+00 0. -1.
</event>
<event>
 4    1  0.9856522E-003  0.9118800E+02  0.7818608E-02  0.1130116E+00
         25   -1    0    0    0    0  0.00000000000E+00  0.00000000000E+00  0.99999998245E-14  0.12500000000E+03  0.12500000000E+03 0.  0.
        -13    1    1    0    0    0 -0.12017795372E+02 -0.26240677847E+02  0.24045029996E+02  0.37565612081E+02  0.10566000000E+00 0.  1.
         13    1    1    0    0    0 -0.60374420612E+01 -0.16030494719E+02  0.18207805106E+02  0.24999255957E+02  0.10566000000E+00 0. -1.
         22    1    1    0    0    0  0.18055237433E+02  0.42271172567E+02 -0.42252835102E+02  0.62435131962E+02  0.00000000000E+00 0.  1.
</event>
<event>
 4    1  0.9856522E-003  0.9118800E+02  0.7818608E-02  0.1130116E+00
         25   -1    0    0    0    0  0.00000000000E+00  0.00000000000E+00  0.99999998245E-14  0.12500000000E+03  0.12500000000E+03 0.  0.
        -13    1    1    0    0    0 -0.55248064669E+02 -0.21481725129E+02 -0.75815609750E+01  0.59760391523E+02  0.10566000000E+00 0. -1.
         13    1    1    0    0    0 -0.12158204736E+01 -0.14384824698E+01  0.37294860056E+01  0.41794355051E+01  0.10566000000E+00 0.  1.
         22    1    1    0    0    0  0.56463885142E+02  0.22920207599E+02  0.38520749693E+01  0.61060172972E+02  0.00000000000E+00 0. -1.
</event>
<event>
 4    1  0.9856522E-003  0.9118800E+02  0.7818608E-02  0.1130116E+00
         25   -1    0    0    0    0  0.00000000000E+00  0.00000000000E+00  0.99999998245E-14  0.12500000000E+03  0.12500000000E+03 0.  0.
        -13    1    1    0    0    0 -0.19595577317E+01 -0.13940252911E+02 -0.32439402633E+01  0.14446620027E+02  0.10566000000E+00 0. -1.
         13    1    1    0    0    0 -0.31622958800E+02 -0.34259712249E+02 -0.15104570915E+02  0.49009168869E+02  0.10566000000E+00 0.  1.
         22    1    1    0    0    0  0.33582516532E+02  0.48199965160E+02  0.18348511178E+02  0.61544211105E+02  0.00000000000E+00 0.  1.
</event>
<event>
 4    1  0.9856522E-003  0.9118800E+02  0.7818608E-02  0.1130116E+00
         25   -1    0    0    0    0  0.00000000000E+00  0.00000000000E+00  0.99999998245E-14  0.12500000000E+03  0.12500000000E+03 0.  0.
        -13    1    1    0    0    0 -0.14163094666E+02  0.60604741595E+02 -0.23624978190E-01  0.62237767284E+02  0.10566000000E+00 0.  1.
         13    1    1    0    0    0 -0.45488717788E-01  0.24639451712E+00  0.35828884786E-01  0.27427582121E+00  0.10566000000E+00 0.  1.
         22    1    1    0    0    0  0.14208583384E+02 -0.60851136112E+02 -0.12203906597E-01  0.62487956895E+02  0.00000000000E+00 0.  1.
</event>
<event>
 4    1  0.9856522E-003  0.9118800E+02  0.7818608E-02  0.1130116E+00
         25   -1    0    0    0    0  0.00000000000E+00  0.00000000000E+00  0.99999998245E-14  0.12500000000E+03  0.12500000000E+03 0.  0.
        -13    1    1    0    0    0  0.12686057936E+01  0.42446845277E+01 -0.28237853540E+01  0.52546774554E+01  0.10566000000E+00 0.  1.
         13    1    1    0    0    0  0.76809640294E+01  0.46765801346E+02 -0.32135966010E+02  0.57260534920E+02  0.10566000000E+00 0. -1.
         22    1    1    0    0    0 -0.89495698230E+01 -0.51010485873E+02  0.34959751364E+02  0.62484787624E+02  0.00000000000E+00 0. -1.
</event>
<event>
 4    1  0.9856522E-003  0.9118800E+02  0.7818608E-02  0.1130116E+00
         25   -1    0    0    0    0  0.00000000000E+00  0.00000000000E+00  0.99999998245E-14  0.12500000000E+03  0.12500000000E+03 0.  0.
        -13    1    1    0    0    0  0.54788161446E+01  0.51641033706E+01  0.17217074004E+02  0.18791598955E+02  0.10566000000E+00 0.  1.
         13    1    1    0    0    0  0.12552767257E+02  0.11536025565E+02  0.40247054441E+02  0.43709134135E+02  0.10566000000E+00 0. -1.
         22    1    1    0    0    0 -0.18031583402E+02 -0.16700128936E+02 -0.57464128445E+02  0.62499266911E+02  0.00000000000E+00 0. -1.
</event>
<event>
 4    1  0.9856522E-003  0.9118800E+02  0.7818608E-02  0.1130116E+00
         25   -1    0    0    0    0  0.00000000000E+00  0.00000000000E+00  0.99999998245E-14  0.12500000000E+03  0.12500000000E+03 0.  0.
        -13    1    1    0    0    0  0.47139891212E+01 -0.76872393723E+01  0.94621335983E+01  0.13071284515E+02  0.10566000000E+00 0. -1.
         13    1    1    0    0    0  0.25289014602E+02  0.41391200226E+02  0.25542350094E+02  0.54819599853E+02  0.10566000000E+00 0.  1.
         22    1    1    0    0    0 -0.30003003724E+02 -0.33703960854E+02 -0.35004483692E+02  0.57109115632E+02  0.00000000000E+00 0. -1.
</event>
<event>
 4    1  0.9856522E-003  0.9118800E+02  0.7818608E-02  0.1130116E+00
         25   -1    0    0    0    0  0.00000000000E+00  0.00000000000E+00  0.99999998245E-14  0.12500000000E+03  0.12500000000E+03 0.  0.
        -13    1    1    0    0    0  0.86231939752E+00  0.10501292414E+02  0.46773651806E+02  0.47945869524E+02  0.10566000000E+00 0. -1.
         13    1    1    0    0    0 -0.16449653424E+00  0.31427870481E+01  0.14212149755E+02  0.14556803709E+02  0.10566000000E+00 0.  1.
         22    1    1    0    0    0 -0.69782286328E+00 -0.13644079462E+02 -0.60985801560E+02  0.62497326767E+02  0.00000000000E+00 0. -1.
</event>
<event>
 4    1  0.9856522E-003  0.9118800E+02  0.7818608E-02  0.1130116E+00
         25   -1    0    0    0    0  0.00000000000E+00  0.00000000000E+00  0.99999998245E-14  0.12500000000E+03  0.12500000000E+03 0.  0.
        -13    1    1    0    0    0 -0.76522171231E+00 -0.27385566505E+01 -0.11228418699E+02  0.11583341802E+02  0.10566000000E+00 0.  1.
         13    1    1    0    0    0 -0.17828918532E+01 -0.10532185578E+02 -0.49788335273E+02  0.50921460404E+02  0.10566000000E+00 0. -1.
         22    1    1    0    0    0  0.25481135655E+01  0.13270742229E+02  0.61016753972E+02  0.62495197794E+02  0.00000000000E+00 0. -1.
</event>
<event>
 4    1  0.9856522E-003  0.9118800E+02  0.7818608E-02  0.1130116E+00
         25   -1    0    0    0    0  0.00000000000E+00  0.00000000000E+00  0.99999998245E-14  0.12500000000E+03  0.12500000000E+03 0.  0.
        -13    1    1    0    0    0 -0.21333248905E+01 -0.49990264059E+01  0.76596350909E+01  0.93926840603E+01  0.10566000000E+00 0.  1.
         13    1    1    0    0    0  0.62825853078E+01  0.34165950274E+02  0.44046559045E+02  0.56097179644E+02  0.10566000000E+00 0. -1.
         22    1    1    0    0    0 -0.41492604174E+01 -0.29166923868E+02 -0.51706194136E+02  0.59510136296E+02  0.00000000000E+00 0. -1.
</event>
<event>
 4    1  0.9856522E-003  0.9118800E+02  0.7818608E-02  0.1130116E+00
         25   -1    0    0    0    0  0.00000000000E+00  0.00000000000E+00  0.99999998245E-14  0.12500000000E+03  0.12500000000E+03 0.  0.
        -13    1    1    0    0    0  0.13427614553E+02 -0.28965613111E+02  0.76224385494E+01  0.32824081235E+02  0.10566000000E+00 0. -1.
         13    1    1    0    0    0  0.62891265355E+01 -0.27892114546E+02  0.85826720250E+01  0.29852915931E+02  0.10566000000E+00 0.  1.
         22    1    1    0    0    0 -0.19716741088E+02  0.56857727657E+02 -0.16205110574E+02  0.62323002834E+02  0.00000000000E+00 0.  1.
</event>
<event>
 4    1  0.9856522E-003  0.9118800E+02  0.7818608E-02  0.1130116E+00
         25   -1    0    0    0    0  0.00000000000E+00  0.00000000000E+00  0.99999998245E-14  0.12500000000E+03  0.12500000000E+03 0.  0.
        -13    1    1    0    0    0 -0.10385965620E+02  0.17076195776E+01  0.25562088106E+02  0.27644452587E+02  0.10566000000E+00 0.  1.
         13    1    1    0    0    0 -0.12803754163E+02  0.24994145255E+01  0.32322974356E+02  0.34856405852E+02  0.10566000000E+00 0. -1.
         22    1    1    0    0    0  0.23189719782E+02 -0.42070341030E+01 -0.57885062463E+02  0.62499141561E+02  0.00000000000E+00 0. -1.
</event>
<event>
 4    1  0.9856522E-003  0.9118800E+02  0.7818608E-02  0.1130116E+00
         25   -1    0    0    0    0  0.00000000000E+00  0.00000000000E+00  0.99999998245E-14  0.12500000000E+03  0.12500000000E+03 0.  0.
        -13    1    1    0    0    0  0.39936969539E+02  0.14199173821E+02  0.30081093880E+02  0.51975585097E+02  0.10566000000E+00 0. -1.
         13    1    1    0    0    0  0.80808278057E+01  0.29242578742E+01  0.60752708406E+01  0.10524787027E+02  0.10566000000E+00 0. -1.
         22    1    1    0    0    0 -0.48017797345E+02 -0.17123431695E+02 -0.36156364720E+02  0.62499627876E+02  0.00000000000E+00 0. -1.
</event>
<event>
 4    1  0.9856522E-003  0.9118800E+02  0.7818608E-02  0.1130116E+00
         25   -1    0    0    0    0  0.00000000000E+00  0.00000000000E+00  0.99999998245E-14  0.12500000000E+03  0.12500000000E+03 0.  0.
        -13    1    1    0    0    0 -0.69166124743E+01  0.11015961790E+02  0.47988228901E+01  0.13864732505E+02  0.10566000000E+00 0. -1.
         13    1    1    0    0    0  0.16159283715E+02  0.37876400734E+02 -0.34034488170E+02  0.53423793686E+02  0.10566000000E+00 0.  1.
         22    1    1    0    0    0 -0.92426712406E+01 -0.48892362524E+02  0.29235665280E+02  0.57711473809E+02  0.00000000000E+00 0.  1.
</event>
<event>
 4    1  0.9856522E-003  0.9118800E+02  0.7818608E-02  0.1130116E+00
         25   -1    0    0    0    0  0.00000000000E+00  0.00000000000E+00  0.99999998245E-14  0.12500000000E+03  0.12500000000E+03 0.  0.
        -13    1    1    0    0    0 -0.56237525805E+02 -0.42569984777E+01  0.52801043401E+01  0.56645141103E+02  0.10566000000E+00 0.  1.
         13    1    1    0    0    0 -0.57824248095E+01 -0.78871033724E+00  0.52122307656E+00  0.58601483091E+01  0.10566000000E+00 0. -1.
         22    1    1    0    0    0  0.62019950614E+02  0.50457088149E+01 -0.58013274166E+01  0.62494710588E+02  0.00000000000E+00 0.  1.
</event>
<event>
 4    1  0.9856522E-003  0.9118800E+02  0.7818608E-02  0.1130116E+00
         25   -1    0    0    0    0  0.00000000000E+00  0.00000000000E+00  0.99999998245E-14  0.12500000000E+03  0.12500000000E+03 0.  0.
        -13    1    1    0    0    0 -0.48969949243E+02 -0.27388113677E+01 -0.35025957599E+02  0.60269278130E+02  0.10566000000E+00 0. -1.
         13    1    1    0    0    0  0.29833947724E+01 -0.67714288818E+01  0.36307325974E+01  0.82429531540E+01  0.10566000000E+00 0.  1.
         22    1    1    0    0    0  0.45986554470E+02  0.95102402495E+01  0.31395225001E+02  0.56487768716E+02  0.00000000000E+00 0. -1.
</event>
<event>
 4    1  0.9856522E-003  0.9118800E+02  0.7818608E-02  0.1130116E+00
         25   -1    0    0    0    0  0.00000000000E+00  0.00000000000E+00  0.99999998245E-14  0.12500000000E+03  0.12500000000E+03 0.  0.
        -13    1    1    0    0    0 -0.55599056508E+01  0.18422268142E+02 -0.36215018188E+01  0.19581086635E+02  0.10566000000E+00 0. -1.
         13    1    1    0    0    0  0.49745451186E+02 -0.27138449343E+02 -0.11671522131E+02  0.57856209169E+02  0.10566000000E+00 0.  1.
         22    1    1    0    0    0 -0.44185545535E+02  0.87161812015E+01  0.15293023950E+02  0.47562704197E+02  0.00000000000E+00 0.  1.
</event>
<event>
 4    1  0.9856522E-003  0.9118800E+02  0.7818608E-02  0.1130116E+00
         25   -1    0    0    0    0  0.00000000000E+00  0.00000000000E+00  0.99999998245E-14  0.12500000000E+03  0.12500000000E+03 0.  0.
        -13    1    1    0    0    0 -0.49964459183E+01 -0.13379205889E+02  0.51338890195E+02  0.53288464347E+02  0.10566000000E+00 0. -1.
         13    1    1    0    0    0 -0.87551246536E+01 -0.72375617150E+01  0.32036225221E+01  0.11802917799E+02  0.10566000000E+00 0.  1.
         22    1    1    0    0    0  0.13751570572E+02  0.20616767604E+02 -0.54542512717E+02  0.59908617853E+02  0.00000000000E+00 0. -1.
</event>
<event>
 4    1  0.9856522E-003  0.9118800E+02  0.7818608E-02  0.1130116E+00
         25   -1    0    0    0    0  0.00000000000E+00  0.00000000000E+00  0.99999998245E-14  0.12500000000E+03  0.12500000000E+03 0.  0.
        -13    1    1    0    0    0 -0.16783722558E+02  0.13438001159E+02 -0.20689893022E+01  0.21600118028E+02  0.10566000000E+00 0.  1.
         13    1    1    0    0    0 -0.29208432365E+02 -0.27073065939E+02 -0.26245536709E+02  0.47696150596E+02  0.10566000000E+00 0. -1.
         22    1    1    0    0    0  0.45992154923E+02  0.13635064780E+02  0.28314526011E+02  0.55703731376E+02  0.00000000000E+00 0. -1.
</event>
<event>
 4    1  0.9856522E-003  0.9118800E+02  0.7818608E-02  0.1130116E+00
         25   -1    0    0    0    0  0.00000000000E+00  0.00000000000E+00  0.99999998245E-14  0.12500000000E+03  0.12500000000E+03 0.  0.
        -13    1    1    0    0    0 -0.66899387484E+01 -0.11420094171E+02  0.33348546064E+02  0.35879109799E+02  0.10566000000E+00 0.  1.
         13    1    1    0    0    0 -0.51647482602E+01 -0.86608001925E+01  0.24637596852E+02  0.26621540662E+02  0.10566000000E+00 0.  1.
         22    1    1    0    0    0  0.11854687009E+02  0.20080894363E+02 -0.57986142916E+02  0.62499349539E+02  0.00000000000E+00 0.  1.
</event>
<event>
 4    1  0.9856522E-003  0.9118800E+02  0.7818608E-02  0.1130116E+00
         25   -1    0    0    0    0  0.00000000000E+00  0.00000000000E+00  0.99999998245E-14  0.12500000000E+03  0.12500000000E+03 0.  0.
        -13    1    1    0    0    0 -0.77695824298E+01 -0.52479689933E+00 -0.29536490977E+02  0.30545986417E+02  0.10566000000E+00 0. -1.
         13    1    1    0    0    0 -0.80980328003E+01 -0.38082813079E+01 -0.30717803190E+02  0.31994933014E+02  0.10566000000E+00 0.  1.
         22    1    1    0    0    0  0.15867615230E+02  0.43330782072E+01  0.60254294167E+02  0.62459080568E+02  0.00000000000E+00 0. -1.
</event>
<event>
 4    1  0.9856522E-003  0.9118800E+02  0.7818608E-02  0.1130116E+00
         25   -1    0    0    0    0  0.00000000000E+00  0.00000000000E+00  0.99999998245E-14  0.12500000000E+03  0.12500000000E+03 0.  0.
        -13    1    1    0    0    0 -0.47102825410E+01 -0.28136378046E+01  0.48839675276E+01  0.73462658649E+01  0.10566000000E+00 0. -1.
         13    1    1    0    0    0 -0.38365866802E+02 -0.19272716510E+02  0.34634772702E+02  0.55162994673E+02  0.10566000000E+00 0.  1.
         22    1    1    0    0    0  0.43076149343E+02  0.22086354315E+02 -0.39518740230E+02  0.62490739462E+02  0.00000000000E+00 0.  1.
</event>
<event>
 4    1  0.9856522E-003  0.9118800E+02  0.7818608E-02  0.1130116E+00
         25   -1    0    0    0    0  0.00000000000E+00  0.00000000000E+00  0.99999998245E-14  0.12500000000E+03  0.12500000000E+03 0.  0.
        -13    1    1    0    0    0 -0.38293378349E+01 -0.17287349844E+02 -0.40768677379E+01  0.18169983695E+02  0.10566000000E+00 0. -1.
         13    1    1    0    0    0 -0.10772993453E+02 -0.42205516781E+02 -0.82763756037E+01  0.44338161801E+02  0.10566000000E+00 0.  1.
         22    1    1    0    0    0  0.14602331288E+02  0.59492866625E+02  0.12353243342E+02  0.62491854504E+02  0.00000000000E+00 0.  1.
</event>
<event>
 4    1  0.9856522E-003  0.9118800E+02  0.7818608E-02  0.1130116E+00
         25   -1    0    0    0    0  0.00000000000E+00  0.00000000000E+00  0.99999998245E-14  0.12500000000E+03  0.12500000000E+03 0.  0.
        -13    1    1    0    0    0  0.37966655653E+01 -0.56288596932E+01  0.14756837165E+02  0.16244203212E+02  0.10566000000E+00 0.  1.
         13    1    1    0    0    0  0.10800567804E+02 -0.15331640248E+02  0.42284391138E+02  0.46256808747E+02  0.10566000000E+00 0. -1.
         22    1    1    0    0    0 -0.14597233369E+02  0.20960499942E+02 -0.57041228302E+02  0.62498988040E+02  0.00000000000E+00 0. -1.
</event>
<event>
 4    1  0.9856522E-003  0.9118800E+02  0.7818608E-02  0.1130116E+00
         25   -1    0    0    0    0  0.00000000000E+00  0.00000000000E+00  0.99999998245E-14  0.12500000000E+03  0.12500000000E+03 0.  0.
        -13    1    1    0    0    0 -0.29632466484E+02 -0.47177914559E+02  0.27327743933E+02  0.62053649728E+02  0.10566000000E+00 0.  1.
         13    1    1    0    0    0 -0.66776593854E+00  0.39735969542E+00  0.16030195075E+00  0.80041665851E+00  0.10566000000E+00 0. -1.
         22    1    1    0    0    0  0.30300232422E+02  0.46780554864E+02 -0.27488045884E+02  0.62145933614E+02  0.00000000000E+00 0.  1.
</event>
<event>
 4    1  0.9856522E-003  0.9118800E+02  0.7818608E-02  0.1130116E+00
         25   -1    0    0    0    0  0.00000000000E+00  0.00000000000E+00  0.99999998245E-14  0.12500000000E+03  0.12500000000E+03 0.  0.
        -13    1    1    0    0    0 -0.87136481260E+01 -0.55885752027E+01 -0.11649479546E+02  0.15584651879E+02  0.10566000000E+00 0.  1.
         13    1    1    0    0    0 -0.25966408934E+02 -0.16924245999E+02 -0.35219162788E+02  0.46915723240E+02  0.10566000000E+00 0.  1.
         22    1    1    0    0    0  0.34680057060E+02  0.22512821201E+02  0.46868642334E+02  0.62499624882E+02  0.00000000000E+00 0.  1.
</event>
<event>
 4    1  0.9856522E-003  0.9118800E+02  0.7818608E-02  0.1130116E+00
         25   -1    0    0    0    0  0.00000000000E+00  0.00000000000E+00  0.99999998245E-14  0.12500000000E+03  0.12500000000E+03 0.  0.
        -13    1    1    0    0    0  0.13547781007E+01  0.28818622629E+01  0.89493597001E+00  0.33094755220E+01  0.10566000000E+00 0.  1.
         13    1    1    0    0    0 -0.56447500777E+02 -0.11637719357E+02  0.21589220233E+02  0.61545612761E+02  0.10566000000E+00 0. -1.
         22    1    1    0    0    0  0.55092722676E+02  0.87558570946E+01 -0.22484156203E+02  0.60144911717E+02  0.00000000000E+00 0. -1.
</event>
<event>
 4    1  0.9856522E-003  0.9118800E+02  0.7818608E-02  0.1130116E+00
         25   -1    0    0    0    0  0.00000000000E+00  0.00000000000E+00  0.99999998245E-14  0.12500000000E+03  0.12500000000E+03 0.  0.
        -13    1    1    0    0    0  0.51858715024E+01  0.33341044013E+01  0.87765889731E+01  0.10726098705E+02  0.10566000000E+00 0.  1.
         13    1    1    0    0    0  0.24805576478E+02  0.18012897519E+02  0.41726879593E+02  0.51777647166E+02  0.10566000000E+00 0. -1.
         22    1    1    0    0    0 -0.29991447980E+02 -0.21347001921E+02 -0.50503468566E+02  0.62496254129E+02  0.00000000000E+00 0. -1.
</event>
<event>
 4    1  0.9856522E-003  0.9118800E+02  0.7818608E-02  0.1130116E+00
         25   -1    0    0    0    0  0.00000000000E+00  0.00000000000E+00  0.99999998245E-14  0.12500000000E+03  0.12500000000E+03 0.  0.
        -13    1    1    0    0    0 -0.93151205006E+00  0.19420198810E+01  0.38377272703E+01  0.44020984262E+01  0.10566000000E+00 0. -1.
         13    1    1    0    0    0 -0.79878786415E+01  0.25872299961E+02  0.51409411251E+02  0.58104396044E+02  0.10566000000E+00 0.  1.
         22    1    1    0    0    0  0.89193906915E+01 -0.27814319842E+02 -0.55247138521E+02  0.62493505530E+02  0.00000000000E+00 0.  1.
</event>
<event>
 4    1  0.9856522E-003  0.9118800E+02  0.7818608E-02  0.1130116E+00
         25   -1    0    0    0    0  0.00000000000E+00  0.00000000000E+00  0.99999998245E-14  0.12500000000E+03  0.12500000000E+03 0.  0.
        -13    1    1    0    0    0  0.71961416816E+01  0.25924053774E+02  0.26362298599E+01  0.27033347759E+02  0.10566000000E+00 0. -1.
         13    1    1    0    0    0  0.18075838635E+02 -0.27958955769E+02  0.37717192809E+02  0.50309412116E+02  0.10566000000E+00 0.  1.
         22    1    1    0    0    0 -0.25271980316E+02  0.20349019952E+01 -0.40353422669E+02  0.47657240125E+02  0.00000000000E+00 0.  1.
</event>
<event>
 4    1  0.9856522E-003  0.9118800E+02  0.7818608E-02  0.1130116E+00
         25   -1    0    0    0    0  0.00000000000E+00  0.00000000000E+00  0.99999998245E-14  0.12500000000E+03  0.12500000000E+03 0.  0.
        -13    1    1    0    0    0  0.16257105918E+02 -0.68762124173E+01 -0.87466985538E-01  0.17652042504E+02  0.10566000000E+00 0.  1.
         13    1    1    0    0    0  0.41866727537E+02 -0.16088299538E+02 -0.91878432211E-01  0.44851709692E+02  0.10566000000E+00 0. -1.
         22    1    1    0    0    0 -0.58123833455E+02  0.22964511955E+02  0.17934541775E+00  0.62496247804E+02  0.00000000000E+00 0. -1.
</event>
<event>
 4    1  0.9856522E-003  0.9118800E+02  0.7818608E-02  0.1130116E+00
         25   -1    0    0    0    0  0.00000000000E+00  0.00000000000E+00  0.99999998245E-14  0.12500000000E+03  0.12500000000E+03 0.  0.
        -13    1    1    0    0    0  0.31661017714E+02 -0.88398540392E+01  0.14312731835E+00  0.32872400454E+02  0.10566000000E+00 0.  1.
         13    1    1    0    0    0  0.19319095279E+02 -0.39142880050E+01  0.26643896548E+02  0.33142985386E+02  0.10566000000E+00 0. -1.
         22    1    1    0    0    0 -0.50980112993E+02  0.12754142044E+02 -0.26787023866E+02  0.58984614161E+02  0.00000000000E+00 0. -1.
</event>
<event>
 4    1  0.9856522E-003  0.9118800E+02  0.7818608E-02  0.1130116E+00
         25   -1    0    0    0    0  0.00000000000E+00  0.00000000000E+00  0.99999998245E-14  0.12500000000E+03  0.12500000000E+03 0.  0.
        -13    1    1    0    0    0  0.99267058376E+01  0.29953777803E+01 -0.23832228218E+01  0.10639675366E+02  0.10566000000E+00 0.  1.
         13    1    1    0    0    0  0.48326136331E+02  0.14226220980E+02 -0.12319429838E+02  0.51861164002E+02  0.10566000000E+00 0. -1.
         22    1    1    0    0    0 -0.58252842168E+02 -0.17221598760E+02  0.14702652660E+02  0.62499160633E+02  0.00000000000E+00 0. -1.
</event>
<event>
 4    1  0.9856522E-003  0.9118800E+02  0.7818608E-02  0.1130116E+00
         25   -1    0    0    0    0  0.00000000000E+00  0.00000000000E+00  0.99999998245E-14  0.12500000000E+03  0.12500000000E+03 0.  0.
        -13    1    1    0    0    0  0.59833292031E+01 -0.45765325499E+02  0.13312909080E+02  0.48036548154E+02  0.10566000000E+00 0. -1.
         13    1    1    0    0    0  0.18595977607E+01 -0.13762753080E+02  0.40395344457E+01  0.14463764335E+02  0.10566000000E+00 0. -1.
         22    1    1    0    0    0 -0.78429269638E+01  0.59528078579E+02 -0.17352443525E+02  0.62499687511E+02  0.00000000000E+00 0. -1.
</event>
<event>
 4    1  0.9856522E-003  0.9118800E+02  0.7818608E-02  0.1130116E+00
         25   -1    0    0    0    0  0.00000000000E+00  0.00000000000E+00  0.99999998245E-14  0.12500000000E+03  0.12500000000E+03 0.  0.
        -13    1    1    0    0    0 -0.33854293820E+02 -0.27073039999E+01 -0.16863703681E+02  0.37918839261E+02  0.10566000000E+00 0.  1.
         13    1    1    0    0    0 -0.20515515856E+02  0.21755747719E+01 -0.13644327359E+02  0.24734557800E+02  0.10566000000E+00 0. -1.
         22    1    1    0    0    0  0.54369809676E+02  0.53172922791E+00  0.30508031040E+02  0.62346602940E+02  0.00000000000E+00 0. -1.
</event>
<event>
 4    1  0.9856522E-003  0.9118800E+02  0.7818608E-02  0.1130116E+00
         25   -1    0    0    0    0  0.00000000000E+00  0.00000000000E+00  0.99999998245E-14  0.12500000000E+03  0.12500000000E+03 0.  0.
        -13    1    1    0    0    0 -0.18105272310E+02  0.36080457682E+02  0.84358578326E+01  0.41240455543E+02  0.10566000000E+00 0. -1.
         13    1    1    0    0    0 -0.85239625115E+01  0.19295694514E+02  0.28468261114E+01  0.21286083402E+02  0.10566000000E+00 0.  1.
         22    1    1    0    0    0  0.26629234821E+02 -0.55376152196E+02 -0.11282683944E+02  0.62473461055E+02  0.00000000000E+00 0.  1.
</event>
<event>
 4    1  0.9856522E-003  0.9118800E+02  0.7818608E-02  0.1130116E+00
         25   -1    0    0    0    0  0.00000000000E+00  0.00000000000E+00  0.99999998245E-14  0.12500000000E+03  0.12500000000E+03 0.  0.
        -13    1    1    0    0    0 -0.35319407170E+02 -0.37577278907E+02  0.91594812419E+01  0.52377663880E+02  0.10566000000E+00 0. -1.
         13    1    1    0    0    0 -0.70510138896E+01 -0.70652004935E+01  0.16921553961E+01  0.10124643638E+02  0.10566000000E+00 0.  1.
         22    1    1    0    0    0  0.42370421059E+02  0.44642479401E+02 -0.10851636638E+02  0.62497692481E+02  0.00000000000E+00 0. -1.
</event>
<event>
 4    1  0.9856522E-003  0.9118800E+02  0.7818608E-02  0.1130116E+00
         25   -1    0    0    0    0  0.00000000000E+00  0.00000000000E+00  0.99999998245E-14  0.12500000000E+03  0.12500000000E+03 0.  0.
        -13    1    1    0    0    0 -0.12592101736E+02  0.27421254682E+02  0.36746743417E+02  0.47548086715E+02  0.10566000000E+00 0. -1.
         13    1    1    0    0    0 -0.39629999604E+01  0.88114528215E+01  0.11411843916E+02  0.14952873139E+02  0.10566000000E+00 0.  1.
         22    1    1    0    0    0  0.16555101696E+02 -0.36232707504E+02 -0.48158587333E+02  0.62499040146E+02  0.00000000000E+00 0. -1.
</event>
<event>
 4    1  0.9856522E-003  0.9118800E+02  0.7818608E-02  0.1130116E+00
         25   -1    0    0    0    0  0.00000000000E+00  0.00000000000E+00  0.99999998245E-14  0.12500000000E+03  0.12500000000E+03 0.  0.
        -13    1    1    0    0    0 -0.31984260769E+02  0.88727875635E+01  0.21606757008E+01  0.33262576263E+02  0.10566000000E+00 0. -1.
         13    1    1    0    0    0 -0.25251963074E+02  0.13119426145E+02  0.80582333413E+01  0.29575788579E+02  0.10566000000E+00 0.  1.
         22    1    1    0    0    0  0.57236223843E+02 -0.21992213708E+02 -0.10218909042E+02  0.62161635159E+02  0.00000000000E+00 0.  1.
</event>
<event>
 4    1  0.9856522E-003  0.9118800E+02  0.7818608E-02  0.1130116E+00
         25   -1    0    0    0    0  0.00000000000E+00  0.00000000000E+00  0.99999998245E-14  0.12500000000E+03  0.12500000000E+03 0.  0.
        -13    1    1    0    0    0 -0.74582708288E+01 -0.45774744348E+02 -0.67136248035E+01  0.46861892257E+02  0.10566000000E+00 0. -1.
         13    1    1    0    0    0 -0.15776613663E+02 -0.92683938350E+00 -0.14857658321E+02  0.21691513196E+02  0.10566000000E+00 0.  1.
         22    1    1    0    0    0  0.23234884492E+02  0.46701583731E+02  0.21571283124E+02  0.56446594547E+02  0.00000000000E+00 0. -1.
</event>
<event>
 4    1  0.9856522E-003  0.9118800E+02  0.7818608E-02  0.1130116E+00
         25   -1    0    0    0    0  0.00000000000E+00  0.00000000000E+00  0.99999998245E-14  0.12500000000E+03  0.12500000000E+03 0.  0.
        -13    1    1    0    0    0  0.11469418450E+02 -0.56558627875E+01 -0.65527057874E+01  0.14369601965E+02  0.10566000000E+00 0. -1.
         13    1    1    0    0    0  0.40862902122E+02 -0.15434203194E+02 -0.20272750303E+02  0.48155861190E+02  0.10566000000E+00 0.  1.
         22    1    1    0    0    0 -0.52332320573E+02  0.21090065981E+02  0.26825456090E+02  0.62474536845E+02  0.00000000000E+00 0.  1.
</event>
<event>
 4    1  0.9856522E-003  0.9118800E+02  0.7818608E-02  0.1130116E+00
         25   -1    0    0    0    0  0.00000000000E+00  0.00000000000E+00  0.99999998245E-14  0.12500000000E+03  0.12500000000E+03 0.  0.
        -13    1    1    0    0    0 -0.17706445673E+01  0.10665797792E+01 -0.47924426021E+01  0.52202916335E+01  0.10566000000E+00 0.  1.
         13    1    1    0    0    0 -0.21320238419E+02  0.14620113820E+02 -0.51120590776E+02  0.57285480356E+02  0.10566000000E+00 0. -1.
         22    1    1    0    0    0  0.23090882986E+02 -0.15686693599E+02  0.55913033378E+02  0.62494228011E+02  0.00000000000E+00 0. -1.
</event>
<event>
 4    1  0.9856522E-003  0.9118800E+02  0.7818608E-02  0.1130116E+00
         25   -1    0    0    0    0  0.00000000000E+00  0.00000000000E+00  0.99999998245E-14  0.12500000000E+03  0.12500000000E+03 0.  0.
        -13    1    1    0    0    0  0.66543717742E+01 -0.22983967325E+02 -0.56527597016E+02  0.61383416377E+02  0.10566000000E+00 0. -1.
         13    1    1    0    0    0  0.68337380963E+00 -0.90613535477E+00 -0.58074202965E+00  0.12792600930E+01  0.10566000000E+00 0. -1.
         22    1    1    0    0    0 -0.73377455838E+01  0.23890102680E+02  0.57108339046E+02  0.62337323530E+02  0.00000000000E+00 0. -1.
</event>
<event>
 4    1  0.9856522E-003  0.9118800E+02  0.7818608E-02  0.1130116E+00
         25   -1    0    0    0    0  0.00000000000E+00  0.00000000000E+00  0.99999998245E-14  0.12500000000E+03  0.12500000000E+03 0.  0.
        -13    1    1    0    0    0 -0.82049907144E+01 -0.18961302804E+02  0.25652222196E+02  0.32937828470E+02  0.10566000000E+00 0.  1.
         13    1    1    0    0    0 -0.74694528477E+01 -0.17565088458E+02  0.22577213311E+02  0.29564620466E+02  0.10566000000E+00 0. -1.
         22    1    1    0    0    0  0.15674443562E+02  0.36526391263E+02 -0.48229435507E+02  0.62497551064E+02  0.00000000000E+00 0. -1.
</event>
<event>
 4    1  0.9856522E-003  0.9118800E+02  0.7818608E-02  0.1130116E+00
         25   -1    0    0    0    0  0.00000000000E+00  0.00000000000E+00  0.99999998245E-14  0.12500000000E+03  0.12500000000E+03 0.  0.
        -13    1    1    0    0    0  0.75040291769E+01  0.64653079242E+01 -0.68829074283E+01  0.12062182188E+02  0.10566000000E+00 0.  1.
         13    1    1    0    0    0  0.47205354629E+02  0.18361562186E+02  0.13706351154E+02  0.52472542321E+02  0.10566000000E+00 0. -1.
         22    1    1    0    0    0 -0.54709383806E+02 -0.24826870110E+02 -0.68234437257E+01  0.60465275491E+02  0.00000000000E+00 0. -1.
</event>
<event>
 4    1  0.9856522E-003  0.9118800E+02  0.7818608E-02  0.1130116E+00
         25   -1    0    0    0    0  0.00000000000E+00  0.00000000000E+00  0.99999998245E-14  0.12500000000E+03  0.12500000000E+03 0.  0.
        -13    1    1    0    0    0 -0.47792557477E+02  0.10622075019E+02  0.26891578117E+02  0.55858080575E+02  0.10566000000E+00 0. -1.
         13    1    1    0    0    0 -0.56597109350E+01  0.11119724320E+01  0.32948490479E+01  0.66434934215E+01  0.10566000000E+00 0.  1.
         22    1    1    0    0    0  0.53452268412E+02 -0.11734047451E+02 -0.30186427165E+02  0.62498426003E+02  0.00000000000E+00 0. -1.
</event>
<event>
 4    1  0.9856522E-003  0.9118800E+02  0.7818608E-02  0.1130116E+00
         25   -1    0    0    0    0  0.00000000000E+00  0.00000000000E+00  0.99999998245E-14  0.12500000000E+03  0.12500000000E+03 0.  0.
        -13    1    1    0    0    0  0.26445390567E+02  0.23081534679E+02  0.91537274569E+01  0.36275581536E+02  0.10566000000E+00 0. -1.
         13    1    1    0    0    0  0.18977766031E+02  0.16817623711E+02  0.66889993704E+01  0.26224834554E+02  0.10566000000E+00 0. -1.
         22    1    1    0    0    0 -0.45423156598E+02 -0.39899158390E+02 -0.15842726827E+02  0.62499583909E+02  0.00000000000E+00 0. -1.
</event>
<event>
 4    1  0.9856522E-003  0.9118800E+02  0.7818608E-02  0.1130116E+00
         25   -1    0    0    0    0  0.00000000000E+00  0.00000000000E+00  0.99999998245E-14  0.12500000000E+03  0.12500000000E+03 0.  0.
        -13    1    1    0    0    0  0.52039551224E+01  0.53768820860E+01 -0.35914259567E+01  0.83006936048E+01  0.10566000000E+00 0.  1.
         13    1    1    0    0    0  0.43161114121E+02  0.22423684523E+02 -0.24253650656E+02  0.54350291020E+02  0.10566000000E+00 0. -1.
         22    1    1    0    0    0 -0.48365069243E+02 -0.27800566609E+02  0.27845076613E+02  0.62349015375E+02  0.00000000000E+00 0. -1.
</event>
<event>
 4    1  0.9856522E-003  0.9118800E+02  0.7818608E-02  0.1130116E+00
         25   -1    0    0    0    0  0.00000000000E+00  0.00000000000E+00  0.99999998245E-14  0.12500000000E+03  0.12500000000E+03 0.  0.
        -13    1    1    0    0    0 -0.24329714907E+02  0.21919540747E+02 -0.12862222437E+02  0.35183081503E+02  0.10566000000E+00 0.  1.
         13    1    1    0    0    0 -0.13733232721E+02  0.21023598347E+02 -0.11320660674E+02  0.27545632876E+02  0.10566000000E+00 0. -1.
         22    1    1    0    0    0  0.38062947628E+02 -0.42943139093E+02  0.24182883111E+02  0.62271285621E+02  0.00000000000E+00 0.  1.
</event>
<event>
 4    1  0.9856522E-003  0.9118800E+02  0.7818608E-02  0.1130116E+00
         25   -1    0    0    0    0  0.00000000000E+00  0.00000000000E+00  0.99999998245E-14  0.12500000000E+03  0.12500000000E+03 0.  0.
        -13    1    1    0    0    0  0.51925828941E+01  0.32113110783E+01 -0.55481417429E+01  0.82503622216E+01  0.10566000000E+00 0.  1.
         13    1    1    0    0    0  0.40597586993E+02  0.20999492243E+02 -0.29326502624E+02  0.54306515855E+02  0.10566000000E+00 0. -1.
         22    1    1    0    0    0 -0.45790169887E+02 -0.24210803322E+02  0.34874644367E+02  0.62443121923E+02  0.00000000000E+00 0. -1.
</event>
<event>
 4    1  0.9856522E-003  0.9118800E+02  0.7818608E-02  0.1130116E+00
         25   -1    0    0    0    0  0.00000000000E+00  0.00000000000E+00  0.99999998245E-14  0.12500000000E+03  0.12500000000E+03 0.  0.
        -13    1    1    0    0    0  0.98434760144E+01 -0.25157718292E+02  0.50435404002E+02  0.57214910212E+02  0.10566000000E+00 0.  1.
         13    1    1    0    0    0  0.53367108215E+00 -0.28570897224E+01  0.44380846516E+01  0.53061780893E+01  0.10566000000E+00 0. -1.
         22    1    1    0    0    0 -0.10377147097E+02  0.28014808014E+02 -0.54873488654E+02  0.62478911698E+02  0.00000000000E+00 0.  1.
</event>
<event>
 4    1  0.9856522E-003  0.9118800E+02  0.7818608E-02  0.1130116E+00
         25   -1    0    0    0    0  0.00000000000E+00  0.00000000000E+00  0.99999998245E-14  0.12500000000E+03  0.12500000000E+03 0.  0.
        -13    1    1    0    0    0  0.15413504169E+00  0.21891622673E+00  0.30912377031E+01  0.31046089123E+01  0.10566000000E+00 0.  1.
         13    1    1    0    0    0  0.16237943853E+01  0.16454444862E+01  0.59352968086E+02  0.59398065460E+02  0.10566000000E+00 0. -1.
         22    1    1    0    0    0 -0.17779294270E+01 -0.18643607129E+01 -0.62444205789E+02  0.62497325627E+02  0.00000000000E+00 0. -1.
</event>
<event>
 4    1  0.9856522E-003  0.9118800E+02  0.7818608E-02  0.1130116E+00
         25   -1    0    0    0    0  0.00000000000E+00  0.00000000000E+00  0.99999998245E-14  0.12500000000E+03  0.12500000000E+03 0.  0.
        -13    1    1    0    0    0  0.31999781516E+02 -0.27402429335E+02  0.42711406152E+02  0.59992954004E+02  0.10566000000E+00 0.  1.
         13    1    1    0    0    0  0.10038120424E+01 -0.43959049921E+00  0.23515035113E+01  0.25964612885E+01  0.10566000000E+00 0. -1.
         22    1    1    0    0    0 -0.33003593558E+02  0.27842019834E+02 -0.45062909663E+02  0.62410584708E+02  0.00000000000E+00 0.  1.
</event>
<event>
 4    1  0.9856522E-003  0.9118800E+02  0.7818608E-02  0.1130116E+00
         25   -1    0    0    0    0  0.00000000000E+00  0.00000000000E+00  0.99999998245E-14  0.12500000000E+03  0.12500000000E+03 0.  0.
        -13    1    1    0    0    0  0.16809765165E+02  0.34181045029E+02  0.40722996896E+02  0.55760969185E+02  0.10566000000E+00 0.  1.
         13    1    1    0    0    0  0.20052252194E+01  0.39546317056E+01  0.50768617783E+01  0.67413447961E+01  0.10566000000E+00 0. -1.
         22    1    1    0    0    0 -0.18814990384E+02 -0.38135676735E+02 -0.45799858674E+02  0.62497686019E+02  0.00000000000E+00 0.  1.
</event>
<event>
 4    1  0.9856522E-003  0.9118800E+02  0.7818608E-02  0.1130116E+00
         25   -1    0    0    0    0  0.00000000000E+00  0.00000000000E+00  0.99999998245E-14  0.12500000000E+03  0.12500000000E+03 0.  0.
        -13    1    1    0    0    0  0.19744547812E+02 -0.14033341633E+02 -0.45916071728E+02  0.51914146941E+02  0.10566000000E+00 0. -1.
         13    1    1    0    0    0  0.37152570489E+01 -0.21040267653E+01 -0.97032219574E+01  0.10601591577E+02  0.10566000000E+00 0.  1.
         22    1    1    0    0    0 -0.23459804860E+02  0.16137368398E+02  0.55619293685E+02  0.62484261482E+02  0.00000000000E+00 0. -1.
</event>
<event>
 4    1  0.9856522E-003  0.9118800E+02  0.7818608E-02  0.1130116E+00
         25   -1    0    0    0    0  0.00000000000E+00  0.00000000000E+00  0.99999998245E-14  0.12500000000E+03  0.12500000000E+03 0.  0.
        -13    1    1    0    0    0  0.13739718624E+02  0.24625233413E+02  0.40019644140E+01  0.28481728735E+02  0.10566000000E+00 0.  1.
         13    1    1    0    0    0  0.19761308302E+02  0.26511608718E+02  0.84513409062E+01  0.34129328001E+02  0.10566000000E+00 0. -1.
         22    1    1    0    0    0 -0.33501026926E+02 -0.51136842131E+02 -0.12453305320E+02  0.62388943264E+02  0.00000000000E+00 0. -1.
</event>
<event>
 4    1  0.9856522E-003  0.9118800E+02  0.7818608E-02  0.1130116E+00
         25   -1    0    0    0    0  0.00000000000E+00  0.00000000000E+00  0.99999998245E-14  0.12500000000E+03  0.12500000000E+03 0.  0.
        -13    1    1    0    0    0 -0.24298213034E+02  0.23129298575E+02 -0.99593001441E+01  0.34993805632E+02  0.10566000000E+00 0.  1.
         13    1    1    0    0    0 -0.19025975174E+02  0.18500043501E+02 -0.72440240605E+01  0.27508660263E+02  0.10566000000E+00 0. -1.
         22    1    1    0    0    0  0.43324188208E+02 -0.41629342076E+02  0.17203324205E+02  0.62497534105E+02  0.00000000000E+00 0.  1.
</event>
<event>
 4    1  0.9856522E-003  0.9118800E+02  0.7818608E-02  0.1130116E+00
         25   -1    0    0    0    0  0.00000000000E+00  0.00000000000E+00  0.99999998245E-14  0.12500000000E+03  0.12500000000E+03 0.  0.
        -13    1    1    0    0    0 -0.10118826769E+02 -0.28172458672E+01  0.59984273879E+01  0.12096273171E+02  0.10566000000E+00 0.  1.
         13    1    1    0    0    0 -0.42066766910E+02 -0.10299724403E+02  0.25789896454E+02  0.50406617861E+02  0.10566000000E+00 0. -1.
         22    1    1    0    0    0  0.52185593679E+02  0.13116970270E+02 -0.31788323841E+02  0.62497108968E+02  0.00000000000E+00 0. -1.
</event>
<event>
 4    1  0.9856522E-003  0.9118800E+02  0.7818608E-02  0.1130116E+00
         25   -1    0    0    0    0  0.00000000000E+00  0.00000000000E+00  0.99999998245E-14  0.12500000000E+03  0.12500000000E+03 0.  0.
        -13    1    1    0    0    0 -0.92308194198E-01  0.18303139504E+00 -0.11968480156E+00  0.25982644517E+00  0.10566000000E+00 0. -1.
         13    1    1    0    0    0  0.54944187823E+02  0.13150418078E+02 -0.26414015580E+02  0.62365925426E+02  0.10566000000E+00 0.  1.
         22    1    1    0    0    0 -0.54851879629E+02 -0.13333449473E+02  0.26533700382E+02  0.62374248129E+02  0.00000000000E+00 0.  1.
</event>
<event>
 4    1  0.9856522E-003  0.9118800E+02  0.7818608E-02  0.1130116E+00
         25   -1    0    0    0    0  0.00000000000E+00  0.00000000000E+00  0.99999998245E-14  0.12500000000E+03  0.12500000000E+03 0.  0.
        -13    1    1    0    0    0  0.95955013372E+01  0.43606207899E+01  0.10865084232E+02  0.15137697282E+02  0.10566000000E+00 0. -1.
         13    1    1    0    0    0  0.25297137169E+02  0.11560390114E+02  0.38408377942E+02  0.47421539713E+02  0.10566000000E+00 0.  1.
         22    1    1    0    0    0 -0.34892638506E+02 -0.15921010904E+02 -0.49273462174E+02  0.62440763006E+02  0.00000000000E+00 0.  1.
</event>
<event>
 4    1  0.9856522E-003  0.9118800E+02  0.7818608E-02  0.1130116E+00
         25   -1    0    0    0    0  0.00000000000E+00  0.00000000000E+00  0.99999998245E-14  0.12500000000E+03  0.12500000000E+03 0.  0.
        -13    1    1    0    0    0  0.37413362166E+02 -0.22081239035E+02  0.41907138692E+02  0.60361910368E+02  0.10566000000E+00 0. -1.
         13    1    1    0    0    0 -0.92849198134E+00  0.41227337356E+00 -0.13577706503E+02  0.13616069353E+02  0.10566000000E+00 0.  1.
         22    1    1    0    0    0 -0.36484870184E+02  0.21668965662E+02 -0.28329432189E+02  0.51022020279E+02  0.00000000000E+00 0. -1.
</event>
<event>
 4    1  0.9856522E-003  0.9118800E+02  0.7818608E-02  0.1130116E+00
         25   -1    0    0    0    0  0.00000000000E+00  0.00000000000E+00  0.99999998245E-14  0.12500000000E+03  0.12500000000E+03 0.  0.
        -13    1    1    0    0    0 -0.40504217443E+02  0.47304664640E+01 -0.32403923521E+02  0.52086412501E+02  0.10566000000E+00 0. -1.
         13    1    1    0    0    0 -0.81497631211E+01  0.95652854179E+00 -0.64115354494E+01  0.10414054764E+02  0.10566000000E+00 0. -1.
         22    1    1    0    0    0  0.48653980564E+02 -0.56869950058E+01  0.38815458970E+02  0.62499532734E+02  0.00000000000E+00 0. -1.
</event>
<event>
 4    1  0.9856522E-003  0.9118800E+02  0.7818608E-02  0.1130116E+00
         25   -1    0    0    0    0  0.00000000000E+00  0.00000000000E+00  0.99999998245E-14  0.12500000000E+03  0.12500000000E+03 0.  0.
        -13    1    1    0    0    0  0.25628148022E+02  0.45468584198E+02  0.25743353229E+02  0.58197298215E+02  0.10566000000E+00 0. -1.
         13    1    1    0    0    0 -0.28192215448E+01 -0.57007232112E+01  0.77504105982E+01  0.10026279655E+02  0.10566000000E+00 0.  1.
         22    1    1    0    0    0 -0.22808926477E+02 -0.39767860987E+02 -0.33493763828E+02  0.56776422130E+02  0.00000000000E+00 0. -1.
</event>
<event>
 4    1  0.9856522E-003  0.9118800E+02  0.7818608E-02  0.1130116E+00
         25   -1    0    0    0    0  0.00000000000E+00  0.00000000000E+00  0.99999998245E-14  0.12500000000E+03  0.12500000000E+03 0.  0.
        -13    1    1    0    0    0 -0.93759937690E+01 -0.89193607380E+01  0.25686125884E+02  0.28761997185E+02  0.10566000000E+00 0.  1.
         13    1    1    0    0    0 -0.17769225311E+01  0.82371954648E+01  0.34248807375E+02  0.35270395709E+02  0.10566000000E+00 0. -1.
         22    1    1    0    0    0  0.11152916300E+02  0.68216527314E+00 -0.59934933259E+02  0.60967607106E+02  0.00000000000E+00 0.  1.
</event>
<event>
 4    1  0.9856522E-003  0.9118800E+02  0.7818608E-02  0.1130116E+00
         25   -1    0    0    0    0  0.00000000000E+00  0.00000000000E+00  0.99999998245E-14  0.12500000000E+03  0.12500000000E+03 0.  0.
        -13    1    1    0    0    0  0.38621302523E+01 -0.18485997433E+02  0.62058477661E+01  0.19878930095E+02  0.10566000000E+00 0.  1.
         13    1    1    0    0    0 -0.16784298337E+02 -0.33214632325E+02 -0.28980111760E+02  0.47167600244E+02  0.10566000000E+00 0. -1.
         22    1    1    0    0    0  0.12922168084E+02  0.51700629758E+02  0.22774263994E+02  0.57953469661E+02  0.00000000000E+00 0. -1.
</event>
<event>
 4    1  0.9856522E-003  0.9118800E+02  0.7818608E-02  0.1130116E+00
         25   -1    0    0    0    0  0.00000000000E+00  0.00000000000E+00  0.99999998245E-14  0.12500000000E+03  0.12500000000E+03 0.  0.
        -13    1    1    0    0    0 -0.12044627988E+01  0.71387330999E+01 -0.13587905666E+02  0.15396577066E+02  0.10566000000E+00 0.  1.
         13    1    1    0    0    0 -0.44430537513E+02  0.18027415421E+02 -0.14900925458E+02  0.50210647417E+02  0.10566000000E+00 0. -1.
         22    1    1    0    0    0  0.45635000312E+02 -0.25166148520E+02  0.28488831124E+02  0.59392775518E+02  0.00000000000E+00 0. -1.
</event>
<event>
 4    1  0.9856522E-003  0.9118800E+02  0.7818608E-02  0.1130116E+00
         25   -1    0    0    0    0  0.00000000000E+00  0.00000000000E+00  0.99999998245E-14  0.12500000000E+03  0.12500000000E+03 0.  0.
        -13    1    1    0    0    0 -0.41231009803E+02 -0.69262810983E+01  0.32963892075E+02  0.53240951194E+02  0.10566000000E+00 0. -1.
         13    1    1    0    0    0 -0.72343260486E+01 -0.17162256924E+01  0.55294977449E+01  0.92664671451E+01  0.10566000000E+00 0.  1.
         22    1    1    0    0    0  0.48465335852E+02  0.86425067908E+01 -0.38493389820E+02  0.62492581661E+02  0.00000000000E+00 0. -1.
</event>
<event>
 4    1  0.9856522E-003  0.9118800E+02  0.7818608E-02  0.1130116E+00
         25   -1    0    0    0    0  0.00000000000E+00  0.00000000000E+00  0.99999998245E-14  0.12500000000E+03  0.12500000000E+03 0.  0.
        -13    1    1    0    0    0 -0.13779287628E+02 -0.45648150648E+02 -0.30836807971E+02  0.56785053623E+02  0.10566000000E+00 0. -1.
         13    1    1    0    0    0  0.11012733014E+02 -0.27209572340E+01  0.11190415129E+02  0.15934881596E+02  0.10566000000E+00 0.  1.
         22    1    1    0    0    0  0.27665546148E+01  0.48369107882E+02  0.19646392842E+02  0.52280064780E+02  0.00000000000E+00 0. -1.
</event>
<event>
 4    1  0.9856522E-003  0.9118800E+02  0.7818608E-02  0.1130116E+00
         25   -1    0    0    0    0  0.00000000000E+00  0.00000000000E+00  0.99999998245E-14  0.12500000000E+03  0.12500000000E+03 0.  0.
        -13    1    1    0    0    0  0.61579664843E+01 -0.11394594868E+02 -0.49439143775E+01  0.13864010849E+02  0.10566000000E+00 0.  1.
         13    1    1    0    0    0  0.21318490167E+02 -0.40049867505E+02 -0.17521890949E+02  0.48636382849E+02  0.10566000000E+00 0.  1.
         22    1    1    0    0    0 -0.27476456652E+02  0.51444462372E+02  0.22465805326E+02  0.62499606302E+02  0.00000000000E+00 0.  1.
</event>
<event>
 4    1  0.9856522E-003  0.9118800E+02  0.7818608E-02  0.1130116E+00
         25   -1    0    0    0    0  0.00000000000E+00  0.00000000000E+00  0.99999998245E-14  0.12500000000E+03  0.12500000000E+03 0.  0.
        -13    1    1    0    0    0  0.34361943715E+02  0.18599852125E+02  0.45205069645E+02  0.59751210537E+02  0.10566000000E+00 0.  1.
         13    1    1    0    0    0  0.23698643192E+00 -0.37353214195E+01  0.24774494030E+01  0.44897336509E+01  0.10566000000E+00 0. -1.
         22    1    1    0    0    0 -0.34598930147E+02 -0.14864530706E+02 -0.47682519048E+02  0.60759055812E+02  0.00000000000E+00 0.  1.
</event>
<event>
 4    1  0.9856522E-003  0.9118800E+02  0.7818608E-02  0.1130116E+00
         25   -1    0    0    0    0  0.00000000000E+00  0.00000000000E+00  0.99999998245E-14  0.12500000000E+03  0.12500000000E+03 0.  0.
        -13    1    1    0    0    0 -0.90815151178E+01  0.62098354360E+01 -0.54830915004E+01  0.12292738890E+02  0.10566000000E+00 0. -1.
         13    1    1    0    0    0 -0.36344163311E+02  0.23247220711E+02 -0.25710532035E+02  0.50223242619E+02  0.10566000000E+00 0.  1.
         22    1    1    0    0    0  0.45425678429E+02 -0.29457056147E+02  0.31193623536E+02  0.62484018491E+02  0.00000000000E+00 0. -1.
</event>
<event>
 4    1  0.9856522E-003  0.9118800E+02  0.7818608E-02  0.1130116E+00
         25   -1    0    0    0    0  0.00000000000E+00  0.00000000000E+00  0.99999998245E-14  0.12500000000E+03  0.12500000000E+03 0.  0.
        -13    1    1    0    0    0  0.58805384951E+01 -0.47187002752E+01 -0.18303484765E+01  0.77593946195E+01  0.10566000000E+00 0. -1.
         13    1    1    0    0    0  0.34059771748E+02 -0.90012853216E+01 -0.43041778718E+02  0.55621012830E+02  0.10566000000E+00 0.  1.
         22    1    1    0    0    0 -0.39940310244E+02  0.13719985597E+02  0.44872127195E+02  0.61619592550E+02  0.00000000000E+00 0.  1.
</event>
<event>
 4    1  0.9856522E-003  0.9118800E+02  0.7818608E-02  0.1130116E+00
         25   -1    0    0    0    0  0.00000000000E+00  0.00000000000E+00  0.99999998245E-14  0.12500000000E+03  0.12500000000E+03 0.  0.
        -13    1    1    0    0    0  0.15019966321E+02  0.16737037674E+02 -0.15983939990E+02  0.27590312069E+02  0.10566000000E+00 0.  1.
         13    1    1    0    0    0  0.18806094015E+02  0.21525869278E+02 -0.20042415198E+02  0.34910482541E+02  0.10566000000E+00 0. -1.
         22    1    1    0    0    0 -0.33826060336E+02 -0.38262906953E+02  0.36026355187E+02  0.62499205390E+02  0.00000000000E+00 0. -1.
</event>
<event>
 4    1  0.9856522E-003  0.9118800E+02  0.7818608E-02  0.1130116E+00
         25   -1    0    0    0    0  0.00000000000E+00  0.00000000000E+00  0.99999998245E-14  0.12500000000E+03  0.12500000000E+03 0.  0.
        -13    1    1    0    0    0  0.40844466453E+02  0.24357778364E+02  0.27094412718E+01  0.47633224148E+02  0.10566000000E+00 0. -1.
         13    1    1    0    0    0  0.37815318655E+01  0.85253400652E+01 -0.17644002971E+02  0.19957540213E+02  0.10566000000E+00 0.  1.
         22    1    1    0    0    0 -0.44625998318E+02 -0.32883118430E+02  0.14934561699E+02  0.57409235639E+02  0.00000000000E+00 0. -1.
</event>
<event>
 4    1  0.9856522E-003  0.9118800E+02  0.7818608E-02  0.1130116E+00
         25   -1    0    0    0    0  0.00000000000E+00  0.00000000000E+00  0.99999998245E-14  0.12500000000E+03  0.12500000000E+03 0.  0.
        -13    1    1    0    0    0 -0.45796482855E+01  0.30252615887E+00 -0.11122639700E+02  0.12032829195E+02  0.10566000000E+00 0. -1.
         13    1    1    0    0    0 -0.44467626676E+02 -0.28162070356E+02 -0.83493812316E+01  0.53293483278E+02  0.10566000000E+00 0.  1.
         22    1    1    0    0    0  0.49047274961E+02  0.27859544197E+02  0.19472020932E+02  0.59673687528E+02  0.00000000000E+00 0.  1.
</event>
<event>
 4    1  0.9856522E-003  0.9118800E+02  0.7818608E-02  0.1130116E+00
         25   -1    0    0    0    0  0.00000000000E+00  0.00000000000E+00  0.99999998245E-14  0.12500000000E+03  0.12500000000E+03 0.  0.
        -13    1    1    0    0    0 -0.11459311550E+02 -0.38734882146E+02 -0.82065076596E+01  0.41219714313E+02  0.10566000000E+00 0. -1.
         13    1    1    0    0    0  0.46511960111E+01 -0.21855522434E+02  0.78994560407E+00  0.22359174030E+02  0.10566000000E+00 0.  1.
         22    1    1    0    0    0  0.68081155387E+01  0.60590404580E+02  0.74165620555E+01  0.61421111657E+02  0.00000000000E+00 0. -1.
</event>
<event>
 4    1  0.9856522E-003  0.9118800E+02  0.7818608E-02  0.1130116E+00
         25   -1    0    0    0    0  0.00000000000E+00  0.00000000000E+00  0.99999998245E-14  0.12500000000E+03  0.12500000000E+03 0.  0.
        -13    1    1    0    0    0 -0.16400450809E+02 -0.26182544555E+02  0.34553009581E+02  0.46351074003E+02  0.10566000000E+00 0.  1.
         13    1    1    0    0    0 -0.69035037124E+01 -0.73223441384E+01  0.12704389051E+02  0.16207644875E+02  0.10566000000E+00 0. -1.
         22    1    1    0    0    0  0.23303954521E+02  0.33504888694E+02 -0.47257398632E+02  0.62441281122E+02  0.00000000000E+00 0.  1.
</event>
<event>
 4    1  0.9856522E-003  0.9118800E+02  0.7818608E-02  0.1130116E+00
         25   -1    0    0    0    0  0.00000000000E+00  0.00000000000E+00  0.99999998245E-14  0.12500000000E+03  0.12500000000E+03 0.  0.
        -13    1    1    0    0    0  0.10125382822E+02  0.10000453854E+02 -0.22481789286E+02  0.26607789614E+02  0.10566000000E+00 0.  1.
         13    1    1    0    0    0  0.14166830824E+02  0.12995548928E+02 -0.30311324915E+02  0.35893884850E+02  0.10566000000E+00 0. -1.
         22    1    1    0    0    0 -0.24292213646E+02 -0.22996002782E+02  0.52793114201E+02  0.62498325536E+02  0.00000000000E+00 0.  1.
</event>
<event>
 4    1  0.9856522E-003  0.9118800E+02  0.7818608E-02  0.1130116E+00
         25   -1    0    0    0    0  0.00000000000E+00  0.00000000000E+00  0.99999998245E-14  0.12500000000E+03  0.12500000000E+03 0.  0.
        -13    1    1    0    0    0  0.22774749301E+02 -0.19663908580E+02 -0.59862755060E+01  0.30679067209E+02  0.10566000000E+00 0. -1.
         13    1    1    0    0    0  0.23596629837E+02 -0.20493941881E+02 -0.59820196857E+01  0.31821350019E+02  0.10566000000E+00 0. -1.
         22    1    1    0    0    0 -0.46371379138E+02  0.40157850461E+02  0.11968295192E+02  0.62499582771E+02  0.00000000000E+00 0. -1.
</event>
<event>
 4    1  0.9856522E-003  0.9118800E+02  0.7818608E-02  0.1130116E+00
         25   -1    0    0    0    0  0.00000000000E+00  0.00000000000E+00  0.99999998245E-14  0.12500000000E+03  0.12500000000E+03 0.  0.
        -13    1    1    0    0    0  0.15540402939E+02  0.14450284508E+02  0.95828618146E+01  0.23284270452E+02  0.10566000000E+00 0. -1.
         13    1    1    0    0    0  0.13745151469E+02  0.35044261315E+02  0.13152556393E+02  0.39875184561E+02  0.10566000000E+00 0.  1.
         22    1    1    0    0    0 -0.29285554409E+02 -0.49494545823E+02 -0.22735418207E+02  0.61840544987E+02  0.00000000000E+00 0.  1.
</event>
<event>
 4    1  0.9856522E-003  0.9118800E+02  0.7818608E-02  0.1130116E+00
         25   -1    0    0    0    0  0.00000000000E+00  0.00000000000E+00  0.99999998245E-14  0.12500000000E+03  0.12500000000E+03 0.  0.
        -13    1    1    0    0    0 -0.31904317177E+02 -0.12407066423E+02 -0.27977868107E+01  0.34346171938E+02  0.10566000000E+00 0.  1.
         13    1    1    0    0    0 -0.26058638837E+02 -0.10498522133E+02 -0.18573306747E+01  0.28155505079E+02  0.10566000000E+00 0. -1.
         22    1    1    0    0    0  0.57962956013E+02  0.22905588556E+02  0.46551174854E+01  0.62498322983E+02  0.00000000000E+00 0.  1.
</event>
<event>
 4    1  0.9856522E-003  0.9118800E+02  0.7818608E-02  0.1130116E+00
         25   -1    0    0    0    0  0.00000000000E+00  0.00000000000E+00  0.99999998245E-14  0.12500000000E+03  0.12500000000E+03 0.  0.
        -13    1    1    0    0    0 -0.97522827823E+01 -0.26144827095E+02  0.20170284631E+01  0.27977465417E+02  0.10566000000E+00 0.  1.
         13    1    1    0    0    0 -0.98130822099E+01 -0.32943898895E+02 -0.48466616937E+01  0.34714526505E+02  0.10566000000E+00 0. -1.
         22    1    1    0    0    0  0.19565364992E+02  0.59088725990E+02  0.28296332306E+01  0.62308008078E+02  0.00000000000E+00 0. -1.
</event>
<event>
 4    1  0.9856522E-003  0.9118800E+02  0.7818608E-02  0.1130116E+00
         25   -1    0    0    0    0  0.00000000000E+00  0.00000000000E+00  0.99999998245E-14  0.12500000000E+03  0.12500000000E+03 0.  0.
        -13    1    1    0    0    0 -0.13510959423E+02 -0.14123900338E+02 -0.15584296182E+02  0.24998240675E+02  0.10566000000E+00 0.  1.
         13    1    1    0    0    0 -0.18929836197E+02 -0.22283375158E+02 -0.23496774468E+02  0.37509959762E+02  0.10566000000E+00 0. -1.
         22    1    1    0    0    0  0.32440795621E+02  0.36407275496E+02  0.39081070650E+02  0.62491799564E+02  0.00000000000E+00 0.  1.
</event>
<event>
 4    1  0.9856522E-003  0.9118800E+02  0.7818608E-02  0.1130116E+00
         25   -1    0    0    0    0  0.00000000000E+00  0.00000000000E+00  0.99999998245E-14  0.12500000000E+03  0.12500000000E+03 0.  0.
        -13    1    1    0    0    0  0.23733361439E+02 -0.51191056884E+02  0.99994256356E+01  0.57304418914E+02  0.10566000000E+00 0.  1.
         13    1    1    0    0    0 -0.24246689622E+01 -0.56740554984E+01 -0.13231839325E+00  0.61727301551E+01  0.10566000000E+00 0. -1.
         22    1    1    0    0    0 -0.21308692477E+02  0.56865112382E+02 -0.98671072424E+01  0.61522850930E+02  0.00000000000E+00 0.  1.
</event>
<event>
 4    1  0.9856522E-003  0.9118800E+02  0.7818608E-02  0.1130116E+00
         25   -1    0    0    0    0  0.00000000000E+00  0.00000000000E+00  0.99999998245E-14  0.12500000000E+03  0.12500000000E+03 0.  0.
        -13    1    1    0    0    0  0.27244712758E+01  0.14453821853E+02 -0.38004252901E+02  0.40751320377E+02  0.10566000000E+00 0. -1.
         13    1    1    0    0    0 -0.22906893141E+02 -0.26838158957E+01 -0.14179159431E+02  0.27073757540E+02  0.10566000000E+00 0.  1.
         22    1    1    0    0    0  0.20182421865E+02 -0.11770005957E+02  0.52183412332E+02  0.57174922083E+02  0.00000000000E+00 0. -1.
</event>
<event>
 4    1  0.9856522E-003  0.9118800E+02  0.7818608E-02  0.1130116E+00
         25   -1    0    0    0    0  0.00000000000E+00  0.00000000000E+00  0.99999998245E-14  0.12500000000E+03  0.12500000000E+03 0.  0.
        -13    1    1    0    0    0  0.13038990368E+02  0.48342728686E+01  0.18233917006E+02  0.22931906973E+02  0.10566000000E+00 0. -1.
         13    1    1    0    0    0  0.10937145321E+02  0.32791443242E+02 -0.39629867799E+02  0.52587427048E+02  0.10566000000E+00 0.  1.
         22    1    1    0    0    0 -0.23976135689E+02 -0.37625716111E+02  0.21395950793E+02  0.49480665979E+02  0.00000000000E+00 0.  1.
</event>
<event>
 4    1  0.9856522E-003  0.9118800E+02  0.7818608E-02  0.1130116E+00
         25   -1    0    0    0    0  0.00000000000E+00  0.00000000000E+00  0.99999998245E-14  0.12500000000E+03  0.12500000000E+03 0.  0.
        -13    1    1    0    0    0 -0.62001054150E+01  0.45057325060E+02  0.23461555485E+02  0.51176748612E+02  0.10566000000E+00 0. -1.
         13    1    1    0    0    0  0.10343312024E+02  0.60219028833E+01 -0.18903299164E+02  0.22373942461E+02  0.10566000000E+00 0.  1.
         22    1    1    0    0    0 -0.41432066088E+01 -0.51079227943E+02 -0.45582563218E+01  0.51449308926E+02  0.00000000000E+00 0. -1.
</event>
<event>
 4    1  0.9856522E-003  0.9118800E+02  0.7818608E-02  0.1130116E+00
         25   -1    0    0    0    0  0.00000000000E+00  0.00000000000E+00  0.99999998245E-14  0.12500000000E+03  0.12500000000E+03 0.  0.
        -13    1    1    0    0    0  0.19700502782E+02 -0.33304825523E+02 -0.24781233520E+02  0.45950428853E+02  0.10566000000E+00 0.  1.
         13    1    1    0    0    0 -0.18007026524E+02 -0.14572327940E+02 -0.34842946279E+01  0.23425567633E+02  0.10566000000E+00 0. -1.
         22    1    1    0    0    0 -0.16934762573E+01  0.47877153462E+02  0.28265528148E+02  0.55624003514E+02  0.00000000000E+00 0.  1.
</event>
<event>
 4    1  0.9856522E-003  0.9118800E+02  0.7818608E-02  0.1130116E+00
         25   -1    0    0    0    0  0.00000000000E+00  0.00000000000E+00  0.99999998245E-14  0.12500000000E+03  0.12500000000E+03 0.  0.
        -13    1    1    0    0    0  0.97635410567E+01 -0.12272444905E+02 -0.48751101245E+02  0.51211528727E+02  0.10566000000E+00 0. -1.
         13    1    1    0    0    0  0.14227620459E+02 -0.56508634106E+01 -0.14037446603E+01  0.15373324439E+02  0.10566000000E+00 0.  1.
         22    1    1    0    0    0 -0.23991161516E+02  0.17923308316E+02  0.50154845905E+02  0.58415146834E+02  0.00000000000E+00 0. -1.
</event>
<event>
 4    1  0.9856522E-003  0.9118800E+02  0.7818608E-02  0.1130116E+00
         25   -1    0    0    0    0  0.00000000000E+00  0.00000000000E+00  0.99999998245E-14  0.12500000000E+03  0.12500000000E+03 0.  0.
        -13    1    1    0    0    0 -0.13178862590E+02 -0.38768081648E+02  0.12907196361E+02  0.42933127719E+02  0.10566000000E+00 0. -1.
         13    1    1    0    0    0 -0.62866273307E+01 -0.17506424501E+02  0.60754997644E+01  0.19568327558E+02  0.10566000000E+00 0.  1.
         22    1    1    0    0    0  0.19465489920E+02  0.56274506149E+02 -0.18982696125E+02  0.62498544722E+02  0.00000000000E+00 0. -1.
</event>
<event>
 4    1  0.9856522E-003  0.9118800E+02  0.7818608E-02  0.1130116E+00
         25   -1    0    0    0    0  0.00000000000E+00  0.00000000000E+00  0.99999998245E-14  0.12500000000E+03  0.12500000000E+03 0.  0.
        -13    1    1    0    0    0  0.13055978326E+02 -0.49553902805E+01  0.14494096973E+02  0.20127207307E+02  0.10566000000E+00 0.  1.
         13    1    1    0    0    0 -0.14382470616E+01 -0.25661515929E+02  0.36275702158E+02  0.44458066596E+02  0.10566000000E+00 0. -1.
         22    1    1    0    0    0 -0.11617731264E+02  0.30616906210E+02 -0.50769799131E+02  0.60414726097E+02  0.00000000000E+00 0. -1.
</event>
<event>
 4    1  0.9856522E-003  0.9118800E+02  0.7818608E-02  0.1130116E+00
         25   -1    0    0    0    0  0.00000000000E+00  0.00000000000E+00  0.99999998245E-14  0.12500000000E+03  0.12500000000E+03 0.  0.
        -13    1    1    0    0    0 -0.16733058783E+02 -0.18956789067E+01 -0.28219817907E+01  0.17075233528E+02  0.10566000000E+00 0.  1.
         13    1    1    0    0    0 -0.44107031825E+02 -0.11343455761E+02  0.32645241011E+01  0.45659309310E+02  0.10566000000E+00 0. -1.
         22    1    1    0    0    0  0.60840090608E+02  0.13239134668E+02 -0.44254231042E+00  0.62265457163E+02  0.00000000000E+00 0. -1.
</event>
<event>
 4    1  0.9856522E-003  0.9118800E+02  0.7818608E-02  0.1130116E+00
         25   -1    0    0    0    0  0.00000000000E+00  0.00000000000E+00  0.99999998245E-14  0.12500000000E+03  0.12500000000E+03 0.  0.
        -13    1    1    0    0    0 -0.67516618197E+01 -0.42620191049E+02 -0.18189297364E+02  0.46828701936E+02  0.10566000000E+00 0.  1.
         13    1    1    0    0    0 -0.75585314184E-01 -0.12330516004E+02 -0.10146596192E+02  0.15969092535E+02  0.10566000000E+00 0. -1.
         22    1    1    0    0    0  0.68272471338E+01  0.54950707053E+02  0.28335893555E+02  0.62202205529E+02  0.00000000000E+00 0.  1.
</event>
<event>
 4    1  0.9856522E-003  0.9118800E+02  0.7818608E-02  0.1130116E+00
         25   -1    0    0    0    0  0.00000000000E+00  0.00000000000E+00  0.99999998245E-14  0.12500000000E+03  0.12500000000E+03 0.  0.
        -13    1    1    0    0    0  0.24399144239E+02  0.30039717556E+02 -0.39353875876E+02  0.55194579272E+02  0.10566000000E+00 0.  1.
         13    1    1    0    0    0  0.30545893593E+01  0.41230796338E+01 -0.52016440645E+01  0.73074323007E+01  0.10566000000E+00 0. -1.
         22    1    1    0    0    0 -0.27453733598E+02 -0.34162797190E+02  0.44555519941E+02  0.62497988428E+02  0.00000000000E+00 0.  1.
</event>
<event>
 4    1  0.9856522E-003  0.9118800E+02  0.7818608E-02  0.1130116E+00
         25   -1    0    0    0    0  0.00000000000E+00  0.00000000000E+00  0.99999998245E-14  0.12500000000E+03  0.12500000000E+03 0.  0.
        -13    1    1    0    0    0  0.15575495765E+02  0.48868058319E+02  0.13637492820E+02  0.53072361608E+02  0.10566000000E+00 0.  1.
         13    1    1    0    0    0  0.36391139215E+01  0.84744655175E+01  0.20531472551E+01  0.94491424811E+01  0.10566000000E+00 0. -1.
         22    1    1    0    0    0 -0.19214609687E+02 -0.57342523836E+02 -0.15690640075E+02  0.62478495911E+02  0.00000000000E+00 0.  1.
</event>
<event>
 4    1  0.9856522E-003  0.9118800E+02  0.7818608E-02  0.1130116E+00
         25   -1    0    0    0    0  0.00000000000E+00  0.00000000000E+00  0.99999998245E-14  0.12500000000E+03  0.12500000000E+03 0.  0.
        -13    1    1    0    0    0 -0.37316569965E+02 -0.38642209012E+02  0.30519387175E+02  0.61783419045E+02  0.10566000000E+00 0. -1.
         13    1    1    0    0    0  0.43901084509E+00 -0.19086109588E+00 -0.29367047968E+01  0.29773406891E+01  0.10566000000E+00 0.  1.
         22    1    1    0    0    0  0.36877559120E+02  0.38833070108E+02 -0.27582682378E+02  0.60239240266E+02  0.00000000000E+00 0. -1.
</event>
<event>
 4    1  0.9856522E-003  0.9118800E+02  0.7818608E-02  0.1130116E+00
         25   -1    0    0    0    0  0.00000000000E+00  0.00000000000E+00  0.99999998245E-14  0.12500000000E+03  0.12500000000E+03 0.  0.
        -13    1    1    0    0    0 -0.87738730783E+01 -0.20273791367E+01 -0.63997116353E-01  0.90059077624E+01  0.10566000000E+00 0. -1.
         13    1    1    0    0    0 -0.52023886653E+02 -0.12383822544E+02 -0.13716691916E+01  0.53495200567E+02  0.10566000000E+00 0.  1.
         22    1    1    0    0    0  0.60797759732E+02  0.14411201681E+02  0.14356663079E+01  0.62498891670E+02  0.00000000000E+00 0.  1.
</event>
<event>
 4    1  0.9856522E-003  0.9118800E+02  0.7818608E-02  0.1130116E+00
         25   -1    0    0    0    0  0.00000000000E+00  0.00000000000E+00  0.99999998245E-14  0.12500000000E+03  0.12500000000E+03 0.  0.
        -13    1    1    0    0    0  0.27593106084E+02 -0.10553999451E+02  0.19393723315E+02  0.35339695469E+02  0.10566000000E+00 0.  1.
         13    1    1    0    0    0  0.17321038614E+02 -0.13319208168E+02  0.16521982271E+02  0.27393553020E+02  0.10566000000E+00 0. -1.
         22    1    1    0    0    0 -0.44914144698E+02  0.23873207619E+02 -0.35915705586E+02  0.62266751511E+02  0.00000000000E+00 0.  1.
</event>
<event>
 4    1  0.9856522E-003  0.9118800E+02  0.7818608E-02  0.1130116E+00
         25   -1    0    0    0    0  0.00000000000E+00  0.00000000000E+00  0.99999998245E-14  0.12500000000E+03  0.12500000000E+03 0.  0.
        -13    1    1    0    0    0  0.88107559712E+01 -0.24364863475E+02 -0.49768659181E+02  0.56108881593E+02  0.10566000000E+00 0.  1.
         13    1    1    0    0    0 -0.25155930134E+01 -0.10647078116E+02  0.59616401217E+01  0.12459566509E+02  0.10566000000E+00 0. -1.
         22    1    1    0    0    0 -0.62951629577E+01  0.35011941592E+02  0.43807019059E+02  0.56431551897E+02  0.00000000000E+00 0.  1.
</event>
<event>
 4    1  0.9856522E-003  0.9118800E+02  0.7818608E-02  0.1130116E+00
         25   -1    0    0    0    0  0.00000000000E+00  0.00000000000E+00  0.99999998245E-14  0.12500000000E+03  0.12500000000E+03 0.  0.
        -13    1    1    0    0    0 -0.20675520376E+02  0.29104830649E+02  0.37150497974E+02  0.51524159126E+02  0.10566000000E+00 0. -1.
         13    1    1    0    0    0 -0.41360934029E+01  0.62715803754E+01  0.80037369808E+01  0.10977748345E+02  0.10566000000E+00 0.  1.
         22    1    1    0    0    0  0.24811613779E+02 -0.35376411024E+02 -0.45154234955E+02  0.62498092528E+02  0.00000000000E+00 0. -1.
</event>
<event>
 4    1  0.9856522E-003  0.9118800E+02  0.7818608E-02  0.1130116E+00
         25   -1    0    0    0    0  0.00000000000E+00  0.00000000000E+00  0.99999998245E-14  0.12500000000E+03  0.12500000000E+03 0.  0.
        -13    1    1    0    0    0  0.68320927681E+01  0.19047869327E+01 -0.16309813225E+02  0.17785580573E+02  0.10566000000E+00 0. -1.
         13    1    1    0    0    0 -0.79945193490E+01 -0.47478589558E+01 -0.44937830821E+02  0.45889806136E+02  0.10566000000E+00 0.  1.
         22    1    1    0    0    0  0.11624265808E+01  0.28430720231E+01  0.61247644046E+02  0.61324613291E+02  0.00000000000E+00 0.  1.
</event>
<event>
 4    1  0.9856522E-003  0.9118800E+02  0.7818608E-02  0.1130116E+00
         25   -1    0    0    0    0  0.00000000000E+00  0.00000000000E+00  0.99999998245E-14  0.12500000000E+03  0.12500000000E+03 0.  0.
        -13    1    1    0    0    0 -0.26367042304E+02  0.35616765105E+02  0.23903732573E+02  0.50350516099E+02  0.10566000000E+00 0. -1.
         13    1    1    0    0    0 -0.65651543925E+01  0.83653179855E+01  0.58795092881E+01  0.12151526270E+02  0.10566000000E+00 0.  1.
         22    1    1    0    0    0  0.32932196697E+02 -0.43982083091E+02 -0.29783241861E+02  0.62497957631E+02  0.00000000000E+00 0. -1.
</event>
<event>
 4    1  0.9856522E-003  0.9118800E+02  0.7818608E-02  0.1130116E+00
         25   -1    0    0    0    0  0.00000000000E+00  0.00000000000E+00  0.99999998245E-14  0.12500000000E+03  0.12500000000E+03 0.  0.
        -13    1    1    0    0    0  0.26467732732E+01  0.13427642201E+02 -0.13653677798E+02  0.19332383849E+02  0.10566000000E+00 0. -1.
         13    1    1    0    0    0  0.50276630697E+01  0.24533249042E+02 -0.35278367694E+02  0.43263519224E+02  0.10566000000E+00 0.  1.
         22    1    1    0    0    0 -0.76744363429E+01 -0.37960891244E+02  0.48932045492E+02  0.62404096926E+02  0.00000000000E+00 0. -1.
</event>
<event>
 4    1  0.9856522E-003  0.9118800E+02  0.7818608E-02  0.1130116E+00
         25   -1    0    0    0    0  0.00000000000E+00  0.00000000000E+00  0.99999998245E-14  0.12500000000E+03  0.12500000000E+03 0.  0.
        -13    1    1    0    0    0 -0.74484570780E+01  0.46120425899E+01  0.83655848699E-01  0.87617699143E+01  0.10566000000E+00 0.  1.
         13    1    1    0    0    0 -0.46887049774E+02  0.26241911716E+02 -0.11780679286E+01  0.53744138053E+02  0.10566000000E+00 0. -1.
         22    1    1    0    0    0  0.54335506852E+02 -0.30853954306E+02  0.10944120799E+01  0.62494092032E+02  0.00000000000E+00 0. -1.
</event>
<event>
 4    1  0.9856522E-003  0.9118800E+02  0.7818608E-02  0.1130116E+00
         25   -1    0    0    0    0  0.00000000000E+00  0.00000000000E+00  0.99999998245E-14  0.12500000000E+03  0.12500000000E+03 0.  0.
        -13    1    1    0    0    0 -0.53364262689E+01  0.21728903693E+02 -0.27159626084E+02  0.35189190869E+02  0.10566000000E+00 0. -1.
         13    1    1    0    0    0 -0.40984909454E+01  0.16811479851E+02 -0.21129543006E+02  0.27311027708E+02  0.10566000000E+00 0. -1.
         22    1    1    0    0    0  0.94349172143E+01 -0.38540383543E+02  0.48289169090E+02  0.62499781422E+02  0.00000000000E+00 0. -1.
</event>
<event>
 4    1  0.9856522E-003  0.9118800E+02  0.7818608E-02  0.1130116E+00
         25   -1    0    0    0    0  0.00000000000E+00  0.00000000000E+00  0.99999998245E-14  0.12500000000E+03  0.12500000000E+03 0.  0.
        -13    1    1    0    0    0  0.70945914156E+01 -0.19116441903E+02  0.25118473186E+01  0.20544880613E+02  0.10566000000E+00 0.  1.
         13    1    1    0    0    0  0.13725806988E+02 -0.39710230208E+02 -0.42401142032E+00  0.42017747564E+02  0.10566000000E+00 0. -1.
         22    1    1    0    0    0 -0.20820398404E+02  0.58826672112E+02 -0.20878358983E+01  0.62437371823E+02  0.00000000000E+00 0.  1.
</event>
<event>
 4    1  0.9856522E-003  0.9118800E+02  0.7818608E-02  0.1130116E+00
         25   -1    0    0    0    0  0.00000000000E+00  0.00000000000E+00  0.99999998245E-14  0.12500000000E+03  0.12500000000E+03 0.  0.
        -13    1    1    0    0    0  0.44592590749E+00  0.10283570351E+01  0.33615141625E+01  0.35450401418E+01  0.10566000000E+00 0.  1.
         13    1    1    0    0    0  0.31892164892E+02  0.15996604520E+02  0.47138123729E+02  0.59118655350E+02  0.10566000000E+00 0. -1.
         22    1    1    0    0    0 -0.32338090799E+02 -0.17024961555E+02 -0.50499637892E+02  0.62336304508E+02  0.00000000000E+00 0. -1.
</event>
<event>
 4    1  0.9856522E-003  0.9118800E+02  0.7818608E-02  0.1130116E+00
         25   -1    0    0    0    0  0.00000000000E+00  0.00000000000E+00  0.99999998245E-14  0.12500000000E+03  0.12500000000E+03 0.  0.
        -13    1    1    0    0    0 -0.77084730921E+01  0.32802925711E+02  0.39213209925E+02  0.51702412799E+02  0.10566000000E+00 0. -1.
         13    1    1    0    0    0 -0.16622918193E+01  0.64314005888E+01  0.85191657778E+01  0.10803401187E+02  0.10566000000E+00 0. -1.
         22    1    1    0    0    0  0.93707649114E+01 -0.39234326300E+02 -0.47732375703E+02  0.62494186013E+02  0.00000000000E+00 0. -1.
</event>
<event>
 4    1  0.9856522E-003  0.9118800E+02  0.7818608E-02  0.1130116E+00
         25   -1    0    0    0    0  0.00000000000E+00  0.00000000000E+00  0.99999998245E-14  0.12500000000E+03  0.12500000000E+03 0.  0.
        -13    1    1    0    0    0  0.52166559318E+02 -0.97518511074E+00 -0.12165346946E+02  0.53575252938E+02  0.10566000000E+00 0.  1.
         13    1    1    0    0    0  0.86453014134E+01 -0.46413017484E+00 -0.21770119486E+01  0.89278887990E+01  0.10566000000E+00 0. -1.
         22    1    1    0    0    0 -0.60811860731E+02  0.14393152856E+01  0.14342358895E+02  0.62496858263E+02  0.00000000000E+00 0.  1.
</event>
<event>
 4    1  0.9856522E-003  0.9118800E+02  0.7818608E-02  0.1130116E+00
         25   -1    0    0    0    0  0.00000000000E+00  0.00000000000E+00  0.99999998245E-14  0.12500000000E+03  0.12500000000E+03 0.  0.
        -13    1    1    0    0    0  0.33354422590E+02 -0.14650084655E+02  0.29025444045E+01  0.36545566281E+02  0.10566000000E+00 0. -1.
         13    1    1    0    0    0  0.22933673217E+02 -0.11978111111E+02  0.22593452676E+01  0.25971991030E+02  0.10566000000E+00 0.  1.
         22    1    1    0    0    0 -0.56288095807E+02  0.26628195766E+02 -0.51618896721E+01  0.62482442689E+02  0.00000000000E+00 0. -1.
</event>
<event>
 4    1  0.9856522E-003  0.9118800E+02  0.7818608E-02  0.1130116E+00
         25   -1    0    0    0    0  0.00000000000E+00  0.00000000000E+00  0.99999998245E-14  0.12500000000E+03  0.12500000000E+03 0.  0.
        -13    1    1    0    0    0  0.97068604542E+01 -0.19381345733E+02  0.28681779442E+02  0.35951569344E+02  0.10566000000E+00 0. -1.
         13    1    1    0    0    0  0.50858422657E+01 -0.14097035903E+02  0.21946646534E+02  0.26575527670E+02  0.10566000000E+00 0.  1.
         22    1    1    0    0    0 -0.14792702720E+02  0.33478381636E+02 -0.50628425976E+02  0.62472902986E+02  0.00000000000E+00 0. -1.
</event>
<event>
 4    1  0.9856522E-003  0.9118800E+02  0.7818608E-02  0.1130116E+00
         25   -1    0    0    0    0  0.00000000000E+00  0.00000000000E+00  0.99999998245E-14  0.12500000000E+03  0.12500000000E+03 0.  0.
        -13    1    1    0    0    0 -0.35387101074E+01  0.46094260340E-02  0.86234355332E+01  0.93218718561E+01  0.10566000000E+00 0. -1.
         13    1    1    0    0    0 -0.50781002315E+02 -0.21876708721E+02  0.51188263065E+01  0.55529398767E+02  0.10566000000E+00 0.  1.
         22    1    1    0    0    0  0.54319712422E+02  0.21872099295E+02 -0.13742261840E+02  0.60148729377E+02  0.00000000000E+00 0.  1.
</event>
<event>
 4    1  0.9856522E-003  0.9118800E+02  0.7818608E-02  0.1130116E+00
         25   -1    0    0    0    0  0.00000000000E+00  0.00000000000E+00  0.99999998245E-14  0.12500000000E+03  0.12500000000E+03 0.  0.
        -13    1    1    0    0    0  0.45797049266E+02  0.80647844813E+01 -0.36801724431E+02  0.59302517277E+02  0.10566000000E+00 0. -1.
         13    1    1    0    0    0  0.20907007210E+01  0.11525817576E+01 -0.22035978077E+01  0.32506124879E+01  0.10566000000E+00 0.  1.
         22    1    1    0    0    0 -0.47887749987E+02 -0.92173662390E+01  0.39005322239E+02  0.62446870235E+02  0.00000000000E+00 0. -1.
</event>
<event>
 4    1  0.9856522E-003  0.9118800E+02  0.7818608E-02  0.1130116E+00
         25   -1    0    0    0    0  0.00000000000E+00  0.00000000000E+00  0.99999998245E-14  0.12500000000E+03  0.12500000000E+03 0.  0.
        -13    1    1    0    0    0 -0.12286390113E+02 -0.41709022964E+02 -0.12282745977E+02  0.45182684642E+02  0.10566000000E+00 0.  1.
         13    1    1    0    0    0 -0.48910916732E+00 -0.15650234819E+02 -0.80857149982E+01  0.17622685061E+02  0.10566000000E+00 0. -1.
         22    1    1    0    0    0  0.12775499280E+02  0.57359257784E+02  0.20368460976E+02  0.62194630298E+02  0.00000000000E+00 0.  1.
</event>
<event>
 4    1  0.9856522E-003  0.9118800E+02  0.7818608E-02  0.1130116E+00
         25   -1    0    0    0    0  0.00000000000E+00  0.00000000000E+00  0.99999998245E-14  0.12500000000E+03  0.12500000000E+03 0.  0.
        -13    1    1    0    0    0  0.87756292548E+01  0.63736585920E+01  0.42310166203E+01  0.11642502237E+02  0.10566000000E+00 0.  1.
         13    1    1    0    0    0  0.38559482885E+02  0.29045667988E+02  0.16022564180E+02  0.50864705604E+02  0.10566000000E+00 0. -1.
         22    1    1    0    0    0 -0.47335112140E+02 -0.35419326580E+02 -0.20253580800E+02  0.62492792159E+02  0.00000000000E+00 0.  1.
</event>
<event>
 4    1  0.9856522E-003  0.9118800E+02  0.7818608E-02  0.1130116E+00
         25   -1    0    0    0    0  0.00000000000E+00  0.00000000000E+00  0.99999998245E-14  0.12500000000E+03  0.12500000000E+03 0.  0.
        -13    1    1    0    0    0  0.46385264382E-01  0.76116013910E-01  0.79407940341E+00  0.80602194440E+00  0.10566000000E+00 0. -1.
         13    1    1    0    0    0 -0.33619240340E+01  0.52315842453E+01  0.61385742403E+02  0.61700020594E+02  0.10566000000E+00 0. -1.
         22    1    1    0    0    0  0.33155387696E+01 -0.53077002593E+01 -0.62179821806E+02  0.62493957462E+02  0.00000000000E+00 0. -1.
</event>
<event>
 4    1  0.9856522E-003  0.9118800E+02  0.7818608E-02  0.1130116E+00
         25   -1    0    0    0    0  0.00000000000E+00  0.00000000000E+00  0.99999998245E-14  0.12500000000E+03  0.12500000000E+03 0.  0.
        -13    1    1    0    0    0 -0.13141938264E+02 -0.31887198758E+02 -0.30629058568E+02  0.46126504081E+02  0.10566000000E+00 0. -1.
         13    1    1    0    0    0 -0.18345442841E+02 -0.65460172697E+01 -0.17694403513E+01  0.19558826609E+02  0.10566000000E+00 0.  1.
         22    1    1    0    0    0  0.31487381105E+02  0.38433216027E+02  0.32398498920E+02  0.59314669310E+02  0.00000000000E+00 0.  1.
</event>
<event>
 4    1  0.9856522E-003  0.9118800E+02  0.7818608E-02  0.1130116E+00
         25   -1    0    0    0    0  0.00000000000E+00  0.00000000000E+00  0.99999998245E-14  0.12500000000E+03  0.12500000000E+03 0.  0.
        -13    1    1    0    0    0  0.48955377635E+02 -0.14911627088E+02  0.61336955724E+01  0.51542400091E+02  0.10566000000E+00 0.  1.
         13    1    1    0    0    0  0.69666743008E+01 -0.97815260676E+01  0.96454627921E-01  0.12009715673E+02  0.10566000000E+00 0. -1.
         22    1    1    0    0    0 -0.55922051935E+02  0.24693153156E+02 -0.62301502003E+01  0.61447884235E+02  0.00000000000E+00 0.  1.
</event>
<event>
 4    1  0.9856522E-003  0.9118800E+02  0.7818608E-02  0.1130116E+00
         25   -1    0    0    0    0  0.00000000000E+00  0.00000000000E+00  0.99999998245E-14  0.12500000000E+03  0.12500000000E+03 0.  0.
        -13    1    1    0    0    0 -0.30348862961E+02  0.26252356253E+02 -0.45670228765E+01  0.40386984956E+02  0.10566000000E+00 0.  1.
         13    1    1    0    0    0 -0.21143336950E+02  0.74797803806E+01 -0.28600473699E+01  0.22609264626E+02  0.10566000000E+00 0. -1.
         22    1    1    0    0    0  0.51492199911E+02 -0.33732136633E+02  0.74270702464E+01  0.62003750418E+02  0.00000000000E+00 0.  1.
</event>
<event>
 4    1  0.9856522E-003  0.9118800E+02  0.7818608E-02  0.1130116E+00
         25   -1    0    0    0    0  0.00000000000E+00  0.00000000000E+00  0.99999998245E-14  0.12500000000E+03  0.12500000000E+03 0.  0.
        -13    1    1    0    0    0 -0.37205900660E+02 -0.80161648512E+01  0.33542430616E+02  0.50731092621E+02  0.10566000000E+00 0.  1.
         13    1    1    0    0    0 -0.93522866315E+01 -0.18401642539E+01  0.69390768351E+01  0.11790395289E+02  0.10566000000E+00 0. -1.
         22    1    1    0    0    0  0.46558187292E+02  0.98563291050E+01 -0.40481507451E+02  0.62478512089E+02  0.00000000000E+00 0.  1.
</event>
<event>
 4    1  0.9856522E-003  0.9118800E+02  0.7818608E-02  0.1130116E+00
         25   -1    0    0    0    0  0.00000000000E+00  0.00000000000E+00  0.99999998245E-14  0.12500000000E+03  0.12500000000E+03 0.  0.
        -13    1    1    0    0    0 -0.62256985565E-01  0.67138458325E+01 -0.34607623067E+01  0.75543127798E+01  0.10566000000E+00 0.  1.
         13    1    1    0    0    0  0.78729923860E+00  0.48197951015E+02 -0.26374342794E+02  0.54947970336E+02  0.10566000000E+00 0. -1.
         22    1    1    0    0    0 -0.72504225303E+00 -0.54911796848E+02  0.29835105101E+02  0.62497716884E+02  0.00000000000E+00 0. -1.
</event>
<event>
 4    1  0.9856522E-003  0.9118800E+02  0.7818608E-02  0.1130116E+00
         25   -1    0    0    0    0  0.00000000000E+00  0.00000000000E+00  0.99999998245E-14  0.12500000000E+03  0.12500000000E+03 0.  0.
        -13    1    1    0    0    0  0.99334978886E+00  0.53582197838E+00 -0.90688095197E+00  0.14517045471E+01  0.10566000000E+00 0.  1.
         13    1    1    0    0    0  0.35312371764E+02 -0.19913071199E+02 -0.45888659148E+02  0.61231317204E+02  0.10566000000E+00 0. -1.
         22    1    1    0    0    0 -0.36305721553E+02  0.19377249220E+02  0.46795540100E+02  0.62316978249E+02  0.00000000000E+00 0. -1.
</event>
<event>
 4    1  0.9856522E-003  0.9118800E+02  0.7818608E-02  0.1130116E+00
         25   -1    0    0    0    0  0.00000000000E+00  0.00000000000E+00  0.99999998245E-14  0.12500000000E+03  0.12500000000E+03 0.  0.
        -13    1    1    0    0    0  0.43423484868E+02 -0.41613417414E+02 -0.16442402566E+02  0.62350936746E+02  0.10566000000E+00 0.  1.
         13    1    1    0    0    0  0.14801769001E-01 -0.66384508601E-01 -0.15790195183E+00  0.20179954742E+00  0.10566000000E+00 0. -1.
         22    1    1    0    0    0 -0.43438286637E+02  0.41679801923E+02  0.16600304518E+02  0.62447263706E+02  0.00000000000E+00 0.  1.
</event>
<event>
 4    1  0.9856522E-003  0.9118800E+02  0.7818608E-02  0.1130116E+00
         25   -1    0    0    0    0  0.00000000000E+00  0.00000000000E+00  0.99999998245E-14  0.12500000000E+03  0.12500000000E+03 0.  0.
        -13    1    1    0    0    0 -0.29745281142E+02  0.51227880668E+02  0.13797708365E+02  0.60823230991E+02  0.10566000000E+00 0. -1.
         13    1    1    0    0    0 -0.10553187401E+01  0.12375697477E+01  0.45313042135E+00  0.16916760144E+01  0.10566000000E+00 0.  1.
         22    1    1    0    0    0  0.30800599882E+02 -0.52465450416E+02 -0.14250838787E+02  0.62485092995E+02  0.00000000000E+00 0. -1.
</event>
<event>
 4    1  0.9856522E-003  0.9118800E+02  0.7818608E-02  0.1130116E+00
         25   -1    0    0    0    0  0.00000000000E+00  0.00000000000E+00  0.99999998245E-14  0.12500000000E+03  0.12500000000E+03 0.  0.
        -13    1    1    0    0    0  0.40062623771E+02  0.25371161206E+02  0.37310039577E+02  0.60338709479E+02  0.10566000000E+00 0. -1.
         13    1    1    0    0    0  0.11347218323E+01  0.15723359526E+01  0.10922929060E+01  0.22280264389E+01  0.10566000000E+00 0.  1.
         22    1    1    0    0    0 -0.41197345603E+02 -0.26943497158E+02 -0.38402332483E+02  0.62433264082E+02  0.00000000000E+00 0. -1.
</event>
<event>
 4    1  0.9856522E-003  0.9118800E+02  0.7818608E-02  0.1130116E+00
         25   -1    0    0    0    0  0.00000000000E+00  0.00000000000E+00  0.99999998245E-14  0.12500000000E+03  0.12500000000E+03 0.  0.
        -13    1    1    0    0    0 -0.62425316158E+01  0.11927407658E+02  0.41469889864E+02  0.43600403482E+02  0.10566000000E+00 0.  1.
         13    1    1    0    0    0 -0.31426469844E+01  0.53213970504E+01  0.17862728229E+02  0.18901897272E+02  0.10566000000E+00 0.  1.
         22    1    1    0    0    0  0.93851786002E+01 -0.17248804708E+02 -0.59332618094E+02  0.62497699246E+02  0.00000000000E+00 0.  1.
</event>
<event>
 4    1  0.9856522E-003  0.9118800E+02  0.7818608E-02  0.1130116E+00
         25   -1    0    0    0    0  0.00000000000E+00  0.00000000000E+00  0.99999998245E-14  0.12500000000E+03  0.12500000000E+03 0.  0.
        -13    1    1    0    0    0  0.26504727716E+01  0.58587353243E+01 -0.66430588379E+01  0.92461440760E+01  0.10566000000E+00 0.  1.
         13    1    1    0    0    0  0.14646050244E+02  0.34426730672E+02 -0.37899416052E+02  0.53254891546E+02  0.10566000000E+00 0. -1.
         22    1    1    0    0    0 -0.17296523015E+02 -0.40285465996E+02  0.44542474890E+02  0.62498964378E+02  0.00000000000E+00 0. -1.
</event>
<event>
 4    1  0.9856522E-003  0.9118800E+02  0.7818608E-02  0.1130116E+00
         25   -1    0    0    0    0  0.00000000000E+00  0.00000000000E+00  0.99999998245E-14  0.12500000000E+03  0.12500000000E+03 0.  0.
        -13    1    1    0    0    0  0.40643024388E+00 -0.88775701629E+00 -0.86212679907E+00  0.13067994170E+01  0.10566000000E+00 0.  1.
         13    1    1    0    0    0 -0.14116240301E+02 -0.64263429865E+01 -0.59435263634E+02  0.61425791421E+02  0.10566000000E+00 0. -1.
         22    1    1    0    0    0  0.13709810057E+02  0.73141000028E+01  0.60297390433E+02  0.62267409162E+02  0.00000000000E+00 0. -1.
</event>
<event>
 4    1  0.9856522E-003  0.9118800E+02  0.7818608E-02  0.1130116E+00
         25   -1    0    0    0    0  0.00000000000E+00  0.00000000000E+00  0.99999998245E-14  0.12500000000E+03  0.12500000000E+03 0.  0.
        -13    1    1    0    0    0 -0.14069588347E+02  0.10659317095E+02 -0.19605733569E+02  0.26381249213E+02  0.10566000000E+00 0.  1.
         13    1    1    0    0    0 -0.12800639394E+02  0.17019168304E+02 -0.29367984312E+02  0.36276688455E+02  0.10566000000E+00 0. -1.
         22    1    1    0    0    0  0.26870227742E+02 -0.27678485398E+02  0.48973717881E+02  0.62342062333E+02  0.00000000000E+00 0. -1.
</event>
<event>
 4    1  0.9856522E-003  0.9118800E+02  0.7818608E-02  0.1130116E+00
         25   -1    0    0    0    0  0.00000000000E+00  0.00000000000E+00  0.99999998245E-14  0.12500000000E+03  0.12500000000E+03 0.  0.
        -13    1    1    0    0    0  0.34357190583E+02 -0.18943392406E+02 -0.15366469310E+02  0.42135593074E+02  0.10566000000E+00 0. -1.
         13    1    1    0    0    0  0.14957274345E+02  0.72644977006E+01 -0.16154041413E+02  0.23183123186E+02  0.10566000000E+00 0.  1.
         22    1    1    0    0    0 -0.49314464927E+02  0.11678894706E+02  0.31520510723E+02  0.59681283740E+02  0.00000000000E+00 0. -1.
</event>
<event>
 4    1  0.9856522E-003  0.9118800E+02  0.7818608E-02  0.1130116E+00
         25   -1    0    0    0    0  0.00000000000E+00  0.00000000000E+00  0.99999998245E-14  0.12500000000E+03  0.12500000000E+03 0.  0.
        -13    1    1    0    0    0  0.22068730188E+02  0.27793799194E+02  0.59789236070E+01  0.35990037751E+02  0.10566000000E+00 0. -1.
         13    1    1    0    0    0  0.48928977618E+01  0.23742344330E+02  0.13406536725E+02  0.27701728354E+02  0.10566000000E+00 0.  1.
         22    1    1    0    0    0 -0.26961627950E+02 -0.51536143524E+02 -0.19385460332E+02  0.61308233895E+02  0.00000000000E+00 0.  1.
</event>
<event>
 4    1  0.9856522E-003  0.9118800E+02  0.7818608E-02  0.1130116E+00
         25   -1    0    0    0    0  0.00000000000E+00  0.00000000000E+00  0.99999998245E-14  0.12500000000E+03  0.12500000000E+03 0.  0.
        -13    1    1    0    0    0  0.45039684709E+01  0.36174970212E+01 -0.26932102078E+02  0.27544896134E+02  0.10566000000E+00 0.  1.
         13    1    1    0    0    0  0.56923503456E+01  0.44170447018E+01 -0.34204598780E+02  0.34955384107E+02  0.10566000000E+00 0. -1.
         22    1    1    0    0    0 -0.10196318816E+02 -0.80345417230E+01  0.61136700858E+02  0.62499719758E+02  0.00000000000E+00 0.  1.
</event>
<event>
 4    1  0.9856522E-003  0.9118800E+02  0.7818608E-02  0.1130116E+00
         25   -1    0    0    0    0  0.00000000000E+00  0.00000000000E+00  0.99999998245E-14  0.12500000000E+03  0.12500000000E+03 0.  0.
        -13    1    1    0    0    0  0.46541635010E+02  0.18028005644E+02 -0.16169983349E+02  0.52465343823E+02  0.10566000000E+00 0.  1.
         13    1    1    0    0    0 -0.46928077583E+01  0.16034148250E+02  0.49079103910E+01  0.17413072768E+02  0.10566000000E+00 0. -1.
         22    1    1    0    0    0 -0.41848827252E+02 -0.34062153894E+02  0.11262072958E+02  0.55121583410E+02  0.00000000000E+00 0.  1.
</event>
<event>
 4    1  0.9856522E-003  0.9118800E+02  0.7818608E-02  0.1130116E+00
         25   -1    0    0    0    0  0.00000000000E+00  0.00000000000E+00  0.99999998245E-14  0.12500000000E+03  0.12500000000E+03 0.  0.
        -13    1    1    0    0    0 -0.11209994174E+02  0.18635688059E+02  0.21789625671E+02  0.30785577625E+02  0.10566000000E+00 0. -1.
         13    1    1    0    0    0 -0.14863025523E+02  0.13034146001E+02  0.25076026464E+02  0.31931438378E+02  0.10566000000E+00 0.  1.
         22    1    1    0    0    0  0.26073019697E+02 -0.31669834059E+02 -0.46865652135E+02  0.62282983996E+02  0.00000000000E+00 0.  1.
</event>
<event>
 4    1  0.9856522E-003  0.9118800E+02  0.7818608E-02  0.1130116E+00
         25   -1    0    0    0    0  0.00000000000E+00  0.00000000000E+00  0.99999998245E-14  0.12500000000E+03  0.12500000000E+03 0.  0.
        -13    1    1    0    0    0  0.15471247631E+02 -0.19227698577E+02  0.20292319087E+02  0.31950794572E+02  0.10566000000E+00 0.  1.
         13    1    1    0    0    0 -0.15848887343E+02 -0.46708715830E+01  0.31743597568E+02  0.35786469817E+02  0.10566000000E+00 0. -1.
         22    1    1    0    0    0  0.37763971194E+00  0.23898570160E+02 -0.52035916655E+02  0.57262735611E+02  0.00000000000E+00 0.  1.
</event>
<event>
 4    1  0.9856522E-003  0.9118800E+02  0.7818608E-02  0.1130116E+00
         25   -1    0    0    0    0  0.00000000000E+00  0.00000000000E+00  0.99999998245E-14  0.12500000000E+03  0.12500000000E+03 0.  0.
        -13    1    1    0    0    0  0.96767757163E+01 -0.19407499305E+02  0.12364910878E+02  0.24963837898E+02  0.10566000000E+00 0. -1.
         13    1    1    0    0    0 -0.65854482706E+00 -0.27406282230E+02  0.26799607531E+02  0.38337554888E+02  0.10566000000E+00 0.  1.
         22    1    1    0    0    0 -0.90182308892E+01  0.46813781535E+02 -0.39164518409E+02  0.61698607214E+02  0.00000000000E+00 0.  1.
</event>
<event>
 4    1  0.9856522E-003  0.9118800E+02  0.7818608E-02  0.1130116E+00
         25   -1    0    0    0    0  0.00000000000E+00  0.00000000000E+00  0.99999998245E-14  0.12500000000E+03  0.12500000000E+03 0.  0.
        -13    1    1    0    0    0 -0.10194564654E+02 -0.35304634647E+02 -0.34701946106E+02  0.50542878862E+02  0.10566000000E+00 0. -1.
         13    1    1    0    0    0 -0.29440454385E+01 -0.88045830458E+01 -0.75596727206E+01  0.11972798413E+02  0.10566000000E+00 0.  1.
         22    1    1    0    0    0  0.13138610093E+02  0.44109217693E+02  0.42261618826E+02  0.62484322726E+02  0.00000000000E+00 0. -1.
</event>
<event>
 4    1  0.9856522E-003  0.9118800E+02  0.7818608E-02  0.1130116E+00
         25   -1    0    0    0    0  0.00000000000E+00  0.00000000000E+00  0.99999998245E-14  0.12500000000E+03  0.12500000000E+03 0.  0.
        -13    1    1    0    0    0  0.28028617367E+02  0.11206106231E+02  0.20696411464E+02  0.36599628685E+02  0.10566000000E+00 0.  1.
         13    1    1    0    0    0  0.19805892215E+02  0.81011436321E+01  0.14592304861E+02  0.25900741684E+02  0.10566000000E+00 0. -1.
         22    1    1    0    0    0 -0.47834509582E+02 -0.19307249863E+02 -0.35288716325E+02  0.62499629631E+02  0.00000000000E+00 0. -1.
</event>
<event>
 4    1  0.9856522E-003  0.9118800E+02  0.7818608E-02  0.1130116E+00
         25   -1    0    0    0    0  0.00000000000E+00  0.00000000000E+00  0.99999998245E-14  0.12500000000E+03  0.12500000000E+03 0.  0.
        -13    1    1    0    0    0  0.46295782973E+02 -0.97678820609E+01  0.28425976093E+02  0.55197448509E+02  0.10566000000E+00 0. -1.
         13    1    1    0    0    0  0.70348626885E+01  0.56871933283E+01 -0.93651801964E+01  0.13021183708E+02  0.10566000000E+00 0.  1.
         22    1    1    0    0    0 -0.53330645661E+02  0.40806887326E+01 -0.19060795896E+02  0.56781367784E+02  0.00000000000E+00 0. -1.
</event>
<event>
 4    1  0.9856522E-003  0.9118800E+02  0.7818608E-02  0.1130116E+00
         25   -1    0    0    0    0  0.00000000000E+00  0.00000000000E+00  0.99999998245E-14  0.12500000000E+03  0.12500000000E+03 0.  0.
        -13    1    1    0    0    0 -0.19627696590E+01 -0.13665608604E+01 -0.34637266365E+00  0.24189029284E+01  0.10566000000E+00 0.  1.
         13    1    1    0    0    0 -0.56187892056E+02 -0.21329739906E+02 -0.17046292650E+01  0.60124487051E+02  0.10566000000E+00 0. -1.
         22    1    1    0    0    0  0.58150661715E+02  0.22696300766E+02  0.20510019286E+01  0.62456610021E+02  0.00000000000E+00 0. -1.
</event>
<event>
 4    1  0.9856522E-003  0.9118800E+02  0.7818608E-02  0.1130116E+00
         25   -1    0    0    0    0  0.00000000000E+00  0.00000000000E+00  0.99999998245E-14  0.12500000000E+03  0.12500000000E+03 0.  0.
        -13    1    1    0    0    0 -0.76372634096E+01  0.59970828890E+01 -0.48283298809E+01  0.10845124667E+02  0.10566000000E+00 0. -1.
         13    1    1    0    0    0 -0.37100400050E+02  0.23156094066E+02 -0.27568096983E+02  0.51697732171E+02  0.10566000000E+00 0.  1.
         22    1    1    0    0    0  0.44737663460E+02 -0.29153176955E+02  0.32396426864E+02  0.62457143162E+02  0.00000000000E+00 0.  1.
</event>
<event>
 4    1  0.9856522E-003  0.9118800E+02  0.7818608E-02  0.1130116E+00
         25   -1    0    0    0    0  0.00000000000E+00  0.00000000000E+00  0.99999998245E-14  0.12500000000E+03  0.12500000000E+03 0.  0.
        -13    1    1    0    0    0  0.21974908408E+00  0.49004656009E+01  0.58558676790E+01  0.76397122377E+01  0.10566000000E+00 0. -1.
         13    1    1    0    0    0 -0.50370777149E-01  0.35593049693E+02  0.41749197600E+02  0.54862322115E+02  0.10566000000E+00 0. -1.
         22    1    1    0    0    0 -0.16937830693E+00 -0.40493515293E+02 -0.47605065279E+02  0.62497965647E+02  0.00000000000E+00 0. -1.
</event>
<event>
 4    1  0.9856522E-003  0.9118800E+02  0.7818608E-02  0.1130116E+00
         25   -1    0    0    0    0  0.00000000000E+00  0.00000000000E+00  0.99999998245E-14  0.12500000000E+03  0.12500000000E+03 0.  0.
        -13    1    1    0    0    0 -0.17074901674E+00 -0.44051461464E+00  0.40216671338E+01  0.40507010409E+01  0.10566000000E+00 0.  1.
         13    1    1    0    0    0 -0.16662520549E+02 -0.25372994421E+02  0.50152363401E+02  0.58623366977E+02  0.10566000000E+00 0. -1.
         22    1    1    0    0    0  0.16833269566E+02  0.25813509036E+02 -0.54174030535E+02  0.62325931982E+02  0.00000000000E+00 0. -1.
</event>
<event>
 4    1  0.9856522E-003  0.9118800E+02  0.7818608E-02  0.1130116E+00
         25   -1    0    0    0    0  0.00000000000E+00  0.00000000000E+00  0.99999998245E-14  0.12500000000E+03  0.12500000000E+03 0.  0.
        -13    1    1    0    0    0  0.43737692382E+02 -0.14472285265E+02 -0.81772971581E+00  0.46077246246E+02  0.10566000000E+00 0. -1.
         13    1    1    0    0    0  0.15741365223E+02 -0.46544243239E+01  0.96709132365E+00  0.16443864343E+02  0.10566000000E+00 0.  1.
         22    1    1    0    0    0 -0.59479057604E+02  0.19126709589E+02 -0.14936160784E+00  0.62478889411E+02  0.00000000000E+00 0. -1.
</event>
<event>
 4    1  0.9856522E-003  0.9118800E+02  0.7818608E-02  0.1130116E+00
         25   -1    0    0    0    0  0.00000000000E+00  0.00000000000E+00  0.99999998245E-14  0.12500000000E+03  0.12500000000E+03 0.  0.
        -13    1    1    0    0    0  0.89779743965E+01  0.72023990273E+01  0.37300533846E+01  0.12099712323E+02  0.10566000000E+00 0.  1.
         13    1    1    0    0    0  0.37631972673E+02  0.32590024747E+02  0.82313692980E+01  0.50458316310E+02  0.10566000000E+00 0. -1.
         22    1    1    0    0    0 -0.46609947069E+02 -0.39792423775E+02 -0.11961422683E+02  0.62441971367E+02  0.00000000000E+00 0.  1.
</event>
<event>
 4    1  0.9856522E-003  0.9118800E+02  0.7818608E-02  0.1130116E+00
         25   -1    0    0    0    0  0.00000000000E+00  0.00000000000E+00  0.99999998245E-14  0.12500000000E+03  0.12500000000E+03 0.  0.
        -13    1    1    0    0    0 -0.10326679928E+02  0.30462775139E+02 -0.46882751062E+01  0.32505569907E+02  0.10566000000E+00 0.  1.
         13    1    1    0    0    0 -0.10148441903E+02  0.27828066188E+02 -0.47368278408E+01  0.29997347263E+02  0.10566000000E+00 0. -1.
         22    1    1    0    0    0  0.20475121831E+02 -0.58290841327E+02  0.94251029470E+01  0.62497082829E+02  0.00000000000E+00 0.  1.
</event>
<event>
 4    1  0.9856522E-003  0.9118800E+02  0.7818608E-02  0.1130116E+00
         25   -1    0    0    0    0  0.00000000000E+00  0.00000000000E+00  0.99999998245E-14  0.12500000000E+03  0.12500000000E+03 0.  0.
        -13    1    1    0    0    0 -0.18608344296E+02  0.56574957941E+02 -0.16769221241E+02  0.61872564910E+02  0.10566000000E+00 0.  1.
         13    1    1    0    0    0 -0.16255560406E+01 -0.20311278106E+01  0.79741956670E-01  0.26048868382E+01  0.10566000000E+00 0. -1.
         22    1    1    0    0    0  0.20233900337E+02 -0.54543830130E+02  0.16689479284E+02  0.60522548252E+02  0.00000000000E+00 0.  1.
</event>
<event>
 4    1  0.9856522E-003  0.9118800E+02  0.7818608E-02  0.1130116E+00
         25   -1    0    0    0    0  0.00000000000E+00  0.00000000000E+00  0.99999998245E-14  0.12500000000E+03  0.12500000000E+03 0.  0.
        -13    1    1    0    0    0  0.56176743351E+02 -0.14677338450E+02 -0.41827600896E+01  0.58213034653E+02  0.10566000000E+00 0. -1.
         13    1    1    0    0    0  0.40392628343E+01 -0.13867657581E+01 -0.43562705292E+00  0.42941470023E+01  0.10566000000E+00 0.  1.
         22    1    1    0    0    0 -0.60216006185E+02  0.16064104208E+02  0.46183871425E+01  0.62492818345E+02  0.00000000000E+00 0. -1.
</event>
<event>
 4    1  0.9856522E-003  0.9118800E+02  0.7818608E-02  0.1130116E+00
         25   -1    0    0    0    0  0.00000000000E+00  0.00000000000E+00  0.99999998245E-14  0.12500000000E+03  0.12500000000E+03 0.  0.
        -13    1    1    0    0    0  0.35732587331E+01 -0.13733183331E+01 -0.62235519156E+01  0.73073896639E+01  0.10566000000E+00 0.  1.
         13    1    1    0    0    0  0.27329308368E+02 -0.11323946325E+02 -0.46596217414E+02  0.55193672623E+02  0.10566000000E+00 0.  1.
         22    1    1    0    0    0 -0.30902567101E+02  0.12697264658E+02  0.52819769330E+02  0.62498937713E+02  0.00000000000E+00 0.  1.
</event>
<event>
 4    1  0.9856522E-003  0.9118800E+02  0.7818608E-02  0.1130116E+00
         25   -1    0    0    0    0  0.00000000000E+00  0.00000000000E+00  0.99999998245E-14  0.12500000000E+03  0.12500000000E+03 0.  0.
        -13    1    1    0    0    0 -0.36284162559E+02  0.42101843242E+02  0.17334471474E+02  0.58220277587E+02  0.10566000000E+00 0.  1.
         13    1    1    0    0    0 -0.15484153383E+01  0.40021146711E+01  0.95754825566E+00  0.43980193949E+01  0.10566000000E+00 0. -1.
         22    1    1    0    0    0  0.37832577898E+02 -0.46103957913E+02 -0.18292019729E+02  0.62381703018E+02  0.00000000000E+00 0.  1.
</event>
<event>
 4    1  0.9856522E-003  0.9118800E+02  0.7818608E-02  0.1130116E+00
         25   -1    0    0    0    0  0.00000000000E+00  0.00000000000E+00  0.99999998245E-14  0.12500000000E+03  0.12500000000E+03 0.  0.
        -13    1    1    0    0    0 -0.29682873095E+02  0.72955786088E+01  0.28016539594E+02  0.41463671778E+02  0.10566000000E+00 0. -1.
         13    1    1    0    0    0  0.49776286730E+01  0.27555627536E+02  0.63457837546E+01  0.28711836089E+02  0.10566000000E+00 0.  1.
         22    1    1    0    0    0  0.24705244422E+02 -0.34851206145E+02 -0.34362323349E+02  0.54824492133E+02  0.00000000000E+00 0.  1.
</event>
<event>
 4    1  0.9856522E-003  0.9118800E+02  0.7818608E-02  0.1130116E+00
         25   -1    0    0    0    0  0.00000000000E+00  0.00000000000E+00  0.99999998245E-14  0.12500000000E+03  0.12500000000E+03 0.  0.
        -13    1    1    0    0    0 -0.16361631023E+02  0.29217744343E+02 -0.15626353608E+01  0.33523611791E+02  0.10566000000E+00 0. -1.
         13    1    1    0    0    0 -0.14292398073E+02  0.25158319145E+02 -0.15611068963E+01  0.28976919844E+02  0.10566000000E+00 0. -1.
         22    1    1    0    0    0  0.30654029096E+02 -0.54376063488E+02  0.31237422571E+01  0.62499468365E+02  0.00000000000E+00 0. -1.
</event>
<event>
 4    1  0.9856522E-003  0.9118800E+02  0.7818608E-02  0.1130116E+00
         25   -1    0    0    0    0  0.00000000000E+00  0.00000000000E+00  0.99999998245E-14  0.12500000000E+03  0.12500000000E+03 0.  0.
        -13    1    1    0    0    0  0.37393987260E+01  0.40513077660E+02 -0.21061966627E+02  0.45813864349E+02  0.10566000000E+00 0. -1.
         13    1    1    0    0    0  0.13346788462E+01  0.15796638740E+02 -0.54191798563E+01  0.16753920063E+02  0.10566000000E+00 0.  1.
         22    1    1    0    0    0 -0.50740775722E+01 -0.56309716400E+02  0.26481146483E+02  0.62432215589E+02  0.00000000000E+00 0. -1.
</event>
<event>
 4    1  0.9856522E-003  0.9118800E+02  0.7818608E-02  0.1130116E+00
         25   -1    0    0    0    0  0.00000000000E+00  0.00000000000E+00  0.99999998245E-14  0.12500000000E+03  0.12500000000E+03 0.  0.
        -13    1    1    0    0    0 -0.44379002861E+01 -0.11847885156E+02 -0.18738016390E+01  0.12790216505E+02  0.10566000000E+00 0.  1.
         13    1    1    0    0    0 -0.17629653708E+02 -0.45798424502E+02 -0.79272993424E+01  0.49710699207E+02  0.10566000000E+00 0. -1.
         22    1    1    0    0    0  0.22067553994E+02  0.57646309658E+02  0.98011009814E+01  0.62499084289E+02  0.00000000000E+00 0. -1.
</event>
<event>
 4    1  0.9856522E-003  0.9118800E+02  0.7818608E-02  0.1130116E+00
         25   -1    0    0    0    0  0.00000000000E+00  0.00000000000E+00  0.99999998245E-14  0.12500000000E+03  0.12500000000E+03 0.  0.
        -13    1    1    0    0    0  0.16641032458E+02  0.17357467697E+02  0.16625462360E+02  0.29233932490E+02  0.10566000000E+00 0. -1.
         13    1    1    0    0    0  0.18645455173E+02  0.19819306045E+02  0.19136511996E+02  0.33266727313E+02  0.10566000000E+00 0.  1.
         22    1    1    0    0    0 -0.35286487631E+02 -0.37176773742E+02 -0.35761974355E+02  0.62499340197E+02  0.00000000000E+00 0. -1.
</event>
<event>
 4    1  0.9856522E-003  0.9118800E+02  0.7818608E-02  0.1130116E+00
         25   -1    0    0    0    0  0.00000000000E+00  0.00000000000E+00  0.99999998245E-14  0.12500000000E+03  0.12500000000E+03 0.  0.
        -13    1    1    0    0    0 -0.36026613787E+02  0.14628824569E+02  0.12785849960E+02  0.40931754573E+02  0.10566000000E+00 0.  1.
         13    1    1    0    0    0 -0.18875543876E+02  0.76673108516E+01  0.70820948917E+01  0.21569447012E+02  0.10566000000E+00 0. -1.
         22    1    1    0    0    0  0.54902157662E+02 -0.22296135421E+02 -0.19867944852E+02  0.62498798415E+02  0.00000000000E+00 0. -1.
</event>
<event>
 4    1  0.9856522E-003  0.9118800E+02  0.7818608E-02  0.1130116E+00
         25   -1    0    0    0    0  0.00000000000E+00  0.00000000000E+00  0.99999998245E-14  0.12500000000E+03  0.12500000000E+03 0.  0.
        -13    1    1    0    0    0 -0.41480228974E+01 -0.47593408787E+02  0.39925521108E+01  0.47940486964E+02  0.10566000000E+00 0.  1.
         13    1    1    0    0    0 -0.80752037626E+00 -0.14503538250E+02  0.10309459787E+01  0.14562922941E+02  0.10566000000E+00 0. -1.
         22    1    1    0    0    0  0.49555432736E+01  0.62096947037E+02 -0.50234980896E+01  0.62496590095E+02  0.00000000000E+00 0.  1.
</event>
<event>
 4    1  0.9856522E-003  0.9118800E+02  0.7818608E-02  0.1130116E+00
         25   -1    0    0    0    0  0.00000000000E+00  0.00000000000E+00  0.99999998245E-14  0.12500000000E+03  0.12500000000E+03 0.  0.
        -13    1    1    0    0    0 -0.81027924901E+01  0.51663070500E+00 -0.24430970042E+02  0.25745011451E+02  0.10566000000E+00 0. -1.
         13    1    1    0    0    0 -0.11846410466E+02  0.53285178612E+00 -0.34789889782E+02  0.36755529748E+02  0.10566000000E+00 0. -1.
         22    1    1    0    0    0  0.19949202957E+02 -0.10494824911E+01  0.59220859824E+02  0.62499458801E+02  0.00000000000E+00 0. -1.
</event>
<event>
 4    1  0.9856522E-003  0.9118800E+02  0.7818608E-02  0.1130116E+00
         25   -1    0    0    0    0  0.00000000000E+00  0.00000000000E+00  0.99999998245E-14  0.12500000000E+03  0.12500000000E+03 0.  0.
        -13    1    1    0    0    0  0.15778712778E+02  0.48239336649E+02  0.12773508036E+02  0.52337128779E+02  0.10566000000E+00 0. -1.
         13    1    1    0    0    0 -0.16784529278E+00  0.98533324486E+01  0.33098053849E+01  0.10396264142E+02  0.10566000000E+00 0.  1.
         22    1    1    0    0    0 -0.15610867485E+02 -0.58092669098E+02 -0.16083313421E+02  0.62266607079E+02  0.00000000000E+00 0. -1.
</event>
<event>
 4    1  0.9856522E-003  0.9118800E+02  0.7818608E-02  0.1130116E+00
         25   -1    0    0    0    0  0.00000000000E+00  0.00000000000E+00  0.99999998245E-14  0.12500000000E+03  0.12500000000E+03 0.  0.
        -13    1    1    0    0    0  0.19629948530E+02 -0.55280726093E+02  0.20092944872E+02  0.62008315203E+02  0.10566000000E+00 0. -1.
         13    1    1    0    0    0  0.10319864526E+00 -0.38765670909E+00  0.29541753045E+00  0.50927717147E+00  0.10566000000E+00 0. -1.
         22    1    1    0    0    0 -0.19733147175E+02  0.55668382802E+02 -0.20388362402E+02  0.62482407626E+02  0.00000000000E+00 0. -1.
</event>
<event>
 4    1  0.9856522E-003  0.9118800E+02  0.7818608E-02  0.1130116E+00
         25   -1    0    0    0    0  0.00000000000E+00  0.00000000000E+00  0.99999998245E-14  0.12500000000E+03  0.12500000000E+03 0.  0.
        -13    1    1    0    0    0  0.49746904084E+01  0.21088206365E+02  0.35642771899E+02  0.41711848976E+02  0.10566000000E+00 0.  1.
         13    1    1    0    0    0 -0.49741341678E+01  0.16299697502E+02  0.13357495848E+02  0.21653083124E+02  0.10566000000E+00 0. -1.
         22    1    1    0    0    0 -0.55624057665E-03 -0.37387903867E+02 -0.49000267747E+02  0.61635067901E+02  0.00000000000E+00 0.  1.
</event>
<event>
 4    1  0.9856522E-003  0.9118800E+02  0.7818608E-02  0.1130116E+00
         25   -1    0    0    0    0  0.00000000000E+00  0.00000000000E+00  0.99999998245E-14  0.12500000000E+03  0.12500000000E+03 0.  0.
        -13    1    1    0    0    0  0.29863898068E+00  0.20432725003E+02 -0.19632893789E+02  0.28338086012E+02  0.10566000000E+00 0. -1.
         13    1    1    0    0    0  0.37543660655E+00  0.24480727829E+02 -0.23824385151E+02  0.34162252261E+02  0.10566000000E+00 0.  1.
         22    1    1    0    0    0 -0.67407558723E+00 -0.44913452831E+02  0.43457278940E+02  0.62499661727E+02  0.00000000000E+00 0.  1.
</event>
<event>
 4    1  0.9856522E-003  0.9118800E+02  0.7818608E-02  0.1130116E+00
         25   -1    0    0    0    0  0.00000000000E+00  0.00000000000E+00  0.99999998245E-14  0.12500000000E+03  0.12500000000E+03 0.  0.
        -13    1    1    0    0    0 -0.39054298957E+01 -0.58979601732E+01 -0.48733942566E+01  0.85906607715E+01  0.10566000000E+00 0.  1.
         13    1    1    0    0    0  0.17553480551E+02 -0.46823404315E+02 -0.23216677617E+02  0.55132396599E+02  0.10566000000E+00 0. -1.
         22    1    1    0    0    0 -0.13648050656E+02  0.52721364488E+02  0.28090071874E+02  0.61276942630E+02  0.00000000000E+00 0. -1.
</event>
<event>
 4    1  0.9856522E-003  0.9118800E+02  0.7818608E-02  0.1130116E+00
         25   -1    0    0    0    0  0.00000000000E+00  0.00000000000E+00  0.99999998245E-14  0.12500000000E+03  0.12500000000E+03 0.  0.
        -13    1    1    0    0    0 -0.17174382163E+02  0.21106265479E+02  0.45443809356E+02  0.52967771503E+02  0.10566000000E+00 0. -1.
         13    1    1    0    0    0 -0.48400604155E+01 -0.75784508774E+01  0.84024566368E+01  0.12307377629E+02  0.10566000000E+00 0.  1.
         22    1    1    0    0    0  0.22014442578E+02 -0.13527814601E+02 -0.53846265993E+02  0.59724850869E+02  0.00000000000E+00 0. -1.
</event>
<event>
 4    1  0.9856522E-003  0.9118800E+02  0.7818608E-02  0.1130116E+00
         25   -1    0    0    0    0  0.00000000000E+00  0.00000000000E+00  0.99999998245E-14  0.12500000000E+03  0.12500000000E+03 0.  0.
        -13    1    1    0    0    0  0.16714673465E+02 -0.35209305415E+02 -0.10355724920E+02  0.40327753464E+02  0.10566000000E+00 0.  1.
         13    1    1    0    0    0  0.96355740788E+01 -0.19423800047E+02 -0.46772365110E+01  0.22181433712E+02  0.10566000000E+00 0. -1.
         22    1    1    0    0    0 -0.26350247544E+02  0.54633105461E+02  0.15032961431E+02  0.62490812824E+02  0.00000000000E+00 0.  1.
</event>
<event>
 4    1  0.9856522E-003  0.9118800E+02  0.7818608E-02  0.1130116E+00
         25   -1    0    0    0    0  0.00000000000E+00  0.00000000000E+00  0.99999998245E-14  0.12500000000E+03  0.12500000000E+03 0.  0.
        -13    1    1    0    0    0 -0.31329173986E+02 -0.43909380083E+01  0.21882792379E+02  0.38466417114E+02  0.10566000000E+00 0. -1.
         13    1    1    0    0    0 -0.19531482237E+02 -0.28144757614E+01  0.13719101009E+02  0.24033829672E+02  0.10566000000E+00 0. -1.
         22    1    1    0    0    0  0.50860656222E+02  0.72054137697E+01 -0.35601893388E+02  0.62499753214E+02  0.00000000000E+00 0. -1.
</event>
<event>
 4    1  0.9856522E-003  0.9118800E+02  0.7818608E-02  0.1130116E+00
         25   -1    0    0    0    0  0.00000000000E+00  0.00000000000E+00  0.99999998245E-14  0.12500000000E+03  0.12500000000E+03 0.  0.
        -13    1    1    0    0    0  0.32448172667E+01 -0.10087136673E+02 -0.72549031230E+01  0.12842271946E+02  0.10566000000E+00 0. -1.
         13    1    1    0    0    0  0.11489886153E+02 -0.39411006745E+02 -0.27942692072E+02  0.49659340921E+02  0.10566000000E+00 0. -1.
         22    1    1    0    0    0 -0.14734703420E+02  0.49498143418E+02  0.35197595195E+02  0.62498387133E+02  0.00000000000E+00 0. -1.
</event>
<event>
 4    1  0.9856522E-003  0.9118800E+02  0.7818608E-02  0.1130116E+00
         25   -1    0    0    0    0  0.00000000000E+00  0.00000000000E+00  0.99999998245E-14  0.12500000000E+03  0.12500000000E+03 0.  0.
        -13    1    1    0    0    0 -0.11709339666E+02 -0.34307601957E+02 -0.18760319110E+02  0.40817654570E+02  0.10566000000E+00 0. -1.
         13    1    1    0    0    0 -0.29468664189E+02  0.30564585811E+01  0.12329094324E+02  0.32089902446E+02  0.10566000000E+00 0.  1.
         22    1    1    0    0    0  0.41178003855E+02  0.31251143375E+02  0.64312247865E+01  0.52092442984E+02  0.00000000000E+00 0. -1.
</event>
<event>
 4    1  0.9856522E-003  0.9118800E+02  0.7818608E-02  0.1130116E+00
         25   -1    0    0    0    0  0.00000000000E+00  0.00000000000E+00  0.99999998245E-14  0.12500000000E+03  0.12500000000E+03 0.  0.
        -13    1    1    0    0    0  0.14157997148E+02 -0.65301229695E+01 -0.35434441027E+01  0.15989326108E+02  0.10566000000E+00 0.  1.
         13    1    1    0    0    0  0.44917230858E+02  0.12569347063E+02 -0.10892962806E+02  0.47897953153E+02  0.10566000000E+00 0. -1.
         22    1    1    0    0    0 -0.59075228006E+02 -0.60392240936E+01  0.14436406909E+02  0.61112720739E+02  0.00000000000E+00 0. -1.
</event>
<event>
 4    1  0.9856522E-003  0.9118800E+02  0.7818608E-02  0.1130116E+00
         25   -1    0    0    0    0  0.00000000000E+00  0.00000000000E+00  0.99999998245E-14  0.12500000000E+03  0.12500000000E+03 0.  0.
        -13    1    1    0    0    0 -0.29413476758E+02 -0.45116282864E+01  0.15131255666E+02  0.33383730571E+02  0.10566000000E+00 0. -1.
         13    1    1    0    0    0 -0.25517117004E+02 -0.43210182581E+01  0.13342128143E+02  0.29117314546E+02  0.10566000000E+00 0.  1.
         22    1    1    0    0    0  0.54930593762E+02  0.88326465445E+01 -0.28473383808E+02  0.62498954883E+02  0.00000000000E+00 0.  1.
</event>
<event>
 4    1  0.9856522E-003  0.9118800E+02  0.7818608E-02  0.1130116E+00
         25   -1    0    0    0    0  0.00000000000E+00  0.00000000000E+00  0.99999998245E-14  0.12500000000E+03  0.12500000000E+03 0.  0.
        -13    1    1    0    0    0  0.79222425347E+01 -0.12267588893E+02  0.34141051530E+02  0.37133249624E+02  0.10566000000E+00 0. -1.
         13    1    1    0    0    0  0.39498930191E+01 -0.10123474198E+02  0.22955657268E+02  0.25398026485E+02  0.10566000000E+00 0.  1.
         22    1    1    0    0    0 -0.11872135554E+02  0.22391063091E+02 -0.57096708798E+02  0.62468723891E+02  0.00000000000E+00 0. -1.
</event>
<event>
 4    1  0.9856522E-003  0.9118800E+02  0.7818608E-02  0.1130116E+00
         25   -1    0    0    0    0  0.00000000000E+00  0.00000000000E+00  0.99999998245E-14  0.12500000000E+03  0.12500000000E+03 0.  0.
        -13    1    1    0    0    0 -0.13110354956E+02  0.93860754887E+01 -0.75432120747E+01  0.17801433442E+02  0.10566000000E+00 0.  1.
         13    1    1    0    0    0 -0.31523795525E+02  0.27997633037E+02 -0.15020532186E+02  0.44757621599E+02  0.10566000000E+00 0. -1.
         22    1    1    0    0    0  0.44634150481E+02 -0.37383708526E+02  0.22563744261E+02  0.62440944959E+02  0.00000000000E+00 0. -1.
</event>
<event>
 4    1  0.9856522E-003  0.9118800E+02  0.7818608E-02  0.1130116E+00
         25   -1    0    0    0    0  0.00000000000E+00  0.00000000000E+00  0.99999998245E-14  0.12500000000E+03  0.12500000000E+03 0.  0.
        -13    1    1    0    0    0  0.39207584751E+01 -0.54943182432E+01  0.12025094591E+00  0.67517038074E+01  0.10566000000E+00 0. -1.
         13    1    1    0    0    0  0.20512123219E+02 -0.97445429970E+01  0.53091665386E+02  0.57744605070E+02  0.10566000000E+00 0.  1.
         22    1    1    0    0    0 -0.24432881694E+02  0.15238861240E+02 -0.53211916332E+02  0.60503691123E+02  0.00000000000E+00 0.  1.
</event>
<event>
 4    1  0.9856522E-003  0.9118800E+02  0.7818608E-02  0.1130116E+00
         25   -1    0    0    0    0  0.00000000000E+00  0.00000000000E+00  0.99999998245E-14  0.12500000000E+03  0.12500000000E+03 0.  0.
        -13    1    1    0    0    0 -0.50422120739E+01 -0.65097845796E+01 -0.58557407649E+01  0.10104556488E+02  0.10566000000E+00 0.  1.
         13    1    1    0    0    0 -0.29147120610E+02 -0.31321238869E+02 -0.30264490840E+02  0.52407301151E+02  0.10566000000E+00 0. -1.
         22    1    1    0    0    0  0.34189332684E+02  0.37831023449E+02  0.36120231605E+02  0.62488142361E+02  0.00000000000E+00 0. -1.
</event>
<event>
 4    1  0.9856522E-003  0.9118800E+02  0.7818608E-02  0.1130116E+00
         25   -1    0    0    0    0  0.00000000000E+00  0.00000000000E+00  0.99999998245E-14  0.12500000000E+03  0.12500000000E+03 0.  0.
        -13    1    1    0    0    0  0.24706017681E+02 -0.25967155884E+02 -0.46120961701E+02  0.58410913078E+02  0.10566000000E+00 0. -1.
         13    1    1    0    0    0  0.19248882915E+01 -0.12872498981E+01 -0.33934529163E+01  0.41096099530E+01  0.10566000000E+00 0.  1.
         22    1    1    0    0    0 -0.26630905972E+02  0.27254405782E+02  0.49514414617E+02  0.62479476969E+02  0.00000000000E+00 0. -1.
</event>
<event>
 4    1  0.9856522E-003  0.9118800E+02  0.7818608E-02  0.1130116E+00
         25   -1    0    0    0    0  0.00000000000E+00  0.00000000000E+00  0.99999998245E-14  0.12500000000E+03  0.12500000000E+03 0.  0.
        -13    1    1    0    0    0  0.27595599384E+02  0.38764030562E+02 -0.12684833303E+02  0.49245135097E+02  0.10566000000E+00 0. -1.
         13    1    1    0    0    0  0.82965210118E+01  0.10033843218E+02 -0.26066807832E+01  0.13278411779E+02  0.10566000000E+00 0.  1.
         22    1    1    0    0    0 -0.35892120396E+02 -0.48797873780E+02  0.15291514086E+02  0.62476453124E+02  0.00000000000E+00 0. -1.
</event>
<event>
 4    1  0.9856522E-003  0.9118800E+02  0.7818608E-02  0.1130116E+00
         25   -1    0    0    0    0  0.00000000000E+00  0.00000000000E+00  0.99999998245E-14  0.12500000000E+03  0.12500000000E+03 0.  0.
        -13    1    1    0    0    0 -0.56310465622E+01  0.15312685508E+02  0.67133862113E+01  0.17642781564E+02  0.10566000000E+00 0.  1.
         13    1    1    0    0    0 -0.14957733200E+02  0.39008810143E+02  0.16336829693E+02  0.44858936899E+02  0.10566000000E+00 0. -1.
         22    1    1    0    0    0  0.20588779762E+02 -0.54321495651E+02 -0.23050215904E+02  0.62498281537E+02  0.00000000000E+00 0. -1.
</event>
<event>
 4    1  0.9856522E-003  0.9118800E+02  0.7818608E-02  0.1130116E+00
         25   -1    0    0    0    0  0.00000000000E+00  0.00000000000E+00  0.99999998245E-14  0.12500000000E+03  0.12500000000E+03 0.  0.
        -13    1    1    0    0    0  0.30210080157E+01 -0.23240041409E+01 -0.84656441633E+01  0.92847067705E+01  0.10566000000E+00 0.  1.
         13    1    1    0    0    0  0.14635716709E+02 -0.35251668746E+02 -0.37684969141E+02  0.53638161939E+02  0.10566000000E+00 0. -1.
         22    1    1    0    0    0 -0.17656724725E+02  0.37575672887E+02  0.46150613304E+02  0.62077131291E+02  0.00000000000E+00 0. -1.
</event>
<event>
 4    1  0.9856522E-003  0.9118800E+02  0.7818608E-02  0.1130116E+00
         25   -1    0    0    0    0  0.00000000000E+00  0.00000000000E+00  0.99999998245E-14  0.12500000000E+03  0.12500000000E+03 0.  0.
        -13    1    1    0    0    0 -0.38706273861E+02  0.32846231290E+02  0.10286812238E+02  0.51796527067E+02  0.10566000000E+00 0.  1.
         13    1    1    0    0    0 -0.79317169585E+01  0.66988390341E+01  0.26231628168E+01  0.10708815318E+02  0.10566000000E+00 0. -1.
         22    1    1    0    0    0  0.46637990819E+02 -0.39545070324E+02 -0.12909975055E+02  0.62494657615E+02  0.00000000000E+00 0.  1.
</event>
<event>
 4    1  0.9856522E-003  0.9118800E+02  0.7818608E-02  0.1130116E+00
         25   -1    0    0    0    0  0.00000000000E+00  0.00000000000E+00  0.99999998245E-14  0.12500000000E+03  0.12500000000E+03 0.  0.
        -13    1    1    0    0    0  0.24784773076E+02  0.60870875923E+01 -0.95827247408E+01  0.27261280037E+02  0.10566000000E+00 0.  1.
         13    1    1    0    0    0  0.26261285712E+02  0.25152250784E+02 -0.33281735955E+01  0.36515459058E+02  0.10566000000E+00 0. -1.
         22    1    1    0    0    0 -0.51046058788E+02 -0.31239338376E+02  0.12910898336E+02  0.61223260904E+02  0.00000000000E+00 0.  1.
</event>
<event>
 4    1  0.9856522E-003  0.9118800E+02  0.7818608E-02  0.1130116E+00
         25   -1    0    0    0    0  0.00000000000E+00  0.00000000000E+00  0.99999998245E-14  0.12500000000E+03  0.12500000000E+03 0.  0.
        -13    1    1    0    0    0  0.11148657476E+02  0.13749500748E+01 -0.18698602656E+02  0.21813572760E+02  0.10566000000E+00 0. -1.
         13    1    1    0    0    0  0.33345096738E+02  0.62232612970E+01 -0.23603071799E+02  0.41324818452E+02  0.10566000000E+00 0.  1.
         22    1    1    0    0    0 -0.44493754215E+02 -0.75982113719E+01  0.42301674455E+02  0.61861608788E+02  0.00000000000E+00 0. -1.
</event>
<event>
 4    1  0.9856522E-003  0.9118800E+02  0.7818608E-02  0.1130116E+00
         25   -1    0    0    0    0  0.00000000000E+00  0.00000000000E+00  0.99999998245E-14  0.12500000000E+03  0.12500000000E+03 0.  0.
        -13    1    1    0    0    0 -0.32211875599E+02 -0.30362036598E+02 -0.74505056555E+01  0.44888521858E+02  0.10566000000E+00 0. -1.
         13    1    1    0    0    0 -0.41516121700E+01 -0.13938539216E+02 -0.12750741123E+02  0.19341957562E+02  0.10566000000E+00 0.  1.
         22    1    1    0    0    0  0.36363487769E+02  0.44300575814E+02  0.20201246779E+02  0.60769520581E+02  0.00000000000E+00 0. -1.
</event>
<event>
 4    1  0.9856522E-003  0.9118800E+02  0.7818608E-02  0.1130116E+00
         25   -1    0    0    0    0  0.00000000000E+00  0.00000000000E+00  0.99999998245E-14  0.12500000000E+03  0.12500000000E+03 0.  0.
        -13    1    1    0    0    0  0.16416210535E+02  0.31809791709E+01  0.31422491436E+02  0.35594869418E+02  0.10566000000E+00 0. -1.
         13    1    1    0    0    0  0.12146848142E+02  0.24032916469E+01  0.23886977578E+02  0.26905772473E+02  0.10566000000E+00 0. -1.
         22    1    1    0    0    0 -0.28563058676E+02 -0.55842708178E+01 -0.55309469014E+02  0.62499358109E+02  0.00000000000E+00 0. -1.
</event>
<event>
 4    1  0.9856522E-003  0.9118800E+02  0.7818608E-02  0.1130116E+00
         25   -1    0    0    0    0  0.00000000000E+00  0.00000000000E+00  0.99999998245E-14  0.12500000000E+03  0.12500000000E+03 0.  0.
        -13    1    1    0    0    0  0.39062026543E+01 -0.75888007777E+01  0.62005800656E+01  0.10550197799E+02  0.10566000000E+00 0. -1.
         13    1    1    0    0    0  0.13504545590E+02 -0.34905839989E+02  0.36109900491E+02  0.52006985054E+02  0.10566000000E+00 0.  1.
         22    1    1    0    0    0 -0.17410748245E+02  0.42494640766E+02 -0.42310480556E+02  0.62442817147E+02  0.00000000000E+00 0.  1.
</event>
<event>
 4    1  0.9856522E-003  0.9118800E+02  0.7818608E-02  0.1130116E+00
         25   -1    0    0    0    0  0.00000000000E+00  0.00000000000E+00  0.99999998245E-14  0.12500000000E+03  0.12500000000E+03 0.  0.
        -13    1    1    0    0    0 -0.42921508205E+01 -0.76485871238E+01  0.50166727406E+02  0.50927744367E+02  0.10566000000E+00 0.  1.
         13    1    1    0    0    0 -0.91237747520E+00 -0.35764355788E+01  0.11032910783E+02  0.11634414832E+02  0.10566000000E+00 0. -1.
         22    1    1    0    0    0  0.52045282957E+01  0.11225022703E+02 -0.61199638189E+02  0.62437840801E+02  0.00000000000E+00 0.  1.
</event>
<event>
 4    1  0.9856522E-003  0.9118800E+02  0.7818608E-02  0.1130116E+00
         25   -1    0    0    0    0  0.00000000000E+00  0.00000000000E+00  0.99999998245E-14  0.12500000000E+03  0.12500000000E+03 0.  0.
        -13    1    1    0    0    0  0.21835127254E+02  0.57467122631E+01 -0.42419610206E+02  0.48054468867E+02  0.10566000000E+00 0. -1.
         13    1    1    0    0    0  0.69268673726E+01  0.20652149615E+01 -0.12511576600E+02  0.14449820673E+02  0.10566000000E+00 0.  1.
         22    1    1    0    0    0 -0.28761994627E+02 -0.78119272247E+01  0.54931186806E+02  0.62495710459E+02  0.00000000000E+00 0. -1.
</event>
<event>
 4    1  0.9856522E-003  0.9118800E+02  0.7818608E-02  0.1130116E+00
         25   -1    0    0    0    0  0.00000000000E+00  0.00000000000E+00  0.99999998245E-14  0.12500000000E+03  0.12500000000E+03 0.  0.
        -13    1    1    0    0    0 -0.28825306069E+01  0.37540748507E+02 -0.48517661974E+01  0.37962713028E+02  0.10566000000E+00 0.  1.
         13    1    1    0    0    0 -0.27163671636E+01  0.24304736816E+02 -0.21237732703E+01  0.24548329051E+02  0.10566000000E+00 0.  1.
         22    1    1    0    0    0  0.55988977705E+01 -0.61845485323E+02  0.69755394677E+01  0.62488957921E+02  0.00000000000E+00 0.  1.
</event>
<event>
 4    1  0.9856522E-003  0.9118800E+02  0.7818608E-02  0.1130116E+00
         25   -1    0    0    0    0  0.00000000000E+00  0.00000000000E+00  0.99999998245E-14  0.12500000000E+03  0.12500000000E+03 0.  0.
        -13    1    1    0    0    0  0.90083596020E+01  0.13380068430E+02 -0.34226487375E+02  0.37837023878E+02  0.10566000000E+00 0. -1.
         13    1    1    0    0    0 -0.11384922985E+02  0.28460815234E+02 -0.34003968654E+01  0.30841665617E+02  0.10566000000E+00 0.  1.
         22    1    1    0    0    0  0.23765633834E+01 -0.41840883664E+02  0.37626884240E+02  0.56321310504E+02  0.00000000000E+00 0. -1.
</event>
<event>
 4    1  0.9856522E-003  0.9118800E+02  0.7818608E-02  0.1130116E+00
         25   -1    0    0    0    0  0.00000000000E+00  0.00000000000E+00  0.99999998245E-14  0.12500000000E+03  0.12500000000E+03 0.  0.
        -13    1    1    0    0    0  0.72246309092E+01  0.60508117867E+02  0.12686376963E+02  0.62244541480E+02  0.10566000000E+00 0.  1.
         13    1    1    0    0    0 -0.15850792276E+01 -0.15230400481E+01 -0.30703748422E+00  0.22220628249E+01  0.10566000000E+00 0. -1.
         22    1    1    0    0    0 -0.56395516816E+01 -0.58985077819E+02 -0.12379339479E+02  0.60533395695E+02  0.00000000000E+00 0.  1.
</event>
<event>
 4    1  0.9856522E-003  0.9118800E+02  0.7818608E-02  0.1130116E+00
         25   -1    0    0    0    0  0.00000000000E+00  0.00000000000E+00  0.99999998245E-14  0.12500000000E+03  0.12500000000E+03 0.  0.
        -13    1    1    0    0    0 -0.13787610597E+00 -0.42766987090E+01  0.13196718988E+02  0.13873489747E+02  0.10566000000E+00 0.  1.
         13    1    1    0    0    0 -0.24750506872E+01 -0.17829546117E+02  0.45188433889E+02  0.48641795937E+02  0.10566000000E+00 0. -1.
         22    1    1    0    0    0  0.26129267932E+01  0.22106244826E+02 -0.58385152877E+02  0.62484714316E+02  0.00000000000E+00 0. -1.
</event>
<event>
 4    1  0.9856522E-003  0.9118800E+02  0.7818608E-02  0.1130116E+00
         25   -1    0    0    0    0  0.00000000000E+00  0.00000000000E+00  0.99999998245E-14  0.12500000000E+03  0.12500000000E+03 0.  0.
        -13    1    1    0    0    0  0.33214829654E+02 -0.88077219840E+01  0.24764857008E+02  0.42356937828E+02  0.10566000000E+00 0.  1.
         13    1    1    0    0    0  0.15466820199E+02 -0.38652520329E+01  0.12318634273E+02  0.20147521304E+02  0.10566000000E+00 0. -1.
         22    1    1    0    0    0 -0.48681649853E+02  0.12672974017E+02 -0.37083491281E+02  0.62495540868E+02  0.00000000000E+00 0. -1.
</event>
<event>
 4    1  0.9856522E-003  0.9118800E+02  0.7818608E-02  0.1130116E+00
         25   -1    0    0    0    0  0.00000000000E+00  0.00000000000E+00  0.99999998245E-14  0.12500000000E+03  0.12500000000E+03 0.  0.
        -13    1    1    0    0    0 -0.11636959539E+02  0.32060692053E+02 -0.22518568428E+02  0.40870574871E+02  0.10566000000E+00 0. -1.
         13    1    1    0    0    0 -0.25904589272E+02  0.69844156625E+01  0.58863483092E+01  0.27467982597E+02  0.10566000000E+00 0.  1.
         22    1    1    0    0    0  0.37541548811E+02 -0.39045107715E+02  0.16632220119E+02  0.56661442531E+02  0.00000000000E+00 0.  1.
</event>
<event>
 4    1  0.9856522E-003  0.9118800E+02  0.7818608E-02  0.1130116E+00
         25   -1    0    0    0    0  0.00000000000E+00  0.00000000000E+00  0.99999998245E-14  0.12500000000E+03  0.12500000000E+03 0.  0.
        -13    1    1    0    0    0  0.30474831306E+02 -0.18812124775E+01  0.45388324902E+01  0.30868535241E+02  0.10566000000E+00 0.  1.
         13    1    1    0    0    0  0.31166150847E+02 -0.16071652926E+01  0.51701683856E+01  0.31633111514E+02  0.10566000000E+00 0. -1.
         22    1    1    0    0    0 -0.61640982153E+02  0.34883777701E+01 -0.97090008757E+01  0.62498353245E+02  0.00000000000E+00 0. -1.
</event>
<event>
 4    1  0.9856522E-003  0.9118800E+02  0.7818608E-02  0.1130116E+00
         25   -1    0    0    0    0  0.00000000000E+00  0.00000000000E+00  0.99999998245E-14  0.12500000000E+03  0.12500000000E+03 0.  0.
        -13    1    1    0    0    0 -0.19216344520E+01 -0.11482349831E+02 -0.12860222300E+02  0.17347435495E+02  0.10566000000E+00 0. -1.
         13    1    1    0    0    0 -0.46354972939E+01 -0.29972288351E+02 -0.33450811965E+02  0.45153005319E+02  0.10566000000E+00 0. -1.
         22    1    1    0    0    0  0.65571317459E+01  0.41454638183E+02  0.46311034266E+02  0.62499559185E+02  0.00000000000E+00 0. -1.
</event>
<event>
 4    1  0.9856522E-003  0.9118800E+02  0.7818608E-02  0.1130116E+00
         25   -1    0    0    0    0  0.00000000000E+00  0.00000000000E+00  0.99999998245E-14  0.12500000000E+03  0.12500000000E+03 0.  0.
        -13    1    1    0    0    0  0.18266979412E+02  0.43074783379E+02  0.24342966802E+02  0.52741925417E+02  0.10566000000E+00 0. -1.
         13    1    1    0    0    0 -0.10028497717E+02  0.69743652293E+01  0.55116549386E+01  0.13401568602E+02  0.10566000000E+00 0.  1.
         22    1    1    0    0    0 -0.82384816951E+01 -0.50049148608E+02 -0.29854621740E+02  0.58856505981E+02  0.00000000000E+00 0.  1.
</event>
<event>
 4    1  0.9856522E-003  0.9118800E+02  0.7818608E-02  0.1130116E+00
         25   -1    0    0    0    0  0.00000000000E+00  0.00000000000E+00  0.99999998245E-14  0.12500000000E+03  0.12500000000E+03 0.  0.
        -13    1    1    0    0    0  0.20282043393E+02  0.11720145805E+02  0.46650117410E+02  0.52201223360E+02  0.10566000000E+00 0.  1.
         13    1    1    0    0    0  0.76910098519E+01  0.15165321775E+02 -0.16088488609E+02  0.23409170144E+02  0.10566000000E+00 0. -1.
         22    1    1    0    0    0 -0.27973053245E+02 -0.26885467580E+02 -0.30561628801E+02  0.49389606496E+02  0.00000000000E+00 0.  1.
</event>
<event>
 4    1  0.9856522E-003  0.9118800E+02  0.7818608E-02  0.1130116E+00
         25   -1    0    0    0    0  0.00000000000E+00  0.00000000000E+00  0.99999998245E-14  0.12500000000E+03  0.12500000000E+03 0.  0.
        -13    1    1    0    0    0 -0.24757135899E+02 -0.15782385175E+02  0.26184071220E+02  0.39339753551E+02  0.10566000000E+00 0. -1.
         13    1    1    0    0    0 -0.14083782267E+02 -0.11609134504E+02  0.14332027398E+02  0.23206531414E+02  0.10566000000E+00 0.  1.
         22    1    1    0    0    0  0.38840918167E+02  0.27391519680E+02 -0.40516098619E+02  0.62453715035E+02  0.00000000000E+00 0. -1.
</event>
<event>
 4    1  0.9856522E-003  0.9118800E+02  0.7818608E-02  0.1130116E+00
         25   -1    0    0    0    0  0.00000000000E+00  0.00000000000E+00  0.99999998245E-14  0.12500000000E+03  0.12500000000E+03 0.  0.
        -13    1    1    0    0    0 -0.21994042675E+02 -0.44576575022E+01 -0.11553186035E+02  0.25240758610E+02  0.10566000000E+00 0. -1.
         13    1    1    0    0    0 -0.32505522170E+02 -0.62588969468E+01 -0.17102414534E+02  0.37259716980E+02  0.10566000000E+00 0.  1.
         22    1    1    0    0    0  0.54499564845E+02  0.10716554449E+02  0.28655600569E+02  0.62499524410E+02  0.00000000000E+00 0.  1.
</event>
<event>
 4    1  0.9856522E-003  0.9118800E+02  0.7818608E-02  0.1130116E+00
         25   -1    0    0    0    0  0.00000000000E+00  0.00000000000E+00  0.99999998245E-14  0.12500000000E+03  0.12500000000E+03 0.  0.
        -13    1    1    0    0    0 -0.26673563777E+02 -0.32800885653E+02 -0.21161898759E+02  0.47278052280E+02  0.10566000000E+00 0.  1.
         13    1    1    0    0    0 -0.87984546578E+01 -0.10289440187E+02 -0.69621471852E+01  0.15223929886E+02  0.10566000000E+00 0. -1.
         22    1    1    0    0    0  0.35472018435E+02  0.43090325840E+02  0.28124045944E+02  0.62498017834E+02  0.00000000000E+00 0.  1.
</event>
<event>
 4    1  0.9856522E-003  0.9118800E+02  0.7818608E-02  0.1130116E+00
         25   -1    0    0    0    0  0.00000000000E+00  0.00000000000E+00  0.99999998245E-14  0.12500000000E+03  0.12500000000E+03 0.  0.
        -13    1    1    0    0    0  0.14856604463E+02 -0.17438768019E+02 -0.33556313963E+01  0.23153849622E+02  0.10566000000E+00 0. -1.
         13    1    1    0    0    0 -0.39787006063E+01 -0.34542179665E+02 -0.23861746153E+02  0.42170918036E+02  0.10566000000E+00 0.  1.
         22    1    1    0    0    0 -0.10877903856E+02  0.51980947684E+02  0.27217377549E+02  0.59675232342E+02  0.00000000000E+00 0. -1.
</event>
<event>
 4    1  0.9856522E-003  0.9118800E+02  0.7818608E-02  0.1130116E+00
         25   -1    0    0    0    0  0.00000000000E+00  0.00000000000E+00  0.99999998245E-14  0.12500000000E+03  0.12500000000E+03 0.  0.
        -13    1    1    0    0    0  0.15983893661E+02  0.48608761423E+02 -0.93160795853E+01  0.52010547454E+02  0.10566000000E+00 0. -1.
         13    1    1    0    0    0  0.40271494724E+01  0.96762031678E+01 -0.91599361700E+00  0.10521266509E+02  0.10566000000E+00 0.  1.
         22    1    1    0    0    0 -0.20011043133E+02 -0.58284964591E+02  0.10232073202E+02  0.62468186036E+02  0.00000000000E+00 0. -1.
</event>
<event>
 4    1  0.9856522E-003  0.9118800E+02  0.7818608E-02  0.1130116E+00
         25   -1    0    0    0    0  0.00000000000E+00  0.00000000000E+00  0.99999998245E-14  0.12500000000E+03  0.12500000000E+03 0.  0.
        -13    1    1    0    0    0 -0.31607338660E+01  0.18104527929E+01  0.29172726551E+01  0.46679354823E+01  0.10566000000E+00 0.  1.
         13    1    1    0    0    0 -0.41313379458E+02 -0.29521300606E+02  0.29490356259E+02  0.58719628644E+02  0.10566000000E+00 0. -1.
         22    1    1    0    0    0  0.44474113324E+02  0.27710847813E+02 -0.32407628915E+02  0.61612435874E+02  0.00000000000E+00 0. -1.
</event>
<event>
 4    1  0.9856522E-003  0.9118800E+02  0.7818608E-02  0.1130116E+00
         25   -1    0    0    0    0  0.00000000000E+00  0.00000000000E+00  0.99999998245E-14  0.12500000000E+03  0.12500000000E+03 0.  0.
        -13    1    1    0    0    0 -0.11786546662E+01  0.66971225479E+00 -0.49742709289E-01  0.13606541439E+01  0.10566000000E+00 0.  1.
         13    1    1    0    0    0 -0.54557894471E+02  0.27590485083E+02 -0.76521911738E+00  0.61142419323E+02  0.10566000000E+00 0.  1.
         22    1    1    0    0    0  0.55736549138E+02 -0.28260197338E+02  0.81496182667E+00  0.62496926534E+02  0.00000000000E+00 0.  1.
</event>
<event>
 4    1  0.9856522E-003  0.9118800E+02  0.7818608E-02  0.1130116E+00
         25   -1    0    0    0    0  0.00000000000E+00  0.00000000000E+00  0.99999998245E-14  0.12500000000E+03  0.12500000000E+03 0.  0.
        -13    1    1    0    0    0 -0.31414341417E+01 -0.38479169455E+01 -0.11866104825E+02  0.12864318133E+02  0.10566000000E+00 0. -1.
         13    1    1    0    0    0 -0.11185191031E+02 -0.23134862163E+02 -0.42563129435E+02  0.49718824373E+02  0.10566000000E+00 0.  1.
         22    1    1    0    0    0  0.14326625173E+02  0.26982779109E+02  0.54429234260E+02  0.62416857494E+02  0.00000000000E+00 0.  1.
</event>
<event>
 4    1  0.9856522E-003  0.9118800E+02  0.7818608E-02  0.1130116E+00
         25   -1    0    0    0    0  0.00000000000E+00  0.00000000000E+00  0.99999998245E-14  0.12500000000E+03  0.12500000000E+03 0.  0.
        -13    1    1    0    0    0  0.36581399182E+02  0.29348611440E+02  0.85380655817E+01  0.47670215937E+02  0.10566000000E+00 0.  1.
         13    1    1    0    0    0  0.11356635150E+02  0.91876925989E+01  0.25567622806E+01  0.14830207504E+02  0.10566000000E+00 0.  1.
         22    1    1    0    0    0 -0.47938034332E+02 -0.38536304039E+02 -0.11094827862E+02  0.62499576558E+02  0.00000000000E+00 0.  1.
</event>
<event>
 4    1  0.9856522E-003  0.9118800E+02  0.7818608E-02  0.1130116E+00
         25   -1    0    0    0    0  0.00000000000E+00  0.00000000000E+00  0.99999998245E-14  0.12500000000E+03  0.12500000000E+03 0.  0.
        -13    1    1    0    0    0  0.48834490758E+02  0.16458080657E+02  0.92303279975E+01  0.52353471953E+02  0.10566000000E+00 0. -1.
         13    1    1    0    0    0  0.94901534675E+01  0.31251415707E+01  0.17664206322E+01  0.10146966471E+02  0.10566000000E+00 0. -1.
         22    1    1    0    0    0 -0.58324644226E+02 -0.19583222228E+02 -0.10996748630E+02  0.62499561577E+02  0.00000000000E+00 0. -1.
</event>
<event>
 4    1  0.9856522E-003  0.9118800E+02  0.7818608E-02  0.1130116E+00
         25   -1    0    0    0    0  0.00000000000E+00  0.00000000000E+00  0.99999998245E-14  0.12500000000E+03  0.12500000000E+03 0.  0.
        -13    1    1    0    0    0  0.20334066059E+02  0.40611825850E+01 -0.36781433713E+02  0.42223837776E+02  0.10566000000E+00 0. -1.
         13    1    1    0    0    0  0.94285711772E+01  0.13913333802E+01 -0.17901087576E+02  0.20280381245E+02  0.10566000000E+00 0.  1.
         22    1    1    0    0    0 -0.29762637237E+02 -0.54525159652E+01  0.54682521289E+02  0.62495780979E+02  0.00000000000E+00 0. -1.
</event>
<event>
 4    1  0.9856522E-003  0.9118800E+02  0.7818608E-02  0.1130116E+00
         25   -1    0    0    0    0  0.00000000000E+00  0.00000000000E+00  0.99999998245E-14  0.12500000000E+03  0.12500000000E+03 0.  0.
        -13    1    1    0    0    0  0.23323395519E+02  0.23192840078E+02  0.30818241854E+02  0.45073981457E+02  0.10566000000E+00 0.  1.
         13    1    1    0    0    0  0.89757273842E+01  0.88047244113E+01  0.12066241959E+02  0.17426767144E+02  0.10566000000E+00 0.  1.
         22    1    1    0    0    0 -0.32299122903E+02 -0.31997564489E+02 -0.42884483813E+02  0.62499251399E+02  0.00000000000E+00 0.  1.
</event>
<event>
 4    1  0.9856522E-003  0.9118800E+02  0.7818608E-02  0.1130116E+00
         25   -1    0    0    0    0  0.00000000000E+00  0.00000000000E+00  0.99999998245E-14  0.12500000000E+03  0.12500000000E+03 0.  0.
        -13    1    1    0    0    0  0.26598791069E+02  0.56649523869E-01  0.42508167386E+02  0.50144335214E+02  0.10566000000E+00 0.  1.
         13    1    1    0    0    0  0.70445957584E+01 -0.23433285211E+01  0.99981514079E+01  0.12453582359E+02  0.10566000000E+00 0. -1.
         22    1    1    0    0    0 -0.33643386827E+02  0.22866789972E+01 -0.52506318794E+02  0.62402082428E+02  0.00000000000E+00 0.  1.
</event>
<event>
 4    1  0.9856522E-003  0.9118800E+02  0.7818608E-02  0.1130116E+00
         25   -1    0    0    0    0  0.00000000000E+00  0.00000000000E+00  0.99999998245E-14  0.12500000000E+03  0.12500000000E+03 0.  0.
        -13    1    1    0    0    0 -0.17389649399E+02 -0.13514348200E+02  0.16985067976E+02  0.27812608862E+02  0.10566000000E+00 0. -1.
         13    1    1    0    0    0 -0.21773035370E+02 -0.23713350742E+02  0.13769838757E+02  0.35014392699E+02  0.10566000000E+00 0.  1.
         22    1    1    0    0    0  0.39162684768E+02  0.37227698942E+02 -0.30754906733E+02  0.62172998440E+02  0.00000000000E+00 0.  1.
</event>
<event>
 4    1  0.9856522E-003  0.9118800E+02  0.7818608E-02  0.1130116E+00
         25   -1    0    0    0    0  0.00000000000E+00  0.00000000000E+00  0.99999998245E-14  0.12500000000E+03  0.12500000000E+03 0.  0.
        -13    1    1    0    0    0  0.24771797552E+01 -0.11013066519E+01 -0.22747675880E+00  0.27225366099E+01  0.10566000000E+00 0. -1.
         13    1    1    0    0    0  0.54927067159E+02 -0.23369689064E+02 -0.32288626013E+01  0.59779275601E+02  0.10566000000E+00 0. -1.
         22    1    1    0    0    0 -0.57404246914E+02  0.24470995716E+02  0.34563393601E+01  0.62498187789E+02  0.00000000000E+00 0. -1.
</event>
<event>
 4    1  0.9856522E-003  0.9118800E+02  0.7818608E-02  0.1130116E+00
         25   -1    0    0    0    0  0.00000000000E+00  0.00000000000E+00  0.99999998245E-14  0.12500000000E+03  0.12500000000E+03 0.  0.
        -13    1    1    0    0    0 -0.10836397093E+01 -0.14993667742E+02 -0.22862823755E+02  0.27362460077E+02  0.10566000000E+00 0.  1.
         13    1    1    0    0    0 -0.35703454784E+01  0.15322816329E+00 -0.36294337138E+02  0.36470000248E+02  0.10566000000E+00 0. -1.
         22    1    1    0    0    0  0.46539851877E+01  0.14840439579E+02  0.59157160893E+02  0.61167539676E+02  0.00000000000E+00 0. -1.
</event>
<event>
 4    1  0.9856522E-003  0.9118800E+02  0.7818608E-02  0.1130116E+00
         25   -1    0    0    0    0  0.00000000000E+00  0.00000000000E+00  0.99999998245E-14  0.12500000000E+03  0.12500000000E+03 0.  0.
        -13    1    1    0    0    0  0.96594143393E+01  0.30786209625E+01 -0.56911777403E+00  0.10154666488E+02  0.10566000000E+00 0.  1.
         13    1    1    0    0    0  0.50049154283E+02  0.15153869920E+02 -0.23607549049E+01  0.52346365163E+02  0.10566000000E+00 0. -1.
         22    1    1    0    0    0 -0.59708568623E+02 -0.18232490883E+02  0.29298726789E+01  0.62498968349E+02  0.00000000000E+00 0. -1.
</event>
<event>
 4    1  0.9856522E-003  0.9118800E+02  0.7818608E-02  0.1130116E+00
         25   -1    0    0    0    0  0.00000000000E+00  0.00000000000E+00  0.99999998245E-14  0.12500000000E+03  0.12500000000E+03 0.  0.
        -13    1    1    0    0    0 -0.28292614722E+01  0.47152067417E+01  0.53841206823E+01  0.76966105951E+01  0.10566000000E+00 0. -1.
         13    1    1    0    0    0 -0.44586026466E+02  0.95151927775E+01  0.31632633628E+02  0.55489524452E+02  0.10566000000E+00 0.  1.
         22    1    1    0    0    0  0.47415287938E+02 -0.14230399519E+02 -0.37016754310E+02  0.61813864953E+02  0.00000000000E+00 0.  1.
</event>
<event>
 4    1  0.9856522E-003  0.9118800E+02  0.7818608E-02  0.1130116E+00
         25   -1    0    0    0    0  0.00000000000E+00  0.00000000000E+00  0.99999998245E-14  0.12500000000E+03  0.12500000000E+03 0.  0.
        -13    1    1    0    0    0 -0.15726792260E+02  0.80340025709E+01 -0.18168351788E+02  0.25337272206E+02  0.10566000000E+00 0. -1.
         13    1    1    0    0    0 -0.23834139440E+02  0.13779373267E+02 -0.24992322870E+02  0.37182854879E+02  0.10566000000E+00 0.  1.
         22    1    1    0    0    0  0.39560931701E+02 -0.21813375838E+02  0.43160674658E+02  0.62479872915E+02  0.00000000000E+00 0. -1.
</event>
<event>
 4    1  0.9856522E-003  0.9118800E+02  0.7818608E-02  0.1130116E+00
         25   -1    0    0    0    0  0.00000000000E+00  0.00000000000E+00  0.99999998245E-14  0.12500000000E+03  0.12500000000E+03 0.  0.
        -13    1    1    0    0    0 -0.16022448555E+01  0.12572782459E+02 -0.30337824151E+02  0.32879123857E+02  0.10566000000E+00 0. -1.
         13    1    1    0    0    0 -0.69582602044E+01  0.89243176375E+01 -0.27547853020E+02  0.29781809892E+02  0.10566000000E+00 0.  1.
         22    1    1    0    0    0  0.85605050599E+01 -0.21497100097E+02  0.57885677171E+02  0.62339066251E+02  0.00000000000E+00 0.  1.
</event>
<event>
 4    1  0.9856522E-003  0.9118800E+02  0.7818608E-02  0.1130116E+00
         25   -1    0    0    0    0  0.00000000000E+00  0.00000000000E+00  0.99999998245E-14  0.12500000000E+03  0.12500000000E+03 0.  0.
        -13    1    1    0    0    0 -0.96758937559E+00  0.29426292239E+01  0.31074596802E+01  0.43889367333E+01  0.10566000000E+00 0.  1.
         13    1    1    0    0    0 -0.13847297498E+02  0.39412559748E+02  0.40397164500E+02  0.58112301431E+02  0.10566000000E+00 0. -1.
         22    1    1    0    0    0  0.14814886873E+02 -0.42355188972E+02 -0.43504624180E+02  0.62498761836E+02  0.00000000000E+00 0. -1.
</event>
<event>
 4    1  0.9856522E-003  0.9118800E+02  0.7818608E-02  0.1130116E+00
         25   -1    0    0    0    0  0.00000000000E+00  0.00000000000E+00  0.99999998245E-14  0.12500000000E+03  0.12500000000E+03 0.  0.
        -13    1    1    0    0    0  0.60006723438E+01 -0.36349031760E+02  0.34787430487E+02  0.50669879242E+02  0.10566000000E+00 0. -1.
         13    1    1    0    0    0  0.11374286590E+01 -0.68622762732E+01  0.96770554371E+01  0.11918101593E+02  0.10566000000E+00 0.  1.
         22    1    1    0    0    0 -0.71381010028E+01  0.43211308033E+02 -0.44464485924E+02  0.62412019166E+02  0.00000000000E+00 0. -1.
</event>
<event>
 4    1  0.9856522E-003  0.9118800E+02  0.7818608E-02  0.1130116E+00
         25   -1    0    0    0    0  0.00000000000E+00  0.00000000000E+00  0.99999998245E-14  0.12500000000E+03  0.12500000000E+03 0.  0.
        -13    1    1    0    0    0 -0.19834329658E+01 -0.13394631600E+02 -0.12612054754E+02  0.18504735912E+02  0.10566000000E+00 0. -1.
         13    1    1    0    0    0 -0.63764613135E+01 -0.30202982289E+02 -0.31365612608E+02  0.44007865392E+02  0.10566000000E+00 0.  1.
         22    1    1    0    0    0  0.83598942793E+01  0.43597613889E+02  0.43977667362E+02  0.62487398696E+02  0.00000000000E+00 0.  1.
</event>
<event>
 4    1  0.9856522E-003  0.9118800E+02  0.7818608E-02  0.1130116E+00
         25   -1    0    0    0    0  0.00000000000E+00  0.00000000000E+00  0.99999998245E-14  0.12500000000E+03  0.12500000000E+03 0.  0.
        -13    1    1    0    0    0  0.39320184578E+02 -0.21203664328E+02 -0.39606568549E+02  0.59702292523E+02  0.10566000000E+00 0. -1.
         13    1    1    0    0    0  0.11202634331E+01 -0.27441584166E+01 -0.10574485819E+01  0.31487707306E+01  0.10566000000E+00 0.  1.
         22    1    1    0    0    0 -0.40440448011E+02  0.23947822745E+02  0.40664017131E+02  0.62148936747E+02  0.00000000000E+00 0. -1.
</event>
<event>
 4    1  0.9856522E-003  0.9118800E+02  0.7818608E-02  0.1130116E+00
         25   -1    0    0    0    0  0.00000000000E+00  0.00000000000E+00  0.99999998245E-14  0.12500000000E+03  0.12500000000E+03 0.  0.
        -13    1    1    0    0    0  0.17644940830E+02  0.37583446135E+02  0.22044284381E+01  0.41577999339E+02  0.10566000000E+00 0.  1.
         13    1    1    0    0    0 -0.90120868982E+01  0.18674899094E+02 -0.14358452896E+02  0.25221932917E+02  0.10566000000E+00 0. -1.
         22    1    1    0    0    0 -0.86328539318E+01 -0.56258345229E+02  0.12154024458E+02  0.58200067744E+02  0.00000000000E+00 0.  1.
</event>
<event>
 4    1  0.9856522E-003  0.9118800E+02  0.7818608E-02  0.1130116E+00
         25   -1    0    0    0    0  0.00000000000E+00  0.00000000000E+00  0.99999998245E-14  0.12500000000E+03  0.12500000000E+03 0.  0.
        -13    1    1    0    0    0  0.26961352370E+02 -0.36801854801E+02  0.14928970823E+02  0.48001837177E+02  0.10566000000E+00 0.  1.
         13    1    1    0    0    0  0.14964103769E+02 -0.32720933460E+01 -0.11018678745E+02  0.18869378416E+02  0.10566000000E+00 0. -1.
         22    1    1    0    0    0 -0.41925456139E+02  0.40073948147E+02 -0.39102920779E+01  0.58128784408E+02  0.00000000000E+00 0.  1.
</event>
<event>
 4    1  0.9856522E-003  0.9118800E+02  0.7818608E-02  0.1130116E+00
         25   -1    0    0    0    0  0.00000000000E+00  0.00000000000E+00  0.99999998245E-14  0.12500000000E+03  0.12500000000E+03 0.  0.
        -13    1    1    0    0    0 -0.28549613540E+02 -0.36036560984E+00  0.25833250441E+02  0.38504263258E+02  0.10566000000E+00 0.  1.
         13    1    1    0    0    0 -0.18182463091E+02 -0.97009741511E-01  0.15661826290E+02  0.23998236221E+02  0.10566000000E+00 0.  1.
         22    1    1    0    0    0  0.46732076631E+02  0.45737535135E+00 -0.41495076731E+02  0.62497500521E+02  0.00000000000E+00 0.  1.
</event>
<event>
 4    1  0.9856522E-003  0.9118800E+02  0.7818608E-02  0.1130116E+00
         25   -1    0    0    0    0  0.00000000000E+00  0.00000000000E+00  0.99999998245E-14  0.12500000000E+03  0.12500000000E+03 0.  0.
        -13    1    1    0    0    0 -0.43361260165E+02 -0.44204840427E+02  0.42463322268E+01  0.62066974323E+02  0.10566000000E+00 0. -1.
         13    1    1    0    0    0  0.12017478090E+02  0.75968118130E+01  0.19209177191E+01  0.14346860921E+02  0.10566000000E+00 0.  1.
         22    1    1    0    0    0  0.31343782075E+02  0.36608028614E+02 -0.61672499458E+01  0.48586164755E+02  0.00000000000E+00 0. -1.
</event>
<event>
 4    1  0.9856522E-003  0.9118800E+02  0.7818608E-02  0.1130116E+00
         25   -1    0    0    0    0  0.00000000000E+00  0.00000000000E+00  0.99999998245E-14  0.12500000000E+03  0.12500000000E+03 0.  0.
        -13    1    1    0    0    0 -0.32587940631E+00  0.29675678027E+01 -0.16188322184E+00  0.29916594499E+01  0.10566000000E+00 0.  1.
         13    1    1    0    0    0  0.26870322977E+02 -0.14504797682E+01  0.54907975110E+02  0.61147485992E+02  0.10566000000E+00 0. -1.
         22    1    1    0    0    0 -0.26544443570E+02 -0.15170880345E+01 -0.54746091888E+02  0.60860854558E+02  0.00000000000E+00 0. -1.
</event>
<event>
 4    1  0.9856522E-003  0.9118800E+02  0.7818608E-02  0.1130116E+00
         25   -1    0    0    0    0  0.00000000000E+00  0.00000000000E+00  0.99999998245E-14  0.12500000000E+03  0.12500000000E+03 0.  0.
        -13    1    1    0    0    0  0.20498543123E+02  0.26275772910E+02  0.52473717615E+02  0.62161955540E+02  0.10566000000E+00 0. -1.
         13    1    1    0    0    0 -0.12094926225E+01 -0.10594930248E+01 -0.12715921962E+00  0.16163945608E+01  0.10566000000E+00 0.  1.
         22    1    1    0    0    0 -0.19289050500E+02 -0.25216279886E+02 -0.52346558396E+02  0.61221649899E+02  0.00000000000E+00 0. -1.
</event>
<event>
 4    1  0.9856522E-003  0.9118800E+02  0.7818608E-02  0.1130116E+00
         25   -1    0    0    0    0  0.00000000000E+00  0.00000000000E+00  0.99999998245E-14  0.12500000000E+03  0.12500000000E+03 0.  0.
        -13    1    1    0    0    0  0.32190518143E+02  0.87217222231E+01  0.28907839776E+01  0.33476345273E+02  0.10566000000E+00 0. -1.
         13    1    1    0    0    0  0.20769627590E+02  0.14477762790E+02 -0.18824994876E+02  0.31549558503E+02  0.10566000000E+00 0.  1.
         22    1    1    0    0    0 -0.52960145732E+02 -0.23199485013E+02  0.15934210898E+02  0.59974096223E+02  0.00000000000E+00 0. -1.
</event>
<event>
 4    1  0.9856522E-003  0.9118800E+02  0.7818608E-02  0.1130116E+00
         25   -1    0    0    0    0  0.00000000000E+00  0.00000000000E+00  0.99999998245E-14  0.12500000000E+03  0.12500000000E+03 0.  0.
        -13    1    1    0    0    0 -0.32847143212E+01 -0.92503882589E+01  0.49305145674E+01  0.10985452610E+02  0.10566000000E+00 0.  1.
         13    1    1    0    0    0 -0.15779483784E+02 -0.36267772515E+02  0.33209050252E+02  0.51644899209E+02  0.10566000000E+00 0. -1.
         22    1    1    0    0    0  0.19064198105E+02  0.45518160774E+02 -0.38139564819E+02  0.62369648181E+02  0.00000000000E+00 0. -1.
</event>
<event>
 4    1  0.9856522E-003  0.9118800E+02  0.7818608E-02  0.1130116E+00
         25   -1    0    0    0    0  0.00000000000E+00  0.00000000000E+00  0.99999998245E-14  0.12500000000E+03  0.12500000000E+03 0.  0.
        -13    1    1    0    0    0 -0.33964555086E+01 -0.68206596100E+01 -0.17519978991E+00  0.76222809276E+01  0.10566000000E+00 0. -1.
         13    1    1    0    0    0 -0.33827068906E+02  0.35174685742E+02  0.34140327690E+02  0.59557554069E+02  0.10566000000E+00 0.  1.
         22    1    1    0    0    0  0.37223524414E+02 -0.28354026132E+02 -0.33965127900E+02  0.57820165004E+02  0.00000000000E+00 0.  1.
</event>
<event>
 4    1  0.9856522E-003  0.9118800E+02  0.7818608E-02  0.1130116E+00
         25   -1    0    0    0    0  0.00000000000E+00  0.00000000000E+00  0.99999998245E-14  0.12500000000E+03  0.12500000000E+03 0.  0.
        -13    1    1    0    0    0  0.26078242686E+02 -0.38984027351E+02  0.15425230824E+02  0.49373859887E+02  0.10566000000E+00 0. -1.
         13    1    1    0    0    0  0.12616704445E+02 -0.44811980780E+01  0.44850087595E+01  0.14120511140E+02  0.10566000000E+00 0.  1.
         22    1    1    0    0    0 -0.38694947131E+02  0.43465225429E+02 -0.19910239583E+02  0.61505628973E+02  0.00000000000E+00 0. -1.
</event>
<event>
 4    1  0.9856522E-003  0.9118800E+02  0.7818608E-02  0.1130116E+00
         25   -1    0    0    0    0  0.00000000000E+00  0.00000000000E+00  0.99999998245E-14  0.12500000000E+03  0.12500000000E+03 0.  0.
        -13    1    1    0    0    0 -0.50761898603E+02  0.17723492693E+02 -0.18634184171E+02  0.56904626585E+02  0.10566000000E+00 0.  1.
         13    1    1    0    0    0 -0.49336610074E+01 -0.47626060293E+00 -0.31274008410E+01  0.58617092348E+01  0.10566000000E+00 0. -1.
         22    1    1    0    0    0  0.55695559610E+02 -0.17247232090E+02  0.21761585012E+02  0.62233664180E+02  0.00000000000E+00 0.  1.
</event>
<event>
 4    1  0.9856522E-003  0.9118800E+02  0.7818608E-02  0.1130116E+00
         25   -1    0    0    0    0  0.00000000000E+00  0.00000000000E+00  0.99999998245E-14  0.12500000000E+03  0.12500000000E+03 0.  0.
        -13    1    1    0    0    0 -0.33397160142E+02 -0.29649106959E+02 -0.24644487857E+01  0.44727223487E+02  0.10566000000E+00 0.  1.
         13    1    1    0    0    0 -0.13307129710E+02 -0.11770128023E+02 -0.56170970360E+00  0.17774765726E+02  0.10566000000E+00 0. -1.
         22    1    1    0    0    0  0.46704289852E+02  0.41419234982E+02  0.30261584893E+01  0.62498010787E+02  0.00000000000E+00 0.  1.
</event>
<event>
 4    1  0.9856522E-003  0.9118800E+02  0.7818608E-02  0.1130116E+00
         25   -1    0    0    0    0  0.00000000000E+00  0.00000000000E+00  0.99999998245E-14  0.12500000000E+03  0.12500000000E+03 0.  0.
        -13    1    1    0    0    0 -0.17250301723E+02  0.17548374927E+02  0.29763145226E+02  0.38618316249E+02  0.10566000000E+00 0. -1.
         13    1    1    0    0    0 -0.10436942000E+02  0.10556518118E+02  0.18709215485E+02  0.23883377927E+02  0.10566000000E+00 0.  1.
         22    1    1    0    0    0  0.27687243723E+02 -0.28104893045E+02 -0.48472360711E+02  0.62498305825E+02  0.00000000000E+00 0. -1.
</event>
<event>
 4    1  0.9856522E-003  0.9118800E+02  0.7818608E-02  0.1130116E+00
         25   -1    0    0    0    0  0.00000000000E+00  0.00000000000E+00  0.99999998245E-14  0.12500000000E+03  0.12500000000E+03 0.  0.
        -13    1    1    0    0    0  0.51838680990E+01 -0.38346401958E+01 -0.12938578536E+02  0.14456657029E+02  0.10566000000E+00 0. -1.
         13    1    1    0    0    0  0.21848311176E+02 -0.97195457244E+01 -0.41714226488E+02  0.48082284948E+02  0.10566000000E+00 0.  1.
         22    1    1    0    0    0 -0.27032179275E+02  0.13554185920E+02  0.54652805024E+02  0.62461058022E+02  0.00000000000E+00 0.  1.
</event>
<event>
 4    1  0.9856522E-003  0.9118800E+02  0.7818608E-02  0.1130116E+00
         25   -1    0    0    0    0  0.00000000000E+00  0.00000000000E+00  0.99999998245E-14  0.12500000000E+03  0.12500000000E+03 0.  0.
        -13    1    1    0    0    0 -0.46928873505E+01  0.52102479064E+02  0.22863882807E+02  0.57091679056E+02  0.10566000000E+00 0. -1.
         13    1    1    0    0    0 -0.92768724476E+01 -0.17435708138E+01  0.25754150457E+01  0.97849030800E+01  0.10566000000E+00 0.  1.
         22    1    1    0    0    0  0.13969759798E+02 -0.50358908251E+02 -0.25439297853E+02  0.58123417864E+02  0.00000000000E+00 0. -1.
</event>
<event>
 4    1  0.9856522E-003  0.9118800E+02  0.7818608E-02  0.1130116E+00
         25   -1    0    0    0    0  0.00000000000E+00  0.00000000000E+00  0.99999998245E-14  0.12500000000E+03  0.12500000000E+03 0.  0.
        -13    1    1    0    0    0 -0.18142578511E+02  0.13360005687E+02  0.25212709722E+02  0.33813234133E+02  0.10566000000E+00 0.  1.
         13    1    1    0    0    0 -0.15507906265E+02  0.11324806913E+02  0.21311701228E+02  0.28687038564E+02  0.10566000000E+00 0.  1.
         22    1    1    0    0    0  0.33650484776E+02 -0.24684812599E+02 -0.46524410950E+02  0.62499727303E+02  0.00000000000E+00 0.  1.
</event>
<event>
 4    1  0.9856522E-003  0.9118800E+02  0.7818608E-02  0.1130116E+00
         25   -1    0    0    0    0  0.00000000000E+00  0.00000000000E+00  0.99999998245E-14  0.12500000000E+03  0.12500000000E+03 0.  0.
        -13    1    1    0    0    0 -0.42547742196E+00 -0.35833763770E+00  0.87071363391E+00  0.10386256145E+01  0.10566000000E+00 0. -1.
         13    1    1    0    0    0 -0.43654154724E+02 -0.42926804060E+02  0.72465810094E+01  0.61651600399E+02  0.10566000000E+00 0.  1.
         22    1    1    0    0    0  0.44079632146E+02  0.43285141697E+02 -0.81172946433E+01  0.62309773986E+02  0.00000000000E+00 0.  1.
</event>
<event>
 4    1  0.9856522E-003  0.9118800E+02  0.7818608E-02  0.1130116E+00
         25   -1    0    0    0    0  0.00000000000E+00  0.00000000000E+00  0.99999998245E-14  0.12500000000E+03  0.12500000000E+03 0.  0.
        -13    1    1    0    0    0  0.30194716711E+02  0.11421175113E+01  0.65295342009E+01  0.30913934246E+02  0.10566000000E+00 0.  1.
         13    1    1    0    0    0  0.30607953789E+02  0.15467413200E+01  0.76638296082E+01  0.31590895717E+02  0.10566000000E+00 0. -1.
         22    1    1    0    0    0 -0.60802670500E+02 -0.26888588313E+01 -0.14193363809E+02  0.62495170037E+02  0.00000000000E+00 0.  1.
</event>
<event>
 4    1  0.9856522E-003  0.9118800E+02  0.7818608E-02  0.1130116E+00
         25   -1    0    0    0    0  0.00000000000E+00  0.00000000000E+00  0.99999998245E-14  0.12500000000E+03  0.12500000000E+03 0.  0.
        -13    1    1    0    0    0 -0.55131128856E+01 -0.21459380501E+01 -0.22205966815E+01  0.63199428369E+01  0.10566000000E+00 0. -1.
         13    1    1    0    0    0  0.43684103107E+02 -0.36801677549E+02 -0.18949744099E+02  0.60181129103E+02  0.10566000000E+00 0.  1.
         22    1    1    0    0    0 -0.38170990221E+02  0.38947615600E+02  0.21170340780E+02  0.58498928060E+02  0.00000000000E+00 0.  1.
</event>
<event>
 4    1  0.9856522E-003  0.9118800E+02  0.7818608E-02  0.1130116E+00
         25   -1    0    0    0    0  0.00000000000E+00  0.00000000000E+00  0.99999998245E-14  0.12500000000E+03  0.12500000000E+03 0.  0.
        -13    1    1    0    0    0  0.32947055802E+02  0.39161091795E+02  0.15180897388E+02  0.53381367594E+02  0.10566000000E+00 0. -1.
         13    1    1    0    0    0  0.62802420329E+01  0.63735289587E+01  0.18774791224E+01  0.91432709284E+01  0.10566000000E+00 0.  1.
         22    1    1    0    0    0 -0.39227297835E+02 -0.45534620754E+02 -0.17058376511E+02  0.62475361478E+02  0.00000000000E+00 0. -1.
</event>
<event>
 4    1  0.9856522E-003  0.9118800E+02  0.7818608E-02  0.1130116E+00
         25   -1    0    0    0    0  0.00000000000E+00  0.00000000000E+00  0.99999998245E-14  0.12500000000E+03  0.12500000000E+03 0.  0.
        -13    1    1    0    0    0 -0.25215840312E+02  0.13410802428E+02 -0.15641804389E+02  0.32563252801E+02  0.10566000000E+00 0.  1.
         13    1    1    0    0    0 -0.25107589062E+02  0.10785379470E+02 -0.12335722356E+02  0.29981605176E+02  0.10566000000E+00 0. -1.
         22    1    1    0    0    0  0.50323429374E+02 -0.24196181898E+02  0.27977526745E+02  0.62455142023E+02  0.00000000000E+00 0.  1.
</event>
<event>
 4    1  0.9856522E-003  0.9118800E+02  0.7818608E-02  0.1130116E+00
         25   -1    0    0    0    0  0.00000000000E+00  0.00000000000E+00  0.99999998245E-14  0.12500000000E+03  0.12500000000E+03 0.  0.
        -13    1    1    0    0    0 -0.18568187662E+02  0.34571972779E+01  0.55529355171E+01  0.19686951591E+02  0.10566000000E+00 0. -1.
         13    1    1    0    0    0 -0.40376679224E+02  0.77074792804E+01  0.11970363416E+02  0.42813341687E+02  0.10566000000E+00 0.  1.
         22    1    1    0    0    0  0.58944866886E+02 -0.11164676558E+02 -0.17523298933E+02  0.62499706722E+02  0.00000000000E+00 0. -1.
</event>
<event>
 4    1  0.9856522E-003  0.9118800E+02  0.7818608E-02  0.1130116E+00
         25   -1    0    0    0    0  0.00000000000E+00  0.00000000000E+00  0.99999998245E-14  0.12500000000E+03  0.12500000000E+03 0.  0.
        -13    1    1    0    0    0 -0.35233899089E+00  0.26742989807E+00  0.13555218523E+00  0.47455236318E+00  0.10566000000E+00 0.  1.
         13    1    1    0    0    0 -0.12714655259E+02 -0.21124753519E+02 -0.57249903104E+02  0.62333620455E+02  0.10566000000E+00 0. -1.
         22    1    1    0    0    0  0.13066994250E+02  0.20857323620E+02  0.57114350919E+02  0.62191827182E+02  0.00000000000E+00 0. -1.
</event>
<event>
 4    1  0.9856522E-003  0.9118800E+02  0.7818608E-02  0.1130116E+00
         25   -1    0    0    0    0  0.00000000000E+00  0.00000000000E+00  0.99999998245E-14  0.12500000000E+03  0.12500000000E+03 0.  0.
        -13    1    1    0    0    0 -0.66168074300E+01 -0.45340913138E+01 -0.67815325648E+01  0.10504307334E+02  0.10566000000E+00 0.  1.
         13    1    1    0    0    0 -0.31975335835E+02 -0.22772927402E+02 -0.34097349283E+02  0.51996814483E+02  0.10566000000E+00 0. -1.
         22    1    1    0    0    0  0.38592143265E+02  0.27307018716E+02  0.40878881848E+02  0.62498878183E+02  0.00000000000E+00 0. -1.
</event>
<event>
 4    1  0.9856522E-003  0.9118800E+02  0.7818608E-02  0.1130116E+00
         25   -1    0    0    0    0  0.00000000000E+00  0.00000000000E+00  0.99999998245E-14  0.12500000000E+03  0.12500000000E+03 0.  0.
        -13    1    1    0    0    0  0.16503978745E+02  0.44890083400E+02 -0.36120711632E+02  0.59935113873E+02  0.10566000000E+00 0.  1.
         13    1    1    0    0    0  0.34719453762E+01 -0.82048482075E+00 -0.14021971237E+01  0.38346995770E+01  0.10566000000E+00 0. -1.
         22    1    1    0    0    0 -0.19975924121E+02 -0.44069598579E+02  0.37522908756E+02  0.61230186550E+02  0.00000000000E+00 0.  1.
</event>
<event>
 4    1  0.9856522E-003  0.9118800E+02  0.7818608E-02  0.1130116E+00
         25   -1    0    0    0    0  0.00000000000E+00  0.00000000000E+00  0.99999998245E-14  0.12500000000E+03  0.12500000000E+03 0.  0.
        -13    1    1    0    0    0  0.11378450078E+02  0.46096038929E+02  0.30325902637E+02  0.56338135094E+02  0.10566000000E+00 0. -1.
         13    1    1    0    0    0  0.12046746450E+01  0.50406108546E+01  0.33324817361E+01  0.61624343684E+01  0.10566000000E+00 0. -1.
         22    1    1    0    0    0 -0.12583124723E+02 -0.51136649784E+02 -0.33658384373E+02  0.62499430537E+02  0.00000000000E+00 0. -1.
</event>
<event>
 4    1  0.9856522E-003  0.9118800E+02  0.7818608E-02  0.1130116E+00
         25   -1    0    0    0    0  0.00000000000E+00  0.00000000000E+00  0.99999998245E-14  0.12500000000E+03  0.12500000000E+03 0.  0.
        -13    1    1    0    0    0 -0.79632297474E+01 -0.11218016770E+01 -0.59963795107E+02  0.60500738464E+02  0.10566000000E+00 0.  1.
         13    1    1    0    0    0 -0.13989567282E+01 -0.23862070151E+01 -0.82923323715E+00  0.28896116769E+01  0.10566000000E+00 0. -1.
         22    1    1    0    0    0  0.93621864756E+01  0.35080086921E+01  0.60793028344E+02  0.61609649859E+02  0.00000000000E+00 0.  1.
</event>
<event>
 4    1  0.9856522E-003  0.9118800E+02  0.7818608E-02  0.1130116E+00
         25   -1    0    0    0    0  0.00000000000E+00  0.00000000000E+00  0.99999998245E-14  0.12500000000E+03  0.12500000000E+03 0.  0.
        -13    1    1    0    0    0 -0.91193966074E+01 -0.59954573565E+01  0.18896474939E+01  0.11076589506E+02  0.10566000000E+00 0.  1.
         13    1    1    0    0    0 -0.45360901143E+02 -0.23777966789E+02 -0.67023057456E+01  0.51652058270E+02  0.10566000000E+00 0. -1.
         22    1    1    0    0    0  0.54480297751E+02  0.29773424146E+02  0.48126582518E+01  0.62271352224E+02  0.00000000000E+00 0. -1.
</event>
<event>
 4    1  0.9856522E-003  0.9118800E+02  0.7818608E-02  0.1130116E+00
         25   -1    0    0    0    0  0.00000000000E+00  0.00000000000E+00  0.99999998245E-14  0.12500000000E+03  0.12500000000E+03 0.  0.
        -13    1    1    0    0    0  0.42606463719E+02  0.16547530828E+02  0.38419071697E+02  0.59709025793E+02  0.10566000000E+00 0.  1.
         13    1    1    0    0    0 -0.10795097259E+01 -0.49191216775E+01  0.26911820785E+01  0.57111053520E+01  0.10566000000E+00 0. -1.
         22    1    1    0    0    0 -0.41526953993E+02 -0.11628409150E+02 -0.41110253775E+02  0.59579868855E+02  0.00000000000E+00 0.  1.
</event>
<event>
 4    1  0.9856522E-003  0.9118800E+02  0.7818608E-02  0.1130116E+00
         25   -1    0    0    0    0  0.00000000000E+00  0.00000000000E+00  0.99999998245E-14  0.12500000000E+03  0.12500000000E+03 0.  0.
        -13    1    1    0    0    0  0.51484728813E+01 -0.41653220958E+00 -0.21151042600E+02  0.21772873931E+02  0.10566000000E+00 0.  1.
         13    1    1    0    0    0  0.10329815125E+02 -0.89869657964E+00 -0.39386344121E+02  0.40728466744E+02  0.10566000000E+00 0. -1.
         22    1    1    0    0    0 -0.15478288006E+02  0.13152287892E+01  0.60537386722E+02  0.62498659325E+02  0.00000000000E+00 0. -1.
</event>
<event>
 4    1  0.9856522E-003  0.9118800E+02  0.7818608E-02  0.1130116E+00
         25   -1    0    0    0    0  0.00000000000E+00  0.00000000000E+00  0.99999998245E-14  0.12500000000E+03  0.12500000000E+03 0.  0.
        -13    1    1    0    0    0 -0.33198471259E+02 -0.11815240123E+02 -0.12695910756E+01  0.35261330358E+02  0.10566000000E+00 0. -1.
         13    1    1    0    0    0 -0.25821311647E+02 -0.86485862209E+01 -0.70718749427E+00  0.27240584740E+02  0.10566000000E+00 0.  1.
         22    1    1    0    0    0  0.59019782906E+02  0.20463826344E+02  0.19767785699E+01  0.62498084902E+02  0.00000000000E+00 0. -1.
</event>
<event>
 4    1  0.9856522E-003  0.9118800E+02  0.7818608E-02  0.1130116E+00
         25   -1    0    0    0    0  0.00000000000E+00  0.00000000000E+00  0.99999998245E-14  0.12500000000E+03  0.12500000000E+03 0.  0.
        -13    1    1    0    0    0  0.27165206651E+02 -0.10329525525E+02 -0.20465630532E+02  0.35545755683E+02  0.10566000000E+00 0.  1.
         13    1    1    0    0    0  0.21584334405E+02 -0.68756393902E+01 -0.14633241732E+02  0.26968515650E+02  0.10566000000E+00 0. -1.
         22    1    1    0    0    0 -0.48749541056E+02  0.17205164915E+02  0.35098872264E+02  0.62485728667E+02  0.00000000000E+00 0. -1.
</event>
<event>
 4    1  0.9856522E-003  0.9118800E+02  0.7818608E-02  0.1130116E+00
         25   -1    0    0    0    0  0.00000000000E+00  0.00000000000E+00  0.99999998245E-14  0.12500000000E+03  0.12500000000E+03 0.  0.
        -13    1    1    0    0    0  0.47275132201E+01 -0.25631046884E+01  0.12329416845E+02  0.13451563874E+02  0.10566000000E+00 0.  1.
         13    1    1    0    0    0  0.17002383292E+02 -0.90364883357E+01  0.45111456907E+02  0.49048892622E+02  0.10566000000E+00 0.  1.
         22    1    1    0    0    0 -0.21729896512E+02  0.11599593024E+02 -0.57440873753E+02  0.62499543504E+02  0.00000000000E+00 0.  1.
</event>
<event>
 4    1  0.9856522E-003  0.9118800E+02  0.7818608E-02  0.1130116E+00
         25   -1    0    0    0    0  0.00000000000E+00  0.00000000000E+00  0.99999998245E-14  0.12500000000E+03  0.12500000000E+03 0.  0.
        -13    1    1    0    0    0 -0.34031890095E+01 -0.11465279770E+02 -0.14486713650E+02  0.18785908870E+02  0.10566000000E+00 0. -1.
         13    1    1    0    0    0 -0.16164084168E+02 -0.33722743035E+02 -0.23372772461E+02  0.44099871557E+02  0.10566000000E+00 0.  1.
         22    1    1    0    0    0  0.19567273177E+02  0.45188022805E+02  0.37859486111E+02  0.62114219574E+02  0.00000000000E+00 0.  1.
</event>
<event>
 4    1  0.9856522E-003  0.9118800E+02  0.7818608E-02  0.1130116E+00
         25   -1    0    0    0    0  0.00000000000E+00  0.00000000000E+00  0.99999998245E-14  0.12500000000E+03  0.12500000000E+03 0.  0.
        -13    1    1    0    0    0  0.36742220920E+02 -0.49188603267E+02 -0.26038501756E+01  0.61451612585E+02  0.10566000000E+00 0.  1.
         13    1    1    0    0    0 -0.99561768151E+00 -0.32126488570E-01 -0.23106659825E+01  0.25184574639E+01  0.10566000000E+00 0. -1.
         22    1    1    0    0    0 -0.35746603239E+02  0.49220729756E+02  0.49145161581E+01  0.61029929951E+02  0.00000000000E+00 0.  1.
</event>
<event>
 4    1  0.9856522E-003  0.9118800E+02  0.7818608E-02  0.1130116E+00
         25   -1    0    0    0    0  0.00000000000E+00  0.00000000000E+00  0.99999998245E-14  0.12500000000E+03  0.12500000000E+03 0.  0.
        -13    1    1    0    0    0 -0.16391407896E+02 -0.61086866593E+01  0.15298725972E+01  0.17559783020E+02  0.10566000000E+00 0.  1.
         13    1    1    0    0    0 -0.41750021345E+02 -0.16304430334E+02  0.32948400415E+01  0.44941805324E+02  0.10566000000E+00 0. -1.
         22    1    1    0    0    0  0.58141429241E+02  0.22413116993E+02 -0.48247126388E+01  0.62498411656E+02  0.00000000000E+00 0. -1.
</event>
<event>
 4    1  0.9856522E-003  0.9118800E+02  0.7818608E-02  0.1130116E+00
         25   -1    0    0    0    0  0.00000000000E+00  0.00000000000E+00  0.99999998245E-14  0.12500000000E+03  0.12500000000E+03 0.  0.
        -13    1    1    0    0    0  0.10361737740E+01  0.60682806510E+01  0.84793405339E+00  0.62151301147E+01  0.10566000000E+00 0. -1.
         13    1    1    0    0    0  0.22514602015E+02  0.51478357120E+02 -0.53625544863E+01  0.56441976492E+02  0.10566000000E+00 0.  1.
         22    1    1    0    0    0 -0.23550775789E+02 -0.57546637771E+02  0.45146204329E+01  0.62342893393E+02  0.00000000000E+00 0.  1.
</event>
<event>
 4    1  0.9856522E-003  0.9118800E+02  0.7818608E-02  0.1130116E+00
         25   -1    0    0    0    0  0.00000000000E+00  0.00000000000E+00  0.99999998245E-14  0.12500000000E+03  0.12500000000E+03 0.  0.
        -13    1    1    0    0    0 -0.88260303623E+01 -0.52784939385E+01  0.67613532959E+01  0.12308061287E+02  0.10566000000E+00 0. -1.
         13    1    1    0    0    0 -0.25590035570E+02 -0.24984750669E+02  0.35470608286E+02  0.50371250756E+02  0.10566000000E+00 0.  1.
         22    1    1    0    0    0  0.34416065932E+02  0.30263244607E+02 -0.42231961582E+02  0.62320687957E+02  0.00000000000E+00 0.  1.
</event>
<event>
 4    1  0.9856522E-003  0.9118800E+02  0.7818608E-02  0.1130116E+00
         25   -1    0    0    0    0  0.00000000000E+00  0.00000000000E+00  0.99999998245E-14  0.12500000000E+03  0.12500000000E+03 0.  0.
        -13    1    1    0    0    0  0.29606724296E+01 -0.84814576840E+01  0.54631928201E+01  0.10514672867E+02  0.10566000000E+00 0. -1.
         13    1    1    0    0    0  0.14414424205E+02 -0.41109573208E+02  0.28371476370E+02  0.51987733841E+02  0.10566000000E+00 0. -1.
         22    1    1    0    0    0 -0.17375096634E+02  0.49591030892E+02 -0.33834669190E+02  0.62497593291E+02  0.00000000000E+00 0. -1.
</event>
<event>
 4    1  0.9856522E-003  0.9118800E+02  0.7818608E-02  0.1130116E+00
         25   -1    0    0    0    0  0.00000000000E+00  0.00000000000E+00  0.99999998245E-14  0.12500000000E+03  0.12500000000E+03 0.  0.
        -13    1    1    0    0    0 -0.24876309155E+01 -0.32703082305E+02 -0.48415067900E+02  0.58478285402E+02  0.10566000000E+00 0.  1.
         13    1    1    0    0    0 -0.31953520543E+00 -0.21909770049E+01 -0.33583904402E+01  0.40239822773E+01  0.10566000000E+00 0.  1.
         22    1    1    0    0    0  0.28071661210E+01  0.34894059310E+02  0.51773458340E+02  0.62497732321E+02  0.00000000000E+00 0.  1.
</event>
<event>
 4    1  0.9856522E-003  0.9118800E+02  0.7818608E-02  0.1130116E+00
         25   -1    0    0    0    0  0.00000000000E+00  0.00000000000E+00  0.99999998245E-14  0.12500000000E+03  0.12500000000E+03 0.  0.
        -13    1    1    0    0    0 -0.42779274405E+01 -0.86069846165E+01  0.27355964021E+02  0.28995530327E+02  0.10566000000E+00 0. -1.
         13    1    1    0    0    0 -0.22590823566E+02 -0.79201993345E+01  0.25168588423E+02  0.34735340420E+02  0.10566000000E+00 0.  1.
         22    1    1    0    0    0  0.26868751006E+02  0.16527183951E+02 -0.52524552444E+02  0.61269129253E+02  0.00000000000E+00 0.  1.
</event>
<event>
 4    1  0.9856522E-003  0.9118800E+02  0.7818608E-02  0.1130116E+00
         25   -1    0    0    0    0  0.00000000000E+00  0.00000000000E+00  0.99999998245E-14  0.12500000000E+03  0.12500000000E+03 0.  0.
        -13    1    1    0    0    0  0.39270701839E+02 -0.32613945000E+02  0.23451467554E+02  0.56176862905E+02  0.10566000000E+00 0. -1.
         13    1    1    0    0    0  0.41886776702E+01 -0.35359438919E+01  0.31766614213E+01  0.63364234117E+01  0.10566000000E+00 0.  1.
         22    1    1    0    0    0 -0.43459379509E+02  0.36149888892E+02 -0.26628128976E+02  0.62486713683E+02  0.00000000000E+00 0. -1.
</event>
<event>
 4    1  0.9856522E-003  0.9118800E+02  0.7818608E-02  0.1130116E+00
         25   -1    0    0    0    0  0.00000000000E+00  0.00000000000E+00  0.99999998245E-14  0.12500000000E+03  0.12500000000E+03 0.  0.
        -13    1    1    0    0    0 -0.31072198435E+01  0.43908799262E+01 -0.97197882905E+01  0.11109459489E+02  0.10566000000E+00 0.  1.
         13    1    1    0    0    0 -0.12867075705E+02  0.10115514674E+02 -0.48825198380E+02  0.51495596270E+02  0.10566000000E+00 0. -1.
         22    1    1    0    0    0  0.15974295548E+02 -0.14506394600E+02  0.58544986671E+02  0.62394944241E+02  0.00000000000E+00 0. -1.
</event>
<event>
 4    1  0.9856522E-003  0.9118800E+02  0.7818608E-02  0.1130116E+00
         25   -1    0    0    0    0  0.00000000000E+00  0.00000000000E+00  0.99999998245E-14  0.12500000000E+03  0.12500000000E+03 0.  0.
        -13    1    1    0    0    0 -0.41569434239E+02  0.12529951725E+02 -0.14783303179E+02  0.45864744304E+02  0.10566000000E+00 0. -1.
         13    1    1    0    0    0 -0.17193201503E+02 -0.17437397450E+01 -0.10965973726E+01  0.17316480475E+02  0.10566000000E+00 0.  1.
         22    1    1    0    0    0  0.58762635742E+02 -0.10786211980E+02  0.15879900552E+02  0.61818775220E+02  0.00000000000E+00 0. -1.
</event>
<event>
 4    1  0.9856522E-003  0.9118800E+02  0.7818608E-02  0.1130116E+00
         25   -1    0    0    0    0  0.00000000000E+00  0.00000000000E+00  0.99999998245E-14  0.12500000000E+03  0.12500000000E+03 0.  0.
        -13    1    1    0    0    0  0.40026687532E+01 -0.23656997234E+02  0.13525781758E+02  0.27543289772E+02  0.10566000000E+00 0.  1.
         13    1    1    0    0    0  0.63262306854E+01 -0.29063593156E+02  0.18388428506E+02  0.34969402465E+02  0.10566000000E+00 0. -1.
         22    1    1    0    0    0 -0.10328899439E+02  0.52720590390E+02 -0.31914210264E+02  0.62487307763E+02  0.00000000000E+00 0. -1.
</event>
<event>
 4    1  0.9856522E-003  0.9118800E+02  0.7818608E-02  0.1130116E+00
         25   -1    0    0    0    0  0.00000000000E+00  0.00000000000E+00  0.99999998245E-14  0.12500000000E+03  0.12500000000E+03 0.  0.
        -13    1    1    0    0    0  0.20891374274E+02 -0.52943120565E+02  0.98872595721E+01  0.57768439481E+02  0.10566000000E+00 0.  1.
         13    1    1    0    0    0  0.17920463524E+01 -0.43084356426E+01  0.78244844680E+00  0.47325930971E+01  0.10566000000E+00 0. -1.
         22    1    1    0    0    0 -0.22683420626E+02  0.57251556208E+02 -0.10669708019E+02  0.62498967421E+02  0.00000000000E+00 0.  1.
</event>
<event>
 4    1  0.9856522E-003  0.9118800E+02  0.7818608E-02  0.1130116E+00
         25   -1    0    0    0    0  0.00000000000E+00  0.00000000000E+00  0.99999998245E-14  0.12500000000E+03  0.12500000000E+03 0.  0.
        -13    1    1    0    0    0 -0.11387893434E+02 -0.37076787983E+02 -0.14884399589E+02  0.41544299719E+02  0.10566000000E+00 0.  1.
         13    1    1    0    0    0 -0.65008746274E+01 -0.18976595062E+02 -0.61327170243E+01  0.20976031874E+02  0.10566000000E+00 0. -1.
         22    1    1    0    0    0  0.17888768061E+02  0.56053383044E+02  0.21017116614E+02  0.62479668407E+02  0.00000000000E+00 0.  1.
</event>
<event>
 4    1  0.9856522E-003  0.9118800E+02  0.7818608E-02  0.1130116E+00
         25   -1    0    0    0    0  0.00000000000E+00  0.00000000000E+00  0.99999998245E-14  0.12500000000E+03  0.12500000000E+03 0.  0.
        -13    1    1    0    0    0  0.45723789575E+02 -0.13218763652E+02  0.39586731152E+02  0.61907358957E+02  0.10566000000E+00 0.  1.
         13    1    1    0    0    0  0.44907701794E+00 -0.59816394529E-01  0.37780779747E+00  0.59929202942E+00  0.10566000000E+00 0.  1.
         22    1    1    0    0    0 -0.46172866593E+02  0.13278580047E+02 -0.39964538950E+02  0.62493349014E+02  0.00000000000E+00 0.  1.
</event>
<event>
 4    1  0.9856522E-003  0.9118800E+02  0.7818608E-02  0.1130116E+00
         25   -1    0    0    0    0  0.00000000000E+00  0.00000000000E+00  0.99999998245E-14  0.12500000000E+03  0.12500000000E+03 0.  0.
        -13    1    1    0    0    0 -0.18946829360E+02 -0.26289158660E+02  0.12279096102E+02  0.34653853624E+02  0.10566000000E+00 0.  1.
         13    1    1    0    0    0 -0.14716227265E+02 -0.19977824698E+02  0.12746065630E+02  0.27895414994E+02  0.10566000000E+00 0. -1.
         22    1    1    0    0    0  0.33663056625E+02  0.46266983358E+02 -0.25025161732E+02  0.62450731382E+02  0.00000000000E+00 0. -1.
</event>
<event>
 4    1  0.9856522E-003  0.9118800E+02  0.7818608E-02  0.1130116E+00
         25   -1    0    0    0    0  0.00000000000E+00  0.00000000000E+00  0.99999998245E-14  0.12500000000E+03  0.12500000000E+03 0.  0.
        -13    1    1    0    0    0  0.13532320506E+02  0.33547016307E+01 -0.13082208039E+02  0.19118918707E+02  0.10566000000E+00 0. -1.
         13    1    1    0    0    0  0.30645973150E+02  0.83742095258E+01 -0.29541745892E+02  0.43382357818E+02  0.10566000000E+00 0.  1.
         22    1    1    0    0    0 -0.44178293656E+02 -0.11728911157E+02  0.42623953931E+02  0.62498723475E+02  0.00000000000E+00 0.  1.
</event>
<event>
 4    1  0.9856522E-003  0.9118800E+02  0.7818608E-02  0.1130116E+00
         25   -1    0    0    0    0  0.00000000000E+00  0.00000000000E+00  0.99999998245E-14  0.12500000000E+03  0.12500000000E+03 0.  0.
        -13    1    1    0    0    0  0.59642752090E+01  0.92140130037E+01  0.23241624174E+00  0.10978879531E+02  0.10566000000E+00 0.  1.
         13    1    1    0    0    0  0.22916463351E+02  0.44149728815E+02 -0.14252680797E+02  0.51744689784E+02  0.10566000000E+00 0. -1.
         22    1    1    0    0    0 -0.28880738560E+02 -0.53363741819E+02  0.14020264555E+02  0.62276430685E+02  0.00000000000E+00 0. -1.
</event>
<event>
 4    1  0.9856522E-003  0.9118800E+02  0.7818608E-02  0.1130116E+00
         25   -1    0    0    0    0  0.00000000000E+00  0.00000000000E+00  0.99999998245E-14  0.12500000000E+03  0.12500000000E+03 0.  0.
        -13    1    1    0    0    0 -0.65589606088E+00  0.56490153937E+01 -0.10248179627E+02  0.11720832917E+02  0.10566000000E+00 0.  1.
         13    1    1    0    0    0 -0.34233561197E+01  0.25087510477E+02 -0.44017276065E+02  0.50780255073E+02  0.10566000000E+00 0. -1.
         22    1    1    0    0    0  0.40792521806E+01 -0.30736525871E+02  0.54265455692E+02  0.62498912010E+02  0.00000000000E+00 0. -1.
</event>
<event>
 4    1  0.9856522E-003  0.9118800E+02  0.7818608E-02  0.1130116E+00
         25   -1    0    0    0    0  0.00000000000E+00  0.00000000000E+00  0.99999998245E-14  0.12500000000E+03  0.12500000000E+03 0.  0.
        -13    1    1    0    0    0  0.20244562912E+02  0.14225660089E+02  0.12857689652E+02  0.27884459466E+02  0.10566000000E+00 0.  1.
         13    1    1    0    0    0  0.20684876810E+02  0.72076376233E+01  0.27923411655E+02  0.35490030308E+02  0.10566000000E+00 0. -1.
         22    1    1    0    0    0 -0.40929439723E+02 -0.21433297713E+02 -0.40781101307E+02  0.61625510226E+02  0.00000000000E+00 0. -1.
</event>
<event>
 4    1  0.9856522E-003  0.9118800E+02  0.7818608E-02  0.1130116E+00
         25   -1    0    0    0    0  0.00000000000E+00  0.00000000000E+00  0.99999998245E-14  0.12500000000E+03  0.12500000000E+03 0.  0.
        -13    1    1    0    0    0 -0.49709185457E+01  0.80088332261E+01  0.15112482882E+02  0.17811505937E+02  0.10566000000E+00 0. -1.
         13    1    1    0    0    0 -0.12568566639E+02  0.19705478714E+02  0.38089660776E+02  0.44689016332E+02  0.10566000000E+00 0. -1.
         22    1    1    0    0    0  0.17539485184E+02 -0.27714311940E+02 -0.53202143658E+02  0.62499477731E+02  0.00000000000E+00 0. -1.
</event>
<event>
 4    1  0.9856522E-003  0.9118800E+02  0.7818608E-02  0.1130116E+00
         25   -1    0    0    0    0  0.00000000000E+00  0.00000000000E+00  0.99999998245E-14  0.12500000000E+03  0.12500000000E+03 0.  0.
        -13    1    1    0    0    0 -0.14015352820E+02 -0.22471615624E+01 -0.71714623265E+01  0.15903486589E+02  0.10566000000E+00 0.  1.
         13    1    1    0    0    0 -0.38558519081E+02 -0.21387248107E+02 -0.16091390769E+02  0.46937381651E+02  0.10566000000E+00 0. -1.
         22    1    1    0    0    0  0.52573871901E+02  0.23634409669E+02  0.23262853095E+02  0.62159131760E+02  0.00000000000E+00 0. -1.
</event>
<event>
 4    1  0.9856522E-003  0.9118800E+02  0.7818608E-02  0.1130116E+00
         25   -1    0    0    0    0  0.00000000000E+00  0.00000000000E+00  0.99999998245E-14  0.12500000000E+03  0.12500000000E+03 0.  0.
        -13    1    1    0    0    0  0.41199733199E+01 -0.58625010649E+02  0.19172813832E+02  0.61818071856E+02  0.10566000000E+00 0.  1.
         13    1    1    0    0    0 -0.57796580188E-02 -0.66142436137E+00  0.15763629499E+00  0.68813430910E+00  0.10566000000E+00 0.  1.
         22    1    1    0    0    0 -0.41141936619E+01  0.59286435011E+02 -0.19330450127E+02  0.62493793835E+02  0.00000000000E+00 0.  1.
</event>
<event>
 4    1  0.9856522E-003  0.9118800E+02  0.7818608E-02  0.1130116E+00
         25   -1    0    0    0    0  0.00000000000E+00  0.00000000000E+00  0.99999998245E-14  0.12500000000E+03  0.12500000000E+03 0.  0.
        -13    1    1    0    0    0 -0.28385810087E+02 -0.17180872291E+02 -0.20864975359E+02  0.39195598576E+02  0.10566000000E+00 0. -1.
         13    1    1    0    0    0 -0.14478843687E+02 -0.10117686547E+02 -0.15349913081E+02  0.23401613004E+02  0.10566000000E+00 0.  1.
         22    1    1    0    0    0  0.42864653775E+02  0.27298558838E+02  0.36214888440E+02  0.62402788419E+02  0.00000000000E+00 0. -1.
</event>
<event>
 4    1  0.9856522E-003  0.9118800E+02  0.7818608E-02  0.1130116E+00
         25   -1    0    0    0    0  0.00000000000E+00  0.00000000000E+00  0.99999998245E-14  0.12500000000E+03  0.12500000000E+03 0.  0.
        -13    1    1    0    0    0  0.13428206182E+02 -0.19668799512E+02  0.41981802204E+02  0.48266564782E+02  0.10566000000E+00 0. -1.
         13    1    1    0    0    0  0.11475180962E+02 -0.81504681450E+00  0.10211474327E+02  0.15382764751E+02  0.10566000000E+00 0.  1.
         22    1    1    0    0    0 -0.24903387145E+02  0.20483846326E+02 -0.52193276531E+02  0.61350670466E+02  0.00000000000E+00 0. -1.
</event>
<event>
 4    1  0.9856522E-003  0.9118800E+02  0.7818608E-02  0.1130116E+00
         25   -1    0    0    0    0  0.00000000000E+00  0.00000000000E+00  0.99999998245E-14  0.12500000000E+03  0.12500000000E+03 0.  0.
        -13    1    1    0    0    0  0.18380080479E+02  0.21934749677E+02 -0.22678245772E+02  0.36514032879E+02  0.10566000000E+00 0. -1.
         13    1    1    0    0    0  0.12556279035E+02  0.15541178045E+02 -0.16620160075E+02  0.25989021590E+02  0.10566000000E+00 0.  1.
         22    1    1    0    0    0 -0.30936359514E+02 -0.37475927722E+02  0.39298405847E+02  0.62496945531E+02  0.00000000000E+00 0. -1.
</event>
<event>
 4    1  0.9856522E-003  0.9118800E+02  0.7818608E-02  0.1130116E+00
         25   -1    0    0    0    0  0.00000000000E+00  0.00000000000E+00  0.99999998245E-14  0.12500000000E+03  0.12500000000E+03 0.  0.
        -13    1    1    0    0    0  0.70101228783E+01 -0.12569579199E+02  0.17549263690E+02  0.22696342527E+02  0.10566000000E+00 0.  1.
         13    1    1    0    0    0  0.13368361644E+02 -0.22026331226E+02  0.30343151067E+02  0.39806913232E+02  0.10566000000E+00 0.  1.
         22    1    1    0    0    0 -0.20378484522E+02  0.34595910425E+02 -0.47892414757E+02  0.62496744242E+02  0.00000000000E+00 0.  1.
</event>
<event>
 4    1  0.9856522E-003  0.9118800E+02  0.7818608E-02  0.1130116E+00
         25   -1    0    0    0    0  0.00000000000E+00  0.00000000000E+00  0.99999998245E-14  0.12500000000E+03  0.12500000000E+03 0.  0.
        -13    1    1    0    0    0  0.23396522786E+02  0.16746332940E+02  0.20491031971E+02  0.35323228911E+02  0.10566000000E+00 0.  1.
         13    1    1    0    0    0  0.10161068939E+02  0.19532970764E+02  0.16858499352E+02  0.27730929181E+02  0.10566000000E+00 0. -1.
         22    1    1    0    0    0 -0.33557591725E+02 -0.36279303703E+02 -0.37349531323E+02  0.61945841908E+02  0.00000000000E+00 0. -1.
</event>
<event>
 4    1  0.9856522E-003  0.9118800E+02  0.7818608E-02  0.1130116E+00
         25   -1    0    0    0    0  0.00000000000E+00  0.00000000000E+00  0.99999998245E-14  0.12500000000E+03  0.12500000000E+03 0.  0.
        -13    1    1    0    0    0 -0.40298308981E+00 -0.79510246839E+01  0.11758929223E+02  0.14200872135E+02  0.10566000000E+00 0. -1.
         13    1    1    0    0    0  0.45095768968E+01 -0.20287016900E+02  0.43722108300E+02  0.48410053261E+02  0.10566000000E+00 0.  1.
         22    1    1    0    0    0 -0.41065938069E+01  0.28238041584E+02 -0.55481037524E+02  0.62389074603E+02  0.00000000000E+00 0.  1.
</event>
<event>
 4    1  0.9856522E-003  0.9118800E+02  0.7818608E-02  0.1130116E+00
         25   -1    0    0    0    0  0.00000000000E+00  0.00000000000E+00  0.99999998245E-14  0.12500000000E+03  0.12500000000E+03 0.  0.
        -13    1    1    0    0    0  0.76762718158E+01 -0.36912965395E+02 -0.45549081229E+02  0.59128860365E+02  0.10566000000E+00 0. -1.
         13    1    1    0    0    0  0.84620310896E+01  0.12587884186E+02  0.51287199401E+01  0.16011737279E+02  0.10566000000E+00 0.  1.
         22    1    1    0    0    0 -0.16138302905E+02  0.24325081210E+02  0.40420361289E+02  0.49859402356E+02  0.00000000000E+00 0. -1.
</event>
<event>
 4    1  0.9856522E-003  0.9118800E+02  0.7818608E-02  0.1130116E+00
         25   -1    0    0    0    0  0.00000000000E+00  0.00000000000E+00  0.99999998245E-14  0.12500000000E+03  0.12500000000E+03 0.  0.
        -13    1    1    0    0    0 -0.51465127552E+01 -0.96413168934E+01  0.23889244530E+02  0.26270682390E+02  0.10566000000E+00 0. -1.
         13    1    1    0    0    0 -0.39535847762E+01 -0.13884115594E+02  0.33261655822E+02  0.36259459599E+02  0.10566000000E+00 0.  1.
         22    1    1    0    0    0  0.91000975314E+01  0.23525432488E+02 -0.57150900352E+02  0.62469858010E+02  0.00000000000E+00 0.  1.
</event>
<event>
 4    1  0.9856522E-003  0.9118800E+02  0.7818608E-02  0.1130116E+00
         25   -1    0    0    0    0  0.00000000000E+00  0.00000000000E+00  0.99999998245E-14  0.12500000000E+03  0.12500000000E+03 0.  0.
        -13    1    1    0    0    0  0.82441351198E+00 -0.48086370307E+00  0.91108620888E+01  0.91613241170E+01  0.10566000000E+00 0. -1.
         13    1    1    0    0    0  0.66331130386E+01  0.46607215085E+00  0.52932549811E+02  0.53348677634E+02  0.10566000000E+00 0.  1.
         22    1    1    0    0    0 -0.74575265506E+01  0.14791552227E-01 -0.62043411899E+02  0.62489998249E+02  0.00000000000E+00 0.  1.
</event>
<event>
 4    1  0.9856522E-003  0.9118800E+02  0.7818608E-02  0.1130116E+00
         25   -1    0    0    0    0  0.00000000000E+00  0.00000000000E+00  0.99999998245E-14  0.12500000000E+03  0.12500000000E+03 0.  0.
        -13    1    1    0    0    0  0.30106530187E+01 -0.43179001736E+01 -0.24248483222E+02  0.24813472069E+02  0.10566000000E+00 0.  1.
         13    1    1    0    0    0  0.46383433182E+01 -0.72952210757E+01 -0.36683180645E+02  0.37688212820E+02  0.10566000000E+00 0. -1.
         22    1    1    0    0    0 -0.76489963369E+01  0.11613121249E+02  0.60931663867E+02  0.62498315111E+02  0.00000000000E+00 0. -1.
</event>
<event>
 4    1  0.9856522E-003  0.9118800E+02  0.7818608E-02  0.1130116E+00
         25   -1    0    0    0    0  0.00000000000E+00  0.00000000000E+00  0.99999998245E-14  0.12500000000E+03  0.12500000000E+03 0.  0.
        -13    1    1    0    0    0  0.58035255709E+01 -0.13263535740E+02 -0.21287111204E+01  0.14633689365E+02  0.10566000000E+00 0. -1.
         13    1    1    0    0    0  0.19911325236E+02 -0.42650370720E+02 -0.87298838685E+01  0.47872090320E+02  0.10566000000E+00 0.  1.
         22    1    1    0    0    0 -0.25714850807E+02  0.55913906460E+02  0.10858594989E+02  0.62494220315E+02  0.00000000000E+00 0. -1.
</event>
<event>
 4    1  0.9856522E-003  0.9118800E+02  0.7818608E-02  0.1130116E+00
         25   -1    0    0    0    0  0.00000000000E+00  0.00000000000E+00  0.99999998245E-14  0.12500000000E+03  0.12500000000E+03 0.  0.
        -13    1    1    0    0    0 -0.40524685598E+02 -0.17753131028E+02 -0.41256494263E+01  0.44434850639E+02  0.10566000000E+00 0. -1.
         13    1    1    0    0    0 -0.16975468852E+02 -0.59580684767E+01 -0.18281995333E+01  0.18083655612E+02  0.10566000000E+00 0.  1.
         22    1    1    0    0    0  0.57500154450E+02  0.23711199505E+02  0.59538489596E+01  0.62481493749E+02  0.00000000000E+00 0. -1.
</event>
<event>
 4    1  0.9856522E-003  0.9118800E+02  0.7818608E-02  0.1130116E+00
         25   -1    0    0    0    0  0.00000000000E+00  0.00000000000E+00  0.99999998245E-14  0.12500000000E+03  0.12500000000E+03 0.  0.
        -13    1    1    0    0    0  0.14346054903E+02 -0.30672946406E+02  0.31890333274E+02  0.46514980951E+02  0.10566000000E+00 0. -1.
         13    1    1    0    0    0  0.49833155084E+01 -0.10435744477E+02  0.11035683782E+02  0.15985483316E+02  0.10566000000E+00 0. -1.
         22    1    1    0    0    0 -0.19329370411E+02  0.41108690883E+02 -0.42926017056E+02  0.62499535734E+02  0.00000000000E+00 0. -1.
</event>
<event>
 4    1  0.9856522E-003  0.9118800E+02  0.7818608E-02  0.1130116E+00
         25   -1    0    0    0    0  0.00000000000E+00  0.00000000000E+00  0.99999998245E-14  0.12500000000E+03  0.12500000000E+03 0.  0.
        -13    1    1    0    0    0 -0.19753677707E+02 -0.47542229462E+01 -0.89827655301E+01  0.22215122313E+02  0.10566000000E+00 0.  1.
         13    1    1    0    0    0 -0.34344684401E+02 -0.16699404094E+02 -0.13341688490E+02  0.40452926464E+02  0.10566000000E+00 0. -1.
         22    1    1    0    0    0  0.54098362108E+02  0.21453627040E+02  0.22324454020E+02  0.62331951223E+02  0.00000000000E+00 0.  1.
</event>
<event>
 4    1  0.9856522E-003  0.9118800E+02  0.7818608E-02  0.1130116E+00
         25   -1    0    0    0    0  0.00000000000E+00  0.00000000000E+00  0.99999998245E-14  0.12500000000E+03  0.12500000000E+03 0.  0.
        -13    1    1    0    0    0  0.10085103253E+02  0.52218052814E+01 -0.38311499570E+01  0.11986051562E+02  0.10566000000E+00 0.  1.
         13    1    1    0    0    0  0.42393383948E+02  0.21943489927E+02 -0.16521993283E+02  0.50514385860E+02  0.10566000000E+00 0.  1.
         22    1    1    0    0    0 -0.52478487201E+02 -0.27165295208E+02  0.20353143240E+02  0.62499562578E+02  0.00000000000E+00 0.  1.
</event>
<event>
 4    1  0.9856522E-003  0.9118800E+02  0.7818608E-02  0.1130116E+00
         25   -1    0    0    0    0  0.00000000000E+00  0.00000000000E+00  0.99999998245E-14  0.12500000000E+03  0.12500000000E+03 0.  0.
        -13    1    1    0    0    0  0.18463486790E+01 -0.76110509452E+00 -0.56140282738E+00  0.20771667192E+01  0.10566000000E+00 0.  1.
         13    1    1    0    0    0  0.54505426081E+02 -0.20270944769E+02 -0.16413153577E+02  0.60424791670E+02  0.10566000000E+00 0. -1.
         22    1    1    0    0    0 -0.56351774760E+02  0.21032049863E+02  0.16974556404E+02  0.62498041610E+02  0.00000000000E+00 0. -1.
</event>
<event>
 4    1  0.9856522E-003  0.9118800E+02  0.7818608E-02  0.1130116E+00
         25   -1    0    0    0    0  0.00000000000E+00  0.00000000000E+00  0.99999998245E-14  0.12500000000E+03  0.12500000000E+03 0.  0.
        -13    1    1    0    0    0  0.53150719225E+01  0.85283049518E+00  0.16395127639E+02  0.17256554805E+02  0.10566000000E+00 0. -1.
         13    1    1    0    0    0  0.11932404313E+02  0.25409628067E+01  0.43574697159E+02  0.45250460342E+02  0.10566000000E+00 0.  1.
         22    1    1    0    0    0 -0.17247476235E+02 -0.33937933019E+01 -0.59969824798E+02  0.62492984853E+02  0.00000000000E+00 0. -1.
</event>
<event>
 4    1  0.9856522E-003  0.9118800E+02  0.7818608E-02  0.1130116E+00
         25   -1    0    0    0    0  0.00000000000E+00  0.00000000000E+00  0.99999998245E-14  0.12500000000E+03  0.12500000000E+03 0.  0.
        -13    1    1    0    0    0 -0.15393958930E+01  0.61025409254E+02 -0.79796462587E-01  0.61044965769E+02  0.10566000000E+00 0.  1.
         13    1    1    0    0    0 -0.61884601496E+00  0.13765943916E+01 -0.87075233306E-01  0.15154961699E+01  0.10566000000E+00 0. -1.
         22    1    1    0    0    0  0.21582419080E+01 -0.62402003645E+02  0.16687169589E+00  0.62439538061E+02  0.00000000000E+00 0.  1.
</event>
<event>
 4    1  0.9856522E-003  0.9118800E+02  0.7818608E-02  0.1130116E+00
         25   -1    0    0    0    0  0.00000000000E+00  0.00000000000E+00  0.99999998245E-14  0.12500000000E+03  0.12500000000E+03 0.  0.
        -13    1    1    0    0    0 -0.10957041651E+02  0.29378006086E+01 -0.26451872886E+02  0.28781941862E+02  0.10566000000E+00 0.  1.
         13    1    1    0    0    0 -0.11756388656E+02  0.66784206232E+01 -0.30931815229E+02  0.33757996588E+02  0.10566000000E+00 0. -1.
         22    1    1    0    0    0  0.22713430308E+02 -0.96162212319E+01  0.57383688115E+02  0.62460061549E+02  0.00000000000E+00 0.  1.
</event>
<event>
 4    1  0.9856522E-003  0.9118800E+02  0.7818608E-02  0.1130116E+00
         25   -1    0    0    0    0  0.00000000000E+00  0.00000000000E+00  0.99999998245E-14  0.12500000000E+03  0.12500000000E+03 0.  0.
        -13    1    1    0    0    0 -0.10309878155E+02  0.22947162841E+02 -0.56197408770E+01  0.25777092962E+02  0.10566000000E+00 0.  1.
         13    1    1    0    0    0 -0.36633518452E+02  0.13635950616E+02 -0.24380227377E+01  0.39165149589E+02  0.10566000000E+00 0. -1.
         22    1    1    0    0    0  0.46943396608E+02 -0.36583113457E+02  0.80577636147E+01  0.60057757449E+02  0.00000000000E+00 0. -1.
</event>
<event>
 4    1  0.9856522E-003  0.9118800E+02  0.7818608E-02  0.1130116E+00
         25   -1    0    0    0    0  0.00000000000E+00  0.00000000000E+00  0.99999998245E-14  0.12500000000E+03  0.12500000000E+03 0.  0.
        -13    1    1    0    0    0  0.18769834277E+02 -0.92192739601E+01  0.11373448868E+02  0.23804793515E+02  0.10566000000E+00 0. -1.
         13    1    1    0    0    0  0.30455251968E+02 -0.14923622759E+02  0.18630373339E+02  0.38695463086E+02  0.10566000000E+00 0. -1.
         22    1    1    0    0    0 -0.49225086244E+02  0.24142896719E+02 -0.30003822208E+02  0.62499743398E+02  0.00000000000E+00 0. -1.
</event>
<event>
 4    1  0.9856522E-003  0.9118800E+02  0.7818608E-02  0.1130116E+00
         25   -1    0    0    0    0  0.00000000000E+00  0.00000000000E+00  0.99999998245E-14  0.12500000000E+03  0.12500000000E+03 0.  0.
        -13    1    1    0    0    0 -0.28013752566E+02  0.36744925451E+02 -0.31254951759E+02  0.55783895997E+02  0.10566000000E+00 0.  1.
         13    1    1    0    0    0 -0.32040351694E+01  0.60047562475E+01 -0.14954089025E+01  0.69692432000E+01  0.10566000000E+00 0. -1.
         22    1    1    0    0    0  0.31217787735E+02 -0.42749681698E+02  0.32750360661E+02  0.62246860803E+02  0.00000000000E+00 0.  1.
</event>
<event>
 4    1  0.9856522E-003  0.9118800E+02  0.7818608E-02  0.1130116E+00
         25   -1    0    0    0    0  0.00000000000E+00  0.00000000000E+00  0.99999998245E-14  0.12500000000E+03  0.12500000000E+03 0.  0.
        -13    1    1    0    0    0 -0.41359098735E+01 -0.11592017573E+01  0.67086266768E+00  0.43486457605E+01  0.10566000000E+00 0.  1.
         13    1    1    0    0    0 -0.26441529498E+02  0.46096917995E+02 -0.27721381476E+02  0.59938022038E+02  0.10566000000E+00 0. -1.
         22    1    1    0    0    0  0.30577439371E+02 -0.44937716238E+02  0.27050518809E+02  0.60713332201E+02  0.00000000000E+00 0. -1.
</event>
<event>
 4    1  0.9856522E-003  0.9118800E+02  0.7818608E-02  0.1130116E+00
         25   -1    0    0    0    0  0.00000000000E+00  0.00000000000E+00  0.99999998245E-14  0.12500000000E+03  0.12500000000E+03 0.  0.
        -13    1    1    0    0    0 -0.14063170198E+02 -0.26829951975E+02 -0.42522955111E+02  0.52209500614E+02  0.10566000000E+00 0.  1.
         13    1    1    0    0    0 -0.22222057938E+00 -0.10779036994E+01 -0.10841625677E+02  0.10897856199E+02  0.10566000000E+00 0. -1.
         22    1    1    0    0    0  0.14285390777E+02  0.27907855674E+02  0.53364580788E+02  0.61892643187E+02  0.00000000000E+00 0.  1.
</event>
<event>
 4    1  0.9856522E-003  0.9118800E+02  0.7818608E-02  0.1130116E+00
         25   -1    0    0    0    0  0.00000000000E+00  0.00000000000E+00  0.99999998245E-14  0.12500000000E+03  0.12500000000E+03 0.  0.
        -13    1    1    0    0    0  0.93464533042E+00 -0.83823219031E+00  0.10477187871E+01  0.16386194771E+01  0.10566000000E+00 0.  1.
         13    1    1    0    0    0 -0.28316746572E+02  0.10425019257E+02 -0.54641052560E+02  0.62419347577E+02  0.10566000000E+00 0. -1.
         22    1    1    0    0    0  0.27382101242E+02 -0.95867870670E+01  0.53593333773E+02  0.60942032946E+02  0.00000000000E+00 0. -1.
</event>
<event>
 4    1  0.9856522E-003  0.9118800E+02  0.7818608E-02  0.1130116E+00
         25   -1    0    0    0    0  0.00000000000E+00  0.00000000000E+00  0.99999998245E-14  0.12500000000E+03  0.12500000000E+03 0.  0.
        -13    1    1    0    0    0 -0.15434495463E+01 -0.36977082516E+00  0.97337124016E+00  0.18648277593E+01  0.10566000000E+00 0. -1.
         13    1    1    0    0    0 -0.59277364889E+02  0.94055185317E+01  0.94846879370E+01  0.60763806960E+02  0.10566000000E+00 0.  1.
         22    1    1    0    0    0  0.60820814435E+02 -0.90357477065E+01 -0.10458059177E+02  0.62371365280E+02  0.00000000000E+00 0.  1.
</event>
<event>
 4    1  0.9856522E-003  0.9118800E+02  0.7818608E-02  0.1130116E+00
         25   -1    0    0    0    0  0.00000000000E+00  0.00000000000E+00  0.99999998245E-14  0.12500000000E+03  0.12500000000E+03 0.  0.
        -13    1    1    0    0    0 -0.42063712711E+01  0.51924824018E+01 -0.50960875552E+00  0.67027082498E+01  0.10566000000E+00 0.  1.
         13    1    1    0    0    0 -0.38053765074E+02  0.40713150139E+02  0.34225138544E+01  0.55833452299E+02  0.10566000000E+00 0. -1.
         22    1    1    0    0    0  0.42260136345E+02 -0.45905632540E+02 -0.29129050989E+01  0.62463839451E+02  0.00000000000E+00 0. -1.
</event>
<event>
 4    1  0.9856522E-003  0.9118800E+02  0.7818608E-02  0.1130116E+00
         25   -1    0    0    0    0  0.00000000000E+00  0.00000000000E+00  0.99999998245E-14  0.12500000000E+03  0.12500000000E+03 0.  0.
        -13    1    1    0    0    0  0.26761492694E+02 -0.48782494900E+02 -0.25241205352E+02  0.61098599915E+02  0.10566000000E+00 0. -1.
         13    1    1    0    0    0  0.76462339172E+00 -0.82691718815E+00 -0.88913494772E+00  0.14388071303E+01  0.10566000000E+00 0.  1.
         22    1    1    0    0    0 -0.27526116086E+02  0.49609412088E+02  0.26130340299E+02  0.62462592955E+02  0.00000000000E+00 0. -1.
</event>
<event>
 4    1  0.9856522E-003  0.9118800E+02  0.7818608E-02  0.1130116E+00
         25   -1    0    0    0    0  0.00000000000E+00  0.00000000000E+00  0.99999998245E-14  0.12500000000E+03  0.12500000000E+03 0.  0.
        -13    1    1    0    0    0 -0.19134948424E+01  0.23379282647E+02  0.34112830232E+02  0.41399863165E+02  0.10566000000E+00 0. -1.
         13    1    1    0    0    0 -0.56133268635E+01  0.23908303672E+02  0.42263293784E+00  0.24562292352E+02  0.10566000000E+00 0.  1.
         22    1    1    0    0    0  0.75268217059E+01 -0.47287586319E+02 -0.34535463170E+02  0.59037844483E+02  0.00000000000E+00 0. -1.
</event>
<event>
 4    1  0.9856522E-003  0.9118800E+02  0.7818608E-02  0.1130116E+00
         25   -1    0    0    0    0  0.00000000000E+00  0.00000000000E+00  0.99999998245E-14  0.12500000000E+03  0.12500000000E+03 0.  0.
        -13    1    1    0    0    0 -0.18302854031E+02  0.36916205989E+02  0.34646035362E+02  0.53834558238E+02  0.10566000000E+00 0. -1.
         13    1    1    0    0    0 -0.11007289413E+01  0.75843936196E+01  0.44238499719E+01  0.88496465121E+01  0.10566000000E+00 0.  1.
         22    1    1    0    0    0  0.19403582972E+02 -0.44500599609E+02 -0.39069885334E+02  0.62315795250E+02  0.00000000000E+00 0. -1.
</event>
<event>
 4    1  0.9856522E-003  0.9118800E+02  0.7818608E-02  0.1130116E+00
         25   -1    0    0    0    0  0.00000000000E+00  0.00000000000E+00  0.99999998245E-14  0.12500000000E+03  0.12500000000E+03 0.  0.
        -13    1    1    0    0    0  0.76629389740E+00  0.57409070424E+00 -0.38928159996E+01  0.40102327758E+01  0.10566000000E+00 0. -1.
         13    1    1    0    0    0 -0.58981635252E+01  0.11961865681E+02 -0.57035336334E+02  0.58574015726E+02  0.10566000000E+00 0.  1.
         22    1    1    0    0    0  0.51318696278E+01 -0.12535956385E+02  0.60928152333E+02  0.62415751498E+02  0.00000000000E+00 0.  1.
</event>
<event>
 4    1  0.9856522E-003  0.9118800E+02  0.7818608E-02  0.1130116E+00
         25   -1    0    0    0    0  0.00000000000E+00  0.00000000000E+00  0.99999998245E-14  0.12500000000E+03  0.12500000000E+03 0.  0.
        -13    1    1    0    0    0  0.82640119834E+01  0.24321904569E+02  0.30837485086E+02  0.40134904838E+02  0.10566000000E+00 0. -1.
         13    1    1    0    0    0  0.45078568047E+01  0.13045684960E+02  0.17601879537E+02  0.22368459855E+02  0.10566000000E+00 0.  1.
         22    1    1    0    0    0 -0.12771868788E+02 -0.37367589529E+02 -0.48439364623E+02  0.62496635306E+02  0.00000000000E+00 0. -1.
</event>
<event>
 4    1  0.9856522E-003  0.9118800E+02  0.7818608E-02  0.1130116E+00
         25   -1    0    0    0    0  0.00000000000E+00  0.00000000000E+00  0.99999998245E-14  0.12500000000E+03  0.12500000000E+03 0.  0.
        -13    1    1    0    0    0 -0.12470147816E+01  0.20148499940E+02 -0.63376094917E+01  0.21158770140E+02  0.10566000000E+00 0. -1.
         13    1    1    0    0    0 -0.19148844353E+01  0.39614271161E+02 -0.11674190423E+02  0.41343139069E+02  0.10566000000E+00 0.  1.
         22    1    1    0    0    0  0.31618992169E+01 -0.59762771102E+02  0.18011799914E+02  0.62498090791E+02  0.00000000000E+00 0.  1.
</event>
<event>
 4    1  0.9856522E-003  0.9118800E+02  0.7818608E-02  0.1130116E+00
         25   -1    0    0    0    0  0.00000000000E+00  0.00000000000E+00  0.99999998245E-14  0.12500000000E+03  0.12500000000E+03 0.  0.
        -13    1    1    0    0    0  0.51727806565E+01 -0.75821327012E+00  0.14715577193E+01  0.54322364861E+01  0.10566000000E+00 0.  1.
         13    1    1    0    0    0 -0.34912438823E+02  0.25973043705E+02  0.42481904382E+02  0.60812833743E+02  0.10566000000E+00 0. -1.
         22    1    1    0    0    0  0.29739658166E+02 -0.25214830435E+02 -0.43953462101E+02  0.58754929771E+02  0.00000000000E+00 0. -1.
</event>
<event>
 4    1  0.9856522E-003  0.9118800E+02  0.7818608E-02  0.1130116E+00
         25   -1    0    0    0    0  0.00000000000E+00  0.00000000000E+00  0.99999998245E-14  0.12500000000E+03  0.12500000000E+03 0.  0.
        -13    1    1    0    0    0 -0.54042807445E+01 -0.15878982342E+02  0.29192595398E+00  0.16776314118E+02  0.10566000000E+00 0.  1.
         13    1    1    0    0    0 -0.43231489065E+02  0.28054104186E+02 -0.18685982031E+02  0.54819444516E+02  0.10566000000E+00 0. -1.
         22    1    1    0    0    0  0.48635769810E+02 -0.12175121844E+02  0.18394056077E+02  0.53404241366E+02  0.00000000000E+00 0. -1.
</event>
<event>
 4    1  0.9856522E-003  0.9118800E+02  0.7818608E-02  0.1130116E+00
         25   -1    0    0    0    0  0.00000000000E+00  0.00000000000E+00  0.99999998245E-14  0.12500000000E+03  0.12500000000E+03 0.  0.
        -13    1    1    0    0    0  0.40639658859E+02  0.33072132352E+02 -0.53098103632E+00  0.52398863684E+02  0.10566000000E+00 0. -1.
         13    1    1    0    0    0  0.78210153854E+01  0.63784235783E+01 -0.48824754068E+00  0.10104559303E+02  0.10566000000E+00 0. -1.
         22    1    1    0    0    0 -0.48460674245E+02 -0.39450555930E+02  0.10192285770E+01  0.62496577013E+02  0.00000000000E+00 0. -1.
</event>
<event>
 4    1  0.9856522E-003  0.9118800E+02  0.7818608E-02  0.1130116E+00
         25   -1    0    0    0    0  0.00000000000E+00  0.00000000000E+00  0.99999998245E-14  0.12500000000E+03  0.12500000000E+03 0.  0.
        -13    1    1    0    0    0 -0.20957704619E+02  0.45344131151E+00  0.42321413023E+01  0.21385817168E+02  0.10566000000E+00 0. -1.
         13    1    1    0    0    0 -0.40168090895E+02 -0.24410130763E+01  0.85355129615E+01  0.41137576698E+02  0.10566000000E+00 0.  1.
         22    1    1    0    0    0  0.61125795514E+02  0.19875717648E+01 -0.12767654264E+02  0.62476606135E+02  0.00000000000E+00 0.  1.
</event>
<event>
 4    1  0.9856522E-003  0.9118800E+02  0.7818608E-02  0.1130116E+00
         25   -1    0    0    0    0  0.00000000000E+00  0.00000000000E+00  0.99999998245E-14  0.12500000000E+03  0.12500000000E+03 0.  0.
        -13    1    1    0    0    0 -0.25343012857E+02 -0.97242127339E+01 -0.62421183253E+01  0.27853255091E+02  0.10566000000E+00 0. -1.
         13    1    1    0    0    0 -0.30853514066E+02 -0.14059447245E+02 -0.71987304309E+01  0.34661798437E+02  0.10566000000E+00 0.  1.
         22    1    1    0    0    0  0.56196526923E+02  0.23783659978E+02  0.13440848756E+02  0.62484946471E+02  0.00000000000E+00 0.  1.
</event>
<event>
 4    1  0.9856522E-003  0.9118800E+02  0.7818608E-02  0.1130116E+00
         25   -1    0    0    0    0  0.00000000000E+00  0.00000000000E+00  0.99999998245E-14  0.12500000000E+03  0.12500000000E+03 0.  0.
        -13    1    1    0    0    0  0.14102597476E+02  0.14611830463E+02 -0.43535760757E+02  0.48039176448E+02  0.10566000000E+00 0. -1.
         13    1    1    0    0    0 -0.11978090820E+01  0.15059243053E+02 -0.72397731996E+01  0.16752343953E+02  0.10566000000E+00 0.  1.
         22    1    1    0    0    0 -0.12904788394E+02 -0.29671073516E+02  0.50775533956E+02  0.60208479599E+02  0.00000000000E+00 0. -1.
</event>
<event>
 4    1  0.9856522E-003  0.9118800E+02  0.7818608E-02  0.1130116E+00
         25   -1    0    0    0    0  0.00000000000E+00  0.00000000000E+00  0.99999998245E-14  0.12500000000E+03  0.12500000000E+03 0.  0.
        -13    1    1    0    0    0 -0.47919645468E+02  0.11297319164E+02 -0.29065268290E+02  0.57172745490E+02  0.10566000000E+00 0.  1.
         13    1    1    0    0    0 -0.44159775313E+01  0.96271195508E+00 -0.28209069735E+01  0.53288227644E+01  0.10566000000E+00 0. -1.
         22    1    1    0    0    0  0.52335622999E+02 -0.12260031119E+02  0.31886175263E+02  0.62498431746E+02  0.00000000000E+00 0.  1.
</event>
<event>
 4    1  0.9856522E-003  0.9118800E+02  0.7818608E-02  0.1130116E+00
         25   -1    0    0    0    0  0.00000000000E+00  0.00000000000E+00  0.99999998245E-14  0.12500000000E+03  0.12500000000E+03 0.  0.
        -13    1    1    0    0    0 -0.26812409654E+02  0.31791975444E+02 -0.11328929895E+02  0.43104417763E+02  0.10566000000E+00 0. -1.
         13    1    1    0    0    0 -0.14092369545E+02  0.11900320463E+02 -0.63170272128E+01  0.19496884453E+02  0.10566000000E+00 0.  1.
         22    1    1    0    0    0  0.40904779199E+02 -0.43692295907E+02  0.17645957108E+02  0.62398697784E+02  0.00000000000E+00 0. -1.
</event>
<event>
 4    1  0.9856522E-003  0.9118800E+02  0.7818608E-02  0.1130116E+00
         25   -1    0    0    0    0  0.00000000000E+00  0.00000000000E+00  0.99999998245E-14  0.12500000000E+03  0.12500000000E+03 0.  0.
        -13    1    1    0    0    0  0.32476398326E+02  0.36620733440E+02 -0.71911488129E+01  0.49472399893E+02  0.10566000000E+00 0.  1.
         13    1    1    0    0    0  0.85391083863E+01  0.98372766966E+01 -0.74843204561E+00  0.13048360027E+02  0.10566000000E+00 0. -1.
         22    1    1    0    0    0 -0.41015506712E+02 -0.46458010136E+02  0.79395808585E+01  0.62479240080E+02  0.00000000000E+00 0.  1.
</event>
<event>
 4    1  0.9856522E-003  0.9118800E+02  0.7818608E-02  0.1130116E+00
         25   -1    0    0    0    0  0.00000000000E+00  0.00000000000E+00  0.99999998245E-14  0.12500000000E+03  0.12500000000E+03 0.  0.
        -13    1    1    0    0    0  0.13321900267E+02  0.41910463732E+02 -0.11976961706E+02  0.45578709642E+02  0.10566000000E+00 0.  1.
         13    1    1    0    0    0 -0.11918058164E+02  0.14931325189E+02 -0.55976808783E+01  0.19908032991E+02  0.10566000000E+00 0. -1.
         22    1    1    0    0    0 -0.14038421026E+01 -0.56841788921E+02  0.17574642585E+02  0.59513257366E+02  0.00000000000E+00 0.  1.
</event>
<event>
 4    1  0.9856522E-003  0.9118800E+02  0.7818608E-02  0.1130116E+00
         25   -1    0    0    0    0  0.00000000000E+00  0.00000000000E+00  0.99999998245E-14  0.12500000000E+03  0.12500000000E+03 0.  0.
        -13    1    1    0    0    0 -0.12077168974E+02  0.37638632420E+01 -0.12390437885E+02  0.17707591365E+02  0.10566000000E+00 0. -1.
         13    1    1    0    0    0 -0.23255515634E+02  0.99083107591E+01 -0.37144568642E+02  0.44930210028E+02  0.10566000000E+00 0.  1.
         22    1    1    0    0    0  0.35332684608E+02 -0.13672174001E+02  0.49535006527E+02  0.62362198607E+02  0.00000000000E+00 0.  1.
</event>
<event>
 4    1  0.9856522E-003  0.9118800E+02  0.7818608E-02  0.1130116E+00
         25   -1    0    0    0    0  0.00000000000E+00  0.00000000000E+00  0.99999998245E-14  0.12500000000E+03  0.12500000000E+03 0.  0.
        -13    1    1    0    0    0 -0.17354739068E+02 -0.38852035811E+01 -0.20505218453E+02  0.27143266620E+02  0.10566000000E+00 0. -1.
         13    1    1    0    0    0 -0.22784790200E+02 -0.54392227441E+01 -0.26484288798E+02  0.35357609163E+02  0.10566000000E+00 0.  1.
         22    1    1    0    0    0  0.40139529268E+02  0.93244263251E+01  0.46989507251E+02  0.62499124217E+02  0.00000000000E+00 0. -1.
</event>
<event>
 4    1  0.9856522E-003  0.9118800E+02  0.7818608E-02  0.1130116E+00
         25   -1    0    0    0    0  0.00000000000E+00  0.00000000000E+00  0.99999998245E-14  0.12500000000E+03  0.12500000000E+03 0.  0.
        -13    1    1    0    0    0 -0.77028221373E-01  0.48724486789E+00  0.59907914356E+00  0.78319905773E+00  0.10566000000E+00 0. -1.
         13    1    1    0    0    0  0.24059588347E+02  0.11013088148E+02 -0.56456730645E+02  0.62350024067E+02  0.10566000000E+00 0.  1.
         22    1    1    0    0    0 -0.23982560126E+02 -0.11500333016E+02  0.55857651502E+02  0.61866776875E+02  0.00000000000E+00 0.  1.
</event>
<event>
 4    1  0.9856522E-003  0.9118800E+02  0.7818608E-02  0.1130116E+00
         25   -1    0    0    0    0  0.00000000000E+00  0.00000000000E+00  0.99999998245E-14  0.12500000000E+03  0.12500000000E+03 0.  0.
        -13    1    1    0    0    0  0.75026803790E+01  0.55640099824E+01  0.20434060229E+02  0.22467986146E+02  0.10566000000E+00 0.  1.
         13    1    1    0    0    0  0.13219827879E+02  0.10586022858E+02  0.36274332431E+02  0.40033312209E+02  0.10566000000E+00 0. -1.
         22    1    1    0    0    0 -0.20722508258E+02 -0.16150032840E+02 -0.56708392660E+02  0.62498701645E+02  0.00000000000E+00 0. -1.
</event>
<event>
 4    1  0.9856522E-003  0.9118800E+02  0.7818608E-02  0.1130116E+00
         25   -1    0    0    0    0  0.00000000000E+00  0.00000000000E+00  0.99999998245E-14  0.12500000000E+03  0.12500000000E+03 0.  0.
        -13    1    1    0    0    0 -0.31388661486E+02  0.33036909648E+02 -0.40943430772E+02  0.61262232708E+02  0.10566000000E+00 0. -1.
         13    1    1    0    0    0 -0.14001604649E+01  0.72505248214E+00  0.42798836628E+00  0.16372197491E+01  0.10566000000E+00 0.  1.
         22    1    1    0    0    0  0.32788821951E+02 -0.33761962130E+02  0.40515442406E+02  0.62100547543E+02  0.00000000000E+00 0. -1.
</event>
<event>
 4    1  0.9856522E-003  0.9118800E+02  0.7818608E-02  0.1130116E+00
         25   -1    0    0    0    0  0.00000000000E+00  0.00000000000E+00  0.99999998245E-14  0.12500000000E+03  0.12500000000E+03 0.  0.
        -13    1    1    0    0    0  0.31951686553E+01  0.41274596022E+01  0.96624766961E+01  0.10982697548E+02  0.10566000000E+00 0.  1.
         13    1    1    0    0    0  0.15588785632E+02  0.19525610593E+02  0.45053678048E+02  0.51518004389E+02  0.10566000000E+00 0.  1.
         22    1    1    0    0    0 -0.18783954288E+02 -0.23653070195E+02 -0.54716154744E+02  0.62499298063E+02  0.00000000000E+00 0.  1.
</event>
<event>
 4    1  0.9856522E-003  0.9118800E+02  0.7818608E-02  0.1130116E+00
         25   -1    0    0    0    0  0.00000000000E+00  0.00000000000E+00  0.99999998245E-14  0.12500000000E+03  0.12500000000E+03 0.  0.
        -13    1    1    0    0    0 -0.52069841277E+02 -0.50702635424E+00 -0.17214275770E+02  0.54844032498E+02  0.10566000000E+00 0.  1.
         13    1    1    0    0    0 -0.69405929076E+01 -0.19635804894E+01 -0.28824731778E+01  0.77683520713E+01  0.10566000000E+00 0. -1.
         22    1    1    0    0    0  0.59010434184E+02  0.24706068436E+01  0.20096748948E+02  0.62387615431E+02  0.00000000000E+00 0.  1.
</event>
<event>
 4    1  0.9856522E-003  0.9118800E+02  0.7818608E-02  0.1130116E+00
         25   -1    0    0    0    0  0.00000000000E+00  0.00000000000E+00  0.99999998245E-14  0.12500000000E+03  0.12500000000E+03 0.  0.
        -13    1    1    0    0    0  0.84164295811E+00 -0.85708779123E+01 -0.97963837448E+01  0.13044102482E+02  0.10566000000E+00 0. -1.
         13    1    1    0    0    0  0.47971119020E+01 -0.36866796469E+02 -0.32681334753E+02  0.49500038078E+02  0.10566000000E+00 0.  1.
         22    1    1    0    0    0 -0.56387548601E+01  0.45437674381E+02  0.42477718498E+02  0.62455859439E+02  0.00000000000E+00 0.  1.
</event>
<event>
 4    1  0.9856522E-003  0.9118800E+02  0.7818608E-02  0.1130116E+00
         25   -1    0    0    0    0  0.00000000000E+00  0.00000000000E+00  0.99999998245E-14  0.12500000000E+03  0.12500000000E+03 0.  0.
        -13    1    1    0    0    0  0.34752346116E+02  0.48095707635E+02  0.29481168177E+01  0.59410648964E+02  0.10566000000E+00 0. -1.
         13    1    1    0    0    0  0.64224358105E+00  0.12926780935E+01  0.41681830577E+01  0.44123018379E+01  0.10566000000E+00 0.  1.
         22    1    1    0    0    0 -0.35394589698E+02 -0.49388385728E+02 -0.71162998754E+01  0.61177049198E+02  0.00000000000E+00 0. -1.
</event>
<event>
 4    1  0.9856522E-003  0.9118800E+02  0.7818608E-02  0.1130116E+00
         25   -1    0    0    0    0  0.00000000000E+00  0.00000000000E+00  0.99999998245E-14  0.12500000000E+03  0.12500000000E+03 0.  0.
        -13    1    1    0    0    0  0.38325878226E+02 -0.26520580513E+02 -0.24943267940E+02  0.52862008211E+02  0.10566000000E+00 0. -1.
         13    1    1    0    0    0  0.73618942054E+01 -0.45132381678E+01 -0.42952973529E+01  0.96450789751E+01  0.10566000000E+00 0.  1.
         22    1    1    0    0    0 -0.45687772431E+02  0.31033818681E+02  0.29238565292E+02  0.62492912814E+02  0.00000000000E+00 0. -1.
</event>
<event>
 4    1  0.9856522E-003  0.9118800E+02  0.7818608E-02  0.1130116E+00
         25   -1    0    0    0    0  0.00000000000E+00  0.00000000000E+00  0.99999998245E-14  0.12500000000E+03  0.12500000000E+03 0.  0.
        -13    1    1    0    0    0  0.22372562976E+02  0.96344552747E+01  0.43607790245E+02  0.49950023390E+02  0.10566000000E+00 0.  1.
         13    1    1    0    0    0  0.57108475654E+01  0.24061110784E+01  0.10913231987E+02  0.12550416204E+02  0.10566000000E+00 0. -1.
         22    1    1    0    0    0 -0.28083410541E+02 -0.12040566353E+02 -0.54521022233E+02  0.62499560407E+02  0.00000000000E+00 0.  1.
</event>
<event>
 4    1  0.9856522E-003  0.9118800E+02  0.7818608E-02  0.1130116E+00
         25   -1    0    0    0    0  0.00000000000E+00  0.00000000000E+00  0.99999998245E-14  0.12500000000E+03  0.12500000000E+03 0.  0.
        -13    1    1    0    0    0  0.32951753710E+01  0.81591814458E+01 -0.11778316174E+01  0.88785626058E+01  0.10566000000E+00 0.  1.
         13    1    1    0    0    0  0.48028519564E+02  0.25703915132E+02  0.35253634904E+01  0.54588179090E+02  0.10566000000E+00 0. -1.
         22    1    1    0    0    0 -0.51323694935E+02 -0.33863096578E+02 -0.23475318730E+01  0.61533258304E+02  0.00000000000E+00 0. -1.
</event>
<event>
 4    1  0.9856522E-003  0.9118800E+02  0.7818608E-02  0.1130116E+00
         25   -1    0    0    0    0  0.00000000000E+00  0.00000000000E+00  0.99999998245E-14  0.12500000000E+03  0.12500000000E+03 0.  0.
        -13    1    1    0    0    0  0.20778336330E+01  0.28544105565E+02  0.29563415183E+02  0.41147175316E+02  0.10566000000E+00 0.  1.
         13    1    1    0    0    0  0.11928458431E+01  0.14844700447E+02  0.15302208819E+02  0.21353144297E+02  0.10566000000E+00 0. -1.
         22    1    1    0    0    0 -0.32706794761E+01 -0.43388806012E+02 -0.44865624002E+02  0.62499680388E+02  0.00000000000E+00 0. -1.
</event>
<event>
 4    1  0.9856522E-003  0.9118800E+02  0.7818608E-02  0.1130116E+00
         25   -1    0    0    0    0  0.00000000000E+00  0.00000000000E+00  0.99999998245E-14  0.12500000000E+03  0.12500000000E+03 0.  0.
        -13    1    1    0    0    0 -0.57565774512E+01 -0.23296059535E+02  0.48931751626E+02  0.54499284904E+02  0.10566000000E+00 0. -1.
         13    1    1    0    0    0 -0.91221479894E+00 -0.38240432836E+01  0.69744849282E+01  0.80068749787E+01  0.10566000000E+00 0.  1.
         22    1    1    0    0    0  0.66687922501E+01  0.27120102818E+02 -0.55906236554E+02  0.62493840117E+02  0.00000000000E+00 0. -1.
</event>
<event>
 4    1  0.9856522E-003  0.9118800E+02  0.7818608E-02  0.1130116E+00
         25   -1    0    0    0    0  0.00000000000E+00  0.00000000000E+00  0.99999998245E-14  0.12500000000E+03  0.12500000000E+03 0.  0.
        -13    1    1    0    0    0  0.19515836440E+02 -0.47092931651E+02 -0.27414351051E+01  0.51050354689E+02  0.10566000000E+00 0.  1.
         13    1    1    0    0    0  0.52651798266E+01 -0.31215667172E+01  0.15372248897E+02  0.16546404369E+02  0.10566000000E+00 0. -1.
         22    1    1    0    0    0 -0.24781016266E+02  0.50214498368E+02 -0.12630813791E+02  0.57403240942E+02  0.00000000000E+00 0.  1.
</event>
<event>
 4    1  0.9856522E-003  0.9118800E+02  0.7818608E-02  0.1130116E+00
         25   -1    0    0    0    0  0.00000000000E+00  0.00000000000E+00  0.99999998245E-14  0.12500000000E+03  0.12500000000E+03 0.  0.
        -13    1    1    0    0    0  0.11771756685E+01 -0.18496299508E+02  0.10407320864E+02  0.21256112760E+02  0.10566000000E+00 0.  1.
         13    1    1    0    0    0  0.29171783926E+01 -0.35927300983E+02  0.20046313669E+02  0.41244960195E+02  0.10566000000E+00 0.  1.
         22    1    1    0    0    0 -0.40943540612E+01  0.54423600491E+02 -0.30453634533E+02  0.62498927046E+02  0.00000000000E+00 0.  1.
</event>
<event>
 4    1  0.9856522E-003  0.9118800E+02  0.7818608E-02  0.1130116E+00
         25   -1    0    0    0    0  0.00000000000E+00  0.00000000000E+00  0.99999998245E-14  0.12500000000E+03  0.12500000000E+03 0.  0.
        -13    1    1    0    0    0 -0.14268515157E+02  0.31230313602E+02  0.10141375087E+02  0.35801978509E+02  0.10566000000E+00 0. -1.
         13    1    1    0    0    0 -0.10693584980E+02  0.23357433343E+02  0.72723289575E+01  0.26698696309E+02  0.10566000000E+00 0.  1.
         22    1    1    0    0    0  0.24962100137E+02 -0.54587746945E+02 -0.17413704044E+02  0.62499325183E+02  0.00000000000E+00 0. -1.
</event>
<event>
 4    1  0.9856522E-003  0.9118800E+02  0.7818608E-02  0.1130116E+00
         25   -1    0    0    0    0  0.00000000000E+00  0.00000000000E+00  0.99999998245E-14  0.12500000000E+03  0.12500000000E+03 0.  0.
        -13    1    1    0    0    0 -0.26610423933E+00  0.64098322747E+01  0.81707423532E-01  0.64167438312E+01  0.10566000000E+00 0. -1.
         13    1    1    0    0    0 -0.21166655741E+01  0.56036657192E+02  0.88963011323E+00  0.56083775088E+02  0.10566000000E+00 0. -1.
         22    1    1    0    0    0  0.23827698135E+01 -0.62446489467E+02 -0.97133753676E+00  0.62499481080E+02  0.00000000000E+00 0. -1.
</event>
<event>
 4    1  0.9856522E-003  0.9118800E+02  0.7818608E-02  0.1130116E+00
         25   -1    0    0    0    0  0.00000000000E+00  0.00000000000E+00  0.99999998245E-14  0.12500000000E+03  0.12500000000E+03 0.  0.
        -13    1    1    0    0    0  0.40060776153E+02 -0.18380374028E+02  0.20965567956E+02  0.48808504783E+02  0.10566000000E+00 0. -1.
         13    1    1    0    0    0  0.88477081557E+01 -0.42641855820E+01  0.10013174513E+02  0.14026405318E+02  0.10566000000E+00 0.  1.
         22    1    1    0    0    0 -0.48908484309E+02  0.22644559610E+02 -0.30978742468E+02  0.62165089899E+02  0.00000000000E+00 0. -1.
</event>
<event>
 4    1  0.9856522E-003  0.9118800E+02  0.7818608E-02  0.1130116E+00
         25   -1    0    0    0    0  0.00000000000E+00  0.00000000000E+00  0.99999998245E-14  0.12500000000E+03  0.12500000000E+03 0.  0.
        -13    1    1    0    0    0 -0.11918462609E+02  0.84889421781E+01  0.11849005975E+02  0.18828754524E+02  0.10566000000E+00 0. -1.
         13    1    1    0    0    0 -0.27020088112E+02  0.18670775325E+02  0.28791928025E+02  0.43676873701E+02  0.10566000000E+00 0.  1.
         22    1    1    0    0    0  0.38938550722E+02 -0.27159717503E+02 -0.40640934001E+02  0.62494371775E+02  0.00000000000E+00 0.  1.
</event>
<event>
 4    1  0.9856522E-003  0.9118800E+02  0.7818608E-02  0.1130116E+00
         25   -1    0    0    0    0  0.00000000000E+00  0.00000000000E+00  0.99999998245E-14  0.12500000000E+03  0.12500000000E+03 0.  0.
        -13    1    1    0    0    0 -0.20151783679E+01 -0.28215704466E+02  0.17015442815E+02  0.33010958492E+02  0.10566000000E+00 0.  1.
         13    1    1    0    0    0 -0.16571309686E+01 -0.25163426800E+02  0.15286159368E+02  0.29489353395E+02  0.10566000000E+00 0.  1.
         22    1    1    0    0    0  0.36723093365E+01  0.53379131266E+02 -0.32301602183E+02  0.62499688113E+02  0.00000000000E+00 0.  1.
</event>
<event>
 4    1  0.9856522E-003  0.9118800E+02  0.7818608E-02  0.1130116E+00
         25   -1    0    0    0    0  0.00000000000E+00  0.00000000000E+00  0.99999998245E-14  0.12500000000E+03  0.12500000000E+03 0.  0.
        -13    1    1    0    0    0 -0.63405112836E+01  0.79637151865E+01  0.13709083792E+02  0.17075508348E+02  0.10566000000E+00 0. -1.
         13    1    1    0    0    0 -0.94771661340E+01  0.47911986633E+02 -0.35314642205E+01  0.48967923630E+02  0.10566000000E+00 0.  1.
         22    1    1    0    0    0  0.15817677418E+02 -0.55875701820E+02 -0.10177619571E+02  0.58956568022E+02  0.00000000000E+00 0.  1.
</event>
<event>
 4    1  0.9856522E-003  0.9118800E+02  0.7818608E-02  0.1130116E+00
         25   -1    0    0    0    0  0.00000000000E+00  0.00000000000E+00  0.99999998245E-14  0.12500000000E+03  0.12500000000E+03 0.  0.
        -13    1    1    0    0    0 -0.43562044420E+00 -0.17728374067E+02  0.12066523878E+02  0.21449875868E+02  0.10566000000E+00 0.  1.
         13    1    1    0    0    0  0.13996520465E+00 -0.34070416371E+02  0.22901470500E+02  0.41052422304E+02  0.10566000000E+00 0. -1.
         22    1    1    0    0    0  0.29565523955E+00  0.51798790439E+02 -0.34967994377E+02  0.62497701827E+02  0.00000000000E+00 0. -1.
</event>
<event>
 4    1  0.9856522E-003  0.9118800E+02  0.7818608E-02  0.1130116E+00
         25   -1    0    0    0    0  0.00000000000E+00  0.00000000000E+00  0.99999998245E-14  0.12500000000E+03  0.12500000000E+03 0.  0.
        -13    1    1    0    0    0  0.38610314286E+02 -0.16755832788E+02 -0.10350930712E+02  0.43343595056E+02  0.10566000000E+00 0.  1.
         13    1    1    0    0    0  0.15080472283E+02  0.21582042519E+02  0.86812779605E+01  0.27723292637E+02  0.10566000000E+00 0. -1.
         22    1    1    0    0    0 -0.53690786569E+02 -0.48262097315E+01  0.16696527519E+01  0.53933112307E+02  0.00000000000E+00 0.  1.
</event>
<event>
 4    1  0.9856522E-003  0.9118800E+02  0.7818608E-02  0.1130116E+00
         25   -1    0    0    0    0  0.00000000000E+00  0.00000000000E+00  0.99999998245E-14  0.12500000000E+03  0.12500000000E+03 0.  0.
        -13    1    1    0    0    0 -0.25223895906E+02 -0.90161238586E+01  0.22109292511E+02  0.34732799966E+02  0.10566000000E+00 0.  1.
         13    1    1    0    0    0 -0.12985075571E+02 -0.18465050446E+02  0.17650851522E+02  0.28655435768E+02  0.10566000000E+00 0. -1.
         22    1    1    0    0    0  0.38208971477E+02  0.27481174305E+02 -0.39760144033E+02  0.61611764266E+02  0.00000000000E+00 0.  1.
</event>
<event>
 4    1  0.9856522E-003  0.9118800E+02  0.7818608E-02  0.1130116E+00
         25   -1    0    0    0    0  0.00000000000E+00  0.00000000000E+00  0.99999998245E-14  0.12500000000E+03  0.12500000000E+03 0.  0.
        -13    1    1    0    0    0 -0.82048517054E+01 -0.55840050082E+02 -0.21593851440E+01  0.56481013561E+02  0.10566000000E+00 0. -1.
         13    1    1    0    0    0 -0.86711003741E+00 -0.59508780873E+01 -0.24179814367E+00  0.60195066413E+01  0.10566000000E+00 0. -1.
         22    1    1    0    0    0  0.90719617429E+01  0.61790928169E+02  0.24011832876E+01  0.62499479798E+02  0.00000000000E+00 0. -1.
</event>
<event>
 4    1  0.9856522E-003  0.9118800E+02  0.7818608E-02  0.1130116E+00
         25   -1    0    0    0    0  0.00000000000E+00  0.00000000000E+00  0.99999998245E-14  0.12500000000E+03  0.12500000000E+03 0.  0.
        -13    1    1    0    0    0  0.28316689325E+02 -0.24560603425E+02 -0.29645160426E+02  0.47790216945E+02  0.10566000000E+00 0. -1.
         13    1    1    0    0    0 -0.20948909145E+02 -0.14646970116E+02 -0.28987643103E+01  0.25725561734E+02  0.10566000000E+00 0.  1.
         22    1    1    0    0    0 -0.73677801802E+01  0.39207573541E+02  0.32543924737E+02  0.51484221321E+02  0.00000000000E+00 0. -1.
</event>
<event>
 4    1  0.9856522E-003  0.9118800E+02  0.7818608E-02  0.1130116E+00
         25   -1    0    0    0    0  0.00000000000E+00  0.00000000000E+00  0.99999998245E-14  0.12500000000E+03  0.12500000000E+03 0.  0.
        -13    1    1    0    0    0 -0.51538615287E+01  0.43882878577E+01  0.52714787842E+02  0.53147712841E+02  0.10566000000E+00 0.  1.
         13    1    1    0    0    0 -0.97705534882E+00 -0.41254962236E+01  0.89389258628E+01  0.98939332857E+01  0.10566000000E+00 0. -1.
         22    1    1    0    0    0  0.61309168776E+01 -0.26279163418E+00 -0.61653713704E+02  0.61958353874E+02  0.00000000000E+00 0.  1.
</event>
<event>
 4    1  0.9856522E-003  0.9118800E+02  0.7818608E-02  0.1130116E+00
         25   -1    0    0    0    0  0.00000000000E+00  0.00000000000E+00  0.99999998245E-14  0.12500000000E+03  0.12500000000E+03 0.  0.
        -13    1    1    0    0    0 -0.23100091773E+02  0.23620190252E+02  0.43326327026E+01  0.33321321967E+02  0.10566000000E+00 0. -1.
         13    1    1    0    0    0  0.21802163100E+02  0.16313001278E+01  0.37145030914E+02  0.43101739427E+02  0.10566000000E+00 0.  1.
         22    1    1    0    0    0  0.12979286723E+01 -0.25251490380E+02 -0.41477663617E+02  0.48576938606E+02  0.00000000000E+00 0.  1.
</event>
<event>
 4    1  0.9856522E-003  0.9118800E+02  0.7818608E-02  0.1130116E+00
         25   -1    0    0    0    0  0.00000000000E+00  0.00000000000E+00  0.99999998245E-14  0.12500000000E+03  0.12500000000E+03 0.  0.
        -13    1    1    0    0    0 -0.51339195467E+02  0.13051894656E+02 -0.15078983652E+02  0.55076781472E+02  0.10566000000E+00 0. -1.
         13    1    1    0    0    0 -0.69306135082E+01  0.20735013829E+01 -0.16915469682E+01  0.74300273732E+01  0.10566000000E+00 0.  1.
         22    1    1    0    0    0  0.58269808975E+02 -0.15125396039E+02  0.16770530620E+02  0.62493191154E+02  0.00000000000E+00 0. -1.
</event>
<event>
 4    1  0.9856522E-003  0.9118800E+02  0.7818608E-02  0.1130116E+00
         25   -1    0    0    0    0  0.00000000000E+00  0.00000000000E+00  0.99999998245E-14  0.12500000000E+03  0.12500000000E+03 0.  0.
        -13    1    1    0    0    0  0.88500987143E+01  0.39129639428E+02 -0.30695142774E+02  0.50513917715E+02  0.10566000000E+00 0. -1.
         13    1    1    0    0    0  0.22894837641E+01  0.89165861625E+01 -0.76843305823E+01  0.11991970031E+02  0.10566000000E+00 0.  1.
         22    1    1    0    0    0 -0.11139582478E+02 -0.48046225590E+02  0.38379473356E+02  0.62494112253E+02  0.00000000000E+00 0. -1.
</event>
<event>
 4    1  0.9856522E-003  0.9118800E+02  0.7818608E-02  0.1130116E+00
         25   -1    0    0    0    0  0.00000000000E+00  0.00000000000E+00  0.99999998245E-14  0.12500000000E+03  0.12500000000E+03 0.  0.
        -13    1    1    0    0    0 -0.80929798493E+01 -0.24766378922E+02 -0.21234753702E+02  0.33612434850E+02  0.10566000000E+00 0. -1.
         13    1    1    0    0    0 -0.48810660090E+01 -0.25346364482E+02 -0.13420920324E+02  0.29092873083E+02  0.10566000000E+00 0.  1.
         22    1    1    0    0    0  0.12974045858E+02  0.50112743404E+02  0.34655674027E+02  0.62294692066E+02  0.00000000000E+00 0. -1.
</event>
<event>
 4    1  0.9856522E-003  0.9118800E+02  0.7818608E-02  0.1130116E+00
         25   -1    0    0    0    0  0.00000000000E+00  0.00000000000E+00  0.99999998245E-14  0.12500000000E+03  0.12500000000E+03 0.  0.
        -13    1    1    0    0    0 -0.21969037568E+00 -0.12795273173E+02 -0.11686532917E+02  0.17330709596E+02  0.10566000000E+00 0.  1.
         13    1    1    0    0    0 -0.14634682730E+01 -0.33162355746E+02 -0.30635099818E+02  0.45170832214E+02  0.10566000000E+00 0. -1.
         22    1    1    0    0    0  0.16831586487E+01  0.45957628919E+02  0.42321632735E+02  0.62498458191E+02  0.00000000000E+00 0. -1.
</event>
<event>
 4    1  0.9856522E-003  0.9118800E+02  0.7818608E-02  0.1130116E+00
         25   -1    0    0    0    0  0.00000000000E+00  0.00000000000E+00  0.99999998245E-14  0.12500000000E+03  0.12500000000E+03 0.  0.
        -13    1    1    0    0    0 -0.15695977009E+02 -0.18184144580E+01 -0.17315569470E+00  0.15802261621E+02  0.10566000000E+00 0. -1.
         13    1    1    0    0    0 -0.46356580548E+02 -0.56238531762E+01 -0.37390578461E+00  0.46698086194E+02  0.10566000000E+00 0. -1.
         22    1    1    0    0    0  0.62052557557E+02  0.74422676342E+01  0.54706147931E+00  0.62499652184E+02  0.00000000000E+00 0. -1.
</event>
<event>
 4    1  0.9856522E-003  0.9118800E+02  0.7818608E-02  0.1130116E+00
         25   -1    0    0    0    0  0.00000000000E+00  0.00000000000E+00  0.99999998245E-14  0.12500000000E+03  0.12500000000E+03 0.  0.
        -13    1    1    0    0    0 -0.37093892515E+02  0.10251976342E+02 -0.31327725371E+02  0.49623557125E+02  0.10566000000E+00 0. -1.
         13    1    1    0    0    0 -0.67170233281E+01 -0.26256538218E+01 -0.11540324463E+02  0.13608920351E+02  0.10566000000E+00 0.  1.
         22    1    1    0    0    0  0.43810915843E+02 -0.76263225202E+01  0.42868049834E+02  0.61767522524E+02  0.00000000000E+00 0. -1.
</event>
<event>
 4    1  0.9856522E-003  0.9118800E+02  0.7818608E-02  0.1130116E+00
         25   -1    0    0    0    0  0.00000000000E+00  0.00000000000E+00  0.99999998245E-14  0.12500000000E+03  0.12500000000E+03 0.  0.
        -13    1    1    0    0    0  0.20458427094E+00  0.19583943555E+02 -0.16467169008E+02  0.25588112847E+02  0.10566000000E+00 0.  1.
         13    1    1    0    0    0  0.31961356116E+01  0.27225085981E+02 -0.24763204655E+02  0.36941143165E+02  0.10566000000E+00 0. -1.
         22    1    1    0    0    0 -0.34007198825E+01 -0.46809029537E+02  0.41230373664E+02  0.62470743987E+02  0.00000000000E+00 0.  1.
</event>
<event>
 4    1  0.9856522E-003  0.9118800E+02  0.7818608E-02  0.1130116E+00
         25   -1    0    0    0    0  0.00000000000E+00  0.00000000000E+00  0.99999998245E-14  0.12500000000E+03  0.12500000000E+03 0.  0.
        -13    1    1    0    0    0 -0.26427655634E+02 -0.23108976580E+02  0.30566713429E+01  0.35239185357E+02  0.10566000000E+00 0. -1.
         13    1    1    0    0    0 -0.25854408939E+02 -0.69609028466E+01  0.90145932279E+01  0.28252056299E+02  0.10566000000E+00 0.  1.
         22    1    1    0    0    0  0.52282064573E+02  0.30069879426E+02 -0.12071264571E+02  0.61508758344E+02  0.00000000000E+00 0.  1.
</event>
<event>
 4    1  0.9856522E-003  0.9118800E+02  0.7818608E-02  0.1130116E+00
         25   -1    0    0    0    0  0.00000000000E+00  0.00000000000E+00  0.99999998245E-14  0.12500000000E+03  0.12500000000E+03 0.  0.
        -13    1    1    0    0    0  0.38586750174E+01 -0.22570899044E+01  0.76114568855E+00  0.45358940157E+01  0.10566000000E+00 0. -1.
         13    1    1    0    0    0  0.50874431971E+02 -0.25093670128E+02  0.11949122070E+02  0.57971482568E+02  0.10566000000E+00 0.  1.
         22    1    1    0    0    0 -0.54733106988E+02  0.27350760033E+02 -0.12710267758E+02  0.62492623416E+02  0.00000000000E+00 0.  1.
</event>
<event>
 4    1  0.9856522E-003  0.9118800E+02  0.7818608E-02  0.1130116E+00
         25   -1    0    0    0    0  0.00000000000E+00  0.00000000000E+00  0.99999998245E-14  0.12500000000E+03  0.12500000000E+03 0.  0.
        -13    1    1    0    0    0 -0.40629861416E+01  0.35867235356E+01  0.58635827290E+00  0.54522859580E+01  0.10566000000E+00 0. -1.
         13    1    1    0    0    0  0.56686106767E+02 -0.22496360403E+02 -0.12790777197E+02  0.62313851407E+02  0.10566000000E+00 0.  1.
         22    1    1    0    0    0 -0.52623120626E+02  0.18909636867E+02  0.12204418924E+02  0.57233862635E+02  0.00000000000E+00 0.  1.
</event>
<event>
 4    1  0.9856522E-003  0.9118800E+02  0.7818608E-02  0.1130116E+00
         25   -1    0    0    0    0  0.00000000000E+00  0.00000000000E+00  0.99999998245E-14  0.12500000000E+03  0.12500000000E+03 0.  0.
        -13    1    1    0    0    0 -0.13149126270E+02 -0.46019240632E+02 -0.11881123934E+02  0.49313713103E+02  0.10566000000E+00 0.  1.
         13    1    1    0    0    0 -0.18661857810E+02 -0.15480990019E+00  0.23360416489E+01  0.18808433153E+02  0.10566000000E+00 0. -1.
         22    1    1    0    0    0  0.31810984080E+02  0.46174050532E+02  0.95450822847E+01  0.56877853744E+02  0.00000000000E+00 0.  1.
</event>
<event>
 4    1  0.9856522E-003  0.9118800E+02  0.7818608E-02  0.1130116E+00
         25   -1    0    0    0    0  0.00000000000E+00  0.00000000000E+00  0.99999998245E-14  0.12500000000E+03  0.12500000000E+03 0.  0.
        -13    1    1    0    0    0 -0.58798024432E+00 -0.66723073803E+01 -0.69980786165E+01  0.96876041880E+01  0.10566000000E+00 0.  1.
         13    1    1    0    0    0 -0.80770517407E+01 -0.42361640194E+02 -0.30633798457E+02  0.52897902574E+02  0.10566000000E+00 0. -1.
         22    1    1    0    0    0  0.86650319850E+01  0.49033947575E+02  0.37631877074E+02  0.62414493238E+02  0.00000000000E+00 0. -1.
</event>
<event>
 4    1  0.9856522E-003  0.9118800E+02  0.7818608E-02  0.1130116E+00
         25   -1    0    0    0    0  0.00000000000E+00  0.00000000000E+00  0.99999998245E-14  0.12500000000E+03  0.12500000000E+03 0.  0.
        -13    1    1    0    0    0  0.10435527889E+02 -0.22723993719E+02  0.13112381144E+02  0.28235187907E+02  0.10566000000E+00 0. -1.
         13    1    1    0    0    0  0.69252014656E+01 -0.32682953655E+02  0.90548651193E+01  0.34614095702E+02  0.10566000000E+00 0.  1.
         22    1    1    0    0    0 -0.17360729355E+02  0.55406947373E+02 -0.22167246263E+02  0.62150716390E+02  0.00000000000E+00 0.  1.
</event>
<event>
 4    1  0.9856522E-003  0.9118800E+02  0.7818608E-02  0.1130116E+00
         25   -1    0    0    0    0  0.00000000000E+00  0.00000000000E+00  0.99999998245E-14  0.12500000000E+03  0.12500000000E+03 0.  0.
        -13    1    1    0    0    0 -0.35844649067E+01 -0.35877438381E+02 -0.18996189555E+02  0.40754206594E+02  0.10566000000E+00 0.  1.
         13    1    1    0    0    0 -0.23480664429E+01 -0.19029062536E+02 -0.10263023409E+02  0.21747630918E+02  0.10566000000E+00 0. -1.
         22    1    1    0    0    0  0.59325313496E+01  0.54906500917E+02  0.29259212963E+02  0.62498162488E+02  0.00000000000E+00 0.  1.
</event>
<event>
 4    1  0.9856522E-003  0.9118800E+02  0.7818608E-02  0.1130116E+00
         25   -1    0    0    0    0  0.00000000000E+00  0.00000000000E+00  0.99999998245E-14  0.12500000000E+03  0.12500000000E+03 0.  0.
        -13    1    1    0    0    0 -0.21918017648E+02 -0.22819734803E+02  0.51009613674E+02  0.60026091371E+02  0.10566000000E+00 0.  1.
         13    1    1    0    0    0 -0.68919497866E+00 -0.59764678433E+00  0.23203981022E+01  0.24955125297E+01  0.10566000000E+00 0. -1.
         22    1    1    0    0    0  0.22607212627E+02  0.23417381587E+02 -0.53330011776E+02  0.62478396099E+02  0.00000000000E+00 0.  1.
</event>
<event>
 4    1  0.9856522E-003  0.9118800E+02  0.7818608E-02  0.1130116E+00
         25   -1    0    0    0    0  0.00000000000E+00  0.00000000000E+00  0.99999998245E-14  0.12500000000E+03  0.12500000000E+03 0.  0.
        -13    1    1    0    0    0  0.10545081378E+02  0.85008742777E+01 -0.30722056908E+02  0.33575579659E+02  0.10566000000E+00 0. -1.
         13    1    1    0    0    0  0.82478586304E+01  0.72205215213E+01 -0.26770765792E+02  0.28928328126E+02  0.10566000000E+00 0.  1.
         22    1    1    0    0    0 -0.18792940008E+02 -0.15721395799E+02  0.57492822701E+02  0.62496092215E+02  0.00000000000E+00 0.  1.
</event>
<event>
 4    1  0.9856522E-003  0.9118800E+02  0.7818608E-02  0.1130116E+00
         25   -1    0    0    0    0  0.00000000000E+00  0.00000000000E+00  0.99999998245E-14  0.12500000000E+03  0.12500000000E+03 0.  0.
        -13    1    1    0    0    0 -0.24337189109E+00 -0.29075835442E+01  0.88560961192E+00  0.30510228390E+01  0.10566000000E+00 0. -1.
         13    1    1    0    0    0 -0.56026133307E+02  0.29753017595E+01  0.23236870768E+02  0.60726792777E+02  0.10566000000E+00 0.  1.
         22    1    1    0    0    0  0.56269505198E+02 -0.67718215284E-01 -0.24122480380E+02  0.61222184384E+02  0.00000000000E+00 0.  1.
</event>
<event>
 4    1  0.9856522E-003  0.9118800E+02  0.7818608E-02  0.1130116E+00
         25   -1    0    0    0    0  0.00000000000E+00  0.00000000000E+00  0.99999998245E-14  0.12500000000E+03  0.12500000000E+03 0.  0.
        -13    1    1    0    0    0 -0.27887518213E+02  0.18156061464E+02 -0.48543174928E+02  0.58854118260E+02  0.10566000000E+00 0. -1.
         13    1    1    0    0    0  0.29164059673E+01 -0.56273495439E+01 -0.33798565949E+01  0.71838068803E+01  0.10566000000E+00 0.  1.
         22    1    1    0    0    0  0.24971112246E+02 -0.12528711920E+02  0.51923031523E+02  0.58962074860E+02  0.00000000000E+00 0. -1.
</event>
<event>
 4    1  0.9856522E-003  0.9118800E+02  0.7818608E-02  0.1130116E+00
         25   -1    0    0    0    0  0.00000000000E+00  0.00000000000E+00  0.99999998245E-14  0.12500000000E+03  0.12500000000E+03 0.  0.
        -13    1    1    0    0    0  0.79856506070E+01  0.36805546177E+02  0.32327532852E+02  0.49633651783E+02  0.10566000000E+00 0. -1.
         13    1    1    0    0    0  0.21402199742E+01  0.93774241778E+01  0.85466801367E+01  0.12867537882E+02  0.10566000000E+00 0.  1.
         22    1    1    0    0    0 -0.10125870581E+02 -0.46182970355E+02 -0.40874212988E+02  0.62498810335E+02  0.00000000000E+00 0. -1.
</event>
<event>
 4    1  0.9856522E-003  0.9118800E+02  0.7818608E-02  0.1130116E+00
         25   -1    0    0    0    0  0.00000000000E+00  0.00000000000E+00  0.99999998245E-14  0.12500000000E+03  0.12500000000E+03 0.  0.
        -13    1    1    0    0    0  0.25868789139E+02 -0.41539175095E+01 -0.83374928323E+01  0.27494985596E+02  0.10566000000E+00 0. -1.
         13    1    1    0    0    0  0.32268763189E+02 -0.66452090046E+01 -0.11864514424E+02  0.35017277836E+02  0.10566000000E+00 0.  1.
         22    1    1    0    0    0 -0.58137552328E+02  0.10799126514E+02  0.20202007256E+02  0.62487736568E+02  0.00000000000E+00 0.  1.
</event>
<event>
 4    1  0.9856522E-003  0.9118800E+02  0.7818608E-02  0.1130116E+00
         25   -1    0    0    0    0  0.00000000000E+00  0.00000000000E+00  0.99999998245E-14  0.12500000000E+03  0.12500000000E+03 0.  0.
        -13    1    1    0    0    0 -0.19287798085E+02 -0.42213116921E+01 -0.44055869128E+02  0.48278042587E+02  0.10566000000E+00 0.  1.
         13    1    1    0    0    0 -0.95449095376E+01  0.11519648544E+02 -0.78528477789E+01  0.16896330458E+02  0.10566000000E+00 0. -1.
         22    1    1    0    0    0  0.28832707623E+02 -0.72983368520E+01  0.51908716907E+02  0.59825626955E+02  0.00000000000E+00 0.  1.
</event>
<event>
 4    1  0.9856522E-003  0.9118800E+02  0.7818608E-02  0.1130116E+00
         25   -1    0    0    0    0  0.00000000000E+00  0.00000000000E+00  0.99999998245E-14  0.12500000000E+03  0.12500000000E+03 0.  0.
        -13    1    1    0    0    0  0.21373483424E+02  0.13508611866E+02  0.15077170375E+02  0.29438760483E+02  0.10566000000E+00 0. -1.
         13    1    1    0    0    0  0.21002801823E+02  0.19629943783E+02  0.16536094155E+02  0.33164830036E+02  0.10566000000E+00 0.  1.
         22    1    1    0    0    0 -0.42376285247E+02 -0.33138555650E+02 -0.31613264530E+02  0.62396409481E+02  0.00000000000E+00 0.  1.
</event>
<event>
 4    1  0.9856522E-003  0.9118800E+02  0.7818608E-02  0.1130116E+00
         25   -1    0    0    0    0  0.00000000000E+00  0.00000000000E+00  0.99999998245E-14  0.12500000000E+03  0.12500000000E+03 0.  0.
        -13    1    1    0    0    0 -0.13816300860E+01  0.34333685302E+02 -0.90264610274E+01  0.35527440251E+02  0.10566000000E+00 0.  1.
         13    1    1    0    0    0 -0.31022422794E+01  0.26072310183E+02 -0.62786010099E+01  0.26996689799E+02  0.10566000000E+00 0. -1.
         22    1    1    0    0    0  0.44838723654E+01 -0.60405995485E+02  0.15305062037E+02  0.62475869949E+02  0.00000000000E+00 0.  1.
</event>
<event>
 4    1  0.9856522E-003  0.9118800E+02  0.7818608E-02  0.1130116E+00
         25   -1    0    0    0    0  0.00000000000E+00  0.00000000000E+00  0.99999998245E-14  0.12500000000E+03  0.12500000000E+03 0.  0.
        -13    1    1    0    0    0 -0.55830836629E+02  0.25717942783E+00 -0.11876244274E+02  0.57080686770E+02  0.10566000000E+00 0. -1.
         13    1    1    0    0    0 -0.53406302193E+01 -0.49810017046E+00 -0.86614091290E+00  0.54343167956E+01  0.10566000000E+00 0.  1.
         22    1    1    0    0    0  0.61171466849E+02  0.24092074263E+00  0.12742385186E+02  0.62484996435E+02  0.00000000000E+00 0. -1.
</event>
<event>
 4    1  0.9856522E-003  0.9118800E+02  0.7818608E-02  0.1130116E+00
         25   -1    0    0    0    0  0.00000000000E+00  0.00000000000E+00  0.99999998245E-14  0.12500000000E+03  0.12500000000E+03 0.  0.
        -13    1    1    0    0    0  0.31883058951E+02  0.17598793362E+01  0.38677187780E+01  0.32165152509E+02  0.10566000000E+00 0.  1.
         13    1    1    0    0    0  0.30146924733E+02  0.30587060214E+01  0.18336294392E+01  0.30357307429E+02  0.10566000000E+00 0. -1.
         22    1    1    0    0    0 -0.62029983684E+02 -0.48185853576E+01 -0.57013482172E+01  0.62477540062E+02  0.00000000000E+00 0.  1.
</event>
<event>
 4    1  0.9856522E-003  0.9118800E+02  0.7818608E-02  0.1130116E+00
         25   -1    0    0    0    0  0.00000000000E+00  0.00000000000E+00  0.99999998245E-14  0.12500000000E+03  0.12500000000E+03 0.  0.
        -13    1    1    0    0    0  0.16477805063E+02 -0.10278839300E+02  0.19222674091E+02  0.27325719758E+02  0.10566000000E+00 0. -1.
         13    1    1    0    0    0  0.27913208457E+02 -0.14685718082E+02  0.16374197997E+02  0.35537909984E+02  0.10566000000E+00 0.  1.
         22    1    1    0    0    0 -0.44391013519E+02  0.24964557382E+02 -0.35596872088E+02  0.62136370259E+02  0.00000000000E+00 0. -1.
</event>
<event>
 4    1  0.9856522E-003  0.9118800E+02  0.7818608E-02  0.1130116E+00
         25   -1    0    0    0    0  0.00000000000E+00  0.00000000000E+00  0.99999998245E-14  0.12500000000E+03  0.12500000000E+03 0.  0.
        -13    1    1    0    0    0 -0.28936182319E+02  0.96302996972E+01  0.16935662327E+02  0.34883708833E+02  0.10566000000E+00 0. -1.
         13    1    1    0    0    0 -0.10466408778E+02  0.28444201763E+02  0.56858054161E+01  0.30837604867E+02  0.10566000000E+00 0.  1.
         22    1    1    0    0    0  0.39402591097E+02 -0.38074501461E+02 -0.22621467744E+02  0.59278686300E+02  0.00000000000E+00 0.  1.
</event>
<event>
 4    1  0.9856522E-003  0.9118800E+02  0.7818608E-02  0.1130116E+00
         25   -1    0    0    0    0  0.00000000000E+00  0.00000000000E+00  0.99999998245E-14  0.12500000000E+03  0.12500000000E+03 0.  0.
        -13    1    1    0    0    0  0.12208923778E+02  0.99333570321E+01 -0.18962870793E+02  0.24644087212E+02  0.10566000000E+00 0.  1.
         13    1    1    0    0    0  0.21805774359E+02  0.13980886280E+02 -0.27653286278E+02  0.37890267649E+02  0.10566000000E+00 0. -1.
         22    1    1    0    0    0 -0.34014698137E+02 -0.23914243312E+02  0.46616157071E+02  0.62465645139E+02  0.00000000000E+00 0.  1.
</event>
<event>
 4    1  0.9856522E-003  0.9118800E+02  0.7818608E-02  0.1130116E+00
         25   -1    0    0    0    0  0.00000000000E+00  0.00000000000E+00  0.99999998245E-14  0.12500000000E+03  0.12500000000E+03 0.  0.
        -13    1    1    0    0    0  0.15526596727E+02 -0.15086794981E+02  0.66720496228E+01  0.22654226955E+02  0.10566000000E+00 0. -1.
         13    1    1    0    0    0  0.27781792734E+02 -0.24987697937E+02  0.13884856238E+02  0.39862431593E+02  0.10566000000E+00 0.  1.
         22    1    1    0    0    0 -0.43308389462E+02  0.40074492918E+02 -0.20556905861E+02  0.62483341452E+02  0.00000000000E+00 0.  1.
</event>
<event>
 4    1  0.9856522E-003  0.9118800E+02  0.7818608E-02  0.1130116E+00
         25   -1    0    0    0    0  0.00000000000E+00  0.00000000000E+00  0.99999998245E-14  0.12500000000E+03  0.12500000000E+03 0.  0.
        -13    1    1    0    0    0  0.22837377159E+01  0.26334756674E+02  0.44045739677E+01  0.26798251863E+02  0.10566000000E+00 0. -1.
         13    1    1    0    0    0 -0.21234206005E+02 -0.57002718844E+02 -0.10229831076E+02  0.61683564003E+02  0.10566000000E+00 0.  1.
         22    1    1    0    0    0  0.18950468290E+02  0.30667962170E+02  0.58252571082E+01  0.36518184134E+02  0.00000000000E+00 0.  1.
</event>
<event>
 4    1  0.9856522E-003  0.9118800E+02  0.7818608E-02  0.1130116E+00
         25   -1    0    0    0    0  0.00000000000E+00  0.00000000000E+00  0.99999998245E-14  0.12500000000E+03  0.12500000000E+03 0.  0.
        -13    1    1    0    0    0 -0.56856322022E+02  0.11227642527E+02  0.18563973866E+02  0.60855021159E+02  0.10566000000E+00 0.  1.
         13    1    1    0    0    0 -0.14909841382E+01  0.51808029781E-01  0.72944197541E+00  0.16640214552E+01  0.10566000000E+00 0. -1.
         22    1    1    0    0    0  0.58347306160E+02 -0.11279450556E+02 -0.19293415841E+02  0.62480957386E+02  0.00000000000E+00 0.  1.
</event>
<event>
 4    1  0.9856522E-003  0.9118800E+02  0.7818608E-02  0.1130116E+00
         25   -1    0    0    0    0  0.00000000000E+00  0.00000000000E+00  0.99999998245E-14  0.12500000000E+03  0.12500000000E+03 0.  0.
        -13    1    1    0    0    0 -0.56673553979E+00  0.42626411932E+02  0.20263037186E+01  0.42678440156E+02  0.10566000000E+00 0. -1.
         13    1    1    0    0    0 -0.51673648663E+00  0.19793680008E+02  0.92546933840E+00  0.19822321821E+02  0.10566000000E+00 0. -1.
         22    1    1    0    0    0  0.10834720264E+01 -0.62420091939E+02 -0.29517730570E+01  0.62499238023E+02  0.00000000000E+00 0. -1.
</event>
<event>
 4    1  0.9856522E-003  0.9118800E+02  0.7818608E-02  0.1130116E+00
         25   -1    0    0    0    0  0.00000000000E+00  0.00000000000E+00  0.99999998245E-14  0.12500000000E+03  0.12500000000E+03 0.  0.
        -13    1    1    0    0    0  0.27485194435E+02 -0.11967577623E+02 -0.10586932572E+02  0.31792343931E+02  0.10566000000E+00 0.  1.
         13    1    1    0    0    0  0.31315242583E+02  0.70876828984E+01  0.11760043413E+02  0.34193412407E+02  0.10566000000E+00 0. -1.
         22    1    1    0    0    0 -0.58800437018E+02  0.48798947251E+01 -0.11731108409E+01  0.59014243663E+02  0.00000000000E+00 0.  1.
</event>
<event>
 4    1  0.9856522E-003  0.9118800E+02  0.7818608E-02  0.1130116E+00
         25   -1    0    0    0    0  0.00000000000E+00  0.00000000000E+00  0.99999998245E-14  0.12500000000E+03  0.12500000000E+03 0.  0.
        -13    1    1    0    0    0 -0.49461263474E+00  0.93644440815E+01 -0.17947902208E+02  0.20250328697E+02  0.10566000000E+00 0.  1.
         13    1    1    0    0    0 -0.30483574503E+02 -0.22283922790E+02 -0.28595744103E+02  0.47366119476E+02  0.10566000000E+00 0. -1.
         22    1    1    0    0    0  0.30978187138E+02  0.12919478708E+02  0.46543646311E+02  0.57383551827E+02  0.00000000000E+00 0. -1.
</event>
<event>
 4    1  0.9856522E-003  0.9118800E+02  0.7818608E-02  0.1130116E+00
         25   -1    0    0    0    0  0.00000000000E+00  0.00000000000E+00  0.99999998245E-14  0.12500000000E+03  0.12500000000E+03 0.  0.
        -13    1    1    0    0    0  0.15593853145E+02 -0.33200661110E+01 -0.22869896318E+02  0.27878924235E+02  0.10566000000E+00 0. -1.
         13    1    1    0    0    0  0.19051463292E+02 -0.51908825434E+01 -0.28442809422E+02  0.34625252158E+02  0.10566000000E+00 0. -1.
         22    1    1    0    0    0 -0.34645316437E+02  0.85109486544E+01  0.51312705739E+02  0.62495823607E+02  0.00000000000E+00 0. -1.
</event>
<event>
 4    1  0.9856522E-003  0.9118800E+02  0.7818608E-02  0.1130116E+00
         25   -1    0    0    0    0  0.00000000000E+00  0.00000000000E+00  0.99999998245E-14  0.12500000000E+03  0.12500000000E+03 0.  0.
        -13    1    1    0    0    0  0.43975205570E+01  0.29013512389E+02  0.11778012936E+02  0.31620481352E+02  0.10566000000E+00 0.  1.
         13    1    1    0    0    0  0.97392952284E+01  0.27912592993E+02  0.93946879896E+01  0.31019962050E+02  0.10566000000E+00 0. -1.
         22    1    1    0    0    0 -0.14136815785E+02 -0.56926105382E+02 -0.21172700925E+02  0.62359556597E+02  0.00000000000E+00 0.  1.
</event>
<event>
 4    1  0.9856522E-003  0.9118800E+02  0.7818608E-02  0.1130116E+00
         25   -1    0    0    0    0  0.00000000000E+00  0.00000000000E+00  0.99999998245E-14  0.12500000000E+03  0.12500000000E+03 0.  0.
        -13    1    1    0    0    0  0.92094106469E+00  0.22587052940E+01  0.38622829201E+01  0.45692751548E+01  0.10566000000E+00 0.  1.
         13    1    1    0    0    0  0.46868832321E+02 -0.37225205323E+02  0.68833394476E+01  0.60247779050E+02  0.10566000000E+00 0. -1.
         22    1    1    0    0    0 -0.47789773386E+02  0.34966500029E+02 -0.10745622368E+02  0.60182945795E+02  0.00000000000E+00 0. -1.
</event>
<event>
 4    1  0.9856522E-003  0.9118800E+02  0.7818608E-02  0.1130116E+00
         25   -1    0    0    0    0  0.00000000000E+00  0.00000000000E+00  0.99999998245E-14  0.12500000000E+03  0.12500000000E+03 0.  0.
        -13    1    1    0    0    0 -0.49415381822E+02 -0.13210048310E+02  0.98918763513E+00  0.51160287266E+02  0.10566000000E+00 0.  1.
         13    1    1    0    0    0 -0.10922029454E+02 -0.30396701412E+01  0.24533764201E+00  0.11340267922E+02  0.10566000000E+00 0.  1.
         22    1    1    0    0    0  0.60337411275E+02  0.16249718451E+02 -0.12345252771E+01  0.62499444812E+02  0.00000000000E+00 0.  1.
</event>
<event>
 4    1  0.9856522E-003  0.9118800E+02  0.7818608E-02  0.1130116E+00
         25   -1    0    0    0    0  0.00000000000E+00  0.00000000000E+00  0.99999998245E-14  0.12500000000E+03  0.12500000000E+03 0.  0.
        -13    1    1    0    0    0 -0.14879670378E+02 -0.18049586683E+02 -0.72491553587E+00  0.23403607340E+02  0.10566000000E+00 0. -1.
         13    1    1    0    0    0 -0.22106549778E+02 -0.32135569522E+02 -0.31629863639E+01  0.39133234192E+02  0.10566000000E+00 0.  1.
         22    1    1    0    0    0  0.36986220155E+02  0.50185156204E+02  0.38879018997E+01  0.62463158468E+02  0.00000000000E+00 0.  1.
</event>
<event>
 4    1  0.9856522E-003  0.9118800E+02  0.7818608E-02  0.1130116E+00
         25   -1    0    0    0    0  0.00000000000E+00  0.00000000000E+00  0.99999998245E-14  0.12500000000E+03  0.12500000000E+03 0.  0.
        -13    1    1    0    0    0 -0.12440066418E+02 -0.27418565068E+02  0.37141963631E+01  0.30337095799E+02  0.10566000000E+00 0. -1.
         13    1    1    0    0    0 -0.12470782083E+02 -0.29430401326E+02  0.36011350777E+01  0.32165948857E+02  0.10566000000E+00 0.  1.
         22    1    1    0    0    0  0.24910848501E+02  0.56848966394E+02 -0.73153314407E+01  0.62496955344E+02  0.00000000000E+00 0.  1.
</event>
<event>
 4    1  0.9856522E-003  0.9118800E+02  0.7818608E-02  0.1130116E+00
         25   -1    0    0    0    0  0.00000000000E+00  0.00000000000E+00  0.99999998245E-14  0.12500000000E+03  0.12500000000E+03 0.  0.
        -13    1    1    0    0    0  0.16763901094E+02  0.92732545703E+01  0.58662989892E+02  0.61712066707E+02  0.10566000000E+00 0. -1.
         13    1    1    0    0    0  0.28646280622E+00  0.24096067344E+00  0.69754987088E+00  0.79866316019E+00  0.10566000000E+00 0. -1.
         22    1    1    0    0    0 -0.17050363900E+02 -0.95142152437E+01 -0.59360539762E+02  0.62489270133E+02  0.00000000000E+00 0. -1.
</event>
<event>
 4    1  0.9856522E-003  0.9118800E+02  0.7818608E-02  0.1130116E+00
         25   -1    0    0    0    0  0.00000000000E+00  0.00000000000E+00  0.99999998245E-14  0.12500000000E+03  0.12500000000E+03 0.  0.
        -13    1    1    0    0    0  0.49981561631E+02 -0.69262889198E+01 -0.19840361148E+02  0.54219748024E+02  0.10566000000E+00 0.  1.
         13    1    1    0    0    0  0.76412850723E+01 -0.15159804724E+01 -0.28248517670E+01  0.82872423574E+01  0.10566000000E+00 0. -1.
         22    1    1    0    0    0 -0.57622846703E+02  0.84422693922E+01  0.22665212915E+02  0.62493009618E+02  0.00000000000E+00 0.  1.
</event>
<event>
 4    1  0.9856522E-003  0.9118800E+02  0.7818608E-02  0.1130116E+00
         25   -1    0    0    0    0  0.00000000000E+00  0.00000000000E+00  0.99999998245E-14  0.12500000000E+03  0.12500000000E+03 0.  0.
        -13    1    1    0    0    0  0.66112233855E+01 -0.14591987056E+02 -0.59262566085E+01  0.17081160450E+02  0.10566000000E+00 0. -1.
         13    1    1    0    0    0  0.17375897264E+02 -0.39275854245E+02 -0.14782835402E+02  0.45420897381E+02  0.10566000000E+00 0. -1.
         22    1    1    0    0    0 -0.23987120649E+02  0.53867841301E+02  0.20709092010E+02  0.62497942169E+02  0.00000000000E+00 0. -1.
</event>
<event>
 4    1  0.9856522E-003  0.9118800E+02  0.7818608E-02  0.1130116E+00
         25   -1    0    0    0    0  0.00000000000E+00  0.00000000000E+00  0.99999998245E-14  0.12500000000E+03  0.12500000000E+03 0.  0.
        -13    1    1    0    0    0 -0.30895846158E+02 -0.17611916885E+02 -0.37590270401E+02  0.51747198175E+02  0.10566000000E+00 0. -1.
         13    1    1    0    0    0  0.13870081616E+02  0.19376441016E+02 -0.75333220529E+01  0.24991753353E+02  0.10566000000E+00 0.  1.
         22    1    1    0    0    0  0.17025764542E+02 -0.17645241310E+01  0.45123592454E+02  0.48261048471E+02  0.00000000000E+00 0. -1.
</event>
<event>
 4    1  0.9856522E-003  0.9118800E+02  0.7818608E-02  0.1130116E+00
         25   -1    0    0    0    0  0.00000000000E+00  0.00000000000E+00  0.99999998245E-14  0.12500000000E+03  0.12500000000E+03 0.  0.
        -13    1    1    0    0    0  0.56018234171E+02 -0.97200048475E+01  0.83411586907E+01  0.57463963892E+02  0.10566000000E+00 0. -1.
         13    1    1    0    0    0  0.17570960303E+01  0.18916148132E+01 -0.88613867555E+01  0.92304351104E+01  0.10566000000E+00 0.  1.
         22    1    1    0    0    0 -0.57775330201E+02  0.78283900342E+01  0.52022806479E+00  0.58305600997E+02  0.00000000000E+00 0. -1.
</event>
<event>
 4    1  0.9856522E-003  0.9118800E+02  0.7818608E-02  0.1130116E+00
         25   -1    0    0    0    0  0.00000000000E+00  0.00000000000E+00  0.99999998245E-14  0.12500000000E+03  0.12500000000E+03 0.  0.
        -13    1    1    0    0    0  0.90452879285E+01 -0.17981428526E+02  0.22972185673E+01  0.20259254249E+02  0.10566000000E+00 0. -1.
         13    1    1    0    0    0  0.18996274552E+02 -0.37406116043E+02  0.49211487559E+01  0.42241032580E+02  0.10566000000E+00 0.  1.
         22    1    1    0    0    0 -0.28041562481E+02  0.55387544569E+02 -0.72183673233E+01  0.62499713172E+02  0.00000000000E+00 0.  1.
</event>
<event>
 4    1  0.9856522E-003  0.9118800E+02  0.7818608E-02  0.1130116E+00
         25   -1    0    0    0    0  0.00000000000E+00  0.00000000000E+00  0.99999998245E-14  0.12500000000E+03  0.12500000000E+03 0.  0.
        -13    1    1    0    0    0 -0.62108180161E+01  0.92519086246E+01  0.98831117840E+01  0.14894936596E+02  0.10566000000E+00 0. -1.
         13    1    1    0    0    0  0.64215069657E+01  0.40050293161E+02  0.26831909873E+02  0.48633571589E+02  0.10566000000E+00 0.  1.
         22    1    1    0    0    0 -0.21068894960E+00 -0.49302201786E+02 -0.36715021657E+02  0.61471491815E+02  0.00000000000E+00 0. -1.
</event>
<event>
 4    1  0.9856522E-003  0.9118800E+02  0.7818608E-02  0.1130116E+00
         25   -1    0    0    0    0  0.00000000000E+00  0.00000000000E+00  0.99999998245E-14  0.12500000000E+03  0.12500000000E+03 0.  0.
        -13    1    1    0    0    0  0.48355801689E+01  0.64640000261E+01  0.10158260403E+02  0.12975652213E+02  0.10566000000E+00 0.  1.
         13    1    1    0    0    0 -0.29734505466E+02  0.29111648578E+02  0.31236098202E+02  0.52032046790E+02  0.10566000000E+00 0. -1.
         22    1    1    0    0    0  0.24898925297E+02 -0.35575648604E+02 -0.41394358605E+02  0.59992300997E+02  0.00000000000E+00 0. -1.
</event>
<event>
 4    1  0.9856522E-003  0.9118800E+02  0.7818608E-02  0.1130116E+00
         25   -1    0    0    0    0  0.00000000000E+00  0.00000000000E+00  0.99999998245E-14  0.12500000000E+03  0.12500000000E+03 0.  0.
        -13    1    1    0    0    0  0.92286532920E+00 -0.77821852484E+01 -0.80670108799E+01  0.11247307066E+02  0.10566000000E+00 0.  1.
         13    1    1    0    0    0  0.41419381277E+01 -0.35558694915E+02 -0.36678110047E+02  0.51253013142E+02  0.10566000000E+00 0.  1.
         22    1    1    0    0    0 -0.50648034569E+01  0.43340880163E+02  0.44745120927E+02  0.62499679792E+02  0.00000000000E+00 0.  1.
</event>
<event>
 4    1  0.9856522E-003  0.9118800E+02  0.7818608E-02  0.1130116E+00
         25   -1    0    0    0    0  0.00000000000E+00  0.00000000000E+00  0.99999998245E-14  0.12500000000E+03  0.12500000000E+03 0.  0.
        -13    1    1    0    0    0 -0.21363971135E+01 -0.22783003619E+02 -0.21982296972E+02  0.31731088710E+02  0.10566000000E+00 0.  1.
         13    1    1    0    0    0 -0.19360885537E+01 -0.22334316771E+02 -0.21075809574E+02  0.30769645070E+02  0.10566000000E+00 0. -1.
         22    1    1    0    0    0  0.40724856672E+01  0.45117320390E+02  0.43058106546E+02  0.62499266220E+02  0.00000000000E+00 0. -1.
</event>
<event>
 4    1  0.9856522E-003  0.9118800E+02  0.7818608E-02  0.1130116E+00
         25   -1    0    0    0    0  0.00000000000E+00  0.00000000000E+00  0.99999998245E-14  0.12500000000E+03  0.12500000000E+03 0.  0.
        -13    1    1    0    0    0  0.34242597549E+01  0.22301686995E+01 -0.34765936342E+01  0.53662905838E+01  0.10566000000E+00 0. -1.
         13    1    1    0    0    0  0.84064726523E+01 -0.14561283361E+01 -0.57188218505E+02  0.57821212301E+02  0.10566000000E+00 0.  1.
         22    1    1    0    0    0 -0.11830732407E+02 -0.77404036338E+00  0.60664812139E+02  0.61812497115E+02  0.00000000000E+00 0.  1.
</event>
<event>
 4    1  0.9856522E-003  0.9118800E+02  0.7818608E-02  0.1130116E+00
         25   -1    0    0    0    0  0.00000000000E+00  0.00000000000E+00  0.99999998245E-14  0.12500000000E+03  0.12500000000E+03 0.  0.
        -13    1    1    0    0    0 -0.18338215810E+02  0.39480471535E+02  0.63543486381E+01  0.43993030157E+02  0.10566000000E+00 0.  1.
         13    1    1    0    0    0  0.13933488375E+02  0.18176138613E+02 -0.28029096674E+01  0.23073395498E+02  0.10566000000E+00 0. -1.
         22    1    1    0    0    0  0.44047274352E+01 -0.57656610148E+02 -0.35514389707E+01  0.57933574345E+02  0.00000000000E+00 0. -1.
</event>
<event>
 4    1  0.9856522E-003  0.9118800E+02  0.7818608E-02  0.1130116E+00
         25   -1    0    0    0    0  0.00000000000E+00  0.00000000000E+00  0.99999998245E-14  0.12500000000E+03  0.12500000000E+03 0.  0.
        -13    1    1    0    0    0  0.30185527021E+01 -0.17219947787E+01  0.27991150477E+00  0.34880425627E+01  0.10566000000E+00 0. -1.
         13    1    1    0    0    0 -0.56199521662E+01  0.14054425830E+02 -0.59279293529E+02  0.61181341544E+02  0.10566000000E+00 0.  1.
         22    1    1    0    0    0  0.26013994641E+01 -0.12332431051E+02  0.58999382024E+02  0.60330615893E+02  0.00000000000E+00 0.  1.
</event>
<event>
 4    1  0.9856522E-003  0.9118800E+02  0.7818608E-02  0.1130116E+00
         25   -1    0    0    0    0  0.00000000000E+00  0.00000000000E+00  0.99999998245E-14  0.12500000000E+03  0.12500000000E+03 0.  0.
        -13    1    1    0    0    0 -0.26231489175E+02  0.17071913275E+01  0.13903189426E+02  0.29737440489E+02  0.10566000000E+00 0.  1.
         13    1    1    0    0    0 -0.25928002040E+02  0.12920542823E+02  0.16299771132E+02  0.33239967203E+02  0.10566000000E+00 0. -1.
         22    1    1    0    0    0  0.52159491215E+02 -0.14627734150E+02 -0.30202960559E+02  0.62022592309E+02  0.00000000000E+00 0.  1.
</event>
<event>
 4    1  0.9856522E-003  0.9118800E+02  0.7818608E-02  0.1130116E+00
         25   -1    0    0    0    0  0.00000000000E+00  0.00000000000E+00  0.99999998245E-14  0.12500000000E+03  0.12500000000E+03 0.  0.
        -13    1    1    0    0    0 -0.20599676760E+02  0.23820929918E+02  0.10294771603E+02  0.33132716025E+02  0.10566000000E+00 0.  1.
         13    1    1    0    0    0 -0.22609450444E+02  0.14564852545E+02  0.12600980957E+02  0.29700472456E+02  0.10566000000E+00 0. -1.
         22    1    1    0    0    0  0.43209127204E+02 -0.38385782463E+02 -0.22895752561E+02  0.62166811518E+02  0.00000000000E+00 0.  1.
</event>
<event>
 4    1  0.9856522E-003  0.9118800E+02  0.7818608E-02  0.1130116E+00
         25   -1    0    0    0    0  0.00000000000E+00  0.00000000000E+00  0.99999998245E-14  0.12500000000E+03  0.12500000000E+03 0.  0.
        -13    1    1    0    0    0  0.69941314667E+00  0.35572835652E+01  0.54200933316E+01  0.65216578316E+01  0.10566000000E+00 0.  1.
         13    1    1    0    0    0  0.51969802602E+02 -0.28311862367E+02 -0.10325824170E+02  0.60075417119E+02  0.10566000000E+00 0. -1.
         22    1    1    0    0    0 -0.52669215749E+02  0.24754578801E+02  0.49057308387E+01  0.58402925049E+02  0.00000000000E+00 0. -1.
</event>
<event>
 4    1  0.9856522E-003  0.9118800E+02  0.7818608E-02  0.1130116E+00
         25   -1    0    0    0    0  0.00000000000E+00  0.00000000000E+00  0.99999998245E-14  0.12500000000E+03  0.12500000000E+03 0.  0.
        -13    1    1    0    0    0 -0.22422396322E+02  0.29338879271E+02  0.46756476191E+02  0.59579467298E+02  0.10566000000E+00 0. -1.
         13    1    1    0    0    0 -0.16139392309E+01  0.12442952146E+01  0.21280466792E+01  0.29483583782E+01  0.10566000000E+00 0.  1.
         22    1    1    0    0    0  0.24036335553E+02 -0.30583174485E+02 -0.48884522870E+02  0.62472174323E+02  0.00000000000E+00 0. -1.
</event>
<event>
 4    1  0.9856522E-003  0.9118800E+02  0.7818608E-02  0.1130116E+00
         25   -1    0    0    0    0  0.00000000000E+00  0.00000000000E+00  0.99999998245E-14  0.12500000000E+03  0.12500000000E+03 0.  0.
        -13    1    1    0    0    0 -0.50169886018E+01  0.15027001730E+02 -0.35451986455E+01  0.16234548133E+02  0.10566000000E+00 0.  1.
         13    1    1    0    0    0 -0.48004370275E+01  0.46000509967E+02 -0.43345350660E+01  0.46453099694E+02  0.10566000000E+00 0. -1.
         22    1    1    0    0    0  0.98174256293E+01 -0.61027511697E+02  0.78797337115E+01  0.62312352173E+02  0.00000000000E+00 0. -1.
</event>
<event>
 4    1  0.9856522E-003  0.9118800E+02  0.7818608E-02  0.1130116E+00
         25   -1    0    0    0    0  0.00000000000E+00  0.00000000000E+00  0.99999998245E-14  0.12500000000E+03  0.12500000000E+03 0.  0.
        -13    1    1    0    0    0 -0.28111827420E+01 -0.64937992493E+01 -0.78448502386E+01  0.10565274081E+02  0.10566000000E+00 0. -1.
         13    1    1    0    0    0 -0.35687398251E+02 -0.40123878343E+02  0.43471122282E+01  0.53874154805E+02  0.10566000000E+00 0.  1.
         22    1    1    0    0    0  0.38498580993E+02  0.46617677592E+02  0.34977380104E+01  0.60560571115E+02  0.00000000000E+00 0.  1.
</event>
<event>
 4    1  0.9856522E-003  0.9118800E+02  0.7818608E-02  0.1130116E+00
         25   -1    0    0    0    0  0.00000000000E+00  0.00000000000E+00  0.99999998245E-14  0.12500000000E+03  0.12500000000E+03 0.  0.
        -13    1    1    0    0    0 -0.32239521679E+02 -0.21088085224E+02 -0.63479166324E+01  0.39043582137E+02  0.10566000000E+00 0.  1.
         13    1    1    0    0    0 -0.19800770083E+02 -0.12182382577E+02 -0.31600873583E+01  0.23462273063E+02  0.10566000000E+00 0. -1.
         22    1    1    0    0    0  0.52040291762E+02  0.33270467801E+02  0.95080039907E+01  0.62494144800E+02  0.00000000000E+00 0.  1.
</event>
<event>
 4    1  0.9856522E-003  0.9118800E+02  0.7818608E-02  0.1130116E+00
         25   -1    0    0    0    0  0.00000000000E+00  0.00000000000E+00  0.99999998245E-14  0.12500000000E+03  0.12500000000E+03 0.  0.
        -13    1    1    0    0    0 -0.28010731753E+02 -0.10354433895E+02 -0.74541452374E+01  0.30779714746E+02  0.10566000000E+00 0. -1.
         13    1    1    0    0    0 -0.28978201259E+02 -0.10523323448E+02 -0.74645987274E+01  0.31720779984E+02  0.10566000000E+00 0.  1.
         22    1    1    0    0    0  0.56988933012E+02  0.20877757343E+02  0.14918743965E+02  0.62499505270E+02  0.00000000000E+00 0. -1.
</event>
<event>
 4    1  0.9856522E-003  0.9118800E+02  0.7818608E-02  0.1130116E+00
         25   -1    0    0    0    0  0.00000000000E+00  0.00000000000E+00  0.99999998245E-14  0.12500000000E+03  0.12500000000E+03 0.  0.
        -13    1    1    0    0    0 -0.45439483274E+02  0.36319512207E+02 -0.12156549644E+02  0.59427657454E+02  0.10566000000E+00 0. -1.
         13    1    1    0    0    0 -0.39690528038E+00  0.34448207443E+01 -0.71289744912E+00  0.35417101195E+01  0.10566000000E+00 0.  1.
         22    1    1    0    0    0  0.45836388554E+02 -0.39764332951E+02  0.12869447094E+02  0.62030632427E+02  0.00000000000E+00 0. -1.
</event>
<event>
 4    1  0.9856522E-003  0.9118800E+02  0.7818608E-02  0.1130116E+00
         25   -1    0    0    0    0  0.00000000000E+00  0.00000000000E+00  0.99999998245E-14  0.12500000000E+03  0.12500000000E+03 0.  0.
        -13    1    1    0    0    0  0.31279568517E+02 -0.99570444334E+01  0.36978730715E+02  0.49446858644E+02  0.10566000000E+00 0. -1.
         13    1    1    0    0    0  0.84746454218E+01 -0.26288463258E+01  0.95750936396E+01  0.13054655502E+02  0.10566000000E+00 0. -1.
         22    1    1    0    0    0 -0.39754213938E+02  0.12585890759E+02 -0.46553824354E+02  0.62498485854E+02  0.00000000000E+00 0. -1.
</event>
<event>
 4    1  0.9856522E-003  0.9118800E+02  0.7818608E-02  0.1130116E+00
         25   -1    0    0    0    0  0.00000000000E+00  0.00000000000E+00  0.99999998245E-14  0.12500000000E+03  0.12500000000E+03 0.  0.
        -13    1    1    0    0    0 -0.87752892137E+01  0.28185211517E+02  0.46030086498E+01  0.29876591199E+02  0.10566000000E+00 0.  1.
         13    1    1    0    0    0 -0.10985416899E+02  0.30016802115E+02  0.66192933223E+01  0.32642211962E+02  0.10566000000E+00 0. -1.
         22    1    1    0    0    0  0.19760706113E+02 -0.58202013631E+02 -0.11222301972E+02  0.62481196839E+02  0.00000000000E+00 0.  1.
</event>
<event>
 4    1  0.9856522E-003  0.9118800E+02  0.7818608E-02  0.1130116E+00
         25   -1    0    0    0    0  0.00000000000E+00  0.00000000000E+00  0.99999998245E-14  0.12500000000E+03  0.12500000000E+03 0.  0.
        -13    1    1    0    0    0 -0.47405911078E+01 -0.15530679940E+00 -0.27065626868E+01  0.54620481384E+01  0.10566000000E+00 0.  1.
         13    1    1    0    0    0 -0.48605800241E+02 -0.32245514438E+01 -0.29676486661E+02  0.57040569542E+02  0.10566000000E+00 0.  1.
         22    1    1    0    0    0  0.53346391349E+02  0.33798582432E+01  0.32383049348E+02  0.62497382319E+02  0.00000000000E+00 0.  1.
</event>
<event>
 4    1  0.9856522E-003  0.9118800E+02  0.7818608E-02  0.1130116E+00
         25   -1    0    0    0    0  0.00000000000E+00  0.00000000000E+00  0.99999998245E-14  0.12500000000E+03  0.12500000000E+03 0.  0.
        -13    1    1    0    0    0 -0.23801330271E+02 -0.73291260843E+01 -0.16896317601E+02  0.30095117949E+02  0.10566000000E+00 0.  1.
         13    1    1    0    0    0  0.39268709326E+02 -0.23339330279E+02 -0.14949654329E+02  0.48065155763E+02  0.10566000000E+00 0. -1.
         22    1    1    0    0    0 -0.15467379055E+02  0.30668456363E+02  0.31845971931E+02  0.46839726288E+02  0.00000000000E+00 0. -1.
</event>
<event>
 4    1  0.9856522E-003  0.9118800E+02  0.7818608E-02  0.1130116E+00
         25   -1    0    0    0    0  0.00000000000E+00  0.00000000000E+00  0.99999998245E-14  0.12500000000E+03  0.12500000000E+03 0.  0.
        -13    1    1    0    0    0  0.49511517674E+01  0.83881419375E+01 -0.33942775582E+01  0.10315382357E+02  0.10566000000E+00 0. -1.
         13    1    1    0    0    0  0.31979973490E+02  0.40508455009E+02 -0.83821353827E+01  0.52286948556E+02  0.10566000000E+00 0.  1.
         22    1    1    0    0    0 -0.36931125257E+02 -0.48896596947E+02  0.11776412941E+02  0.62397669087E+02  0.00000000000E+00 0.  1.
</event>
<event>
 4    1  0.9856522E-003  0.9118800E+02  0.7818608E-02  0.1130116E+00
         25   -1    0    0    0    0  0.00000000000E+00  0.00000000000E+00  0.99999998245E-14  0.12500000000E+03  0.12500000000E+03 0.  0.
        -13    1    1    0    0    0  0.15191973237E+02  0.12543276820E+02  0.20097702392E+01  0.19803539701E+02  0.10566000000E+00 0.  1.
         13    1    1    0    0    0  0.26988923797E+02  0.31911163139E+02  0.94589691817E+01  0.42850993018E+02  0.10566000000E+00 0. -1.
         22    1    1    0    0    0 -0.42180897034E+02 -0.44454439959E+02 -0.11468739421E+02  0.62345467282E+02  0.00000000000E+00 0. -1.
</event>
<event>
 4    1  0.9856522E-003  0.9118800E+02  0.7818608E-02  0.1130116E+00
         25   -1    0    0    0    0  0.00000000000E+00  0.00000000000E+00  0.99999998245E-14  0.12500000000E+03  0.12500000000E+03 0.  0.
        -13    1    1    0    0    0 -0.47740406193E+01  0.11774107229E+02 -0.33885997168E+02  0.36189681305E+02  0.10566000000E+00 0.  1.
         13    1    1    0    0    0 -0.35947871134E+01  0.85970728420E+01 -0.24604965192E+02  0.26310599233E+02  0.10566000000E+00 0.  1.
         22    1    1    0    0    0  0.83688277326E+01 -0.20371180071E+02  0.58490962360E+02  0.62499719462E+02  0.00000000000E+00 0.  1.
</event>
<event>
 4    1  0.9856522E-003  0.9118800E+02  0.7818608E-02  0.1130116E+00
         25   -1    0    0    0    0  0.00000000000E+00  0.00000000000E+00  0.99999998245E-14  0.12500000000E+03  0.12500000000E+03 0.  0.
        -13    1    1    0    0    0  0.23309889557E+01 -0.60217031530E+01  0.45639720520E+01  0.79079341993E+01  0.10566000000E+00 0.  1.
         13    1    1    0    0    0  0.33032352704E+02 -0.35441533781E+02  0.25609779193E+02  0.54800644123E+02  0.10566000000E+00 0. -1.
         22    1    1    0    0    0 -0.35363341660E+02  0.41463236934E+02 -0.30173751245E+02  0.62291421678E+02  0.00000000000E+00 0. -1.
</event>
<event>
 4    1  0.9856522E-003  0.9118800E+02  0.7818608E-02  0.1130116E+00
         25   -1    0    0    0    0  0.00000000000E+00  0.00000000000E+00  0.99999998245E-14  0.12500000000E+03  0.12500000000E+03 0.  0.
        -13    1    1    0    0    0  0.38459467028E+02  0.13400218019E+02  0.17797024700E+02  0.44445941314E+02  0.10566000000E+00 0.  1.
         13    1    1    0    0    0  0.15423454950E+02  0.56119253031E+01  0.75249142113E+01  0.18055806992E+02  0.10566000000E+00 0. -1.
         22    1    1    0    0    0 -0.53882921978E+02 -0.19012143322E+02 -0.25321938912E+02  0.62498251694E+02  0.00000000000E+00 0. -1.
</event>
<event>
 4    1  0.9856522E-003  0.9118800E+02  0.7818608E-02  0.1130116E+00
         25   -1    0    0    0    0  0.00000000000E+00  0.00000000000E+00  0.99999998245E-14  0.12500000000E+03  0.12500000000E+03 0.  0.
        -13    1    1    0    0    0  0.93973836598E+01 -0.15121464281E+02  0.54646965549E+01  0.18623736846E+02  0.10566000000E+00 0.  1.
         13    1    1    0    0    0  0.16010051010E+02  0.37279431978E+02 -0.40799912551E+02  0.57538872166E+02  0.10566000000E+00 0. -1.
         22    1    1    0    0    0 -0.25407434670E+02 -0.22157967697E+02  0.35335215996E+02  0.48837390988E+02  0.00000000000E+00 0. -1.
</event>
<event>
 4    1  0.9856522E-003  0.9118800E+02  0.7818608E-02  0.1130116E+00
         25   -1    0    0    0    0  0.00000000000E+00  0.00000000000E+00  0.99999998245E-14  0.12500000000E+03  0.12500000000E+03 0.  0.
        -13    1    1    0    0    0  0.34561349975E+00 -0.46084787041E+01 -0.15730714292E+01  0.48829542712E+01  0.10566000000E+00 0.  1.
         13    1    1    0    0    0  0.39580334110E+01 -0.54410873676E+02 -0.18535794310E+02  0.57617671225E+02  0.10566000000E+00 0.  1.
         22    1    1    0    0    0 -0.43036469108E+01  0.59019352380E+02  0.20108865739E+02  0.62499374504E+02  0.00000000000E+00 0.  1.
</event>
<event>
 4    1  0.9856522E-003  0.9118800E+02  0.7818608E-02  0.1130116E+00
         25   -1    0    0    0    0  0.00000000000E+00  0.00000000000E+00  0.99999998245E-14  0.12500000000E+03  0.12500000000E+03 0.  0.
        -13    1    1    0    0    0 -0.68357811865E+01 -0.25759594999E+02  0.23355139157E+02  0.35436680545E+02  0.10566000000E+00 0.  1.
         13    1    1    0    0    0 -0.65106863216E+01 -0.19413654246E+02  0.17709840555E+02  0.27072654544E+02  0.10566000000E+00 0. -1.
         22    1    1    0    0    0  0.13346467508E+02  0.45173249246E+02 -0.41064979711E+02  0.62490664911E+02  0.00000000000E+00 0.  1.
</event>
<event>
 4    1  0.9856522E-003  0.9118800E+02  0.7818608E-02  0.1130116E+00
         25   -1    0    0    0    0  0.00000000000E+00  0.00000000000E+00  0.99999998245E-14  0.12500000000E+03  0.12500000000E+03 0.  0.
        -13    1    1    0    0    0  0.74074083694E+00 -0.63567735729E+01 -0.43645500543E+02  0.44112335564E+02  0.10566000000E+00 0.  1.
         13    1    1    0    0    0  0.85284497068E+00 -0.25613012832E+01 -0.18191277357E+02  0.18390795108E+02  0.10566000000E+00 0. -1.
         22    1    1    0    0    0 -0.15935858076E+01  0.89180748562E+01  0.61836777899E+02  0.62496869328E+02  0.00000000000E+00 0. -1.
</event>
<event>
 4    1  0.9856522E-003  0.9118800E+02  0.7818608E-02  0.1130116E+00
         25   -1    0    0    0    0  0.00000000000E+00  0.00000000000E+00  0.99999998245E-14  0.12500000000E+03  0.12500000000E+03 0.  0.
        -13    1    1    0    0    0 -0.34894647943E+02  0.21121875776E+02  0.68015090236E+01  0.41352651431E+02  0.10566000000E+00 0.  1.
         13    1    1    0    0    0 -0.17820845919E+02  0.10781988371E+02  0.36585342579E+01  0.21147809803E+02  0.10566000000E+00 0. -1.
         22    1    1    0    0    0  0.52715493862E+02 -0.31903864146E+02 -0.10460043281E+02  0.62499538766E+02  0.00000000000E+00 0. -1.
</event>
<event>
 4    1  0.9856522E-003  0.9118800E+02  0.7818608E-02  0.1130116E+00
         25   -1    0    0    0    0  0.00000000000E+00  0.00000000000E+00  0.99999998245E-14  0.12500000000E+03  0.12500000000E+03 0.  0.
        -13    1    1    0    0    0  0.14790625990E+02 -0.10976036675E+02  0.20067697371E+01  0.18527662753E+02  0.10566000000E+00 0. -1.
         13    1    1    0    0    0  0.34955484173E+02 -0.26149718560E+02  0.52844592516E+01  0.43973063665E+02  0.10566000000E+00 0.  1.
         22    1    1    0    0    0 -0.49746110163E+02  0.37125755235E+02 -0.72912289887E+01  0.62499273582E+02  0.00000000000E+00 0.  1.
</event>
<event>
 4    1  0.9856522E-003  0.9118800E+02  0.7818608E-02  0.1130116E+00
         25   -1    0    0    0    0  0.00000000000E+00  0.00000000000E+00  0.99999998245E-14  0.12500000000E+03  0.12500000000E+03 0.  0.
        -13    1    1    0    0    0  0.99070366786E+00  0.86589822137E+01 -0.33318661190E+02  0.34439857931E+02  0.10566000000E+00 0.  1.
         13    1    1    0    0    0  0.59733566362E+00  0.70259313377E+01 -0.27159941677E+02  0.28060543776E+02  0.10566000000E+00 0.  1.
         22    1    1    0    0    0 -0.15880393315E+01 -0.15684913551E+02  0.60478602867E+02  0.62499598293E+02  0.00000000000E+00 0.  1.
</event>
<event>
 4    1  0.9856522E-003  0.9118800E+02  0.7818608E-02  0.1130116E+00
         25   -1    0    0    0    0  0.00000000000E+00  0.00000000000E+00  0.99999998245E-14  0.12500000000E+03  0.12500000000E+03 0.  0.
        -13    1    1    0    0    0  0.22397501397E+02 -0.40286876180E+01  0.12661247384E+01  0.22792380934E+02  0.10566000000E+00 0.  1.
         13    1    1    0    0    0  0.36382464119E+02 -0.16456544980E+02  0.51858094225E+00  0.39934717455E+02  0.10566000000E+00 0. -1.
         22    1    1    0    0    0 -0.58779965516E+02  0.20485232598E+02 -0.17847056806E+01  0.62272901610E+02  0.00000000000E+00 0. -1.
</event>
<event>
 4    1  0.9856522E-003  0.9118800E+02  0.7818608E-02  0.1130116E+00
         25   -1    0    0    0    0  0.00000000000E+00  0.00000000000E+00  0.99999998245E-14  0.12500000000E+03  0.12500000000E+03 0.  0.
        -13    1    1    0    0    0  0.40506678630E+02  0.13037343021E+01 -0.19481553730E+02  0.44967019431E+02  0.10566000000E+00 0.  1.
         13    1    1    0    0    0  0.13538195532E+02  0.12171695612E+02 -0.54563131168E+01  0.19005668344E+02  0.10566000000E+00 0. -1.
         22    1    1    0    0    0 -0.54044874162E+02 -0.13475429914E+02  0.24937866847E+02  0.61027312225E+02  0.00000000000E+00 0. -1.
</event>
<event>
 4    1  0.9856522E-003  0.9118800E+02  0.7818608E-02  0.1130116E+00
         25   -1    0    0    0    0  0.00000000000E+00  0.00000000000E+00  0.99999998245E-14  0.12500000000E+03  0.12500000000E+03 0.  0.
        -13    1    1    0    0    0  0.27661335498E+02  0.11793027987E+02 -0.37138562355E+02  0.47786075048E+02  0.10566000000E+00 0. -1.
         13    1    1    0    0    0  0.82195518229E+01  0.27859756033E+01 -0.11897980639E+02  0.14727382645E+02  0.10566000000E+00 0.  1.
         22    1    1    0    0    0 -0.35880887321E+02 -0.14579003590E+02  0.49036542995E+02  0.62486542307E+02  0.00000000000E+00 0. -1.
</event>
<event>
 4    1  0.9856522E-003  0.9118800E+02  0.7818608E-02  0.1130116E+00
         25   -1    0    0    0    0  0.00000000000E+00  0.00000000000E+00  0.99999998245E-14  0.12500000000E+03  0.12500000000E+03 0.  0.
        -13    1    1    0    0    0 -0.31081172785E+01  0.60534988877E+01  0.34690945764E+02  0.35352201117E+02  0.10566000000E+00 0. -1.
         13    1    1    0    0    0 -0.87890173764E+01  0.10367825209E+02  0.23983905910E+02  0.27567690015E+02  0.10566000000E+00 0.  1.
         22    1    1    0    0    0  0.11897134655E+02 -0.16421324097E+02 -0.58674851674E+02  0.62080108868E+02  0.00000000000E+00 0.  1.
</event>
<event>
 4    1  0.9856522E-003  0.9118800E+02  0.7818608E-02  0.1130116E+00
         25   -1    0    0    0    0  0.00000000000E+00  0.00000000000E+00  0.99999998245E-14  0.12500000000E+03  0.12500000000E+03 0.  0.
        -13    1    1    0    0    0  0.17277836806E+02 -0.54184497453E+02 -0.66088468316E+01  0.57255317914E+02  0.10566000000E+00 0.  1.
         13    1    1    0    0    0 -0.47646325150E+01 -0.42434963883E+01 -0.32866998950E+01  0.71779206485E+01  0.10566000000E+00 0. -1.
         22    1    1    0    0    0 -0.12513204291E+02  0.58427993842E+02  0.98955467266E+01  0.60566761437E+02  0.00000000000E+00 0.  1.
</event>
<event>
 4    1  0.9856522E-003  0.9118800E+02  0.7818608E-02  0.1130116E+00
         25   -1    0    0    0    0  0.00000000000E+00  0.00000000000E+00  0.99999998245E-14  0.12500000000E+03  0.12500000000E+03 0.  0.
        -13    1    1    0    0    0 -0.10844947719E+02  0.38368534254E+02 -0.41469148488E+02  0.57527895426E+02  0.10566000000E+00 0. -1.
         13    1    1    0    0    0 -0.10488404636E+02 -0.16930518825E+02  0.58765466020E+01  0.20765212821E+02  0.10566000000E+00 0.  1.
         22    1    1    0    0    0  0.21333352356E+02 -0.21438015429E+02  0.35592601885E+02  0.46706891753E+02  0.00000000000E+00 0. -1.
</event>
<event>
 4    1  0.9856522E-003  0.9118800E+02  0.7818608E-02  0.1130116E+00
         25   -1    0    0    0    0  0.00000000000E+00  0.00000000000E+00  0.99999998245E-14  0.12500000000E+03  0.12500000000E+03 0.  0.
        -13    1    1    0    0    0  0.24467587031E+02  0.39655270866E+02 -0.15842390998E+02  0.49215808834E+02  0.10566000000E+00 0.  1.
         13    1    1    0    0    0  0.59926387822E+01  0.10015535565E+02 -0.65247289443E+01  0.13371833235E+02  0.10566000000E+00 0. -1.
         22    1    1    0    0    0 -0.30460225813E+02 -0.49670806431E+02  0.22367119942E+02  0.62412357932E+02  0.00000000000E+00 0.  1.
</event>
<event>
 4    1  0.9856522E-003  0.9118800E+02  0.7818608E-02  0.1130116E+00
         25   -1    0    0    0    0  0.00000000000E+00  0.00000000000E+00  0.99999998245E-14  0.12500000000E+03  0.12500000000E+03 0.  0.
        -13    1    1    0    0    0  0.12661507931E+01 -0.27136452464E+01 -0.41754409009E+01  0.51393072594E+01  0.10566000000E+00 0. -1.
         13    1    1    0    0    0  0.28843826726E+02 -0.34605674307E+02 -0.35711967614E+02  0.57488040751E+02  0.10566000000E+00 0.  1.
         22    1    1    0    0    0 -0.30109977519E+02  0.37319319554E+02  0.39887408515E+02  0.62372651990E+02  0.00000000000E+00 0.  1.
</event>
<event>
 4    1  0.9856522E-003  0.9118800E+02  0.7818608E-02  0.1130116E+00
         25   -1    0    0    0    0  0.00000000000E+00  0.00000000000E+00  0.99999998245E-14  0.12500000000E+03  0.12500000000E+03 0.  0.
        -13    1    1    0    0    0  0.34815900930E+02  0.18717134332E+02 -0.22576813284E+02  0.45521442610E+02  0.10566000000E+00 0.  1.
         13    1    1    0    0    0  0.17596265164E+02 -0.13484796467E+02  0.13706193450E+02  0.26064136019E+02  0.10566000000E+00 0. -1.
         22    1    1    0    0    0 -0.52412166094E+02 -0.52323378646E+01  0.88706198348E+01  0.53414421372E+02  0.00000000000E+00 0.  1.
</event>
<event>
 4    1  0.9856522E-003  0.9118800E+02  0.7818608E-02  0.1130116E+00
         25   -1    0    0    0    0  0.00000000000E+00  0.00000000000E+00  0.99999998245E-14  0.12500000000E+03  0.12500000000E+03 0.  0.
        -13    1    1    0    0    0  0.77148772270E+01  0.42960243051E+01 -0.10934814341E+02  0.14055478795E+02  0.10566000000E+00 0.  1.
         13    1    1    0    0    0  0.26968867224E+02  0.15212410985E+02 -0.37258601886E+02  0.48445348857E+02  0.10566000000E+00 0. -1.
         22    1    1    0    0    0 -0.34683744451E+02 -0.19508435290E+02  0.48193416227E+02  0.62499172348E+02  0.00000000000E+00 0. -1.
</event>
<event>
 4    1  0.9856522E-003  0.9118800E+02  0.7818608E-02  0.1130116E+00
         25   -1    0    0    0    0  0.00000000000E+00  0.00000000000E+00  0.99999998245E-14  0.12500000000E+03  0.12500000000E+03 0.  0.
        -13    1    1    0    0    0 -0.12522008333E+01  0.15178870293E+02  0.13511461740E+02  0.20360178601E+02  0.10566000000E+00 0.  1.
         13    1    1    0    0    0 -0.86607709549E+00  0.30094688909E+02  0.29503991300E+02  0.42153731232E+02  0.10566000000E+00 0. -1.
         22    1    1    0    0    0  0.21182779288E+01 -0.45273559202E+02 -0.43015453039E+02  0.62486090167E+02  0.00000000000E+00 0. -1.
</event>
<event>
 4    1  0.9856522E-003  0.9118800E+02  0.7818608E-02  0.1130116E+00
         25   -1    0    0    0    0  0.00000000000E+00  0.00000000000E+00  0.99999998245E-14  0.12500000000E+03  0.12500000000E+03 0.  0.
        -13    1    1    0    0    0 -0.22926964995E+02  0.31484664238E+02 -0.45434481044E+02  0.59843404297E+02  0.10566000000E+00 0. -1.
         13    1    1    0    0    0 -0.13514558361E+01  0.16142197444E+01 -0.16604230512E+01  0.26833387794E+01  0.10566000000E+00 0.  1.
         22    1    1    0    0    0  0.24278420831E+02 -0.33098883983E+02  0.47094904095E+02  0.62473256924E+02  0.00000000000E+00 0. -1.
</event>
<event>
 4    1  0.9856522E-003  0.9118800E+02  0.7818608E-02  0.1130116E+00
         25   -1    0    0    0    0  0.00000000000E+00  0.00000000000E+00  0.99999998245E-14  0.12500000000E+03  0.12500000000E+03 0.  0.
        -13    1    1    0    0    0  0.13602391696E+02 -0.11932153578E+02  0.21048816429E+02  0.27757254655E+02  0.10566000000E+00 0.  1.
         13    1    1    0    0    0  0.16172887825E+02 -0.14791082220E+02  0.26962414435E+02  0.34746530331E+02  0.10566000000E+00 0. -1.
         22    1    1    0    0    0 -0.29775279521E+02  0.26723235798E+02 -0.48011230864E+02  0.62496215015E+02  0.00000000000E+00 0. -1.
</event>
<event>
 4    1  0.9856522E-003  0.9118800E+02  0.7818608E-02  0.1130116E+00
         25   -1    0    0    0    0  0.00000000000E+00  0.00000000000E+00  0.99999998245E-14  0.12500000000E+03  0.12500000000E+03 0.  0.
        -13    1    1    0    0    0 -0.16147132913E+01  0.96628449617E+00  0.26180266520E+02  0.26248019427E+02  0.10566000000E+00 0.  1.
         13    1    1    0    0    0 -0.35533342712E+01  0.89642857911E+01  0.35129220325E+02  0.36428805757E+02  0.10566000000E+00 0. -1.
         22    1    1    0    0    0  0.51680475625E+01 -0.99305702873E+01 -0.61309486846E+02  0.62323174816E+02  0.00000000000E+00 0. -1.
</event>
<event>
 4    1  0.9856522E-003  0.9118800E+02  0.7818608E-02  0.1130116E+00
         25   -1    0    0    0    0  0.00000000000E+00  0.00000000000E+00  0.99999998245E-14  0.12500000000E+03  0.12500000000E+03 0.  0.
        -13    1    1    0    0    0 -0.53813912618E+02  0.19251289583E+00 -0.22720722256E+02  0.58414181808E+02  0.10566000000E+00 0. -1.
         13    1    1    0    0    0  0.11815892244E+02 -0.13583587597E+02  0.10499688891E+02  0.20841875933E+02  0.10566000000E+00 0.  1.
         22    1    1    0    0    0  0.41998020373E+02  0.13391074702E+02  0.12221033365E+02  0.45743942260E+02  0.00000000000E+00 0. -1.
</event>
<event>
 4    1  0.9856522E-003  0.9118800E+02  0.7818608E-02  0.1130116E+00
         25   -1    0    0    0    0  0.00000000000E+00  0.00000000000E+00  0.99999998245E-14  0.12500000000E+03  0.12500000000E+03 0.  0.
        -13    1    1    0    0    0  0.38206990999E+02  0.36980128991E+02  0.32812455731E+02  0.62481777475E+02  0.10566000000E+00 0.  1.
         13    1    1    0    0    0 -0.38154901417E+00 -0.51545789577E+00 -0.63097757317E+00  0.90585496961E+00  0.10566000000E+00 0. -1.
         22    1    1    0    0    0 -0.37825441984E+02 -0.36464671095E+02 -0.32181478157E+02  0.61612367555E+02  0.00000000000E+00 0.  1.
</event>
<event>
 4    1  0.9856522E-003  0.9118800E+02  0.7818608E-02  0.1130116E+00
         25   -1    0    0    0    0  0.00000000000E+00  0.00000000000E+00  0.99999998245E-14  0.12500000000E+03  0.12500000000E+03 0.  0.
        -13    1    1    0    0    0  0.10127903103E+02  0.39807644991E+02  0.31892328133E+01  0.41199579985E+02  0.10566000000E+00 0.  1.
         13    1    1    0    0    0  0.52724279016E+01  0.20562141709E+02  0.17634932384E+01  0.21300733323E+02  0.10566000000E+00 0.  1.
         22    1    1    0    0    0 -0.15400331004E+02 -0.60369786700E+02 -0.49527260517E+01  0.62499686692E+02  0.00000000000E+00 0.  1.
</event>
<event>
 4    1  0.9856522E-003  0.9118800E+02  0.7818608E-02  0.1130116E+00
         25   -1    0    0    0    0  0.00000000000E+00  0.00000000000E+00  0.99999998245E-14  0.12500000000E+03  0.12500000000E+03 0.  0.
        -13    1    1    0    0    0 -0.18106157028E+02  0.14446998349E+02  0.48019535541E+02  0.53314497477E+02  0.10566000000E+00 0.  1.
         13    1    1    0    0    0 -0.23496347181E+01  0.23890404443E+01  0.85694320370E+01  0.92018817111E+01  0.10566000000E+00 0. -1.
         22    1    1    0    0    0  0.20455791746E+02 -0.16836038793E+02 -0.56588967578E+02  0.62483620812E+02  0.00000000000E+00 0.  1.
</event>
<event>
 4    1  0.9856522E-003  0.9118800E+02  0.7818608E-02  0.1130116E+00
         25   -1    0    0    0    0  0.00000000000E+00  0.00000000000E+00  0.99999998245E-14  0.12500000000E+03  0.12500000000E+03 0.  0.
        -13    1    1    0    0    0  0.59191828393E+01 -0.28177839542E+00 -0.83587145946E+01  0.10246726221E+02  0.10566000000E+00 0.  1.
         13    1    1    0    0    0  0.31693768398E+02 -0.26522223437E+01 -0.41464640496E+02  0.52257600539E+02  0.10566000000E+00 0. -1.
         22    1    1    0    0    0 -0.37612951237E+02  0.29340007391E+01  0.49823355091E+02  0.62495673239E+02  0.00000000000E+00 0. -1.
</event>
<event>
 4    1  0.9856522E-003  0.9118800E+02  0.7818608E-02  0.1130116E+00
         25   -1    0    0    0    0  0.00000000000E+00  0.00000000000E+00  0.99999998245E-14  0.12500000000E+03  0.12500000000E+03 0.  0.
        -13    1    1    0    0    0 -0.50827886611E+01 -0.41760110812E+01 -0.11894535424E+01  0.66857888756E+01  0.10566000000E+00 0.  1.
         13    1    1    0    0    0  0.34511132843E+02 -0.35233913106E+02 -0.32169129322E+02  0.58883876980E+02  0.10566000000E+00 0. -1.
         22    1    1    0    0    0 -0.29428344181E+02  0.39409924187E+02  0.33358582865E+02  0.59430334144E+02  0.00000000000E+00 0. -1.
</event>
<event>
 4    1  0.9856522E-003  0.9118800E+02  0.7818608E-02  0.1130116E+00
         25   -1    0    0    0    0  0.00000000000E+00  0.00000000000E+00  0.99999998245E-14  0.12500000000E+03  0.12500000000E+03 0.  0.
        -13    1    1    0    0    0 -0.63129268971E+01 -0.20321052680E+02  0.13056879057E+02  0.24965806271E+02  0.10566000000E+00 0.  1.
         13    1    1    0    0    0 -0.94081810514E+01 -0.30308811787E+02  0.20043147321E+02  0.37535008475E+02  0.10566000000E+00 0. -1.
         22    1    1    0    0    0  0.15721107948E+02  0.50629864467E+02 -0.33100026378E+02  0.62499185253E+02  0.00000000000E+00 0. -1.
</event>
<event>
 4    1  0.9856522E-003  0.9118800E+02  0.7818608E-02  0.1130116E+00
         25   -1    0    0    0    0  0.00000000000E+00  0.00000000000E+00  0.99999998245E-14  0.12500000000E+03  0.12500000000E+03 0.  0.
        -13    1    1    0    0    0  0.33623242707E+02  0.52606249708E+01  0.18270091036E+02  0.38626467813E+02  0.10566000000E+00 0.  1.
         13    1    1    0    0    0  0.20832049258E+02  0.30636904739E+01  0.11251449930E+02  0.23873976736E+02  0.10566000000E+00 0.  1.
         22    1    1    0    0    0 -0.54455291965E+02 -0.83243154447E+01 -0.29521540966E+02  0.62499555451E+02  0.00000000000E+00 0.  1.
</event>
<event>
 4    1  0.9856522E-003  0.9118800E+02  0.7818608E-02  0.1130116E+00
         25   -1    0    0    0    0  0.00000000000E+00  0.00000000000E+00  0.99999998245E-14  0.12500000000E+03  0.12500000000E+03 0.  0.
        -13    1    1    0    0    0  0.19589250911E+02 -0.37366145042E+02 -0.41116284616E+02  0.58911183753E+02  0.10566000000E+00 0.  1.
         13    1    1    0    0    0 -0.14928277453E+01  0.62570761449E+00 -0.45007968254E+01  0.47841802637E+01  0.10566000000E+00 0. -1.
         22    1    1    0    0    0 -0.18096423166E+02  0.36740437427E+02  0.45617081442E+02  0.61304635983E+02  0.00000000000E+00 0.  1.
</event>
<event>
 4    1  0.9856522E-003  0.9118800E+02  0.7818608E-02  0.1130116E+00
         25   -1    0    0    0    0  0.00000000000E+00  0.00000000000E+00  0.99999998245E-14  0.12500000000E+03  0.12500000000E+03 0.  0.
        -13    1    1    0    0    0  0.64651934660E+01  0.48336871873E+01  0.15052070782E+02  0.17080376379E+02  0.10566000000E+00 0. -1.
         13    1    1    0    0    0  0.24921464637E+02  0.11313745358E+02  0.36389245691E+02  0.45533159342E+02  0.10566000000E+00 0.  1.
         22    1    1    0    0    0 -0.31386658103E+02 -0.16147432545E+02 -0.51441316474E+02  0.62386464279E+02  0.00000000000E+00 0.  1.
</event>
<event>
 4    1  0.9856522E-003  0.9118800E+02  0.7818608E-02  0.1130116E+00
         25   -1    0    0    0    0  0.00000000000E+00  0.00000000000E+00  0.99999998245E-14  0.12500000000E+03  0.12500000000E+03 0.  0.
        -13    1    1    0    0    0 -0.30668467975E+02  0.95215027378E+00  0.46686725221E+02  0.55867011680E+02  0.10566000000E+00 0.  1.
         13    1    1    0    0    0 -0.32261983284E+01  0.71030057115E+00  0.57740112559E+01  0.66530633977E+01  0.10566000000E+00 0. -1.
         22    1    1    0    0    0  0.33894666303E+02 -0.16624508449E+01 -0.52460736477E+02  0.62479924923E+02  0.00000000000E+00 0.  1.
</event>
<event>
 4    1  0.9856522E-003  0.9118800E+02  0.7818608E-02  0.1130116E+00
         25   -1    0    0    0    0  0.00000000000E+00  0.00000000000E+00  0.99999998245E-14  0.12500000000E+03  0.12500000000E+03 0.  0.
        -13    1    1    0    0    0 -0.32547364816E+02 -0.31543317868E+02  0.19006609857E+01  0.45364474369E+02  0.10566000000E+00 0. -1.
         13    1    1    0    0    0 -0.12249153249E+02 -0.11963223958E+02  0.68143136130E+00  0.17135810326E+02  0.10566000000E+00 0. -1.
         22    1    1    0    0    0  0.44796518064E+02  0.43506541826E+02 -0.25820923470E+01  0.62499715305E+02  0.00000000000E+00 0. -1.
</event>
<event>
 4    1  0.9856522E-003  0.9118800E+02  0.7818608E-02  0.1130116E+00
         25   -1    0    0    0    0  0.00000000000E+00  0.00000000000E+00  0.99999998245E-14  0.12500000000E+03  0.12500000000E+03 0.  0.
        -13    1    1    0    0    0  0.95476886487E+01  0.25690371942E+01 -0.22520252572E+01  0.10141059729E+02  0.10566000000E+00 0. -1.
         13    1    1    0    0    0  0.30644633563E+02  0.32801276119E+02 -0.28445825593E+02  0.53143141034E+02  0.10566000000E+00 0.  1.
         22    1    1    0    0    0 -0.40192322212E+02 -0.35370313313E+02  0.30697850850E+02  0.61715799237E+02  0.00000000000E+00 0.  1.
</event>
<event>
 4    1  0.9856522E-003  0.9118800E+02  0.7818608E-02  0.1130116E+00
         25   -1    0    0    0    0  0.00000000000E+00  0.00000000000E+00  0.99999998245E-14  0.12500000000E+03  0.12500000000E+03 0.  0.
        -13    1    1    0    0    0  0.83321538458E+01 -0.20982184498E+02 -0.23288107548E+01  0.22696065245E+02  0.10566000000E+00 0. -1.
         13    1    1    0    0    0  0.23552848700E+02 -0.31492776229E+02 -0.77421257805E+01  0.40080959471E+02  0.10566000000E+00 0.  1.
         22    1    1    0    0    0 -0.31885002545E+02  0.52474960727E+02  0.10070936535E+02  0.62222975285E+02  0.00000000000E+00 0.  1.
</event>
<event>
 4    1  0.9856522E-003  0.9118800E+02  0.7818608E-02  0.1130116E+00
         25   -1    0    0    0    0  0.00000000000E+00  0.00000000000E+00  0.99999998245E-14  0.12500000000E+03  0.12500000000E+03 0.  0.
        -13    1    1    0    0    0 -0.83880037920E+01  0.44159823395E+02 -0.31323875689E+02  0.54787270074E+02  0.10566000000E+00 0.  1.
         13    1    1    0    0    0 -0.62520560592E+00  0.60119959602E+01 -0.48137075190E+01  0.77277371584E+01  0.10566000000E+00 0. -1.
         22    1    1    0    0    0  0.90132093980E+01 -0.50171819356E+02  0.36137583208E+02  0.62484992768E+02  0.00000000000E+00 0.  1.
</event>
<event>
 4    1  0.9856522E-003  0.9118800E+02  0.7818608E-02  0.1130116E+00
         25   -1    0    0    0    0  0.00000000000E+00  0.00000000000E+00  0.99999998245E-14  0.12500000000E+03  0.12500000000E+03 0.  0.
        -13    1    1    0    0    0 -0.16503704272E+02  0.92369503935E+01  0.88304283692E+01  0.20872976225E+02  0.10566000000E+00 0.  1.
         13    1    1    0    0    0 -0.41795846112E+02  0.67737160396E+00  0.81763392951E+01  0.42593606008E+02  0.10566000000E+00 0. -1.
         22    1    1    0    0    0  0.58299550384E+02 -0.99143219974E+01 -0.17006767664E+02  0.61533417767E+02  0.00000000000E+00 0. -1.
</event>
<event>
 4    1  0.9856522E-003  0.9118800E+02  0.7818608E-02  0.1130116E+00
         25   -1    0    0    0    0  0.00000000000E+00  0.00000000000E+00  0.99999998245E-14  0.12500000000E+03  0.12500000000E+03 0.  0.
        -13    1    1    0    0    0  0.39406832752E+02 -0.14488706373E+02  0.19826811381E+01  0.42032883180E+02  0.10566000000E+00 0.  1.
         13    1    1    0    0    0  0.19287734043E+02 -0.48490686446E+01  0.57110368611E+01  0.20691961176E+02  0.10566000000E+00 0. -1.
         22    1    1    0    0    0 -0.58694566795E+02  0.19337775018E+02 -0.76937179992E+01  0.62275155644E+02  0.00000000000E+00 0.  1.
</event>
<event>
 4    1  0.9856522E-003  0.9118800E+02  0.7818608E-02  0.1130116E+00
         25   -1    0    0    0    0  0.00000000000E+00  0.00000000000E+00  0.99999998245E-14  0.12500000000E+03  0.12500000000E+03 0.  0.
        -13    1    1    0    0    0 -0.12312303566E+02 -0.16640570159E+02 -0.38643770483E+02  0.43838950210E+02  0.10566000000E+00 0.  1.
         13    1    1    0    0    0 -0.87151827092E+01 -0.97194105774E+01 -0.13682341186E+02  0.18911345166E+02  0.10566000000E+00 0. -1.
         22    1    1    0    0    0  0.21027486275E+02  0.26359980737E+02  0.52326111669E+02  0.62249704624E+02  0.00000000000E+00 0. -1.
</event>
<event>
 4    1  0.9856522E-003  0.9118800E+02  0.7818608E-02  0.1130116E+00
         25   -1    0    0    0    0  0.00000000000E+00  0.00000000000E+00  0.99999998245E-14  0.12500000000E+03  0.12500000000E+03 0.  0.
        -13    1    1    0    0    0 -0.45804462330E+01 -0.93094601062E+01 -0.79435353225E+01  0.13067419509E+02  0.10566000000E+00 0. -1.
         13    1    1    0    0    0 -0.16833922669E+02 -0.36024882362E+02 -0.29369449003E+02  0.49434287700E+02  0.10566000000E+00 0.  1.
         22    1    1    0    0    0  0.21414368902E+02  0.45334342469E+02  0.37312984325E+02  0.62498292791E+02  0.00000000000E+00 0.  1.
</event>
<event>
 4    1  0.9856522E-003  0.9118800E+02  0.7818608E-02  0.1130116E+00
         25   -1    0    0    0    0  0.00000000000E+00  0.00000000000E+00  0.99999998245E-14  0.12500000000E+03  0.12500000000E+03 0.  0.
        -13    1    1    0    0    0  0.39019575669E+02  0.43003538913E+02 -0.12062958859E+02  0.59307316454E+02  0.10566000000E+00 0.  1.
         13    1    1    0    0    0  0.21551748650E+01  0.23075266570E+01 -0.48280674704E+00  0.31958917945E+01  0.10566000000E+00 0. -1.
         22    1    1    0    0    0 -0.41174750534E+02 -0.45311065570E+02  0.12545765606E+02  0.62496791752E+02  0.00000000000E+00 0.  1.
</event>
<event>
 4    1  0.9856522E-003  0.9118800E+02  0.7818608E-02  0.1130116E+00
         25   -1    0    0    0    0  0.00000000000E+00  0.00000000000E+00  0.99999998245E-14  0.12500000000E+03  0.12500000000E+03 0.  0.
        -13    1    1    0    0    0 -0.23854708975E+00  0.17454949060E+01 -0.49904319736E+01  0.52933196106E+01  0.10566000000E+00 0.  1.
         13    1    1    0    0    0  0.10871871651E+02  0.18120438066E+02 -0.53233638263E+02  0.57274595377E+02  0.10566000000E+00 0. -1.
         22    1    1    0    0    0 -0.10633324561E+02 -0.19865932972E+02  0.58224070236E+02  0.62432085012E+02  0.00000000000E+00 0. -1.
</event>
<event>
 4    1  0.9856522E-003  0.9118800E+02  0.7818608E-02  0.1130116E+00
         25   -1    0    0    0    0  0.00000000000E+00  0.00000000000E+00  0.99999998245E-14  0.12500000000E+03  0.12500000000E+03 0.  0.
        -13    1    1    0    0    0 -0.35716461471E+02 -0.76479531987E+01 -0.83187576896E+01  0.37461576337E+02  0.10566000000E+00 0. -1.
         13    1    1    0    0    0 -0.19954298270E+02 -0.10452758155E+02  0.17182547618E+02  0.28331700958E+02  0.10566000000E+00 0.  1.
         22    1    1    0    0    0  0.55670759740E+02  0.18100711353E+02 -0.88637899286E+01  0.59206722705E+02  0.00000000000E+00 0. -1.
</event>
<event>
 4    1  0.9856522E-003  0.9118800E+02  0.7818608E-02  0.1130116E+00
         25   -1    0    0    0    0  0.00000000000E+00  0.00000000000E+00  0.99999998245E-14  0.12500000000E+03  0.12500000000E+03 0.  0.
        -13    1    1    0    0    0 -0.11207547623E+01 -0.30088927516E+01  0.95452546497E+00  0.33513892234E+01  0.10566000000E+00 0. -1.
         13    1    1    0    0    0 -0.15866038408E+02 -0.50927632263E+02  0.25610422609E+02  0.59171444235E+02  0.10566000000E+00 0.  1.
         22    1    1    0    0    0  0.16986793170E+02  0.53936525015E+02 -0.26564948073E+02  0.62477166541E+02  0.00000000000E+00 0.  1.
</event>
<event>
 4    1  0.9856522E-003  0.9118800E+02  0.7818608E-02  0.1130116E+00
         25   -1    0    0    0    0  0.00000000000E+00  0.00000000000E+00  0.99999998245E-14  0.12500000000E+03  0.12500000000E+03 0.  0.
        -13    1    1    0    0    0 -0.24841820015E+02  0.11873844541E+02  0.11580990219E+02  0.29870298028E+02  0.10566000000E+00 0. -1.
         13    1    1    0    0    0 -0.27389419300E+02  0.12482375502E+02  0.12600826700E+02  0.32630997308E+02  0.10566000000E+00 0.  1.
         22    1    1    0    0    0  0.52231239315E+02 -0.24356220043E+02 -0.24181816919E+02  0.62498704663E+02  0.00000000000E+00 0.  1.
</event>
<event>
 4    1  0.9856522E-003  0.9118800E+02  0.7818608E-02  0.1130116E+00
         25   -1    0    0    0    0  0.00000000000E+00  0.00000000000E+00  0.99999998245E-14  0.12500000000E+03  0.12500000000E+03 0.  0.
        -13    1    1    0    0    0 -0.32928692721E+01  0.36762907420E+02  0.64619634766E+01  0.37471622409E+02  0.10566000000E+00 0.  1.
         13    1    1    0    0    0 -0.13672331950E+01  0.24213844232E+02  0.62974698629E+01  0.25056912615E+02  0.10566000000E+00 0. -1.
         22    1    1    0    0    0  0.46601024671E+01 -0.60976751652E+02 -0.12759433340E+02  0.62471464975E+02  0.00000000000E+00 0. -1.
</event>
<event>
 4    1  0.9856522E-003  0.9118800E+02  0.7818608E-02  0.1130116E+00
         25   -1    0    0    0    0  0.00000000000E+00  0.00000000000E+00  0.99999998245E-14  0.12500000000E+03  0.12500000000E+03 0.  0.
        -13    1    1    0    0    0 -0.24145514268E+02 -0.13068374540E+02  0.41327119270E+02  0.49615826341E+02  0.10566000000E+00 0. -1.
         13    1    1    0    0    0 -0.65790951194E+01 -0.34869275802E+01  0.10517331462E+02  0.12886759936E+02  0.10566000000E+00 0.  1.
         22    1    1    0    0    0  0.30724609387E+02  0.16555302120E+02 -0.51844450732E+02  0.62497413722E+02  0.00000000000E+00 0. -1.
</event>
<event>
 4    1  0.9856522E-003  0.9118800E+02  0.7818608E-02  0.1130116E+00
         25   -1    0    0    0    0  0.00000000000E+00  0.00000000000E+00  0.99999998245E-14  0.12500000000E+03  0.12500000000E+03 0.  0.
        -13    1    1    0    0    0 -0.94429161959E+01  0.88145653224E+01  0.15682284863E+02  0.20317737341E+02  0.10566000000E+00 0. -1.
         13    1    1    0    0    0 -0.75867169226E+01 -0.53048960330E+02  0.31442959375E+01  0.53680985709E+02  0.10566000000E+00 0.  1.
         22    1    1    0    0    0  0.17029633118E+02  0.44234395007E+02 -0.18826580801E+02  0.51001276949E+02  0.00000000000E+00 0.  1.
</event>
<event>
 4    1  0.9856522E-003  0.9118800E+02  0.7818608E-02  0.1130116E+00
         25   -1    0    0    0    0  0.00000000000E+00  0.00000000000E+00  0.99999998245E-14  0.12500000000E+03  0.12500000000E+03 0.  0.
        -13    1    1    0    0    0  0.57229426538E+01  0.58821982928E+02 -0.15991795996E+02  0.61225210914E+02  0.10566000000E+00 0. -1.
         13    1    1    0    0    0 -0.43338819655E+01 -0.17937414266E+01  0.12812491802E+01  0.48634149210E+01  0.10566000000E+00 0.  1.
         22    1    1    0    0    0 -0.13890606884E+01 -0.57028241502E+02  0.14710546816E+02  0.58911374165E+02  0.00000000000E+00 0. -1.
</event>
<event>
 4    1  0.9856522E-003  0.9118800E+02  0.7818608E-02  0.1130116E+00
         25   -1    0    0    0    0  0.00000000000E+00  0.00000000000E+00  0.99999998245E-14  0.12500000000E+03  0.12500000000E+03 0.  0.
        -13    1    1    0    0    0  0.13488381556E+02  0.26321847941E+02 -0.16195005021E+02  0.33720401358E+02  0.10566000000E+00 0.  1.
         13    1    1    0    0    0  0.11395923265E+02  0.20818037045E+02 -0.16354625340E+02  0.28822606883E+02  0.10566000000E+00 0. -1.
         22    1    1    0    0    0 -0.24884304821E+02 -0.47139884986E+02  0.32549630362E+02  0.62456991759E+02  0.00000000000E+00 0.  1.
</event>
<event>
 4    1  0.9856522E-003  0.9118800E+02  0.7818608E-02  0.1130116E+00
         25   -1    0    0    0    0  0.00000000000E+00  0.00000000000E+00  0.99999998245E-14  0.12500000000E+03  0.12500000000E+03 0.  0.
        -13    1    1    0    0    0  0.33344664135E+02  0.52635365765E+01  0.37678816471E+01  0.33967330476E+02  0.10566000000E+00 0. -1.
         13    1    1    0    0    0  0.28270404012E+02  0.29226771985E+01  0.26559250164E+01  0.28545102675E+02  0.10566000000E+00 0.  1.
         22    1    1    0    0    0 -0.61615068146E+02 -0.81862137751E+01 -0.64238066635E+01  0.62487566849E+02  0.00000000000E+00 0.  1.
</event>
<event>
 4    1  0.9856522E-003  0.9118800E+02  0.7818608E-02  0.1130116E+00
         25   -1    0    0    0    0  0.00000000000E+00  0.00000000000E+00  0.99999998245E-14  0.12500000000E+03  0.12500000000E+03 0.  0.
        -13    1    1    0    0    0  0.23741044239E+02 -0.71938756887E+01 -0.12586700814E+02  0.27817714327E+02  0.10566000000E+00 0. -1.
         13    1    1    0    0    0  0.29435287905E+02 -0.86928278312E+01 -0.16153362070E+02  0.34683478775E+02  0.10566000000E+00 0.  1.
         22    1    1    0    0    0 -0.53176332144E+02  0.15886703520E+02  0.28740062883E+02  0.62498806897E+02  0.00000000000E+00 0.  1.
</event>
<event>
 4    1  0.9856522E-003  0.9118800E+02  0.7818608E-02  0.1130116E+00
         25   -1    0    0    0    0  0.00000000000E+00  0.00000000000E+00  0.99999998245E-14  0.12500000000E+03  0.12500000000E+03 0.  0.
        -13    1    1    0    0    0 -0.24328792892E+02 -0.25238151016E+01  0.63518546850E+01  0.25270873120E+02  0.10566000000E+00 0.  1.
         13    1    1    0    0    0 -0.35865999221E+02 -0.40042728704E+01  0.91450663920E+01  0.37229658939E+02  0.10566000000E+00 0.  1.
         22    1    1    0    0    0  0.60194792113E+02  0.65280879720E+01 -0.15496921077E+02  0.62499467942E+02  0.00000000000E+00 0.  1.
</event>
<event>
 4    1  0.9856522E-003  0.9118800E+02  0.7818608E-02  0.1130116E+00
         25   -1    0    0    0    0  0.00000000000E+00  0.00000000000E+00  0.99999998245E-14  0.12500000000E+03  0.12500000000E+03 0.  0.
        -13    1    1    0    0    0 -0.17456175729E+01  0.14037414102E+01 -0.18440139940E+02  0.18575995146E+02  0.10566000000E+00 0. -1.
         13    1    1    0    0    0  0.47599644876E+01  0.26988892480E+02 -0.35825169330E+02  0.45105559532E+02  0.10566000000E+00 0.  1.
         22    1    1    0    0    0 -0.30143469147E+01 -0.28392633890E+02  0.54265309269E+02  0.61318445321E+02  0.00000000000E+00 0.  1.
</event>
<event>
 4    1  0.9856522E-003  0.9118800E+02  0.7818608E-02  0.1130116E+00
         25   -1    0    0    0    0  0.00000000000E+00  0.00000000000E+00  0.99999998245E-14  0.12500000000E+03  0.12500000000E+03 0.  0.
        -13    1    1    0    0    0 -0.17369147285E+02  0.11614284102E+02 -0.12991850400E+02  0.24604434834E+02  0.10566000000E+00 0. -1.
         13    1    1    0    0    0 -0.14785724351E+02  0.33098753708E+02  0.24988976696E+02  0.44029595296E+02  0.10566000000E+00 0.  1.
         22    1    1    0    0    0  0.32154871636E+02 -0.44713037810E+02 -0.11997126295E+02  0.56365969871E+02  0.00000000000E+00 0. -1.
</event>
<event>
 4    1  0.9856522E-003  0.9118800E+02  0.7818608E-02  0.1130116E+00
         25   -1    0    0    0    0  0.00000000000E+00  0.00000000000E+00  0.99999998245E-14  0.12500000000E+03  0.12500000000E+03 0.  0.
        -13    1    1    0    0    0 -0.17272479972E+02 -0.24809089089E+02 -0.99295984363E+01  0.31818823909E+02  0.10566000000E+00 0.  1.
         13    1    1    0    0    0 -0.66701927206E+01 -0.25808619588E+02 -0.16407742513E+02  0.31301781010E+02  0.10566000000E+00 0. -1.
         22    1    1    0    0    0  0.23942672692E+02  0.50617708677E+02  0.26337340949E+02  0.61879395081E+02  0.00000000000E+00 0. -1.
</event>
<event>
 4    1  0.9856522E-003  0.9118800E+02  0.7818608E-02  0.1130116E+00
         25   -1    0    0    0    0  0.00000000000E+00  0.00000000000E+00  0.99999998245E-14  0.12500000000E+03  0.12500000000E+03 0.  0.
        -13    1    1    0    0    0 -0.32672164032E+01 -0.95198192416E+01 -0.73982598203E+01  0.12491880316E+02  0.10566000000E+00 0. -1.
         13    1    1    0    0    0 -0.12015874800E+02 -0.37346485087E+02 -0.31017008436E+02  0.50012070262E+02  0.10566000000E+00 0.  1.
         22    1    1    0    0    0  0.15283091203E+02  0.46866304329E+02  0.38415268256E+02  0.62496049422E+02  0.00000000000E+00 0.  1.
</event>
<event>
 4    1  0.9856522E-003  0.9118800E+02  0.7818608E-02  0.1130116E+00
         25   -1    0    0    0    0  0.00000000000E+00  0.00000000000E+00  0.99999998245E-14  0.12500000000E+03  0.12500000000E+03 0.  0.
        -13    1    1    0    0    0 -0.78311424730E+01 -0.20538764191E+02  0.95929612302E+01  0.23983404599E+02  0.10566000000E+00 0. -1.
         13    1    1    0    0    0 -0.37091499621E+01 -0.27865769557E+02  0.27210693203E+02  0.39124057753E+02  0.10566000000E+00 0.  1.
         22    1    1    0    0    0  0.11540292435E+02  0.48404533748E+02 -0.36803654433E+02  0.61892537648E+02  0.00000000000E+00 0.  1.
</event>
<event>
 4    1  0.9856522E-003  0.9118800E+02  0.7818608E-02  0.1130116E+00
         25   -1    0    0    0    0  0.00000000000E+00  0.00000000000E+00  0.99999998245E-14  0.12500000000E+03  0.12500000000E+03 0.  0.
        -13    1    1    0    0    0 -0.16056455740E+02 -0.23305681137E+01  0.28807275761E+02  0.33062238573E+02  0.10566000000E+00 0.  1.
         13    1    1    0    0    0 -0.27798039355E+02  0.19563203586E+02  0.44247765106E+01  0.34278852632E+02  0.10566000000E+00 0. -1.
         22    1    1    0    0    0  0.43854495095E+02 -0.17232635472E+02 -0.33232052271E+02  0.57658908796E+02  0.00000000000E+00 0.  1.
</event>
<event>
 4    1  0.9856522E-003  0.9118800E+02  0.7818608E-02  0.1130116E+00
         25   -1    0    0    0    0  0.00000000000E+00  0.00000000000E+00  0.99999998245E-14  0.12500000000E+03  0.12500000000E+03 0.  0.
        -13    1    1    0    0    0  0.69274108603E+01  0.10729450853E+02 -0.39413903032E+01  0.13366220797E+02  0.10566000000E+00 0.  1.
         13    1    1    0    0    0  0.36583191886E+02  0.32524944086E+02 -0.65613766798E+01  0.49388913172E+02  0.10566000000E+00 0. -1.
         22    1    1    0    0    0 -0.43510602746E+02 -0.43254394940E+02  0.10502766983E+02  0.62244866031E+02  0.00000000000E+00 0. -1.
</event>
<event>
 4    1  0.9856522E-003  0.9118800E+02  0.7818608E-02  0.1130116E+00
         25   -1    0    0    0    0  0.00000000000E+00  0.00000000000E+00  0.99999998245E-14  0.12500000000E+03  0.12500000000E+03 0.  0.
        -13    1    1    0    0    0  0.20536882528E+02 -0.61617158021E+01  0.41125007443E+02  0.46378957371E+02  0.10566000000E+00 0. -1.
         13    1    1    0    0    0  0.75690667937E+01 -0.25715600733E+01  0.14005324417E+02  0.16126498981E+02  0.10566000000E+00 0.  1.
         22    1    1    0    0    0 -0.28105949322E+02  0.87332758754E+01 -0.55130331860E+02  0.62494543648E+02  0.00000000000E+00 0.  1.
</event>
<event>
 4    1  0.9856522E-003  0.9118800E+02  0.7818608E-02  0.1130116E+00
         25   -1    0    0    0    0  0.00000000000E+00  0.00000000000E+00  0.99999998245E-14  0.12500000000E+03  0.12500000000E+03 0.  0.
        -13    1    1    0    0    0 -0.75970343534E+00 -0.17040716585E+01  0.11037982455E+01  0.21703787986E+01  0.10566000000E+00 0. -1.
         13    1    1    0    0    0 -0.15245158748E+02 -0.58398651743E+02  0.35378828876E+01  0.60459450626E+02  0.10566000000E+00 0.  1.
         22    1    1    0    0    0  0.16004862183E+02  0.60102723402E+02 -0.46416811331E+01  0.62370170575E+02  0.00000000000E+00 0.  1.
</event>
<event>
 4    1  0.9856522E-003  0.9118800E+02  0.7818608E-02  0.1130116E+00
         25   -1    0    0    0    0  0.00000000000E+00  0.00000000000E+00  0.99999998245E-14  0.12500000000E+03  0.12500000000E+03 0.  0.
        -13    1    1    0    0    0 -0.96788608489E+00  0.22828209958E+01  0.85740564287E+00  0.26257158346E+01  0.10566000000E+00 0. -1.
         13    1    1    0    0    0 -0.11158922776E+02  0.57998045551E+02  0.10093591778E+02  0.59918165896E+02  0.10566000000E+00 0.  1.
         22    1    1    0    0    0  0.12126808861E+02 -0.60280866547E+02 -0.10950997421E+02  0.62456118270E+02  0.00000000000E+00 0.  1.
</event>
<event>
 4    1  0.9856522E-003  0.9118800E+02  0.7818608E-02  0.1130116E+00
         25   -1    0    0    0    0  0.00000000000E+00  0.00000000000E+00  0.99999998245E-14  0.12500000000E+03  0.12500000000E+03 0.  0.
        -13    1    1    0    0    0  0.47161766008E+01  0.22556162237E+02 -0.20380680116E+01  0.23134123321E+02  0.10566000000E+00 0. -1.
         13    1    1    0    0    0  0.81516185478E+01  0.38312243817E+02 -0.39297026863E+01  0.39366618326E+02  0.10566000000E+00 0.  1.
         22    1    1    0    0    0 -0.12867795149E+02 -0.60868406054E+02  0.59677706980E+01  0.62499258352E+02  0.00000000000E+00 0.  1.
</event>
<event>
 4    1  0.9856522E-003  0.9118800E+02  0.7818608E-02  0.1130116E+00
         25   -1    0    0    0    0  0.00000000000E+00  0.00000000000E+00  0.99999998245E-14  0.12500000000E+03  0.12500000000E+03 0.  0.
        -13    1    1    0    0    0  0.44324606346E+02 -0.22271368715E+02  0.13288258105E+02  0.51354391825E+02  0.10566000000E+00 0.  1.
         13    1    1    0    0    0  0.73638036096E+01 -0.74038956417E+01  0.46095862977E+01  0.11415021864E+02  0.10566000000E+00 0. -1.
         22    1    1    0    0    0 -0.51688409956E+02  0.29675264357E+02 -0.17897844402E+02  0.62230586312E+02  0.00000000000E+00 0.  1.
</event>
<event>
 4    1  0.9856522E-003  0.9118800E+02  0.7818608E-02  0.1130116E+00
         25   -1    0    0    0    0  0.00000000000E+00  0.00000000000E+00  0.99999998245E-14  0.12500000000E+03  0.12500000000E+03 0.  0.
        -13    1    1    0    0    0 -0.13485628664E+01  0.86909647241E+00 -0.11293847299E+02  0.11407721128E+02  0.10566000000E+00 0.  1.
         13    1    1    0    0    0 -0.59702185885E+01  0.41214117541E+01 -0.50574856061E+02  0.51092629355E+02  0.10566000000E+00 0.  1.
         22    1    1    0    0    0  0.73187814549E+01 -0.49905082265E+01  0.61868703360E+02  0.62499649517E+02  0.00000000000E+00 0.  1.
</event>
<event>
 4    1  0.9856522E-003  0.9118800E+02  0.7818608E-02  0.1130116E+00
         25   -1    0    0    0    0  0.00000000000E+00  0.00000000000E+00  0.99999998245E-14  0.12500000000E+03  0.12500000000E+03 0.  0.
        -13    1    1    0    0    0  0.30401326509E+01 -0.26813308194E+01 -0.40217004401E+01  0.57111452410E+01  0.10566000000E+00 0. -1.
         13    1    1    0    0    0  0.29397300881E+02 -0.27564943508E+02 -0.40013316252E+02  0.56789999570E+02  0.10566000000E+00 0.  1.
         22    1    1    0    0    0 -0.32437433532E+02  0.30246274327E+02  0.44035016692E+02  0.62498855189E+02  0.00000000000E+00 0.  1.
</event>
<event>
 4    1  0.9856522E-003  0.9118800E+02  0.7818608E-02  0.1130116E+00
         25   -1    0    0    0    0  0.00000000000E+00  0.00000000000E+00  0.99999998245E-14  0.12500000000E+03  0.12500000000E+03 0.  0.
        -13    1    1    0    0    0 -0.52258357805E+02  0.19496239391E+02  0.88102752488E+01  0.56468322313E+02  0.10566000000E+00 0. -1.
         13    1    1    0    0    0 -0.55038109301E+01  0.21775583293E+01  0.11719111102E+01  0.60347522499E+01  0.10566000000E+00 0.  1.
         22    1    1    0    0    0  0.57762168735E+02 -0.21673797721E+02 -0.99821863590E+01  0.62496925437E+02  0.00000000000E+00 0. -1.
</event>
<event>
 4    1  0.9856522E-003  0.9118800E+02  0.7818608E-02  0.1130116E+00
         25   -1    0    0    0    0  0.00000000000E+00  0.00000000000E+00  0.99999998245E-14  0.12500000000E+03  0.12500000000E+03 0.  0.
        -13    1    1    0    0    0  0.37847635922E+01 -0.65336191772E+00  0.12883493380E+02  0.13444213735E+02  0.10566000000E+00 0. -1.
         13    1    1    0    0    0  0.21388949605E+02 -0.88339245218E+00  0.44220799088E+02  0.49130008990E+02  0.10566000000E+00 0.  1.
         22    1    1    0    0    0 -0.25173713197E+02  0.15367543699E+01 -0.57104292468E+02  0.62425777275E+02  0.00000000000E+00 0.  1.
</event>
<event>
 4    1  0.9856522E-003  0.9118800E+02  0.7818608E-02  0.1130116E+00
         25   -1    0    0    0    0  0.00000000000E+00  0.00000000000E+00  0.99999998245E-14  0.12500000000E+03  0.12500000000E+03 0.  0.
        -13    1    1    0    0    0 -0.19245536731E+01 -0.26324593737E+01  0.15811711395E+02  0.16144817449E+02  0.10566000000E+00 0.  1.
         13    1    1    0    0    0 -0.67030843005E+01 -0.36023433235E+01  0.45750650469E+02  0.46379320812E+02  0.10566000000E+00 0. -1.
         22    1    1    0    0    0  0.86276379736E+01  0.62348026972E+01 -0.61562361864E+02  0.62475861739E+02  0.00000000000E+00 0.  1.
</event>
<event>
 4    1  0.9856522E-003  0.9118800E+02  0.7818608E-02  0.1130116E+00
         25   -1    0    0    0    0  0.00000000000E+00  0.00000000000E+00  0.99999998245E-14  0.12500000000E+03  0.12500000000E+03 0.  0.
        -13    1    1    0    0    0 -0.44827544679E+02 -0.60283675076E+01 -0.13656126382E+02  0.47247761095E+02  0.10566000000E+00 0. -1.
         13    1    1    0    0    0 -0.15663941952E+02 -0.68479230503E+00  0.26024869011E+01  0.15893776143E+02  0.10566000000E+00 0.  1.
         22    1    1    0    0    0  0.60491486631E+02  0.67131598127E+01  0.11053639481E+02  0.61858462762E+02  0.00000000000E+00 0. -1.
</event>
<event>
 4    1  0.9856522E-003  0.9118800E+02  0.7818608E-02  0.1130116E+00
         25   -1    0    0    0    0  0.00000000000E+00  0.00000000000E+00  0.99999998245E-14  0.12500000000E+03  0.12500000000E+03 0.  0.
        -13    1    1    0    0    0 -0.17307121369E+02 -0.24789533746E+02 -0.11369144704E+00  0.30233781160E+02  0.10566000000E+00 0. -1.
         13    1    1    0    0    0  0.39536292198E+02  0.46357586197E+02 -0.10897391021E+02  0.61894333294E+02  0.10566000000E+00 0.  1.
         22    1    1    0    0    0 -0.22229170829E+02 -0.21568052451E+02  0.11011082468E+02  0.32871885547E+02  0.00000000000E+00 0.  1.
</event>
<event>
 4    1  0.9856522E-003  0.9118800E+02  0.7818608E-02  0.1130116E+00
         25   -1    0    0    0    0  0.00000000000E+00  0.00000000000E+00  0.99999998245E-14  0.12500000000E+03  0.12500000000E+03 0.  0.
        -13    1    1    0    0    0  0.21216429596E+02  0.44060012839E+02 -0.14290470635E+02  0.50947525270E+02  0.10566000000E+00 0. -1.
         13    1    1    0    0    0  0.45714719133E+01  0.99987963064E+01 -0.35559892429E+01  0.11555540081E+02  0.10566000000E+00 0.  1.
         22    1    1    0    0    0 -0.25787901509E+02 -0.54058809145E+02  0.17846459877E+02  0.62496934649E+02  0.00000000000E+00 0. -1.
</event>
<event>
 4    1  0.9856522E-003  0.9118800E+02  0.7818608E-02  0.1130116E+00
         25   -1    0    0    0    0  0.00000000000E+00  0.00000000000E+00  0.99999998245E-14  0.12500000000E+03  0.12500000000E+03 0.  0.
        -13    1    1    0    0    0  0.77257876903E+00 -0.78267664003E+00 -0.10484655190E+02  0.10542704547E+02  0.10566000000E+00 0. -1.
         13    1    1    0    0    0  0.36411481036E+02 -0.41184911547E+01 -0.38244270137E+02  0.52965963438E+02  0.10566000000E+00 0.  1.
         22    1    1    0    0    0 -0.37184059805E+02  0.49011677948E+01  0.48728925327E+02  0.61491332014E+02  0.00000000000E+00 0.  1.
</event>
<event>
 4    1  0.9856522E-003  0.9118800E+02  0.7818608E-02  0.1130116E+00
         25   -1    0    0    0    0  0.00000000000E+00  0.00000000000E+00  0.99999998245E-14  0.12500000000E+03  0.12500000000E+03 0.  0.
        -13    1    1    0    0    0  0.30472798066E+01  0.22466163813E+02 -0.26618350354E+02  0.34965156518E+02  0.10566000000E+00 0.  1.
         13    1    1    0    0    0  0.41496704648E+01  0.16981633204E+02 -0.21297896322E+02  0.27553714505E+02  0.10566000000E+00 0. -1.
         22    1    1    0    0    0 -0.71969502714E+01 -0.39447797017E+02  0.47916246676E+02  0.62481128977E+02  0.00000000000E+00 0. -1.
</event>
<event>
 4    1  0.9856522E-003  0.9118800E+02  0.7818608E-02  0.1130116E+00
         25   -1    0    0    0    0  0.00000000000E+00  0.00000000000E+00  0.99999998245E-14  0.12500000000E+03  0.12500000000E+03 0.  0.
        -13    1    1    0    0    0 -0.16600898749E+02  0.29214984018E+02  0.66866433367E+01  0.34261165970E+02  0.10566000000E+00 0.  1.
         13    1    1    0    0    0 -0.13405698324E+02  0.24246799972E+02  0.54626064138E+01  0.28239534156E+02  0.10566000000E+00 0. -1.
         22    1    1    0    0    0  0.30006597074E+02 -0.53461783990E+02 -0.12149249751E+02  0.62499299875E+02  0.00000000000E+00 0.  1.
</event>
<event>
 4    1  0.9856522E-003  0.9118800E+02  0.7818608E-02  0.1130116E+00
         25   -1    0    0    0    0  0.00000000000E+00  0.00000000000E+00  0.99999998245E-14  0.12500000000E+03  0.12500000000E+03 0.  0.
        -13    1    1    0    0    0 -0.38148924892E+00  0.28145836689E+01 -0.14428645349E+02  0.14705930298E+02  0.10566000000E+00 0. -1.
         13    1    1    0    0    0 -0.83439915540E+01 -0.12889594551E+02 -0.45957373684E+02  0.48454671629E+02  0.10566000000E+00 0.  1.
         22    1    1    0    0    0  0.87254808029E+01  0.10075010882E+02  0.60386019032E+02  0.61839398074E+02  0.00000000000E+00 0.  1.
</event>
<event>
 4    1  0.9856522E-003  0.9118800E+02  0.7818608E-02  0.1130116E+00
         25   -1    0    0    0    0  0.00000000000E+00  0.00000000000E+00  0.99999998245E-14  0.12500000000E+03  0.12500000000E+03 0.  0.
        -13    1    1    0    0    0  0.48687080317E+02 -0.17212559423E+02  0.25640980148E+02  0.57655659034E+02  0.10566000000E+00 0.  1.
         13    1    1    0    0    0 -0.17198470678E+01  0.30259698805E+00  0.73195686901E+01  0.75257350949E+01  0.10566000000E+00 0. -1.
         22    1    1    0    0    0 -0.46967233249E+02  0.16909962435E+02 -0.32960548838E+02  0.59818605871E+02  0.00000000000E+00 0.  1.
</event>
<event>
 4    1  0.9856522E-003  0.9118800E+02  0.7818608E-02  0.1130116E+00
         25   -1    0    0    0    0  0.00000000000E+00  0.00000000000E+00  0.99999998245E-14  0.12500000000E+03  0.12500000000E+03 0.  0.
        -13    1    1    0    0    0 -0.30676619071E+02  0.21633956303E+02  0.41853561295E+02  0.56221123967E+02  0.10566000000E+00 0. -1.
         13    1    1    0    0    0 -0.33402042398E+01  0.26016315480E+01  0.46382380401E+01  0.62809129295E+01  0.10566000000E+00 0.  1.
         22    1    1    0    0    0  0.34016823311E+02 -0.24235587851E+02 -0.46491799336E+02  0.62497963104E+02  0.00000000000E+00 0. -1.
</event>
<event>
 4    1  0.9856522E-003  0.9118800E+02  0.7818608E-02  0.1130116E+00
         25   -1    0    0    0    0  0.00000000000E+00  0.00000000000E+00  0.99999998245E-14  0.12500000000E+03  0.12500000000E+03 0.  0.
        -13    1    1    0    0    0 -0.25046544961E+02  0.39672135104E+02 -0.10905373078E+02  0.48167894330E+02  0.10566000000E+00 0.  1.
         13    1    1    0    0    0  0.63511197571E+01  0.15766543239E+02  0.63629987511E+01  0.18149918044E+02  0.10566000000E+00 0. -1.
         22    1    1    0    0    0  0.18695425204E+02 -0.55438678343E+02  0.45423743273E+01  0.58682187625E+02  0.00000000000E+00 0.  1.
</event>
<event>
 4    1  0.9856522E-003  0.9118800E+02  0.7818608E-02  0.1130116E+00
         25   -1    0    0    0    0  0.00000000000E+00  0.00000000000E+00  0.99999998245E-14  0.12500000000E+03  0.12500000000E+03 0.  0.
        -13    1    1    0    0    0 -0.68381580357E+00  0.38581568943E+00 -0.43613975205E+01  0.44327655213E+01  0.10566000000E+00 0. -1.
         13    1    1    0    0    0  0.23821348885E+02 -0.15342520141E+02 -0.51218429009E+02  0.58533650331E+02  0.10566000000E+00 0.  1.
         22    1    1    0    0    0 -0.23137533082E+02  0.14956704451E+02  0.55579826529E+02  0.62033584147E+02  0.00000000000E+00 0.  1.
</event>
<event>
 4    1  0.9856522E-003  0.9118800E+02  0.7818608E-02  0.1130116E+00
         25   -1    0    0    0    0  0.00000000000E+00  0.00000000000E+00  0.99999998245E-14  0.12500000000E+03  0.12500000000E+03 0.  0.
        -13    1    1    0    0    0  0.46187228349E+02 -0.14448397295E+02 -0.86304258473E+01  0.49158027435E+02  0.10566000000E+00 0. -1.
         13    1    1    0    0    0  0.12813865777E+02 -0.20825921599E+01 -0.33519389262E+01  0.13408169333E+02  0.10566000000E+00 0.  1.
         22    1    1    0    0    0 -0.59001094126E+02  0.16530989455E+02  0.11982364774E+02  0.62433803232E+02  0.00000000000E+00 0. -1.
</event>
<event>
 4    1  0.9856522E-003  0.9118800E+02  0.7818608E-02  0.1130116E+00
         25   -1    0    0    0    0  0.00000000000E+00  0.00000000000E+00  0.99999998245E-14  0.12500000000E+03  0.12500000000E+03 0.  0.
        -13    1    1    0    0    0 -0.51672940803E+02  0.38408703005E+01  0.13533033005E+01  0.51833268176E+02  0.10566000000E+00 0. -1.
         13    1    1    0    0    0 -0.10627700559E+02  0.91131454791E+00  0.11543149150E+00  0.10667848979E+02  0.10566000000E+00 0.  1.
         22    1    1    0    0    0  0.62300641362E+02 -0.47521848484E+01 -0.14687347920E+01  0.62498882845E+02  0.00000000000E+00 0. -1.
</event>
<event>
 4    1  0.9856522E-003  0.9118800E+02  0.7818608E-02  0.1130116E+00
         25   -1    0    0    0    0  0.00000000000E+00  0.00000000000E+00  0.99999998245E-14  0.12500000000E+03  0.12500000000E+03 0.  0.
        -13    1    1    0    0    0  0.50262180171E+01 -0.31151680481E+02 -0.91820958210E+01  0.32863537729E+02  0.10566000000E+00 0. -1.
         13    1    1    0    0    0  0.27636392288E+01 -0.29373904770E+02 -0.37956204074E+01  0.29746964241E+02  0.10566000000E+00 0.  1.
         22    1    1    0    0    0 -0.77898572458E+01  0.60525585251E+02  0.12977716228E+02  0.62389498030E+02  0.00000000000E+00 0.  1.
</event>
<event>
 4    1  0.9856522E-003  0.9118800E+02  0.7818608E-02  0.1130116E+00
         25   -1    0    0    0    0  0.00000000000E+00  0.00000000000E+00  0.99999998245E-14  0.12500000000E+03  0.12500000000E+03 0.  0.
        -13    1    1    0    0    0  0.19372184369E+01 -0.41787900546E+01 -0.23334143667E+01  0.51644058937E+01  0.10566000000E+00 0. -1.
         13    1    1    0    0    0  0.20065813424E+02 -0.46920409909E+02 -0.26141243506E+02  0.57337051812E+02  0.10566000000E+00 0.  1.
         22    1    1    0    0    0 -0.22003031860E+02  0.51099199964E+02  0.28474657872E+02  0.62498542295E+02  0.00000000000E+00 0.  1.
</event>
<event>
 4    1  0.9856522E-003  0.9118800E+02  0.7818608E-02  0.1130116E+00
         25   -1    0    0    0    0  0.00000000000E+00  0.00000000000E+00  0.99999998245E-14  0.12500000000E+03  0.12500000000E+03 0.  0.
        -13    1    1    0    0    0  0.27067576175E+01  0.30131525948E+00  0.25995462849E+01  0.37664482750E+01  0.10566000000E+00 0.  1.
         13    1    1    0    0    0  0.43707165897E+02  0.13062055269E+01  0.39219329423E+02  0.58738313630E+02  0.10566000000E+00 0.  1.
         22    1    1    0    0    0 -0.46413923514E+02 -0.16075207863E+01 -0.41818875708E+02  0.62495238095E+02  0.00000000000E+00 0.  1.
</event>
<event>
 4    1  0.9856522E-003  0.9118800E+02  0.7818608E-02  0.1130116E+00
         25   -1    0    0    0    0  0.00000000000E+00  0.00000000000E+00  0.99999998245E-14  0.12500000000E+03  0.12500000000E+03 0.  0.
        -13    1    1    0    0    0  0.28601354496E+01 -0.39285769045E+02 -0.35472292602E+02  0.53007987424E+02  0.10566000000E+00 0.  1.
         13    1    1    0    0    0  0.47217399079E+00 -0.70380686183E+01 -0.63511451675E+01  0.94923952261E+01  0.10566000000E+00 0.  1.
         22    1    1    0    0    0 -0.33323094403E+01  0.46323837663E+02  0.41823437770E+02  0.62499617350E+02  0.00000000000E+00 0.  1.
</event>
<event>
 4    1  0.9856522E-003  0.9118800E+02  0.7818608E-02  0.1130116E+00
         25   -1    0    0    0    0  0.00000000000E+00  0.00000000000E+00  0.99999998245E-14  0.12500000000E+03  0.12500000000E+03 0.  0.
        -13    1    1    0    0    0 -0.28816732849E+00  0.13796439890E+01 -0.29022129326E+00  0.14428618715E+01  0.10566000000E+00 0.  1.
         13    1    1    0    0    0  0.40218573124E+02  0.41001554982E+02 -0.21583020843E+02  0.61355513915E+02  0.10566000000E+00 0. -1.
         22    1    1    0    0    0 -0.39930405796E+02 -0.42381198971E+02  0.21873242136E+02  0.62201624213E+02  0.00000000000E+00 0. -1.
</event>
<event>
 4    1  0.9856522E-003  0.9118800E+02  0.7818608E-02  0.1130116E+00
         25   -1    0    0    0    0  0.00000000000E+00  0.00000000000E+00  0.99999998245E-14  0.12500000000E+03  0.12500000000E+03 0.  0.
        -13    1    1    0    0    0 -0.27105132572E+02  0.44918218373E+02 -0.17454473523E+02  0.55290183248E+02  0.10566000000E+00 0.  1.
         13    1    1    0    0    0 -0.49698422929E+01  0.55405190840E+01  0.72172228444E-01  0.74439946939E+01  0.10566000000E+00 0. -1.
         22    1    1    0    0    0  0.32074974865E+02 -0.50458737457E+02  0.17382301295E+02  0.62265822059E+02  0.00000000000E+00 0.  1.
</event>
<event>
 4    1  0.9856522E-003  0.9118800E+02  0.7818608E-02  0.1130116E+00
         25   -1    0    0    0    0  0.00000000000E+00  0.00000000000E+00  0.99999998245E-14  0.12500000000E+03  0.12500000000E+03 0.  0.
        -13    1    1    0    0    0 -0.20154465863E+01 -0.14678942915E+02  0.83376797040E+01  0.17001807461E+02  0.10566000000E+00 0. -1.
         13    1    1    0    0    0 -0.49033217015E+01 -0.37904319484E+02  0.24705974403E+02  0.45510178362E+02  0.10566000000E+00 0.  1.
         22    1    1    0    0    0  0.69187682879E+01  0.52583262399E+02 -0.33043654107E+02  0.62488014178E+02  0.00000000000E+00 0. -1.
</event>
<event>
 4    1  0.9856522E-003  0.9118800E+02  0.7818608E-02  0.1130116E+00
         25   -1    0    0    0    0  0.00000000000E+00  0.00000000000E+00  0.99999998245E-14  0.12500000000E+03  0.12500000000E+03 0.  0.
        -13    1    1    0    0    0 -0.15147492194E+02  0.23429366027E+02 -0.10897815830E+02  0.29952550244E+02  0.10566000000E+00 0.  1.
         13    1    1    0    0    0 -0.37685224463E+02 -0.56224257627E+01 -0.66448130567E+00  0.38108273560E+02  0.10566000000E+00 0. -1.
         22    1    1    0    0    0  0.52832716657E+02 -0.17806940264E+02  0.11562297135E+02  0.56939176197E+02  0.00000000000E+00 0. -1.
</event>
<event>
 4    1  0.9856522E-003  0.9118800E+02  0.7818608E-02  0.1130116E+00
         25   -1    0    0    0    0  0.00000000000E+00  0.00000000000E+00  0.99999998245E-14  0.12500000000E+03  0.12500000000E+03 0.  0.
        -13    1    1    0    0    0  0.21575730441E+01  0.48679235738E+02 -0.35700728396E+02  0.60405929225E+02  0.10566000000E+00 0.  1.
         13    1    1    0    0    0  0.92887038015E-01  0.14174623888E+01 -0.15650516496E+01  0.21162179300E+01  0.10566000000E+00 0. -1.
         22    1    1    0    0    0 -0.22504600821E+01 -0.50096698127E+02  0.37265780046E+02  0.62477852845E+02  0.00000000000E+00 0.  1.
</event>
<event>
 4    1  0.9856522E-003  0.9118800E+02  0.7818608E-02  0.1130116E+00
         25   -1    0    0    0    0  0.00000000000E+00  0.00000000000E+00  0.99999998245E-14  0.12500000000E+03  0.12500000000E+03 0.  0.
        -13    1    1    0    0    0 -0.55853122282E+02  0.96916938777E+01  0.12149243227E+02  0.57975128063E+02  0.10566000000E+00 0.  1.
         13    1    1    0    0    0 -0.43079043135E+01 -0.64042410116E-01  0.15451162955E+01  0.45782845485E+01  0.10566000000E+00 0. -1.
         22    1    1    0    0    0  0.60161026595E+02 -0.96276514676E+01 -0.13694359523E+02  0.62446587389E+02  0.00000000000E+00 0.  1.
</event>
<event>
 4    1  0.9856522E-003  0.9118800E+02  0.7818608E-02  0.1130116E+00
         25   -1    0    0    0    0  0.00000000000E+00  0.00000000000E+00  0.99999998245E-14  0.12500000000E+03  0.12500000000E+03 0.  0.
        -13    1    1    0    0    0 -0.38913976482E+01  0.23821944150E+01  0.18048685067E+01  0.49078040150E+01  0.10566000000E+00 0.  1.
         13    1    1    0    0    0 -0.46538776329E+02  0.25153535343E+02  0.22777207142E+02  0.57596617710E+02  0.10566000000E+00 0. -1.
         22    1    1    0    0    0  0.50430173977E+02 -0.27535729758E+02 -0.24582075649E+02  0.62495578275E+02  0.00000000000E+00 0. -1.
</event>
<event>
 4    1  0.9856522E-003  0.9118800E+02  0.7818608E-02  0.1130116E+00
         25   -1    0    0    0    0  0.00000000000E+00  0.00000000000E+00  0.99999998245E-14  0.12500000000E+03  0.12500000000E+03 0.  0.
        -13    1    1    0    0    0 -0.20626368517E+02  0.19671116347E+02 -0.52093220589E+02  0.59381097092E+02  0.10566000000E+00 0. -1.
         13    1    1    0    0    0  0.10497002406E+02  0.32622457289E+01  0.46035471484E+01  0.11917764769E+02  0.10566000000E+00 0.  1.
         22    1    1    0    0    0  0.10129366111E+02 -0.22933362076E+02  0.47489673440E+02  0.53701138139E+02  0.00000000000E+00 0. -1.
</event>
<event>
 4    1  0.9856522E-003  0.9118800E+02  0.7818608E-02  0.1130116E+00
         25   -1    0    0    0    0  0.00000000000E+00  0.00000000000E+00  0.99999998245E-14  0.12500000000E+03  0.12500000000E+03 0.  0.
        -13    1    1    0    0    0  0.21854701112E+01 -0.28144974856E+01  0.14963781137E+01  0.38662626913E+01  0.10566000000E+00 0.  1.
         13    1    1    0    0    0  0.34168628462E+02 -0.44725098549E+02  0.16477896509E+02  0.58646072747E+02  0.10566000000E+00 0. -1.
         22    1    1    0    0    0 -0.36354098574E+02  0.47539596034E+02 -0.17974274622E+02  0.62487664562E+02  0.00000000000E+00 0. -1.
</event>
<event>
 4    1  0.9856522E-003  0.9118800E+02  0.7818608E-02  0.1130116E+00
         25   -1    0    0    0    0  0.00000000000E+00  0.00000000000E+00  0.99999998245E-14  0.12500000000E+03  0.12500000000E+03 0.  0.
        -13    1    1    0    0    0 -0.86326889146E+01 -0.18849826652E+02 -0.28851818008E+01  0.20932623361E+02  0.10566000000E+00 0. -1.
         13    1    1    0    0    0 -0.13460037886E+02 -0.39441348479E+02  0.28978839044E+00  0.41675985065E+02  0.10566000000E+00 0.  1.
         22    1    1    0    0    0  0.22092726800E+02  0.58291175131E+02  0.25953934103E+01  0.62391391575E+02  0.00000000000E+00 0. -1.
</event>
<event>
 4    1  0.9856522E-003  0.9118800E+02  0.7818608E-02  0.1130116E+00
         25   -1    0    0    0    0  0.00000000000E+00  0.00000000000E+00  0.99999998245E-14  0.12500000000E+03  0.12500000000E+03 0.  0.
        -13    1    1    0    0    0  0.32211468573E+01 -0.23552883728E+02 -0.12149250082E+02  0.26696995347E+02  0.10566000000E+00 0.  1.
         13    1    1    0    0    0  0.11441157120E+01 -0.30658625348E+02 -0.18547831573E+02  0.35850990629E+02  0.10566000000E+00 0. -1.
         22    1    1    0    0    0 -0.43652625694E+01  0.54211509076E+02  0.30697081655E+02  0.62452014024E+02  0.00000000000E+00 0. -1.
</event>
<event>
 4    1  0.9856522E-003  0.9118800E+02  0.7818608E-02  0.1130116E+00
         25   -1    0    0    0    0  0.00000000000E+00  0.00000000000E+00  0.99999998245E-14  0.12500000000E+03  0.12500000000E+03 0.  0.
        -13    1    1    0    0    0 -0.26055016372E+02  0.45725647230E+02  0.27581746225E+02  0.59417695863E+02  0.10566000000E+00 0. -1.
         13    1    1    0    0    0 -0.12820382140E+01  0.22595063109E+01  0.16677351459E+01  0.30889310940E+01  0.10566000000E+00 0. -1.
         22    1    1    0    0    0  0.27337054586E+02 -0.47985153541E+02 -0.29249481371E+02  0.62493373043E+02  0.00000000000E+00 0. -1.
</event>
<event>
 4    1  0.9856522E-003  0.9118800E+02  0.7818608E-02  0.1130116E+00
         25   -1    0    0    0    0  0.00000000000E+00  0.00000000000E+00  0.99999998245E-14  0.12500000000E+03  0.12500000000E+03 0.  0.
        -13    1    1    0    0    0  0.50973018755E+01  0.89682324385E+01  0.11270525608E+01  0.10377528173E+02  0.10566000000E+00 0.  1.
         13    1    1    0    0    0  0.22549030589E+02  0.46542736906E+02  0.65664110783E+01  0.52132658264E+02  0.10566000000E+00 0. -1.
         22    1    1    0    0    0 -0.27646332464E+02 -0.55510969345E+02 -0.76934636391E+01  0.62489813562E+02  0.00000000000E+00 0. -1.
</event>
<event>
 4    1  0.9856522E-003  0.9118800E+02  0.7818608E-02  0.1130116E+00
         25   -1    0    0    0    0  0.00000000000E+00  0.00000000000E+00  0.99999998245E-14  0.12500000000E+03  0.12500000000E+03 0.  0.
        -13    1    1    0    0    0 -0.24382333798E+01  0.41903592504E+02 -0.22883985367E+02  0.47807363419E+02  0.10566000000E+00 0. -1.
         13    1    1    0    0    0 -0.15060120683E+01  0.12653713752E+02 -0.73319621521E+01  0.14702155526E+02  0.10566000000E+00 0.  1.
         22    1    1    0    0    0  0.39442454481E+01 -0.54557306256E+02  0.30215947519E+02  0.62490481055E+02  0.00000000000E+00 0. -1.
</event>
<event>
 4    1  0.9856522E-003  0.9118800E+02  0.7818608E-02  0.1130116E+00
         25   -1    0    0    0    0  0.00000000000E+00  0.00000000000E+00  0.99999998245E-14  0.12500000000E+03  0.12500000000E+03 0.  0.
        -13    1    1    0    0    0 -0.10772266666E+02 -0.13447215628E+02  0.38272049912E+01  0.17650155789E+02  0.10566000000E+00 0. -1.
         13    1    1    0    0    0 -0.24377685519E+02 -0.37209048843E+02  0.60962757502E+01  0.44899449987E+02  0.10566000000E+00 0.  1.
         22    1    1    0    0    0  0.35149952186E+02  0.50656264471E+02 -0.99234807414E+01  0.62450394225E+02  0.00000000000E+00 0. -1.
</event>
<event>
 4    1  0.9856522E-003  0.9118800E+02  0.7818608E-02  0.1130116E+00
         25   -1    0    0    0    0  0.00000000000E+00  0.00000000000E+00  0.99999998245E-14  0.12500000000E+03  0.12500000000E+03 0.  0.
        -13    1    1    0    0    0  0.11747459548E+02  0.18419837466E+02  0.24780432338E+02  0.33035953278E+02  0.10566000000E+00 0. -1.
         13    1    1    0    0    0 -0.13147986518E+02 -0.16562281969E+02  0.30236671400E+02  0.36897780352E+02  0.10566000000E+00 0.  1.
         22    1    1    0    0    0  0.14005269692E+01 -0.18575554970E+01 -0.55017103738E+02  0.55066266370E+02  0.00000000000E+00 0.  1.
</event>
<event>
 4    1  0.9856522E-003  0.9118800E+02  0.7818608E-02  0.1130116E+00
         25   -1    0    0    0    0  0.00000000000E+00  0.00000000000E+00  0.99999998245E-14  0.12500000000E+03  0.12500000000E+03 0.  0.
        -13    1    1    0    0    0 -0.25207292985E-01 -0.84002338861E-01  0.29661192562E+01  0.29692960913E+01  0.10566000000E+00 0. -1.
         13    1    1    0    0    0 -0.50570419782E+02  0.28971499781E+02  0.16552793202E+02  0.60586477727E+02  0.10566000000E+00 0.  1.
         22    1    1    0    0    0  0.50595627075E+02 -0.28887497442E+02 -0.19518912458E+02  0.61444226182E+02  0.00000000000E+00 0.  1.
</event>
<event>
 4    1  0.9856522E-003  0.9118800E+02  0.7818608E-02  0.1130116E+00
         25   -1    0    0    0    0  0.00000000000E+00  0.00000000000E+00  0.99999998245E-14  0.12500000000E+03  0.12500000000E+03 0.  0.
        -13    1    1    0    0    0  0.41740559149E+02  0.23141601581E+02 -0.12076254151E+02  0.49230631523E+02  0.10566000000E+00 0.  1.
         13    1    1    0    0    0  0.12376728595E+02  0.40524456033E+01 -0.29800953655E+01  0.13360309072E+02  0.10566000000E+00 0. -1.
         22    1    1    0    0    0 -0.54117287744E+02 -0.27194047184E+02  0.15056349517E+02  0.62409059405E+02  0.00000000000E+00 0.  1.
</event>
<event>
 4    1  0.9856522E-003  0.9118800E+02  0.7818608E-02  0.1130116E+00
         25   -1    0    0    0    0  0.00000000000E+00  0.00000000000E+00  0.99999998245E-14  0.12500000000E+03  0.12500000000E+03 0.  0.
        -13    1    1    0    0    0 -0.14483639826E+02 -0.25089265205E+02  0.17665675283E+01  0.29023765710E+02  0.10566000000E+00 0.  1.
         13    1    1    0    0    0 -0.33563637202E+02 -0.11072225408E+02  0.39855879265E+01  0.35566950852E+02  0.10566000000E+00 0. -1.
         22    1    1    0    0    0  0.48047277028E+02  0.36161490613E+02 -0.57521554548E+01  0.60409283438E+02  0.00000000000E+00 0. -1.
</event>
<event>
 4    1  0.9856522E-003  0.9118800E+02  0.7818608E-02  0.1130116E+00
         25   -1    0    0    0    0  0.00000000000E+00  0.00000000000E+00  0.99999998245E-14  0.12500000000E+03  0.12500000000E+03 0.  0.
        -13    1    1    0    0    0 -0.23615914205E+02  0.11124277736E+01 -0.24157315087E+02  0.33801419135E+02  0.10566000000E+00 0. -1.
         13    1    1    0    0    0 -0.20930858167E+02  0.94330065595E+01 -0.17839601020E+02  0.29074816679E+02  0.10566000000E+00 0.  1.
         22    1    1    0    0    0  0.44546772372E+02 -0.10545434333E+02  0.41996916107E+02  0.62123764185E+02  0.00000000000E+00 0. -1.
</event>
<event>
 4    1  0.9856522E-003  0.9118800E+02  0.7818608E-02  0.1130116E+00
         25   -1    0    0    0    0  0.00000000000E+00  0.00000000000E+00  0.99999998245E-14  0.12500000000E+03  0.12500000000E+03 0.  0.
        -13    1    1    0    0    0 -0.43981137242E+00  0.93947874065E+01 -0.36034841592E+01  0.10072324785E+02  0.10566000000E+00 0.  1.
         13    1    1    0    0    0 -0.31294478527E+02 -0.11574532376E+02  0.49130203907E+02  0.59389412238E+02  0.10566000000E+00 0. -1.
         22    1    1    0    0    0  0.31734289899E+02  0.21797449694E+01 -0.45526719748E+02  0.55538262977E+02  0.00000000000E+00 0. -1.
</event>
<event>
 4    1  0.9856522E-003  0.9118800E+02  0.7818608E-02  0.1130116E+00
         25   -1    0    0    0    0  0.00000000000E+00  0.00000000000E+00  0.99999998245E-14  0.12500000000E+03  0.12500000000E+03 0.  0.
        -13    1    1    0    0    0  0.95608104854E+00 -0.15578345618E+01 -0.21941987044E+00  0.18439763036E+01  0.10566000000E+00 0.  1.
         13    1    1    0    0    0  0.26301968511E+02 -0.48582674198E+02  0.25366052592E+02  0.60790768772E+02  0.10566000000E+00 0. -1.
         22    1    1    0    0    0 -0.27258049559E+02  0.50140508760E+02 -0.25146632722E+02  0.62365254924E+02  0.00000000000E+00 0. -1.
</event>
<event>
 4    1  0.9856522E-003  0.9118800E+02  0.7818608E-02  0.1130116E+00
         25   -1    0    0    0    0  0.00000000000E+00  0.00000000000E+00  0.99999998245E-14  0.12500000000E+03  0.12500000000E+03 0.  0.
        -13    1    1    0    0    0  0.32252404680E+02  0.31432532380E+02  0.30954726889E+02  0.54648220284E+02  0.10566000000E+00 0. -1.
         13    1    1    0    0    0  0.46391187786E+01  0.47000299442E+01  0.42503816921E+01  0.78542098955E+01  0.10566000000E+00 0.  1.
         22    1    1    0    0    0 -0.36891523458E+02 -0.36132562325E+02 -0.35205108581E+02  0.62497569820E+02  0.00000000000E+00 0. -1.
</event>
<event>
 4    1  0.9856522E-003  0.9118800E+02  0.7818608E-02  0.1130116E+00
         25   -1    0    0    0    0  0.00000000000E+00  0.00000000000E+00  0.99999998245E-14  0.12500000000E+03  0.12500000000E+03 0.  0.
        -13    1    1    0    0    0 -0.48419378713E+02 -0.54650670697E+01  0.31723274254E+02  0.58143619482E+02  0.10566000000E+00 0.  1.
         13    1    1    0    0    0 -0.34065658959E+01 -0.24361101964E+00  0.27201657559E+01  0.43674366975E+01  0.10566000000E+00 0. -1.
         22    1    1    0    0    0  0.51825944609E+02  0.57086780893E+01 -0.34443440010E+02  0.62488943821E+02  0.00000000000E+00 0.  1.
</event>
<event>
 4    1  0.9856522E-003  0.9118800E+02  0.7818608E-02  0.1130116E+00
         25   -1    0    0    0    0  0.00000000000E+00  0.00000000000E+00  0.99999998245E-14  0.12500000000E+03  0.12500000000E+03 0.  0.
        -13    1    1    0    0    0  0.45529327425E+01  0.17488890486E+02 -0.20906225010E+02  0.27634614077E+02  0.10566000000E+00 0. -1.
         13    1    1    0    0    0  0.69893296328E+01  0.23828367924E+02 -0.24510311478E+02  0.34891379730E+02  0.10566000000E+00 0.  1.
         22    1    1    0    0    0 -0.11542262375E+02 -0.41317258410E+02  0.45416536488E+02  0.62474006193E+02  0.00000000000E+00 0.  1.
</event>
<event>
 4    1  0.9856522E-003  0.9118800E+02  0.7818608E-02  0.1130116E+00
         25   -1    0    0    0    0  0.00000000000E+00  0.00000000000E+00  0.99999998245E-14  0.12500000000E+03  0.12500000000E+03 0.  0.
        -13    1    1    0    0    0  0.22572961977E+02 -0.34456628159E+02 -0.13264304857E+02  0.43275290685E+02  0.10566000000E+00 0.  1.
         13    1    1    0    0    0  0.99431153772E+01 -0.15285814046E+02 -0.60893963439E+01  0.19225336572E+02  0.10566000000E+00 0. -1.
         22    1    1    0    0    0 -0.32516077354E+02  0.49742442205E+02  0.19353701201E+02  0.62499372742E+02  0.00000000000E+00 0. -1.
</event>
<event>
 4    1  0.9856522E-003  0.9118800E+02  0.7818608E-02  0.1130116E+00
         25   -1    0    0    0    0  0.00000000000E+00  0.00000000000E+00  0.99999998245E-14  0.12500000000E+03  0.12500000000E+03 0.  0.
        -13    1    1    0    0    0  0.12491000005E+02  0.36876983251E+01  0.11544669579E+02  0.17404446552E+02  0.10566000000E+00 0.  1.
         13    1    1    0    0    0  0.24791200002E+02  0.36139213467E+01  0.37782631075E+02  0.45334340185E+02  0.10566000000E+00 0. -1.
         22    1    1    0    0    0 -0.37282200007E+02 -0.73016196718E+01 -0.49327300654E+02  0.62261213263E+02  0.00000000000E+00 0. -1.
</event>
<event>
 4    1  0.9856522E-003  0.9118800E+02  0.7818608E-02  0.1130116E+00
         25   -1    0    0    0    0  0.00000000000E+00  0.00000000000E+00  0.99999998245E-14  0.12500000000E+03  0.12500000000E+03 0.  0.
        -13    1    1    0    0    0  0.10342398853E+02 -0.12181583967E+02  0.11147025579E+02  0.19483930436E+02  0.10566000000E+00 0.  1.
         13    1    1    0    0    0  0.29492423039E+02 -0.23017080440E+02  0.21484647913E+02  0.43141514446E+02  0.10566000000E+00 0. -1.
         22    1    1    0    0    0 -0.39834821892E+02  0.35198664407E+02 -0.32631673492E+02  0.62374555117E+02  0.00000000000E+00 0. -1.
</event>
<event>
 4    1  0.9856522E-003  0.9118800E+02  0.7818608E-02  0.1130116E+00
         25   -1    0    0    0    0  0.00000000000E+00  0.00000000000E+00  0.99999998245E-14  0.12500000000E+03  0.12500000000E+03 0.  0.
        -13    1    1    0    0    0  0.17514164950E+02  0.32584491798E+02  0.16193235003E+02  0.40382262239E+02  0.10566000000E+00 0.  1.
         13    1    1    0    0    0  0.98023648206E+01  0.17899839187E+02  0.85295706443E+01  0.22119117035E+02  0.10566000000E+00 0. -1.
         22    1    1    0    0    0 -0.27316529771E+02 -0.50484330984E+02 -0.24722805647E+02  0.62498620727E+02  0.00000000000E+00 0.  1.
</event>
<event>
 4    1  0.9856522E-003  0.9118800E+02  0.7818608E-02  0.1130116E+00
         25   -1    0    0    0    0  0.00000000000E+00  0.00000000000E+00  0.99999998245E-14  0.12500000000E+03  0.12500000000E+03 0.  0.
        -13    1    1    0    0    0 -0.12229454166E+02 -0.40311903996E+01  0.51290070765E+02  0.52881873722E+02  0.10566000000E+00 0. -1.
         13    1    1    0    0    0 -0.25632024123E+01 -0.11724480587E+01  0.92030466871E+01  0.96255843156E+01  0.10566000000E+00 0.  1.
         22    1    1    0    0    0  0.14792656579E+02  0.52036384583E+01 -0.60493117452E+02  0.62492541962E+02  0.00000000000E+00 0. -1.
</event>
<event>
 4    1  0.9856522E-003  0.9118800E+02  0.7818608E-02  0.1130116E+00
         25   -1    0    0    0    0  0.00000000000E+00  0.00000000000E+00  0.99999998245E-14  0.12500000000E+03  0.12500000000E+03 0.  0.
        -13    1    1    0    0    0  0.15302093366E+02 -0.57240865215E+01  0.91088322651E+01  0.18705646665E+02  0.10566000000E+00 0. -1.
         13    1    1    0    0    0  0.35584621787E+02 -0.13920420325E+02  0.21399983493E+02  0.43795135201E+02  0.10566000000E+00 0. -1.
         22    1    1    0    0    0 -0.50886715153E+02  0.19644506847E+02 -0.30508815758E+02  0.62499218134E+02  0.00000000000E+00 0. -1.
</event>
<event>
 4    1  0.9856522E-003  0.9118800E+02  0.7818608E-02  0.1130116E+00
         25   -1    0    0    0    0  0.00000000000E+00  0.00000000000E+00  0.99999998245E-14  0.12500000000E+03  0.12500000000E+03 0.  0.
        -13    1    1    0    0    0  0.34262275024E+02  0.61840015332E+01  0.34308936747E+02  0.48880053903E+02  0.10566000000E+00 0. -1.
         13    1    1    0    0    0  0.13808973872E+02  0.94463447837E+01 -0.40772324402E+01  0.17220806531E+02  0.10566000000E+00 0.  1.
         22    1    1    0    0    0 -0.48071248896E+02 -0.15630346317E+02 -0.30231704307E+02  0.58899139567E+02  0.00000000000E+00 0. -1.
</event>
<event>
 4    1  0.9856522E-003  0.9118800E+02  0.7818608E-02  0.1130116E+00
         25   -1    0    0    0    0  0.00000000000E+00  0.00000000000E+00  0.99999998245E-14  0.12500000000E+03  0.12500000000E+03 0.  0.
        -13    1    1    0    0    0 -0.45764870017E+02 -0.13013811031E+02 -0.16676234657E+02  0.50417165446E+02  0.10566000000E+00 0. -1.
         13    1    1    0    0    0 -0.11017851055E+02 -0.31337552193E+01 -0.38454508435E+01  0.12083547487E+02  0.10566000000E+00 0. -1.
         22    1    1    0    0    0  0.56782721072E+02  0.16147566251E+02  0.20521685500E+02  0.62499287067E+02  0.00000000000E+00 0. -1.
</event>
<event>
 4    1  0.9856522E-003  0.9118800E+02  0.7818608E-02  0.1130116E+00
         25   -1    0    0    0    0  0.00000000000E+00  0.00000000000E+00  0.99999998245E-14  0.12500000000E+03  0.12500000000E+03 0.  0.
        -13    1    1    0    0    0 -0.35726751416E+02  0.10680486057E+01  0.87666330557E+01  0.36802262345E+02  0.10566000000E+00 0.  1.
         13    1    1    0    0    0 -0.25011091443E+02  0.85287392027E+00  0.58410351366E+01  0.25698461911E+02  0.10566000000E+00 0. -1.
         22    1    1    0    0    0  0.60737842859E+02 -0.19209225260E+01 -0.14607668192E+02  0.62499275744E+02  0.00000000000E+00 0. -1.
</event>
<event>
 4    1  0.9856522E-003  0.9118800E+02  0.7818608E-02  0.1130116E+00
         25   -1    0    0    0    0  0.00000000000E+00  0.00000000000E+00  0.99999998245E-14  0.12500000000E+03  0.12500000000E+03 0.  0.
        -13    1    1    0    0    0  0.22521798013E+01  0.74409131067E+01  0.44863776790E+00  0.77879356444E+01  0.10566000000E+00 0. -1.
         13    1    1    0    0    0  0.15782217441E+02  0.52306419656E+02  0.28996241229E+01  0.54712511446E+02  0.10566000000E+00 0. -1.
         22    1    1    0    0    0 -0.18034397242E+02 -0.59747332763E+02 -0.33482618908E+01  0.62499552910E+02  0.00000000000E+00 0. -1.
</event>
<event>
 4    1  0.9856522E-003  0.9118800E+02  0.7818608E-02  0.1130116E+00
         25   -1    0    0    0    0  0.00000000000E+00  0.00000000000E+00  0.99999998245E-14  0.12500000000E+03  0.12500000000E+03 0.  0.
        -13    1    1    0    0    0  0.74082576043E+01  0.15096218171E+01 -0.78857593512E+01  0.10925090542E+02  0.10566000000E+00 0.  1.
         13    1    1    0    0    0  0.39129017507E+02  0.74395698993E+01 -0.32814415077E+02  0.51606435764E+02  0.10566000000E+00 0. -1.
         22    1    1    0    0    0 -0.46537275112E+02 -0.89491917163E+01  0.40700174428E+02  0.62468473694E+02  0.00000000000E+00 0. -1.
</event>
<event>
 4    1  0.9856522E-003  0.9118800E+02  0.7818608E-02  0.1130116E+00
         25   -1    0    0    0    0  0.00000000000E+00  0.00000000000E+00  0.99999998245E-14  0.12500000000E+03  0.12500000000E+03 0.  0.
        -13    1    1    0    0    0  0.21455363523E+02 -0.71035375502E+01  0.57673130279E+02  0.61943474151E+02  0.10566000000E+00 0. -1.
         13    1    1    0    0    0 -0.25646361390E+01 -0.30925782406E+01 -0.85286495673E+01  0.94281719424E+01  0.10566000000E+00 0.  1.
         22    1    1    0    0    0 -0.18890727384E+02  0.10196115791E+02 -0.49144480712E+02  0.53628353907E+02  0.00000000000E+00 0. -1.
</event>
<event>
 4    1  0.9856522E-003  0.9118800E+02  0.7818608E-02  0.1130116E+00
         25   -1    0    0    0    0  0.00000000000E+00  0.00000000000E+00  0.99999998245E-14  0.12500000000E+03  0.12500000000E+03 0.  0.
        -13    1    1    0    0    0 -0.26168900590E+01 -0.54869662036E+02  0.14439175738E+01  0.54951105426E+02  0.10566000000E+00 0. -1.
         13    1    1    0    0    0 -0.29103006356E+00 -0.75367008773E+01  0.32112786205E+00  0.75498904463E+01  0.10566000000E+00 0.  1.
         22    1    1    0    0    0  0.29079201226E+01  0.62406362914E+02 -0.17650454359E+01  0.62499004128E+02  0.00000000000E+00 0. -1.
</event>
<event>
 4    1  0.9856522E-003  0.9118800E+02  0.7818608E-02  0.1130116E+00
         25   -1    0    0    0    0  0.00000000000E+00  0.00000000000E+00  0.99999998245E-14  0.12500000000E+03  0.12500000000E+03 0.  0.
        -13    1    1    0    0    0  0.40628865964E+02 -0.15477449404E+02 -0.39704404097E+02  0.58878748783E+02  0.10566000000E+00 0.  1.
         13    1    1    0    0    0  0.49202900365E+01  0.24128964663E+01  0.38064581483E+01  0.66732009614E+01  0.10566000000E+00 0. -1.
         22    1    1    0    0    0 -0.45549156000E+02  0.13064552937E+02  0.35897945949E+02  0.59448050255E+02  0.00000000000E+00 0. -1.
</event>
<event>
 4    1  0.9856522E-003  0.9118800E+02  0.7818608E-02  0.1130116E+00
         25   -1    0    0    0    0  0.00000000000E+00  0.00000000000E+00  0.99999998245E-14  0.12500000000E+03  0.12500000000E+03 0.  0.
        -13    1    1    0    0    0  0.17770759809E+02 -0.50928546340E+01 -0.51802909770E+01  0.19198532526E+02  0.10566000000E+00 0.  1.
         13    1    1    0    0    0 -0.49113903152E+02 -0.26562227009E+02  0.19287485281E+02  0.59074069091E+02  0.10566000000E+00 0. -1.
         22    1    1    0    0    0  0.31343143343E+02  0.31655081644E+02 -0.14107194304E+02  0.46727398383E+02  0.00000000000E+00 0. -1.
</event>
<event>
 4    1  0.9856522E-003  0.9118800E+02  0.7818608E-02  0.1130116E+00
         25   -1    0    0    0    0  0.00000000000E+00  0.00000000000E+00  0.99999998245E-14  0.12500000000E+03  0.12500000000E+03 0.  0.
        -13    1    1    0    0    0  0.10722905042E+02 -0.13809631119E+02  0.52813441119E+01  0.18264456298E+02  0.10566000000E+00 0.  1.
         13    1    1    0    0    0  0.26566208579E+02 -0.33059940428E+02  0.12575715922E+02  0.44236669115E+02  0.10566000000E+00 0. -1.
         22    1    1    0    0    0 -0.37289113621E+02  0.46869571548E+02 -0.17857060034E+02  0.62498874588E+02  0.00000000000E+00 0. -1.
</event>
<event>
 4    1  0.9856522E-003  0.9118800E+02  0.7818608E-02  0.1130116E+00
         25   -1    0    0    0    0  0.00000000000E+00  0.00000000000E+00  0.99999998245E-14  0.12500000000E+03  0.12500000000E+03 0.  0.
        -13    1    1    0    0    0  0.83256059617E+01  0.12655732493E+02  0.13304205231E+02  0.20161753903E+02  0.10566000000E+00 0.  1.
         13    1    1    0    0    0 -0.21011164807E+02  0.32114982750E+02 -0.36395004978E+02  0.52890913350E+02  0.10566000000E+00 0. -1.
         22    1    1    0    0    0  0.12685558845E+02 -0.44770715244E+02  0.23090799747E+02  0.51947332748E+02  0.00000000000E+00 0. -1.
</event>
<event>
 4    1  0.9856522E-003  0.9118800E+02  0.7818608E-02  0.1130116E+00
         25   -1    0    0    0    0  0.00000000000E+00  0.00000000000E+00  0.99999998245E-14  0.12500000000E+03  0.12500000000E+03 0.  0.
        -13    1    1    0    0    0  0.55806636353E+01  0.11442809512E+02 -0.10372357009E+02  0.16421895448E+02  0.10566000000E+00 0.  1.
         13    1    1    0    0    0 -0.21188656189E+01  0.37604882266E+02  0.36883709237E+02  0.52716562225E+02  0.10566000000E+00 0. -1.
         22    1    1    0    0    0 -0.34617980164E+01 -0.49047691778E+02 -0.26511352228E+02  0.55861542327E+02  0.00000000000E+00 0. -1.
</event>
<event>
 4    1  0.9856522E-003  0.9118800E+02  0.7818608E-02  0.1130116E+00
         25   -1    0    0    0    0  0.00000000000E+00  0.00000000000E+00  0.99999998245E-14  0.12500000000E+03  0.12500000000E+03 0.  0.
        -13    1    1    0    0    0 -0.34480809930E+01 -0.16108174191E+02 -0.13267493364E+01  0.16526765144E+02  0.10566000000E+00 0. -1.
         13    1    1    0    0    0 -0.24088144898E-01 -0.44891780856E+02  0.11956242305E+02  0.46456812878E+02  0.10566000000E+00 0.  1.
         22    1    1    0    0    0  0.34721691379E+01  0.60999955047E+02 -0.10629492968E+02  0.62016421978E+02  0.00000000000E+00 0.  1.
</event>
<event>
 4    1  0.9856522E-003  0.9118800E+02  0.7818608E-02  0.1130116E+00
         25   -1    0    0    0    0  0.00000000000E+00  0.00000000000E+00  0.99999998245E-14  0.12500000000E+03  0.12500000000E+03 0.  0.
        -13    1    1    0    0    0  0.55574093406E+02  0.49290716446E+01  0.10395887163E+02  0.56752632002E+02  0.10566000000E+00 0. -1.
         13    1    1    0    0    0 -0.27205543353E+02  0.16541628427E+02 -0.38371273033E+01  0.32070263019E+02  0.10566000000E+00 0.  1.
         22    1    1    0    0    0 -0.28368550053E+02 -0.21470700072E+02 -0.65587598602E+01  0.36177104978E+02  0.00000000000E+00 0. -1.
</event>
<event>
 4    1  0.9856522E-003  0.9118800E+02  0.7818608E-02  0.1130116E+00
         25   -1    0    0    0    0  0.00000000000E+00  0.00000000000E+00  0.99999998245E-14  0.12500000000E+03  0.12500000000E+03 0.  0.
        -13    1    1    0    0    0 -0.29383114171E+02 -0.14661508804E+02 -0.43534002694E+02  0.54530246592E+02  0.10566000000E+00 0. -1.
         13    1    1    0    0    0  0.22678169578E+02 -0.13534737688E+02  0.19767956683E+02  0.32988964445E+02  0.10566000000E+00 0.  1.
         22    1    1    0    0    0  0.67049445937E+01  0.28196246493E+02  0.23766046011E+02  0.37480788963E+02  0.00000000000E+00 0. -1.
</event>
<event>
 4    1  0.9856522E-003  0.9118800E+02  0.7818608E-02  0.1130116E+00
         25   -1    0    0    0    0  0.00000000000E+00  0.00000000000E+00  0.99999998245E-14  0.12500000000E+03  0.12500000000E+03 0.  0.
        -13    1    1    0    0    0 -0.45027912311E+01 -0.10121113232E+02 -0.54084070764E+01  0.12327777296E+02  0.10566000000E+00 0. -1.
         13    1    1    0    0    0  0.24307271056E+02 -0.26617099154E+02 -0.38053565939E+02  0.52415631622E+02  0.10566000000E+00 0.  1.
         22    1    1    0    0    0 -0.19804479825E+02  0.36738212386E+02  0.43461973016E+02  0.60256591082E+02  0.00000000000E+00 0.  1.
</event>
<event>
 4    1  0.9856522E-003  0.9118800E+02  0.7818608E-02  0.1130116E+00
         25   -1    0    0    0    0  0.00000000000E+00  0.00000000000E+00  0.99999998245E-14  0.12500000000E+03  0.12500000000E+03 0.  0.
        -13    1    1    0    0    0  0.36900205242E+02 -0.12072744609E+02 -0.10190531073E+02  0.40140184315E+02  0.10566000000E+00 0.  1.
         13    1    1    0    0    0  0.22266275792E+02 -0.41930750807E+01  0.83473511947E-03  0.22657892245E+02  0.10566000000E+00 0. -1.
         22    1    1    0    0    0 -0.59166481034E+02  0.16265819690E+02  0.10189696338E+02  0.62201923439E+02  0.00000000000E+00 0.  1.
</event>
<event>
 4    1  0.9856522E-003  0.9118800E+02  0.7818608E-02  0.1130116E+00
         25   -1    0    0    0    0  0.00000000000E+00  0.00000000000E+00  0.99999998245E-14  0.12500000000E+03  0.12500000000E+03 0.  0.
        -13    1    1    0    0    0 -0.52808084691E+01 -0.65967229740E+01 -0.10465500748E+02  0.13451452042E+02  0.10566000000E+00 0.  1.
         13    1    1    0    0    0 -0.18976243504E+02 -0.24011570474E+02 -0.38329272654E+02  0.49048931083E+02  0.10566000000E+00 0.  1.
         22    1    1    0    0    0  0.24257051973E+02  0.30608293448E+02  0.48794773402E+02  0.62499616876E+02  0.00000000000E+00 0.  1.
</event>
<event>
 4    1  0.9856522E-003  0.9118800E+02  0.7818608E-02  0.1130116E+00
         25   -1    0    0    0    0  0.00000000000E+00  0.00000000000E+00  0.99999998245E-14  0.12500000000E+03  0.12500000000E+03 0.  0.
        -13    1    1    0    0    0 -0.53469564711E+02 -0.27054677087E+02  0.13320447182E+02  0.61387257471E+02  0.10566000000E+00 0.  1.
         13    1    1    0    0    0  0.16192020046E+00 -0.14311807913E+01 -0.13916051244E+01  0.20055486697E+01  0.10566000000E+00 0. -1.
         22    1    1    0    0    0  0.53307644511E+02  0.28485857878E+02 -0.11928842058E+02  0.61607193859E+02  0.00000000000E+00 0.  1.
</event>
<event>
 4    1  0.9856522E-003  0.9118800E+02  0.7818608E-02  0.1130116E+00
         25   -1    0    0    0    0  0.00000000000E+00  0.00000000000E+00  0.99999998245E-14  0.12500000000E+03  0.12500000000E+03 0.  0.
        -13    1    1    0    0    0 -0.53091944263E+02 -0.12585543070E+02  0.12141648548E+02  0.55897953750E+02  0.10566000000E+00 0.  1.
         13    1    1    0    0    0 -0.56004906519E+01 -0.39723137965E+01  0.25391889481E+00  0.68717109428E+01  0.10566000000E+00 0. -1.
         22    1    1    0    0    0  0.58692434915E+02  0.16557856866E+02 -0.12395567443E+02  0.62230335307E+02  0.00000000000E+00 0.  1.
</event>
<event>
 4    1  0.9856522E-003  0.9118800E+02  0.7818608E-02  0.1130116E+00
         25   -1    0    0    0    0  0.00000000000E+00  0.00000000000E+00  0.99999998245E-14  0.12500000000E+03  0.12500000000E+03 0.  0.
        -13    1    1    0    0    0  0.36343353483E+02 -0.15936880304E+02 -0.15297982989E+02  0.42530729405E+02  0.10566000000E+00 0.  1.
         13    1    1    0    0    0  0.76272541810E+01 -0.18044032704E+02  0.18312920712E+02  0.26816717763E+02  0.10566000000E+00 0. -1.
         22    1    1    0    0    0 -0.43970607664E+02  0.33980913007E+02 -0.30149377236E+01  0.55652552831E+02  0.00000000000E+00 0.  1.
</event>
<event>
 4    1  0.9856522E-003  0.9118800E+02  0.7818608E-02  0.1130116E+00
         25   -1    0    0    0    0  0.00000000000E+00  0.00000000000E+00  0.99999998245E-14  0.12500000000E+03  0.12500000000E+03 0.  0.
        -13    1    1    0    0    0 -0.43161563035E+02  0.28662878339E+02 -0.23146903305E+01  0.51863764554E+02  0.10566000000E+00 0. -1.
         13    1    1    0    0    0 -0.79939239999E+01  0.69116399190E+01  0.23538810376E+01  0.10827072885E+02  0.10566000000E+00 0.  1.
         22    1    1    0    0    0  0.51155487035E+02 -0.35574518258E+02 -0.39190707187E-01  0.62309162561E+02  0.00000000000E+00 0. -1.
</event>
<event>
 4    1  0.9856522E-003  0.9118800E+02  0.7818608E-02  0.1130116E+00
         25   -1    0    0    0    0  0.00000000000E+00  0.00000000000E+00  0.99999998245E-14  0.12500000000E+03  0.12500000000E+03 0.  0.
        -13    1    1    0    0    0 -0.42638430578E+02 -0.85715370167E+01 -0.29478701038E+02  0.52540574682E+02  0.10566000000E+00 0. -1.
         13    1    1    0    0    0  0.36664430235E+01  0.45866114961E+01 -0.13248137474E+02  0.14491518899E+02  0.10566000000E+00 0.  1.
         22    1    1    0    0    0  0.38971987555E+02  0.39849255206E+01  0.42726838511E+02  0.57967906419E+02  0.00000000000E+00 0. -1.
</event>
<event>
 4    1  0.9856522E-003  0.9118800E+02  0.7818608E-02  0.1130116E+00
         25   -1    0    0    0    0  0.00000000000E+00  0.00000000000E+00  0.99999998245E-14  0.12500000000E+03  0.12500000000E+03 0.  0.
        -13    1    1    0    0    0 -0.25360277654E+01  0.14300059950E+02 -0.14044752669E+02  0.20203697507E+02  0.10566000000E+00 0. -1.
         13    1    1    0    0    0 -0.51665328956E+01  0.30237723788E+02 -0.29120457924E+02  0.42296870283E+02  0.10566000000E+00 0. -1.
         22    1    1    0    0    0  0.77025606610E+01 -0.44537783738E+02  0.43165210592E+02  0.62499432210E+02  0.00000000000E+00 0. -1.
</event>
<event>
 4    1  0.9856522E-003  0.9118800E+02  0.7818608E-02  0.1130116E+00
         25   -1    0    0    0    0  0.00000000000E+00  0.00000000000E+00  0.99999998245E-14  0.12500000000E+03  0.12500000000E+03 0.  0.
        -13    1    1    0    0    0 -0.27259291439E+02 -0.84374317981E+01 -0.43831517412E+02  0.52301742875E+02  0.10566000000E+00 0. -1.
         13    1    1    0    0    0 -0.53370460378E+01 -0.16652220108E+01 -0.85289757424E+01  0.10198608533E+02  0.10566000000E+00 0. -1.
         22    1    1    0    0    0  0.32596337476E+02  0.10102653809E+02  0.52360493154E+02  0.62499648593E+02  0.00000000000E+00 0. -1.
</event>
<event>
 4    1  0.9856522E-003  0.9118800E+02  0.7818608E-02  0.1130116E+00
         25   -1    0    0    0    0  0.00000000000E+00  0.00000000000E+00  0.99999998245E-14  0.12500000000E+03  0.12500000000E+03 0.  0.
        -13    1    1    0    0    0 -0.15785375877E+02  0.10476608694E+02 -0.45063708501E+02  0.48884418880E+02  0.10566000000E+00 0. -1.
         13    1    1    0    0    0 -0.49672143352E+01  0.28310725789E+01 -0.12362687938E+02  0.13621138252E+02  0.10566000000E+00 0.  1.
         22    1    1    0    0    0  0.20752590212E+02 -0.13307681272E+02  0.57426396439E+02  0.62494442868E+02  0.00000000000E+00 0. -1.
</event>
<event>
 4    1  0.9856522E-003  0.9118800E+02  0.7818608E-02  0.1130116E+00
         25   -1    0    0    0    0  0.00000000000E+00  0.00000000000E+00  0.99999998245E-14  0.12500000000E+03  0.12500000000E+03 0.  0.
        -13    1    1    0    0    0 -0.27613582816E+02 -0.22845815040E+02 -0.39336347521E+02  0.53214665470E+02  0.10566000000E+00 0. -1.
         13    1    1    0    0    0 -0.47350685415E+01 -0.40457536308E+01 -0.68868359231E+01  0.92859393494E+01  0.10566000000E+00 0. -1.
         22    1    1    0    0    0  0.32348651358E+02  0.26891568671E+02  0.46223183444E+02  0.62499395180E+02  0.00000000000E+00 0. -1.
</event>
<event>
 4    1  0.9856522E-003  0.9118800E+02  0.7818608E-02  0.1130116E+00
         25   -1    0    0    0    0  0.00000000000E+00  0.00000000000E+00  0.99999998245E-14  0.12500000000E+03  0.12500000000E+03 0.  0.
        -13    1    1    0    0    0 -0.41040871684E+02  0.61118947193E+01  0.44518502086E+01  0.41731744991E+02  0.10566000000E+00 0. -1.
         13    1    1    0    0    0 -0.19322869878E+02  0.77306635928E+01 -0.47038844519E+01  0.21337154282E+02  0.10566000000E+00 0.  1.
         22    1    1    0    0    0  0.60363741562E+02 -0.13842558312E+02  0.25203424322E+00  0.61931100727E+02  0.00000000000E+00 0. -1.
</event>
<event>
 4    1  0.9856522E-003  0.9118800E+02  0.7818608E-02  0.1130116E+00
         25   -1    0    0    0    0  0.00000000000E+00  0.00000000000E+00  0.99999998245E-14  0.12500000000E+03  0.12500000000E+03 0.  0.
        -13    1    1    0    0    0  0.44188160274E+02  0.57792742797E+01  0.18093842184E+02  0.48097731845E+02  0.10566000000E+00 0.  1.
         13    1    1    0    0    0  0.12585583562E+02  0.13578813514E+01  0.69497039416E+01  0.14441270868E+02  0.10566000000E+00 0. -1.
         22    1    1    0    0    0 -0.56773743836E+02 -0.71371556311E+01 -0.25043546126E+02  0.62460997288E+02  0.00000000000E+00 0.  1.
</event>
<event>
 4    1  0.9856522E-003  0.9118800E+02  0.7818608E-02  0.1130116E+00
         25   -1    0    0    0    0  0.00000000000E+00  0.00000000000E+00  0.99999998245E-14  0.12500000000E+03  0.12500000000E+03 0.  0.
        -13    1    1    0    0    0 -0.42414415319E+02  0.14377772180E+02  0.17806412009E+02  0.48195253214E+02  0.10566000000E+00 0. -1.
         13    1    1    0    0    0 -0.12636568852E+02  0.42415157264E+01  0.51916306416E+01  0.14305157138E+02  0.10566000000E+00 0. -1.
         22    1    1    0    0    0  0.55050984171E+02 -0.18619287906E+02 -0.22998042651E+02  0.62499589647E+02  0.00000000000E+00 0. -1.
</event>
<event>
 4    1  0.9856522E-003  0.9118800E+02  0.7818608E-02  0.1130116E+00
         25   -1    0    0    0    0  0.00000000000E+00  0.00000000000E+00  0.99999998245E-14  0.12500000000E+03  0.12500000000E+03 0.  0.
        -13    1    1    0    0    0 -0.20695049342E+02 -0.27904881845E+02  0.32667571958E+02  0.47688037490E+02  0.10566000000E+00 0.  1.
         13    1    1    0    0    0 -0.57992790246E+01 -0.90149593791E+01  0.10231760723E+02  0.14818948051E+02  0.10566000000E+00 0. -1.
         22    1    1    0    0    0  0.26494328367E+02  0.36919841224E+02 -0.42899332681E+02  0.62493014458E+02  0.00000000000E+00 0.  1.
</event>
<event>
 4    1  0.9856522E-003  0.9118800E+02  0.7818608E-02  0.1130116E+00
         25   -1    0    0    0    0  0.00000000000E+00  0.00000000000E+00  0.99999998245E-14  0.12500000000E+03  0.12500000000E+03 0.  0.
        -13    1    1    0    0    0 -0.42168478133E+01 -0.82815073524E+00  0.24833596526E+01  0.49644615338E+01  0.10566000000E+00 0.  1.
         13    1    1    0    0    0 -0.46723609227E+02 -0.13746507562E+02  0.30648662744E+02  0.57544885276E+02  0.10566000000E+00 0. -1.
         22    1    1    0    0    0  0.50940457041E+02  0.14574658298E+02 -0.33132022397E+02  0.62490653190E+02  0.00000000000E+00 0. -1.
</event>
<event>
 4    1  0.9856522E-003  0.9118800E+02  0.7818608E-02  0.1130116E+00
         25   -1    0    0    0    0  0.00000000000E+00  0.00000000000E+00  0.99999998245E-14  0.12500000000E+03  0.12500000000E+03 0.  0.
        -13    1    1    0    0    0  0.29961812567E+02 -0.11678297689E+02  0.32216419334E+01  0.32318462061E+02  0.10566000000E+00 0. -1.
         13    1    1    0    0    0  0.28183550672E+02 -0.10539922528E+02  0.23810719149E+01  0.30184154168E+02  0.10566000000E+00 0.  1.
         22    1    1    0    0    0 -0.58145363239E+02  0.22218220217E+02 -0.56027138483E+01  0.62497383771E+02  0.00000000000E+00 0. -1.
</event>
<event>
 4    1  0.9856522E-003  0.9118800E+02  0.7818608E-02  0.1130116E+00
         25   -1    0    0    0    0  0.00000000000E+00  0.00000000000E+00  0.99999998245E-14  0.12500000000E+03  0.12500000000E+03 0.  0.
        -13    1    1    0    0    0 -0.53304211052E+02 -0.19139259992E+02 -0.78396493728E+01  0.57176231558E+02  0.10566000000E+00 0. -1.
         13    1    1    0    0    0  0.32652522770E+01 -0.92304816797E+01  0.21201120099E+01  0.10018468119E+02  0.10566000000E+00 0.  1.
         22    1    1    0    0    0  0.50038958775E+02  0.28369741672E+02  0.57195373629E+01  0.57805300323E+02  0.00000000000E+00 0. -1.
</event>
<event>
 4    1  0.9856522E-003  0.9118800E+02  0.7818608E-02  0.1130116E+00
         25   -1    0    0    0    0  0.00000000000E+00  0.00000000000E+00  0.99999998245E-14  0.12500000000E+03  0.12500000000E+03 0.  0.
        -13    1    1    0    0    0 -0.20699815690E+00  0.24925481023E+01  0.27203077526E+01  0.36968747049E+01  0.10566000000E+00 0.  1.
         13    1    1    0    0    0  0.39828717719E+02  0.41577258233E+02 -0.17591156119E+02  0.60203447533E+02  0.10566000000E+00 0. -1.
         22    1    1    0    0    0 -0.39621719562E+02 -0.44069806335E+02  0.14870848366E+02  0.61099677762E+02  0.00000000000E+00 0. -1.
</event>
<event>
 4    1  0.9856522E-003  0.9118800E+02  0.7818608E-02  0.1130116E+00
         25   -1    0    0    0    0  0.00000000000E+00  0.00000000000E+00  0.99999998245E-14  0.12500000000E+03  0.12500000000E+03 0.  0.
        -13    1    1    0    0    0 -0.36588147462E+01  0.10752073796E+01  0.35983334004E+01  0.52442505234E+01  0.10566000000E+00 0.  1.
         13    1    1    0    0    0 -0.44399286932E+02  0.12881565351E+01  0.36209581993E+02  0.57307076522E+02  0.10566000000E+00 0. -1.
         22    1    1    0    0    0  0.48058101678E+02 -0.23633639146E+01 -0.39807915393E+02  0.62448672955E+02  0.00000000000E+00 0. -1.
</event>
<event>
 4    1  0.9856522E-003  0.9118800E+02  0.7818608E-02  0.1130116E+00
         25   -1    0    0    0    0  0.00000000000E+00  0.00000000000E+00  0.99999998245E-14  0.12500000000E+03  0.12500000000E+03 0.  0.
        -13    1    1    0    0    0  0.24404298037E+02  0.18594307389E+02  0.16831544554E+02  0.34994715116E+02  0.10566000000E+00 0.  1.
         13    1    1    0    0    0  0.19052231472E+02  0.14428548958E+02  0.13617100859E+02  0.27506492850E+02  0.10566000000E+00 0. -1.
         22    1    1    0    0    0 -0.43456529509E+02 -0.33022856346E+02 -0.30448645413E+02  0.62498792034E+02  0.00000000000E+00 0.  1.
</event>
<event>
 4    1  0.9856522E-003  0.9118800E+02  0.7818608E-02  0.1130116E+00
         25   -1    0    0    0    0  0.00000000000E+00  0.00000000000E+00  0.99999998245E-14  0.12500000000E+03  0.12500000000E+03 0.  0.
        -13    1    1    0    0    0 -0.19751839275E+02  0.17639514913E+01  0.81208270599E+00  0.19847350503E+02  0.10566000000E+00 0.  1.
         13    1    1    0    0    0 -0.42649730166E+02  0.10805478357E+01  0.66733738219E+00  0.42668765744E+02  0.10566000000E+00 0. -1.
         22    1    1    0    0    0  0.62401569441E+02 -0.28444993270E+01 -0.14794200882E+01  0.62483883754E+02  0.00000000000E+00 0. -1.
</event>
<event>
 4    1  0.9856522E-003  0.9118800E+02  0.7818608E-02  0.1130116E+00
         25   -1    0    0    0    0  0.00000000000E+00  0.00000000000E+00  0.99999998245E-14  0.12500000000E+03  0.12500000000E+03 0.  0.
        -13    1    1    0    0    0 -0.44035602725E+02  0.23717771218E+02  0.10743577978E+02  0.51157625147E+02  0.10566000000E+00 0. -1.
         13    1    1    0    0    0  0.49988820385E+01 -0.69308883830E+01  0.19763587080E+02  0.21532221755E+02  0.10566000000E+00 0.  1.
         22    1    1    0    0    0  0.39036720686E+02 -0.16786882835E+02 -0.30507165058E+02  0.52310153098E+02  0.00000000000E+00 0. -1.
</event>
<event>
 4    1  0.9856522E-003  0.9118800E+02  0.7818608E-02  0.1130116E+00
         25   -1    0    0    0    0  0.00000000000E+00  0.00000000000E+00  0.99999998245E-14  0.12500000000E+03  0.12500000000E+03 0.  0.
        -13    1    1    0    0    0  0.86685611650E+01  0.51002433315E+02  0.48740939774E+01  0.51963064891E+02  0.10566000000E+00 0. -1.
         13    1    1    0    0    0  0.38364313006E+01  0.94588675216E+01  0.33661914416E+01  0.10748524958E+02  0.10566000000E+00 0.  1.
         22    1    1    0    0    0 -0.12504992466E+02 -0.60461300836E+02 -0.82402854190E+01  0.62288410151E+02  0.00000000000E+00 0. -1.
</event>
<event>
 4    1  0.9856522E-003  0.9118800E+02  0.7818608E-02  0.1130116E+00
         25   -1    0    0    0    0  0.00000000000E+00  0.00000000000E+00  0.99999998245E-14  0.12500000000E+03  0.12500000000E+03 0.  0.
        -13    1    1    0    0    0  0.41985435986E+00 -0.11668029353E+01  0.51267476637E+01  0.52756433177E+01  0.10566000000E+00 0.  1.
         13    1    1    0    0    0  0.77281895666E+01 -0.13465164850E+02  0.55082764391E+02  0.57228993311E+02  0.10566000000E+00 0.  1.
         22    1    1    0    0    0 -0.81480439265E+01  0.14631967785E+02 -0.60209512054E+02  0.62495363371E+02  0.00000000000E+00 0.  1.
</event>
<event>
 4    1  0.9856522E-003  0.9118800E+02  0.7818608E-02  0.1130116E+00
         25   -1    0    0    0    0  0.00000000000E+00  0.00000000000E+00  0.99999998245E-14  0.12500000000E+03  0.12500000000E+03 0.  0.
        -13    1    1    0    0    0 -0.30020598306E+02  0.19883134501E+02  0.30800105381E+02  0.47383889834E+02  0.10566000000E+00 0.  1.
         13    1    1    0    0    0 -0.10713790248E+02  0.79333304092E+01 -0.24496161437E+02  0.27888996433E+02  0.10566000000E+00 0. -1.
         22    1    1    0    0    0  0.40734388554E+02 -0.27816464911E+02 -0.63039439442E+01  0.49727113734E+02  0.00000000000E+00 0.  1.
</event>
<event>
 4    1  0.9856522E-003  0.9118800E+02  0.7818608E-02  0.1130116E+00
         25   -1    0    0    0    0  0.00000000000E+00  0.00000000000E+00  0.99999998245E-14  0.12500000000E+03  0.12500000000E+03 0.  0.
        -13    1    1    0    0    0 -0.33488356689E+02 -0.29285245761E+02  0.17767718962E+02  0.47904056760E+02  0.10566000000E+00 0.  1.
         13    1    1    0    0    0 -0.46672912450E+01 -0.98158967761E+01  0.10904239422E+02  0.15396396932E+02  0.10566000000E+00 0. -1.
         22    1    1    0    0    0  0.38155647933E+02  0.39101142537E+02 -0.28671958384E+02  0.61699546307E+02  0.00000000000E+00 0.  1.
</event>
<event>
 4    1  0.9856522E-003  0.9118800E+02  0.7818608E-02  0.1130116E+00
         25   -1    0    0    0    0  0.00000000000E+00  0.00000000000E+00  0.99999998245E-14  0.12500000000E+03  0.12500000000E+03 0.  0.
        -13    1    1    0    0    0 -0.12581346493E+02 -0.85164652790E+01  0.20623934385E+02  0.25615977318E+02  0.10566000000E+00 0.  1.
         13    1    1    0    0    0 -0.15679437079E+02 -0.10886661812E+02  0.31597716002E+02  0.36915998877E+02  0.10566000000E+00 0. -1.
         22    1    1    0    0    0  0.28260783571E+02  0.19403127091E+02 -0.52221650387E+02  0.62468023805E+02  0.00000000000E+00 0. -1.
</event>
<event>
 4    1  0.9856522E-003  0.9118800E+02  0.7818608E-02  0.1130116E+00
         25   -1    0    0    0    0  0.00000000000E+00  0.00000000000E+00  0.99999998245E-14  0.12500000000E+03  0.12500000000E+03 0.  0.
        -13    1    1    0    0    0 -0.11324225242E+02 -0.19824215207E+02  0.26093812099E+01  0.22979504351E+02  0.10566000000E+00 0. -1.
         13    1    1    0    0    0 -0.29512218919E+01 -0.39772076124E+02 -0.73578527266E+01  0.40554616391E+02  0.10566000000E+00 0.  1.
         22    1    1    0    0    0  0.14275447134E+02  0.59596291330E+02  0.47484715167E+01  0.61465879258E+02  0.00000000000E+00 0.  1.
</event>
<event>
 4    1  0.9856522E-003  0.9118800E+02  0.7818608E-02  0.1130116E+00
         25   -1    0    0    0    0  0.00000000000E+00  0.00000000000E+00  0.99999998245E-14  0.12500000000E+03  0.12500000000E+03 0.  0.
        -13    1    1    0    0    0 -0.10699601927E+02  0.29633785014E+02  0.12839941708E+02  0.34022315659E+02  0.10566000000E+00 0. -1.
         13    1    1    0    0    0 -0.86556078181E+01  0.24785009075E+02  0.11036702239E+02  0.28478696984E+02  0.10566000000E+00 0.  1.
         22    1    1    0    0    0  0.19355209745E+02 -0.54418794090E+02 -0.23876643947E+02  0.62498987357E+02  0.00000000000E+00 0. -1.
</event>
<event>
 4    1  0.9856522E-003  0.9118800E+02  0.7818608E-02  0.1130116E+00
         25   -1    0    0    0    0  0.00000000000E+00  0.00000000000E+00  0.99999998245E-14  0.12500000000E+03  0.12500000000E+03 0.  0.
        -13    1    1    0    0    0 -0.24528770552E+02  0.23033837082E+02  0.33276906181E+01  0.33812762744E+02  0.10566000000E+00 0.  1.
         13    1    1    0    0    0 -0.23831953619E+02  0.16176524684E+02  0.53035365825E+00  0.28808582110E+02  0.10566000000E+00 0. -1.
         22    1    1    0    0    0  0.48360724171E+02 -0.39210361766E+02 -0.38580442763E+01  0.62378655146E+02  0.00000000000E+00 0.  1.
</event>
<event>
 4    1  0.9856522E-003  0.9118800E+02  0.7818608E-02  0.1130116E+00
         25   -1    0    0    0    0  0.00000000000E+00  0.00000000000E+00  0.99999998245E-14  0.12500000000E+03  0.12500000000E+03 0.  0.
        -13    1    1    0    0    0 -0.18022813248E+01  0.97062080173E+00 -0.18146657980E+01  0.27376082095E+01  0.10566000000E+00 0.  1.
         13    1    1    0    0    0  0.17679609398E+01  0.59036757589E+02 -0.12947681948E+02  0.60465842129E+02  0.10566000000E+00 0. -1.
         22    1    1    0    0    0  0.34320384996E-01 -0.60007378390E+02  0.14762347746E+02  0.61796549662E+02  0.00000000000E+00 0. -1.
</event>
<event>
 4    1  0.9856522E-003  0.9118800E+02  0.7818608E-02  0.1130116E+00
         25   -1    0    0    0    0  0.00000000000E+00  0.00000000000E+00  0.99999998245E-14  0.12500000000E+03  0.12500000000E+03 0.  0.
        -13    1    1    0    0    0  0.15778917241E+02  0.14623261161E+02  0.28881780237E+02  0.36013641720E+02  0.10566000000E+00 0. -1.
         13    1    1    0    0    0  0.11575556915E+02  0.10635577616E+02  0.21317191817E+02  0.26486654377E+02  0.10566000000E+00 0.  1.
         22    1    1    0    0    0 -0.27354474156E+02 -0.25258838776E+02 -0.50198972054E+02  0.62499703903E+02  0.00000000000E+00 0. -1.
</event>
<event>
 4    1  0.9856522E-003  0.9118800E+02  0.7818608E-02  0.1130116E+00
         25   -1    0    0    0    0  0.00000000000E+00  0.00000000000E+00  0.99999998245E-14  0.12500000000E+03  0.12500000000E+03 0.  0.
        -13    1    1    0    0    0  0.33980499112E+02 -0.49386777680E+02 -0.25304902116E+01  0.60001188940E+02  0.10566000000E+00 0. -1.
         13    1    1    0    0    0 -0.21470603763E+01 -0.28780759085E+01  0.12023402824E+01  0.37881361360E+01  0.10566000000E+00 0.  1.
         22    1    1    0    0    0 -0.31833438735E+02  0.52264853589E+02  0.13281499292E+01  0.61210674924E+02  0.00000000000E+00 0. -1.
</event>
<event>
 4    1  0.9856522E-003  0.9118800E+02  0.7818608E-02  0.1130116E+00
         25   -1    0    0    0    0  0.00000000000E+00  0.00000000000E+00  0.99999998245E-14  0.12500000000E+03  0.12500000000E+03 0.  0.
        -13    1    1    0    0    0  0.19417278690E+02  0.51224647117E+01 -0.25349259632E+01  0.20241229462E+02  0.10566000000E+00 0.  1.
         13    1    1    0    0    0  0.41431656499E+02  0.84737176001E+01 -0.10969448979E+01  0.42303670082E+02  0.10566000000E+00 0. -1.
         22    1    1    0    0    0 -0.60848935189E+02 -0.13596182312E+02  0.36318708611E+01  0.62455100457E+02  0.00000000000E+00 0. -1.
</event>
<event>
 4    1  0.9856522E-003  0.9118800E+02  0.7818608E-02  0.1130116E+00
         25   -1    0    0    0    0  0.00000000000E+00  0.00000000000E+00  0.99999998245E-14  0.12500000000E+03  0.12500000000E+03 0.  0.
        -13    1    1    0    0    0 -0.40648579437E+02 -0.83651848928E+01  0.11292786558E+02  0.43009551506E+02  0.10566000000E+00 0. -1.
         13    1    1    0    0    0 -0.18595441983E+02 -0.52324824765E-01  0.62748454553E+01  0.19625953479E+02  0.10566000000E+00 0.  1.
         22    1    1    0    0    0  0.59244021420E+02  0.84175097176E+01 -0.17567632013E+02  0.62364495014E+02  0.00000000000E+00 0. -1.
</event>
<event>
 4    1  0.9856522E-003  0.9118800E+02  0.7818608E-02  0.1130116E+00
         25   -1    0    0    0    0  0.00000000000E+00  0.00000000000E+00  0.99999998245E-14  0.12500000000E+03  0.12500000000E+03 0.  0.
        -13    1    1    0    0    0  0.14664090568E+02 -0.14655498588E+02 -0.41581703596E+02  0.46463624795E+02  0.10566000000E+00 0. -1.
         13    1    1    0    0    0 -0.24085791479E+02  0.46259537483E+01 -0.89930238964E+01  0.26122986852E+02  0.10566000000E+00 0.  1.
         22    1    1    0    0    0  0.94217009101E+01  0.10029544840E+02  0.50574727493E+02  0.52413388353E+02  0.00000000000E+00 0. -1.
</event>
<event>
 4    1  0.9856522E-003  0.9118800E+02  0.7818608E-02  0.1130116E+00
         25   -1    0    0    0    0  0.00000000000E+00  0.00000000000E+00  0.99999998245E-14  0.12500000000E+03  0.12500000000E+03 0.  0.
        -13    1    1    0    0    0  0.83600267619E-01 -0.16111465879E+01 -0.12494455796E+01  0.20432965092E+01  0.10566000000E+00 0.  1.
         13    1    1    0    0    0  0.49131266153E+02  0.21587728586E+02 -0.29849163644E+02  0.61407614133E+02  0.10566000000E+00 0. -1.
         22    1    1    0    0    0 -0.49214866420E+02 -0.19976581998E+02  0.31098609224E+02  0.61549089358E+02  0.00000000000E+00 0. -1.
</event>
<event>
 4    1  0.9856522E-003  0.9118800E+02  0.7818608E-02  0.1130116E+00
         25   -1    0    0    0    0  0.00000000000E+00  0.00000000000E+00  0.99999998245E-14  0.12500000000E+03  0.12500000000E+03 0.  0.
        -13    1    1    0    0    0 -0.54677098591E+01  0.49773038659E+01  0.19169126384E+02  0.20545947903E+02  0.10566000000E+00 0.  1.
         13    1    1    0    0    0 -0.11313384685E+02  0.10210361539E+02  0.39088471670E+02  0.41954307733E+02  0.10566000000E+00 0.  1.
         22    1    1    0    0    0  0.16781094544E+02 -0.15187665405E+02 -0.58257598054E+02  0.62499744364E+02  0.00000000000E+00 0.  1.
</event>
<event>
 4    1  0.9856522E-003  0.9118800E+02  0.7818608E-02  0.1130116E+00
         25   -1    0    0    0    0  0.00000000000E+00  0.00000000000E+00  0.99999998245E-14  0.12500000000E+03  0.12500000000E+03 0.  0.
        -13    1    1    0    0    0  0.40397442214E+00  0.11500463270E+01  0.31634298238E+01  0.33917921773E+01  0.10566000000E+00 0. -1.
         13    1    1    0    0    0  0.78137978002E+01  0.19877127008E+02  0.55115635714E+02  0.59109221601E+02  0.10566000000E+00 0. -1.
         22    1    1    0    0    0 -0.82177722223E+01 -0.21027173335E+02 -0.58279065537E+02  0.62498986221E+02  0.00000000000E+00 0. -1.
</event>
<event>
 4    1  0.9856522E-003  0.9118800E+02  0.7818608E-02  0.1130116E+00
         25   -1    0    0    0    0  0.00000000000E+00  0.00000000000E+00  0.99999998245E-14  0.12500000000E+03  0.12500000000E+03 0.  0.
        -13    1    1    0    0    0 -0.39718718216E+02 -0.37044949120E+02  0.78167417185E+00  0.54318753765E+02  0.10566000000E+00 0.  1.
         13    1    1    0    0    0 -0.59695431786E+01 -0.55928085590E+01  0.11508754972E+00  0.81816479097E+01  0.10566000000E+00 0.  1.
         22    1    1    0    0    0  0.45688261395E+02  0.42637757679E+02 -0.89676172157E+00  0.62499598325E+02  0.00000000000E+00 0.  1.
</event>
<event>
 4    1  0.9856522E-003  0.9118800E+02  0.7818608E-02  0.1130116E+00
         25   -1    0    0    0    0  0.00000000000E+00  0.00000000000E+00  0.99999998245E-14  0.12500000000E+03  0.12500000000E+03 0.  0.
        -13    1    1    0    0    0 -0.32531371116E+02 -0.53815672295E+01 -0.49465504044E+01  0.33342628832E+02  0.10566000000E+00 0. -1.
         13    1    1    0    0    0 -0.14681537772E+02  0.24344120717E+02  0.24123595096E+02  0.37284618400E+02  0.10566000000E+00 0.  1.
         22    1    1    0    0    0  0.47212908888E+02 -0.18962553488E+02 -0.19177044692E+02  0.54372752767E+02  0.00000000000E+00 0.  1.
</event>
<event>
 4    1  0.9856522E-003  0.9118800E+02  0.7818608E-02  0.1130116E+00
         25   -1    0    0    0    0  0.00000000000E+00  0.00000000000E+00  0.99999998245E-14  0.12500000000E+03  0.12500000000E+03 0.  0.
        -13    1    1    0    0    0  0.49362472135E+01  0.30021163362E+02 -0.32970142377E+02  0.44862882637E+02  0.10566000000E+00 0.  1.
         13    1    1    0    0    0  0.69223135760E-01  0.13561717846E+02 -0.11417886913E+02  0.17728629061E+02  0.10566000000E+00 0. -1.
         22    1    1    0    0    0 -0.50054703493E+01 -0.43582881208E+02  0.44388029290E+02  0.62408488302E+02  0.00000000000E+00 0.  1.
</event>
<event>
 4    1  0.9856522E-003  0.9118800E+02  0.7818608E-02  0.1130116E+00
         25   -1    0    0    0    0  0.00000000000E+00  0.00000000000E+00  0.99999998245E-14  0.12500000000E+03  0.12500000000E+03 0.  0.
        -13    1    1    0    0    0 -0.40718806788E+01 -0.51941372644E+01  0.12762663654E+02  0.14368577583E+02  0.10566000000E+00 0.  1.
         13    1    1    0    0    0 -0.14316991590E+02 -0.26650250770E+02  0.37608276206E+02  0.48265989242E+02  0.10566000000E+00 0. -1.
         22    1    1    0    0    0  0.18388872268E+02  0.31844388035E+02 -0.50370939860E+02  0.62365433174E+02  0.00000000000E+00 0. -1.
</event>
<event>
 4    1  0.9856522E-003  0.9118800E+02  0.7818608E-02  0.1130116E+00
         25   -1    0    0    0    0  0.00000000000E+00  0.00000000000E+00  0.99999998245E-14  0.12500000000E+03  0.12500000000E+03 0.  0.
        -13    1    1    0    0    0  0.52526369428E+02 -0.29398474391E+02  0.27739027484E+01  0.60257742094E+02  0.10566000000E+00 0. -1.
         13    1    1    0    0    0  0.19625112376E+01 -0.10699077510E+01  0.16910544254E+00  0.22440841427E+01  0.10566000000E+00 0. -1.
         22    1    1    0    0    0 -0.54488880665E+02  0.30468382142E+02 -0.29430081909E+01  0.62498173763E+02  0.00000000000E+00 0. -1.
</event>
<event>
 4    1  0.9856522E-003  0.9118800E+02  0.7818608E-02  0.1130116E+00
         25   -1    0    0    0    0  0.00000000000E+00  0.00000000000E+00  0.99999998245E-14  0.12500000000E+03  0.12500000000E+03 0.  0.
        -13    1    1    0    0    0  0.79922410230E+01 -0.56101873676E+01  0.32007811251E+01  0.10276491751E+02  0.10566000000E+00 0. -1.
         13    1    1    0    0    0  0.43000017174E+02 -0.29817873813E+02  0.23841138383E+01  0.52381315739E+02  0.10566000000E+00 0.  1.
         22    1    1    0    0    0 -0.50992258197E+02  0.35428061181E+02 -0.55848949634E+01  0.62342192509E+02  0.00000000000E+00 0.  1.
</event>
<event>
 4    1  0.9856522E-003  0.9118800E+02  0.7818608E-02  0.1130116E+00
         25   -1    0    0    0    0  0.00000000000E+00  0.00000000000E+00  0.99999998245E-14  0.12500000000E+03  0.12500000000E+03 0.  0.
        -13    1    1    0    0    0 -0.29898741225E+02  0.35501999646E+02  0.51114214211E+01  0.46695444089E+02  0.10566000000E+00 0.  1.
         13    1    1    0    0    0 -0.96035359058E+01  0.12476383635E+02  0.14492599889E+01  0.15811374673E+02  0.10566000000E+00 0. -1.
         22    1    1    0    0    0  0.39502277131E+02 -0.47978383281E+02 -0.65606814100E+01  0.62493181238E+02  0.00000000000E+00 0.  1.
</event>
<event>
 4    1  0.9856522E-003  0.9118800E+02  0.7818608E-02  0.1130116E+00
         25   -1    0    0    0    0  0.00000000000E+00  0.00000000000E+00  0.99999998245E-14  0.12500000000E+03  0.12500000000E+03 0.  0.
        -13    1    1    0    0    0 -0.40981576522E+02 -0.24352410491E+01  0.10404433903E+02  0.42351899864E+02  0.10566000000E+00 0. -1.
         13    1    1    0    0    0 -0.18837266752E+02 -0.33256010217E+01  0.65289157373E+01  0.20212376050E+02  0.10566000000E+00 0.  1.
         22    1    1    0    0    0  0.59818843275E+02  0.57608420708E+01 -0.16933349640E+02  0.62435724086E+02  0.00000000000E+00 0. -1.
</event>
<event>
 4    1  0.9856522E-003  0.9118800E+02  0.7818608E-02  0.1130116E+00
         25   -1    0    0    0    0  0.00000000000E+00  0.00000000000E+00  0.99999998245E-14  0.12500000000E+03  0.12500000000E+03 0.  0.
        -13    1    1    0    0    0  0.75561764989E+01 -0.27403762325E+01 -0.94326275384E+01  0.12393187302E+02  0.10566000000E+00 0. -1.
         13    1    1    0    0    0 -0.12859344187E+02 -0.34007697393E+02 -0.37853414162E+02  0.52485982345E+02  0.10566000000E+00 0.  1.
         22    1    1    0    0    0  0.53031676886E+01  0.36748073626E+02  0.47286041700E+02  0.60120830354E+02  0.00000000000E+00 0.  1.
</event>
<event>
 4    1  0.9856522E-003  0.9118800E+02  0.7818608E-02  0.1130116E+00
         25   -1    0    0    0    0  0.00000000000E+00  0.00000000000E+00  0.99999998245E-14  0.12500000000E+03  0.12500000000E+03 0.  0.
        -13    1    1    0    0    0 -0.26288468956E+02  0.48346822153E+02 -0.61901020346E+01  0.55378943107E+02  0.10566000000E+00 0. -1.
         13    1    1    0    0    0  0.14684536793E+02 -0.36317603047E+01  0.16398644837E+02  0.22310356794E+02  0.10566000000E+00 0.  1.
         22    1    1    0    0    0  0.11603932164E+02 -0.44715061848E+02 -0.10208542803E+02  0.47310700100E+02  0.00000000000E+00 0. -1.
</event>
<event>
 4    1  0.9856522E-003  0.9118800E+02  0.7818608E-02  0.1130116E+00
         25   -1    0    0    0    0  0.00000000000E+00  0.00000000000E+00  0.99999998245E-14  0.12500000000E+03  0.12500000000E+03 0.  0.
        -13    1    1    0    0    0 -0.22083398526E+02 -0.15141835782E+02 -0.10171160220E+02  0.28642893456E+02  0.10566000000E+00 0. -1.
         13    1    1    0    0    0 -0.25600436177E+02 -0.18035831963E+02 -0.12878716610E+02  0.33860686239E+02  0.10566000000E+00 0.  1.
         22    1    1    0    0    0  0.47683834703E+02  0.33177667745E+02  0.23049876829E+02  0.62496420304E+02  0.00000000000E+00 0.  1.
</event>
<event>
 4    1  0.9856522E-003  0.9118800E+02  0.7818608E-02  0.1130116E+00
         25   -1    0    0    0    0  0.00000000000E+00  0.00000000000E+00  0.99999998245E-14  0.12500000000E+03  0.12500000000E+03 0.  0.
        -13    1    1    0    0    0  0.12566203790E+01  0.27226211262E+02  0.26198567287E+02  0.37805049483E+02  0.10566000000E+00 0. -1.
         13    1    1    0    0    0  0.11752995884E+01  0.18370501028E+02  0.16469643586E+02  0.24700545764E+02  0.10566000000E+00 0.  1.
         22    1    1    0    0    0 -0.24319199674E+01 -0.45596712290E+02 -0.42668210873E+02  0.62494404754E+02  0.00000000000E+00 0.  1.
</event>
<event>
 4    1  0.9856522E-003  0.9118800E+02  0.7818608E-02  0.1130116E+00
         25   -1    0    0    0    0  0.00000000000E+00  0.00000000000E+00  0.99999998245E-14  0.12500000000E+03  0.12500000000E+03 0.  0.
        -13    1    1    0    0    0 -0.83371405470E+01 -0.17786019926E+02  0.17065431706E+02  0.26020963484E+02  0.10566000000E+00 0. -1.
         13    1    1    0    0    0 -0.19452777048E+02 -0.32622846292E+02 -0.16507932967E+02  0.41414775744E+02  0.10566000000E+00 0.  1.
         22    1    1    0    0    0  0.27789917595E+02  0.50408866218E+02 -0.55749873911E+00  0.57564260772E+02  0.00000000000E+00 0.  1.
</event>
<event>
 4    1  0.9856522E-003  0.9118800E+02  0.7818608E-02  0.1130116E+00
         25   -1    0    0    0    0  0.00000000000E+00  0.00000000000E+00  0.99999998245E-14  0.12500000000E+03  0.12500000000E+03 0.  0.
        -13    1    1    0    0    0 -0.40987269653E+02 -0.27876095464E+02  0.28475778236E+02  0.57165672235E+02  0.10566000000E+00 0.  1.
         13    1    1    0    0    0 -0.40364912538E+01 -0.32237410857E+01  0.15797033082E+01  0.54029986865E+01  0.10566000000E+00 0. -1.
         22    1    1    0    0    0  0.45023760907E+02  0.31099836550E+02 -0.30055481545E+02  0.62431329078E+02  0.00000000000E+00 0.  1.
</event>
<event>
 4    1  0.9856522E-003  0.9118800E+02  0.7818608E-02  0.1130116E+00
         25   -1    0    0    0    0  0.00000000000E+00  0.00000000000E+00  0.99999998245E-14  0.12500000000E+03  0.12500000000E+03 0.  0.
        -13    1    1    0    0    0 -0.89707476127E+01 -0.17984028998E+02 -0.68885398736E+01  0.21245299653E+02  0.10566000000E+00 0. -1.
         13    1    1    0    0    0 -0.17633879925E+02 -0.35337327382E+02 -0.11944075967E+02  0.41259575161E+02  0.10566000000E+00 0.  1.
         22    1    1    0    0    0  0.26604627537E+02  0.53321356380E+02  0.18832615840E+02  0.62495125186E+02  0.00000000000E+00 0. -1.
</event>
<event>
 4    1  0.9856522E-003  0.9118800E+02  0.7818608E-02  0.1130116E+00
         25   -1    0    0    0    0  0.00000000000E+00  0.00000000000E+00  0.99999998245E-14  0.12500000000E+03  0.12500000000E+03 0.  0.
        -13    1    1    0    0    0  0.41411653937E+02 -0.57457534178E+01  0.13102367845E+02  0.43813490746E+02  0.10566000000E+00 0.  1.
         13    1    1    0    0    0  0.17625677319E+02 -0.23988088794E+01  0.57246462342E+01  0.18686934567E+02  0.10566000000E+00 0.  1.
         22    1    1    0    0    0 -0.59037331256E+02  0.81445622971E+01 -0.18827014079E+02  0.62499574687E+02  0.00000000000E+00 0.  1.
</event>
<event>
 4    1  0.9856522E-003  0.9118800E+02  0.7818608E-02  0.1130116E+00
         25   -1    0    0    0    0  0.00000000000E+00  0.00000000000E+00  0.99999998245E-14  0.12500000000E+03  0.12500000000E+03 0.  0.
        -13    1    1    0    0    0 -0.15713214648E+01  0.45492572375E+00  0.54485915258E+01  0.56898437774E+01  0.10566000000E+00 0.  1.
         13    1    1    0    0    0 -0.95164363916E+01  0.53564966494E+02  0.20788981651E+02  0.58240545321E+02  0.10566000000E+00 0. -1.
         22    1    1    0    0    0  0.11087757856E+02 -0.54019892218E+02 -0.26237573177E+02  0.61069610902E+02  0.00000000000E+00 0. -1.
</event>
<event>
 4    1  0.9856522E-003  0.9118800E+02  0.7818608E-02  0.1130116E+00
         25   -1    0    0    0    0  0.00000000000E+00  0.00000000000E+00  0.99999998245E-14  0.12500000000E+03  0.12500000000E+03 0.  0.
        -13    1    1    0    0    0  0.40212576620E+02 -0.14845194064E+02 -0.28348514294E+02  0.51391444151E+02  0.10566000000E+00 0.  1.
         13    1    1    0    0    0  0.87484880999E+01 -0.30900313324E+01 -0.61088915311E+01  0.11109187974E+02  0.10566000000E+00 0. -1.
         22    1    1    0    0    0 -0.48961064720E+02  0.17935225397E+02  0.34457405825E+02  0.62499367875E+02  0.00000000000E+00 0.  1.
</event>
<event>
 4    1  0.9856522E-003  0.9118800E+02  0.7818608E-02  0.1130116E+00
         25   -1    0    0    0    0  0.00000000000E+00  0.00000000000E+00  0.99999998245E-14  0.12500000000E+03  0.12500000000E+03 0.  0.
        -13    1    1    0    0    0 -0.17382729811E+02  0.81720662234E+01  0.46574727564E+02  0.50380138683E+02  0.10566000000E+00 0.  1.
         13    1    1    0    0    0 -0.44165055954E+01  0.17630523130E+01  0.11149571441E+02  0.12121797824E+02  0.10566000000E+00 0. -1.
         22    1    1    0    0    0  0.21799235406E+02 -0.99351185364E+01 -0.57724299005E+02  0.62498063492E+02  0.00000000000E+00 0.  1.
</event>
<event>
 4    1  0.9856522E-003  0.9118800E+02  0.7818608E-02  0.1130116E+00
         25   -1    0    0    0    0  0.00000000000E+00  0.00000000000E+00  0.99999998245E-14  0.12500000000E+03  0.12500000000E+03 0.  0.
        -13    1    1    0    0    0  0.27558861512E+02  0.46837691694E+02  0.13645034028E+02  0.56030869427E+02  0.10566000000E+00 0.  1.
         13    1    1    0    0    0 -0.39579605518E+01 -0.60552278790E+00  0.10854654941E+02  0.11570082433E+02  0.10566000000E+00 0. -1.
         22    1    1    0    0    0 -0.23600900960E+02 -0.46232168906E+02 -0.24499688969E+02  0.57399048141E+02  0.00000000000E+00 0.  1.
</event>
<event>
 4    1  0.9856522E-003  0.9118800E+02  0.7818608E-02  0.1130116E+00
         25   -1    0    0    0    0  0.00000000000E+00  0.00000000000E+00  0.99999998245E-14  0.12500000000E+03  0.12500000000E+03 0.  0.
        -13    1    1    0    0    0  0.13565916651E+02  0.26889747697E+02  0.49718207640E+02  0.58129200586E+02  0.10566000000E+00 0. -1.
         13    1    1    0    0    0 -0.23527584481E+01  0.12865962609E+01  0.42147992924E+01  0.49966488134E+01  0.10566000000E+00 0.  1.
         22    1    1    0    0    0 -0.11213158203E+02 -0.28176343958E+02 -0.53933006933E+02  0.61874150600E+02  0.00000000000E+00 0. -1.
</event>
<event>
 4    1  0.9856522E-003  0.9118800E+02  0.7818608E-02  0.1130116E+00
         25   -1    0    0    0    0  0.00000000000E+00  0.00000000000E+00  0.99999998245E-14  0.12500000000E+03  0.12500000000E+03 0.  0.
        -13    1    1    0    0    0  0.34592532117E+02  0.28509484070E+02 -0.72504996233E+01  0.45409413881E+02  0.10566000000E+00 0.  1.
         13    1    1    0    0    0  0.12809956134E+02  0.11459401110E+02  0.22132194157E+00  0.17189328008E+02  0.10566000000E+00 0. -1.
         22    1    1    0    0    0 -0.47402488251E+02 -0.39968885180E+02  0.70291776817E+01  0.62401258110E+02  0.00000000000E+00 0.  1.
</event>
<event>
 4    1  0.9856522E-003  0.9118800E+02  0.7818608E-02  0.1130116E+00
         25   -1    0    0    0    0  0.00000000000E+00  0.00000000000E+00  0.99999998245E-14  0.12500000000E+03  0.12500000000E+03 0.  0.
        -13    1    1    0    0    0 -0.11027589750E+02  0.43204767236E+01  0.52270133314E+01  0.12946315585E+02  0.10566000000E+00 0. -1.
         13    1    1    0    0    0 -0.15200307466E+02  0.28045848839E+02  0.39604685960E+02  0.50854314450E+02  0.10566000000E+00 0.  1.
         22    1    1    0    0    0  0.26227897216E+02 -0.32366325562E+02 -0.44831699292E+02  0.61199369965E+02  0.00000000000E+00 0.  1.
</event>
<event>
 4    1  0.9856522E-003  0.9118800E+02  0.7818608E-02  0.1130116E+00
         25   -1    0    0    0    0  0.00000000000E+00  0.00000000000E+00  0.99999998245E-14  0.12500000000E+03  0.12500000000E+03 0.  0.
        -13    1    1    0    0    0  0.27917537956E+01 -0.28577777970E+02  0.17477380900E+02  0.33614777853E+02  0.10566000000E+00 0. -1.
         13    1    1    0    0    0  0.21704376523E+01 -0.24027242540E+02  0.15894401312E+02  0.28890523373E+02  0.10566000000E+00 0.  1.
         22    1    1    0    0    0 -0.49621914479E+01  0.52605020510E+02 -0.33371782212E+02  0.62494698774E+02  0.00000000000E+00 0.  1.
</event>
<event>
 4    1  0.9856522E-003  0.9118800E+02  0.7818608E-02  0.1130116E+00
         25   -1    0    0    0    0  0.00000000000E+00  0.00000000000E+00  0.99999998245E-14  0.12500000000E+03  0.12500000000E+03 0.  0.
        -13    1    1    0    0    0 -0.42317723587E+02 -0.25535382161E+02  0.17695384140E+02  0.52497459516E+02  0.10566000000E+00 0. -1.
         13    1    1    0    0    0 -0.64140673479E+00  0.37783006999E+01  0.14222722844E+02  0.14730375689E+02  0.10566000000E+00 0.  1.
         22    1    1    0    0    0  0.42959130322E+02  0.21757081461E+02 -0.31918106984E+02  0.57772164796E+02  0.00000000000E+00 0.  1.
</event>
<event>
 4    1  0.9856522E-003  0.9118800E+02  0.7818608E-02  0.1130116E+00
         25   -1    0    0    0    0  0.00000000000E+00  0.00000000000E+00  0.99999998245E-14  0.12500000000E+03  0.12500000000E+03 0.  0.
        -13    1    1    0    0    0  0.56404858403E+01 -0.31454992008E+02  0.14248500734E+02  0.34989463270E+02  0.10566000000E+00 0.  1.
         13    1    1    0    0    0  0.44314160683E+01 -0.25055454105E+02  0.10468784404E+02  0.27513993525E+02  0.10566000000E+00 0.  1.
         22    1    1    0    0    0 -0.10071901909E+02  0.56510446113E+02 -0.24717285137E+02  0.62496543205E+02  0.00000000000E+00 0.  1.
</event>
<event>
 4    1  0.9856522E-003  0.9118800E+02  0.7818608E-02  0.1130116E+00
         25   -1    0    0    0    0  0.00000000000E+00  0.00000000000E+00  0.99999998245E-14  0.12500000000E+03  0.12500000000E+03 0.  0.
        -13    1    1    0    0    0 -0.91287069630E+01 -0.55683615458E+02  0.58060392656E+01  0.56724946693E+02  0.10566000000E+00 0. -1.
         13    1    1    0    0    0 -0.12713594465E+01 -0.56058700881E+01  0.59918409179E+00  0.57803390816E+01  0.10566000000E+00 0.  1.
         22    1    1    0    0    0  0.10400066410E+02  0.61289485546E+02 -0.64052233574E+01  0.62494714225E+02  0.00000000000E+00 0. -1.
</event>
<event>
 4    1  0.9856522E-003  0.9118800E+02  0.7818608E-02  0.1130116E+00
         25   -1    0    0    0    0  0.00000000000E+00  0.00000000000E+00  0.99999998245E-14  0.12500000000E+03  0.12500000000E+03 0.  0.
        -13    1    1    0    0    0 -0.91399983867E+01  0.90139029008E+01  0.20463990680E+01  0.12999574193E+02  0.10566000000E+00 0.  1.
         13    1    1    0    0    0 -0.30308690658E+02  0.29229683019E+02  0.26832502887E+02  0.49929805467E+02  0.10566000000E+00 0. -1.
         22    1    1    0    0    0  0.39448689045E+02 -0.38243585919E+02 -0.28878901955E+02  0.62070620340E+02  0.00000000000E+00 0.  1.
</event>
<event>
 4    1  0.9856522E-003  0.9118800E+02  0.7818608E-02  0.1130116E+00
         25   -1    0    0    0    0  0.00000000000E+00  0.00000000000E+00  0.99999998245E-14  0.12500000000E+03  0.12500000000E+03 0.  0.
        -13    1    1    0    0    0  0.16589791516E+02  0.66342541827E+00 -0.30930848576E+01  0.16889039458E+02  0.10566000000E+00 0.  1.
         13    1    1    0    0    0  0.39918491334E+02  0.18340861246E+02 -0.13971158753E+02  0.46098563780E+02  0.10566000000E+00 0. -1.
         22    1    1    0    0    0 -0.56508282850E+02 -0.19004286664E+02  0.17064243610E+02  0.62012396763E+02  0.00000000000E+00 0. -1.
</event>
<event>
 4    1  0.9856522E-003  0.9118800E+02  0.7818608E-02  0.1130116E+00
         25   -1    0    0    0    0  0.00000000000E+00  0.00000000000E+00  0.99999998245E-14  0.12500000000E+03  0.12500000000E+03 0.  0.
        -13    1    1    0    0    0  0.15169908102E+00 -0.57041144720E+02  0.21419646938E+01  0.57081646616E+02  0.10566000000E+00 0.  1.
         13    1    1    0    0    0  0.21873494571E+00 -0.54179968756E+01 -0.26540506433E+00  0.54299299263E+01  0.10566000000E+00 0. -1.
         22    1    1    0    0    0 -0.37043402674E+00  0.62459141596E+02 -0.18765596295E+01  0.62488423458E+02  0.00000000000E+00 0.  1.
</event>
<event>
 4    1  0.9856522E-003  0.9118800E+02  0.7818608E-02  0.1130116E+00
         25   -1    0    0    0    0  0.00000000000E+00  0.00000000000E+00  0.99999998245E-14  0.12500000000E+03  0.12500000000E+03 0.  0.
        -13    1    1    0    0    0 -0.33516065612E+01 -0.21916491828E+02  0.99313105460E+01  0.24294196298E+02  0.10566000000E+00 0.  1.
         13    1    1    0    0    0 -0.16650176127E+02 -0.33030477268E+02  0.11011769479E+02  0.38594183820E+02  0.10566000000E+00 0. -1.
         22    1    1    0    0    0  0.20001782688E+02  0.54946969095E+02 -0.20943080025E+02  0.62111619882E+02  0.00000000000E+00 0. -1.
</event>
<event>
 4    1  0.9856522E-003  0.9118800E+02  0.7818608E-02  0.1130116E+00
         25   -1    0    0    0    0  0.00000000000E+00  0.00000000000E+00  0.99999998245E-14  0.12500000000E+03  0.12500000000E+03 0.  0.
        -13    1    1    0    0    0  0.35813679601E+02 -0.18479421769E+02 -0.26479570918E+02  0.48221235110E+02  0.10566000000E+00 0. -1.
         13    1    1    0    0    0 -0.12491397746E+01 -0.71965961733E+01 -0.15192676684E+02  0.16857637306E+02  0.10566000000E+00 0.  1.
         22    1    1    0    0    0 -0.34564539826E+02  0.25676017942E+02  0.41672247603E+02  0.59921127585E+02  0.00000000000E+00 0.  1.
</event>
<event>
 4    1  0.9856522E-003  0.9118800E+02  0.7818608E-02  0.1130116E+00
         25   -1    0    0    0    0  0.00000000000E+00  0.00000000000E+00  0.99999998245E-14  0.12500000000E+03  0.12500000000E+03 0.  0.
        -13    1    1    0    0    0 -0.10958277715E+02  0.88125642564E+01  0.20748840608E+02  0.25065328441E+02  0.10566000000E+00 0.  1.
         13    1    1    0    0    0 -0.18380850118E+02  0.27412421101E+02  0.19510753803E+02  0.38340281163E+02  0.10566000000E+00 0. -1.
         22    1    1    0    0    0  0.29339127833E+02 -0.36224985357E+02 -0.40259594411E+02  0.61594390396E+02  0.00000000000E+00 0.  1.
</event>
<event>
 4    1  0.9856522E-003  0.9118800E+02  0.7818608E-02  0.1130116E+00
         25   -1    0    0    0    0  0.00000000000E+00  0.00000000000E+00  0.99999998245E-14  0.12500000000E+03  0.12500000000E+03 0.  0.
        -13    1    1    0    0    0  0.82721278283E+01  0.42641250347E+01  0.11906030873E+02  0.15112100989E+02  0.10566000000E+00 0. -1.
         13    1    1    0    0    0  0.28642559957E+02  0.11890138255E+02  0.35850638253E+02  0.47403070110E+02  0.10566000000E+00 0.  1.
         22    1    1    0    0    0 -0.36914687785E+02 -0.16154263290E+02 -0.47756669126E+02  0.62484828901E+02  0.00000000000E+00 0.  1.
</event>
<event>
 4    1  0.9856522E-003  0.9118800E+02  0.7818608E-02  0.1130116E+00
         25   -1    0    0    0    0  0.00000000000E+00  0.00000000000E+00  0.99999998245E-14  0.12500000000E+03  0.12500000000E+03 0.  0.
        -13    1    1    0    0    0 -0.40474889355E+01 -0.92397757246E+01 -0.39948119708E+02  0.41202172933E+02  0.10566000000E+00 0. -1.
         13    1    1    0    0    0 -0.18807158257E+01 -0.53276301087E+01 -0.20537603059E+02  0.21300822474E+02  0.10566000000E+00 0.  1.
         22    1    1    0    0    0  0.59282047612E+01  0.14567405833E+02  0.60485722768E+02  0.62497004593E+02  0.00000000000E+00 0.  1.
</event>
<event>
 4    1  0.9856522E-003  0.9118800E+02  0.7818608E-02  0.1130116E+00
         25   -1    0    0    0    0  0.00000000000E+00  0.00000000000E+00  0.99999998245E-14  0.12500000000E+03  0.12500000000E+03 0.  0.
        -13    1    1    0    0    0 -0.19968742090E+02  0.41135081221E+01 -0.58818465991E+01  0.21219775992E+02  0.10566000000E+00 0. -1.
         13    1    1    0    0    0 -0.35898765684E+02 -0.94914975934E+01 -0.19773135331E+02  0.42068966579E+02  0.10566000000E+00 0.  1.
         22    1    1    0    0    0  0.55867507773E+02  0.53779894713E+01  0.25654981930E+02  0.61711257428E+02  0.00000000000E+00 0.  1.
</event>
<event>
 4    1  0.9856522E-003  0.9118800E+02  0.7818608E-02  0.1130116E+00
         25   -1    0    0    0    0  0.00000000000E+00  0.00000000000E+00  0.99999998245E-14  0.12500000000E+03  0.12500000000E+03 0.  0.
        -13    1    1    0    0    0  0.25856687904E+02 -0.29166363080E+02  0.21299013584E+02  0.44417386105E+02  0.10566000000E+00 0. -1.
         13    1    1    0    0    0  0.11307478961E+02 -0.11702139540E+02  0.79126568360E+01  0.18094763124E+02  0.10566000000E+00 0.  1.
         22    1    1    0    0    0 -0.37164166866E+02  0.40868502620E+02 -0.29211670420E+02  0.62487850771E+02  0.00000000000E+00 0. -1.
</event>
<event>
 4    1  0.9856522E-003  0.9118800E+02  0.7818608E-02  0.1130116E+00
         25   -1    0    0    0    0  0.00000000000E+00  0.00000000000E+00  0.99999998245E-14  0.12500000000E+03  0.12500000000E+03 0.  0.
        -13    1    1    0    0    0 -0.56754228511E+01  0.11514578608E+02 -0.12705089188E+00  0.12838350791E+02  0.10566000000E+00 0. -1.
         13    1    1    0    0    0 -0.23445262602E+02  0.43091267161E+02 -0.81369173232E+01  0.49726836131E+02  0.10566000000E+00 0.  1.
         22    1    1    0    0    0  0.29120685453E+02 -0.54605845769E+02  0.82639682151E+01  0.62434813078E+02  0.00000000000E+00 0.  1.
</event>
<event>
 4    1  0.9856522E-003  0.9118800E+02  0.7818608E-02  0.1130116E+00
         25   -1    0    0    0    0  0.00000000000E+00  0.00000000000E+00  0.99999998245E-14  0.12500000000E+03  0.12500000000E+03 0.  0.
        -13    1    1    0    0    0  0.13975246488E+02 -0.60150105539E+01 -0.60417637659E+01  0.16370764790E+02  0.10566000000E+00 0. -1.
         13    1    1    0    0    0  0.39628040915E+02 -0.17829337056E+02 -0.15494061273E+02  0.46133978643E+02  0.10566000000E+00 0.  1.
         22    1    1    0    0    0 -0.53603287403E+02  0.23844347610E+02  0.21535825039E+02  0.62495256568E+02  0.00000000000E+00 0.  1.
</event>
<event>
 4    1  0.9856522E-003  0.9118800E+02  0.7818608E-02  0.1130116E+00
         25   -1    0    0    0    0  0.00000000000E+00  0.00000000000E+00  0.99999998245E-14  0.12500000000E+03  0.12500000000E+03 0.  0.
        -13    1    1    0    0    0  0.24536520277E+02 -0.88565375415E+01  0.11027676858E+02  0.28321368354E+02  0.10566000000E+00 0. -1.
         13    1    1    0    0    0  0.18871507990E+02 -0.23341834209E+02  0.18332977302E+02  0.35172208615E+02  0.10566000000E+00 0.  1.
         22    1    1    0    0    0 -0.43408028267E+02  0.32198371750E+02 -0.29360654160E+02  0.61506423031E+02  0.00000000000E+00 0.  1.
</event>
<event>
 4    1  0.9856522E-003  0.9118800E+02  0.7818608E-02  0.1130116E+00
         25   -1    0    0    0    0  0.00000000000E+00  0.00000000000E+00  0.99999998245E-14  0.12500000000E+03  0.12500000000E+03 0.  0.
        -13    1    1    0    0    0 -0.83578183219E+00 -0.33648779849E+01 -0.10233594320E+02  0.10805487119E+02  0.10566000000E+00 0.  1.
         13    1    1    0    0    0  0.13301363401E+02 -0.51449663675E+02 -0.10702362466E+02  0.54208356247E+02  0.10566000000E+00 0. -1.
         22    1    1    0    0    0 -0.12465581569E+02  0.54814541660E+02  0.20935956786E+02  0.59986156635E+02  0.00000000000E+00 0. -1.
</event>
<event>
 4    1  0.9856522E-003  0.9118800E+02  0.7818608E-02  0.1130116E+00
         25   -1    0    0    0    0  0.00000000000E+00  0.00000000000E+00  0.99999998245E-14  0.12500000000E+03  0.12500000000E+03 0.  0.
        -13    1    1    0    0    0  0.13404554081E+02 -0.44355748375E+02 -0.17494647893E+02  0.49529671440E+02  0.10566000000E+00 0.  1.
         13    1    1    0    0    0  0.34495105399E+01 -0.11405999940E+02 -0.51351476942E+01  0.12976011077E+02  0.10566000000E+00 0.  1.
         22    1    1    0    0    0 -0.16854064621E+02  0.55761748315E+02  0.22629795588E+02  0.62494317483E+02  0.00000000000E+00 0.  1.
</event>
<event>
 4    1  0.9856522E-003  0.9118800E+02  0.7818608E-02  0.1130116E+00
         25   -1    0    0    0    0  0.00000000000E+00  0.00000000000E+00  0.99999998245E-14  0.12500000000E+03  0.12500000000E+03 0.  0.
        -13    1    1    0    0    0  0.86647409762E+01  0.35950924478E+01 -0.12979162750E+02  0.16014751188E+02  0.10566000000E+00 0. -1.
         13    1    1    0    0    0  0.11819667941E+02  0.94575734316E+01 -0.44275215454E+02  0.46791624389E+02  0.10566000000E+00 0.  1.
         22    1    1    0    0    0 -0.20484408917E+02 -0.13052665879E+02  0.57254378204E+02  0.62193624422E+02  0.00000000000E+00 0.  1.
</event>
<event>
 4    1  0.9856522E-003  0.9118800E+02  0.7818608E-02  0.1130116E+00
         25   -1    0    0    0    0  0.00000000000E+00  0.00000000000E+00  0.99999998245E-14  0.12500000000E+03  0.12500000000E+03 0.  0.
        -13    1    1    0    0    0 -0.41968482615E+02  0.24717078845E+01  0.26377328796E+02  0.49631013604E+02  0.10566000000E+00 0. -1.
         13    1    1    0    0    0 -0.11021172384E+02  0.58300140650E+00  0.66203186717E+01  0.12870350217E+02  0.10566000000E+00 0.  1.
         22    1    1    0    0    0  0.52989655000E+02 -0.30547092910E+01 -0.32997647467E+02  0.62498636179E+02  0.00000000000E+00 0. -1.
</event>
<event>
 4    1  0.9856522E-003  0.9118800E+02  0.7818608E-02  0.1130116E+00
         25   -1    0    0    0    0  0.00000000000E+00  0.00000000000E+00  0.99999998245E-14  0.12500000000E+03  0.12500000000E+03 0.  0.
        -13    1    1    0    0    0 -0.39440209512E+02 -0.18799783838E+02 -0.12274813971E+02  0.45383303326E+02  0.10566000000E+00 0.  1.
         13    1    1    0    0    0 -0.14869909628E+02 -0.71246750327E+01 -0.45938566068E+01  0.17116947427E+02  0.10566000000E+00 0.  1.
         22    1    1    0    0    0  0.54310119141E+02  0.25924458871E+02  0.16868670578E+02  0.62499749246E+02  0.00000000000E+00 0.  1.
</event>
<event>
 4    1  0.9856522E-003  0.9118800E+02  0.7818608E-02  0.1130116E+00
         25   -1    0    0    0    0  0.00000000000E+00  0.00000000000E+00  0.99999998245E-14  0.12500000000E+03  0.12500000000E+03 0.  0.
        -13    1    1    0    0    0 -0.32101652722E+01  0.69811967908E+01 -0.14657346476E+02  0.16549659799E+02  0.10566000000E+00 0.  1.
         13    1    1    0    0    0 -0.11519570594E+02  0.20123345093E+02 -0.39685030829E+02  0.45962619163E+02  0.10566000000E+00 0. -1.
         22    1    1    0    0    0  0.14729735866E+02 -0.27104541884E+02  0.54342377305E+02  0.62487721038E+02  0.00000000000E+00 0. -1.
</event>
<event>
 4    1  0.9856522E-003  0.9118800E+02  0.7818608E-02  0.1130116E+00
         25   -1    0    0    0    0  0.00000000000E+00  0.00000000000E+00  0.99999998245E-14  0.12500000000E+03  0.12500000000E+03 0.  0.
        -13    1    1    0    0    0 -0.27140485333E+02  0.48284963011E+02  0.62325044741E+01  0.55739562908E+02  0.10566000000E+00 0. -1.
         13    1    1    0    0    0 -0.23584294276E+01  0.61133817287E+01  0.19562107589E+01  0.68391191023E+01  0.10566000000E+00 0.  1.
         22    1    1    0    0    0  0.29498914760E+02 -0.54398344740E+02 -0.81887152330E+01  0.62421317990E+02  0.00000000000E+00 0. -1.
</event>
<event>
 4    1  0.9856522E-003  0.9118800E+02  0.7818608E-02  0.1130116E+00
         25   -1    0    0    0    0  0.00000000000E+00  0.00000000000E+00  0.99999998245E-14  0.12500000000E+03  0.12500000000E+03 0.  0.
        -13    1    1    0    0    0  0.20272805243E+02 -0.14776703767E+01  0.21711559154E+02  0.29741773772E+02  0.10566000000E+00 0.  1.
         13    1    1    0    0    0  0.22256995995E+02 -0.14931140830E+01  0.23989697783E+02  0.32758510714E+02  0.10566000000E+00 0.  1.
         22    1    1    0    0    0 -0.42529801238E+02  0.29707844597E+01 -0.45701256938E+02  0.62499715514E+02  0.00000000000E+00 0.  1.
</event>
<event>
 4    1  0.9856522E-003  0.9118800E+02  0.7818608E-02  0.1130116E+00
         25   -1    0    0    0    0  0.00000000000E+00  0.00000000000E+00  0.99999998245E-14  0.12500000000E+03  0.12500000000E+03 0.  0.
        -13    1    1    0    0    0 -0.95857176532E+01  0.17761417543E+02  0.25034530221E+02  0.32157313375E+02  0.10566000000E+00 0. -1.
         13    1    1    0    0    0 -0.18129576305E+02  0.18632608590E+02  0.16717076668E+02  0.30908371944E+02  0.10566000000E+00 0.  1.
         22    1    1    0    0    0  0.27715293958E+02 -0.36394026132E+02 -0.41751606889E+02  0.61934314682E+02  0.00000000000E+00 0. -1.
</event>
<event>
 4    1  0.9856522E-003  0.9118800E+02  0.7818608E-02  0.1130116E+00
         25   -1    0    0    0    0  0.00000000000E+00  0.00000000000E+00  0.99999998245E-14  0.12500000000E+03  0.12500000000E+03 0.  0.
        -13    1    1    0    0    0 -0.21610312880E+02  0.42322993310E+01 -0.58656673670E+00  0.22028917472E+02  0.10566000000E+00 0. -1.
         13    1    1    0    0    0 -0.38373008919E+02  0.12848850748E+02  0.27991984185E+01  0.40563868835E+02  0.10566000000E+00 0.  1.
         22    1    1    0    0    0  0.59983321799E+02 -0.17081150079E+02 -0.22126316818E+01  0.62407213694E+02  0.00000000000E+00 0. -1.
</event>
<event>
 4    1  0.9856522E-003  0.9118800E+02  0.7818608E-02  0.1130116E+00
         25   -1    0    0    0    0  0.00000000000E+00  0.00000000000E+00  0.99999998245E-14  0.12500000000E+03  0.12500000000E+03 0.  0.
        -13    1    1    0    0    0 -0.15203520817E+02  0.10587501160E+02 -0.21608589989E+02  0.28463740994E+02  0.10566000000E+00 0.  1.
         13    1    1    0    0    0 -0.18331103487E+02  0.12814570786E+02 -0.25656259803E+02  0.34036706812E+02  0.10566000000E+00 0.  1.
         22    1    1    0    0    0  0.33534624304E+02 -0.23402071947E+02  0.47264849792E+02  0.62499552194E+02  0.00000000000E+00 0.  1.
</event>
<event>
 4    1  0.9856522E-003  0.9118800E+02  0.7818608E-02  0.1130116E+00
         25   -1    0    0    0    0  0.00000000000E+00  0.00000000000E+00  0.99999998245E-14  0.12500000000E+03  0.12500000000E+03 0.  0.
        -13    1    1    0    0    0  0.34387296974E+01 -0.10241015980E+02 -0.90733955698E+01  0.14108187036E+02  0.10566000000E+00 0. -1.
         13    1    1    0    0    0  0.10181641819E+02 -0.23081572534E+02 -0.41648692050E+02  0.48693423933E+02  0.10566000000E+00 0.  1.
         22    1    1    0    0    0 -0.13620371516E+02  0.33322588514E+02  0.50722087620E+02  0.62198389031E+02  0.00000000000E+00 0.  1.
</event>
<event>
 4    1  0.9856522E-003  0.9118800E+02  0.7818608E-02  0.1130116E+00
         25   -1    0    0    0    0  0.00000000000E+00  0.00000000000E+00  0.99999998245E-14  0.12500000000E+03  0.12500000000E+03 0.  0.
        -13    1    1    0    0    0 -0.26876351737E+02  0.55746043080E+01  0.14092012674E+02  0.30854667088E+02  0.10566000000E+00 0.  1.
         13    1    1    0    0    0 -0.26512275591E+02  0.68582403187E+01  0.15893333986E+02  0.31662998066E+02  0.10566000000E+00 0. -1.
         22    1    1    0    0    0  0.53388627328E+02 -0.12432844627E+02 -0.29985346659E+02  0.62482334846E+02  0.00000000000E+00 0. -1.
</event>
<event>
 4    1  0.9856522E-003  0.9118800E+02  0.7818608E-02  0.1130116E+00
         25   -1    0    0    0    0  0.00000000000E+00  0.00000000000E+00  0.99999998245E-14  0.12500000000E+03  0.12500000000E+03 0.  0.
        -13    1    1    0    0    0 -0.12396257554E+02 -0.37031037109E+02  0.27537237795E+02  0.47783632554E+02  0.10566000000E+00 0.  1.
         13    1    1    0    0    0  0.44047152223E+01 -0.94725248856E+01  0.11817605398E+02  0.15773306733E+02  0.10566000000E+00 0. -1.
         22    1    1    0    0    0  0.79915423314E+01  0.46503561994E+02 -0.39354843194E+02  0.61443060713E+02  0.00000000000E+00 0.  1.
</event>
<event>
 4    1  0.9856522E-003  0.9118800E+02  0.7818608E-02  0.1130116E+00
         25   -1    0    0    0    0  0.00000000000E+00  0.00000000000E+00  0.99999998245E-14  0.12500000000E+03  0.12500000000E+03 0.  0.
        -13    1    1    0    0    0 -0.14652593985E+02 -0.11665181025E+02  0.27568173506E+02  0.33328521019E+02  0.10566000000E+00 0.  1.
         13    1    1    0    0    0 -0.12761083505E+02 -0.10158371087E+02  0.24185519892E+02  0.29171703616E+02  0.10566000000E+00 0.  1.
         22    1    1    0    0    0  0.27413677490E+02  0.21823552112E+02 -0.51753693399E+02  0.62499775365E+02  0.00000000000E+00 0.  1.
</event>
<event>
 4    1  0.9856522E-003  0.9118800E+02  0.7818608E-02  0.1130116E+00
         25   -1    0    0    0    0  0.00000000000E+00  0.00000000000E+00  0.99999998245E-14  0.12500000000E+03  0.12500000000E+03 0.  0.
        -13    1    1    0    0    0  0.16054703916E+01  0.31764321114E+02 -0.16405360172E+02  0.35786822120E+02  0.10566000000E+00 0. -1.
         13    1    1    0    0    0  0.34395453818E+01  0.27059397789E+02 -0.20552858810E+01  0.27354649426E+02  0.10566000000E+00 0.  1.
         22    1    1    0    0    0 -0.50450157734E+01 -0.58823718903E+02  0.18460646053E+02  0.61858528454E+02  0.00000000000E+00 0. -1.
</event>
<event>
 4    1  0.9856522E-003  0.9118800E+02  0.7818608E-02  0.1130116E+00
         25   -1    0    0    0    0  0.00000000000E+00  0.00000000000E+00  0.99999998245E-14  0.12500000000E+03  0.12500000000E+03 0.  0.
        -13    1    1    0    0    0  0.70711771614E+00 -0.73448840436E+01 -0.51995997774E+01  0.90274215011E+01  0.10566000000E+00 0. -1.
         13    1    1    0    0    0  0.45917459371E+02 -0.30913558974E+02 -0.82526032865E+00  0.55360215156E+02  0.10566000000E+00 0.  1.
         22    1    1    0    0    0 -0.46624577087E+02  0.38258443017E+02  0.60248601060E+01  0.60612363343E+02  0.00000000000E+00 0.  1.
</event>
<event>
 4    1  0.9856522E-003  0.9118800E+02  0.7818608E-02  0.1130116E+00
         25   -1    0    0    0    0  0.00000000000E+00  0.00000000000E+00  0.99999998245E-14  0.12500000000E+03  0.12500000000E+03 0.  0.
        -13    1    1    0    0    0 -0.35782113875E+01 -0.13798404140E+01  0.83238747588E+01  0.91654575084E+01  0.10566000000E+00 0. -1.
         13    1    1    0    0    0 -0.18886751521E+02 -0.78973800299E+01  0.49252887975E+02  0.53337942708E+02  0.10566000000E+00 0.  1.
         22    1    1    0    0    0  0.22464962909E+02  0.92772204439E+01 -0.57576762734E+02  0.62496599784E+02  0.00000000000E+00 0.  1.
</event>
<event>
 4    1  0.9856522E-003  0.9118800E+02  0.7818608E-02  0.1130116E+00
         25   -1    0    0    0    0  0.00000000000E+00  0.00000000000E+00  0.99999998245E-14  0.12500000000E+03  0.12500000000E+03 0.  0.
        -13    1    1    0    0    0  0.10553390250E+02 -0.15757317820E+01 -0.49384571442E+02  0.50524291554E+02  0.10566000000E+00 0.  1.
         13    1    1    0    0    0  0.44545561163E+01  0.33412718424E+01 -0.10945983709E+02  0.12281404281E+02  0.10566000000E+00 0. -1.
         22    1    1    0    0    0 -0.15007946366E+02 -0.17655400604E+01  0.60330555151E+02  0.62194304166E+02  0.00000000000E+00 0.  1.
</event>
<event>
 4    1  0.9856522E-003  0.9118800E+02  0.7818608E-02  0.1130116E+00
         25   -1    0    0    0    0  0.00000000000E+00  0.00000000000E+00  0.99999998245E-14  0.12500000000E+03  0.12500000000E+03 0.  0.
        -13    1    1    0    0    0  0.38897027818E+01 -0.15945353775E+02  0.32399115150E+01  0.16729981631E+02  0.10566000000E+00 0. -1.
         13    1    1    0    0    0 -0.49373442841E+02 -0.41856213670E+01  0.19917509286E+02  0.53403882109E+02  0.10566000000E+00 0.  1.
         22    1    1    0    0    0  0.45483740059E+02  0.20130975142E+02 -0.23157420801E+02  0.54866136259E+02  0.00000000000E+00 0.  1.
</event>
<event>
 4    1  0.9856522E-003  0.9118800E+02  0.7818608E-02  0.1130116E+00
         25   -1    0    0    0    0  0.00000000000E+00  0.00000000000E+00  0.99999998245E-14  0.12500000000E+03  0.12500000000E+03 0.  0.
        -13    1    1    0    0    0  0.46949787970E+02  0.33495653148E+02  0.62525858627E+01  0.58011614046E+02  0.10566000000E+00 0. -1.
         13    1    1    0    0    0  0.36072773499E+01  0.26372390217E+01  0.41969969281E+00  0.44894088034E+01  0.10566000000E+00 0.  1.
         22    1    1    0    0    0 -0.50557065320E+02 -0.36132892170E+02 -0.66722855555E+01  0.62498977150E+02  0.00000000000E+00 0. -1.
</event>
<event>
 4    1  0.9856522E-003  0.9118800E+02  0.7818608E-02  0.1130116E+00
         25   -1    0    0    0    0  0.00000000000E+00  0.00000000000E+00  0.99999998245E-14  0.12500000000E+03  0.12500000000E+03 0.  0.
        -13    1    1    0    0    0 -0.37159563994E+02  0.33847902253E+02  0.90546169335E+01  0.51073583534E+02  0.10566000000E+00 0.  1.
         13    1    1    0    0    0 -0.84448563539E+01  0.75228476182E+01  0.16480800232E+01  0.11429617969E+02  0.10566000000E+00 0. -1.
         22    1    1    0    0    0  0.45604420348E+02 -0.41370749871E+02 -0.10702696957E+02  0.62496798497E+02  0.00000000000E+00 0.  1.
</event>
<event>
 4    1  0.9856522E-003  0.9118800E+02  0.7818608E-02  0.1130116E+00
         25   -1    0    0    0    0  0.00000000000E+00  0.00000000000E+00  0.99999998245E-14  0.12500000000E+03  0.12500000000E+03 0.  0.
        -13    1    1    0    0    0 -0.24873479983E+02  0.29412997605E+02 -0.11640209959E+02  0.40240776415E+02  0.10566000000E+00 0.  1.
         13    1    1    0    0    0 -0.98550323928E+01  0.12081699203E+02 -0.17387979700E+02  0.23354702336E+02  0.10566000000E+00 0. -1.
         22    1    1    0    0    0  0.34728512376E+02 -0.41494696808E+02  0.29028189659E+02  0.61404521250E+02  0.00000000000E+00 0.  1.
</event>
<event>
 4    1  0.9856522E-003  0.9118800E+02  0.7818608E-02  0.1130116E+00
         25   -1    0    0    0    0  0.00000000000E+00  0.00000000000E+00  0.99999998245E-14  0.12500000000E+03  0.12500000000E+03 0.  0.
        -13    1    1    0    0    0  0.61275746206E+00 -0.90257964787E+01  0.59987148488E+01  0.10855239180E+02  0.10566000000E+00 0.  1.
         13    1    1    0    0    0  0.30411917846E+01 -0.42915237354E+02  0.28569868154E+02  0.51645086649E+02  0.10566000000E+00 0.  1.
         22    1    1    0    0    0 -0.36539492466E+01  0.51941033832E+02 -0.34568583003E+02  0.62499674171E+02  0.00000000000E+00 0.  1.
</event>
<event>
 4    1  0.9856522E-003  0.9118800E+02  0.7818608E-02  0.1130116E+00
         25   -1    0    0    0    0  0.00000000000E+00  0.00000000000E+00  0.99999998245E-14  0.12500000000E+03  0.12500000000E+03 0.  0.
        -13    1    1    0    0    0  0.50274208896E+01 -0.25588267370E+02  0.40395614729E+02  0.48081714208E+02  0.10566000000E+00 0. -1.
         13    1    1    0    0    0  0.13421373572E+01 -0.71533607899E+01  0.12452706758E+02  0.14424041491E+02  0.10566000000E+00 0.  1.
         22    1    1    0    0    0 -0.63695582469E+01  0.32741628160E+02 -0.52848321487E+02  0.62494244302E+02  0.00000000000E+00 0. -1.
</event>
<event>
 4    1  0.9856522E-003  0.9118800E+02  0.7818608E-02  0.1130116E+00
         25   -1    0    0    0    0  0.00000000000E+00  0.00000000000E+00  0.99999998245E-14  0.12500000000E+03  0.12500000000E+03 0.  0.
        -13    1    1    0    0    0  0.19602332670E+02 -0.16985533734E+01  0.53818672350E+02  0.57302680454E+02  0.10566000000E+00 0.  1.
         13    1    1    0    0    0 -0.24268460288E+02  0.25925367263E+01 -0.15125605462E+02  0.28713664274E+02  0.10566000000E+00 0. -1.
         22    1    1    0    0    0  0.46661276174E+01 -0.89398335293E+00 -0.38693066888E+02  0.38983655272E+02  0.00000000000E+00 0.  1.
</event>
<event>
 4    1  0.9856522E-003  0.9118800E+02  0.7818608E-02  0.1130116E+00
         25   -1    0    0    0    0  0.00000000000E+00  0.00000000000E+00  0.99999998245E-14  0.12500000000E+03  0.12500000000E+03 0.  0.
        -13    1    1    0    0    0 -0.52506336997E+01 -0.15008690240E+02  0.38819076363E+01  0.16367965906E+02  0.10566000000E+00 0. -1.
         13    1    1    0    0    0 -0.20037549137E+02 -0.33350810053E+02  0.25630378021E+02  0.46590850477E+02  0.10566000000E+00 0.  1.
         22    1    1    0    0    0  0.25288182837E+02  0.48359500294E+02 -0.29512285657E+02  0.62041183617E+02  0.00000000000E+00 0.  1.
</event>
<event>
 4    1  0.9856522E-003  0.9118800E+02  0.7818608E-02  0.1130116E+00
         25   -1    0    0    0    0  0.00000000000E+00  0.00000000000E+00  0.99999998245E-14  0.12500000000E+03  0.12500000000E+03 0.  0.
        -13    1    1    0    0    0  0.16134396256E+02  0.87559127097E+00  0.29897489734E+01  0.16432746745E+02  0.10566000000E+00 0.  1.
         13    1    1    0    0    0  0.45207771554E+02  0.76290650876E+00  0.88477204576E+01  0.46071878153E+02  0.10566000000E+00 0.  1.
         22    1    1    0    0    0 -0.61342167810E+02 -0.16384977797E+01 -0.11837469431E+02  0.62495375102E+02  0.00000000000E+00 0.  1.
</event>
<event>
 4    1  0.9856522E-003  0.9118800E+02  0.7818608E-02  0.1130116E+00
         25   -1    0    0    0    0  0.00000000000E+00  0.00000000000E+00  0.99999998245E-14  0.12500000000E+03  0.12500000000E+03 0.  0.
        -13    1    1    0    0    0  0.21521095476E+02  0.29355309516E+02  0.27532833835E+02  0.45639454973E+02  0.10566000000E+00 0. -1.
         13    1    1    0    0    0  0.68446152676E+01  0.11389229547E+02  0.10406067733E+02  0.16877817321E+02  0.10566000000E+00 0.  1.
         22    1    1    0    0    0 -0.28365710744E+02 -0.40744539062E+02 -0.37938901567E+02  0.62482727706E+02  0.00000000000E+00 0. -1.
</event>
<event>
 4    1  0.9856522E-003  0.9118800E+02  0.7818608E-02  0.1130116E+00
         25   -1    0    0    0    0  0.00000000000E+00  0.00000000000E+00  0.99999998245E-14  0.12500000000E+03  0.12500000000E+03 0.  0.
        -13    1    1    0    0    0  0.44252274851E+01 -0.39393841870E+01 -0.98520700549E+01  0.11496774960E+02  0.10566000000E+00 0. -1.
         13    1    1    0    0    0  0.19544436676E+02 -0.16639872214E+02 -0.44074428794E+02  0.51004282073E+02  0.10566000000E+00 0. -1.
         22    1    1    0    0    0 -0.23969664161E+02  0.20579256401E+02  0.53926498849E+02  0.62498942967E+02  0.00000000000E+00 0. -1.
</event>
<event>
 4    1  0.9856522E-003  0.9118800E+02  0.7818608E-02  0.1130116E+00
         25   -1    0    0    0    0  0.00000000000E+00  0.00000000000E+00  0.99999998245E-14  0.12500000000E+03  0.12500000000E+03 0.  0.
        -13    1    1    0    0    0  0.15327406257E+01 -0.52691575329E+01  0.15384677069E+02  0.16334404412E+02  0.10566000000E+00 0. -1.
         13    1    1    0    0    0  0.47424996914E+01 -0.13095717685E+02  0.44020051620E+02  0.46171043238E+02  0.10566000000E+00 0.  1.
         22    1    1    0    0    0 -0.62752403171E+01  0.18364875217E+02 -0.59404728689E+02  0.62494552350E+02  0.00000000000E+00 0.  1.
</event>
<event>
 4    1  0.9856522E-003  0.9118800E+02  0.7818608E-02  0.1130116E+00
         25   -1    0    0    0    0  0.00000000000E+00  0.00000000000E+00  0.99999998245E-14  0.12500000000E+03  0.12500000000E+03 0.  0.
        -13    1    1    0    0    0  0.19716241389E+02  0.11095603885E+02  0.59697824854E+01  0.23398548396E+02  0.10566000000E+00 0. -1.
         13    1    1    0    0    0  0.26522797283E+02  0.23196301574E+02  0.17611472535E+02  0.39391652813E+02  0.10566000000E+00 0.  1.
         22    1    1    0    0    0 -0.46239038671E+02 -0.34291905460E+02 -0.23581255021E+02  0.62209798791E+02  0.00000000000E+00 0.  1.
</event>
<event>
 4    1  0.9856522E-003  0.9118800E+02  0.7818608E-02  0.1130116E+00
         25   -1    0    0    0    0  0.00000000000E+00  0.00000000000E+00  0.99999998245E-14  0.12500000000E+03  0.12500000000E+03 0.  0.
        -13    1    1    0    0    0 -0.15544675131E+02 -0.30252178492E+02 -0.28916384431E+02  0.44643024999E+02  0.10566000000E+00 0.  1.
         13    1    1    0    0    0 -0.98764690594E+01 -0.94279931260E+01 -0.11824528333E+02  0.18062733177E+02  0.10566000000E+00 0. -1.
         22    1    1    0    0    0  0.25421144190E+02  0.39680171618E+02  0.40740912765E+02  0.62294241824E+02  0.00000000000E+00 0.  1.
</event>
<event>
 4    1  0.9856522E-003  0.9118800E+02  0.7818608E-02  0.1130116E+00
         25   -1    0    0    0    0  0.00000000000E+00  0.00000000000E+00  0.99999998245E-14  0.12500000000E+03  0.12500000000E+03 0.  0.
        -13    1    1    0    0    0 -0.51807779595E+01  0.12641306143E+02 -0.19830985484E+02  0.24081574503E+02  0.10566000000E+00 0.  1.
         13    1    1    0    0    0  0.53138510737E+01  0.25066743882E+02 -0.29339329506E+02  0.38953640164E+02  0.10566000000E+00 0. -1.
         22    1    1    0    0    0 -0.13307311429E+00 -0.37708050025E+02  0.49170314990E+02  0.61964785333E+02  0.00000000000E+00 0. -1.
</event>
<event>
 4    1  0.9856522E-003  0.9118800E+02  0.7818608E-02  0.1130116E+00
         25   -1    0    0    0    0  0.00000000000E+00  0.00000000000E+00  0.99999998245E-14  0.12500000000E+03  0.12500000000E+03 0.  0.
        -13    1    1    0    0    0 -0.19825350248E+02 -0.34182803511E+01  0.16959912096E+02  0.26313094371E+02  0.10566000000E+00 0.  1.
         13    1    1    0    0    0 -0.28987762719E+02 -0.31202257950E+01  0.21478741300E+02  0.36212893952E+02  0.10566000000E+00 0.  1.
         22    1    1    0    0    0  0.48813112967E+02  0.65385061461E+01 -0.38438653396E+02  0.62474011678E+02  0.00000000000E+00 0.  1.
</event>
<event>
 4    1  0.9856522E-003  0.9118800E+02  0.7818608E-02  0.1130116E+00
         25   -1    0    0    0    0  0.00000000000E+00  0.00000000000E+00  0.99999998245E-14  0.12500000000E+03  0.12500000000E+03 0.  0.
        -13    1    1    0    0    0  0.64753327292E+01  0.31884236050E+02  0.11305765446E+02  0.34443663260E+02  0.10566000000E+00 0. -1.
         13    1    1    0    0    0  0.62832912272E+01  0.25780463919E+02  0.91289201587E+01  0.28061725104E+02  0.10566000000E+00 0.  1.
         22    1    1    0    0    0 -0.12758623956E+02 -0.57664699969E+02 -0.20434685605E+02  0.62494611636E+02  0.00000000000E+00 0. -1.
</event>
<event>
 4    1  0.9856522E-003  0.9118800E+02  0.7818608E-02  0.1130116E+00
         25   -1    0    0    0    0  0.00000000000E+00  0.00000000000E+00  0.99999998245E-14  0.12500000000E+03  0.12500000000E+03 0.  0.
        -13    1    1    0    0    0  0.39249446513E+02  0.88290247923E+01  0.14933149795E+02  0.42912479038E+02  0.10566000000E+00 0.  1.
         13    1    1    0    0    0  0.17953950733E+02  0.20124632435E+01  0.76763705487E+01  0.19629879879E+02  0.10566000000E+00 0. -1.
         22    1    1    0    0    0 -0.57203397247E+02 -0.10841488036E+02 -0.22609520343E+02  0.62457641082E+02  0.00000000000E+00 0.  1.
</event>
<event>
 4    1  0.9856522E-003  0.9118800E+02  0.7818608E-02  0.1130116E+00
         25   -1    0    0    0    0  0.00000000000E+00  0.00000000000E+00  0.99999998245E-14  0.12500000000E+03  0.12500000000E+03 0.  0.
        -13    1    1    0    0    0  0.19108009677E+02 -0.35004921998E+02  0.46458327157E+02  0.61227836187E+02  0.10566000000E+00 0. -1.
         13    1    1    0    0    0  0.95812370671E+00 -0.37911529095E+00  0.87878637616E+00  0.13583662878E+01  0.10566000000E+00 0.  1.
         22    1    1    0    0    0 -0.20066133384E+02  0.35384037289E+02 -0.47337113534E+02  0.62413797525E+02  0.00000000000E+00 0. -1.
</event>
<event>
 4    1  0.9856522E-003  0.9118800E+02  0.7818608E-02  0.1130116E+00
         25   -1    0    0    0    0  0.00000000000E+00  0.00000000000E+00  0.99999998245E-14  0.12500000000E+03  0.12500000000E+03 0.  0.
        -13    1    1    0    0    0  0.29368238628E+02 -0.16514490183E+02 -0.21199189878E+02  0.39807519914E+02  0.10566000000E+00 0.  1.
         13    1    1    0    0    0  0.16780732669E+02 -0.94810812996E+01 -0.11977809304E+02  0.22692795581E+02  0.10566000000E+00 0.  1.
         22    1    1    0    0    0 -0.46148971298E+02  0.25995571482E+02  0.33176999182E+02  0.62499684505E+02  0.00000000000E+00 0.  1.
</event>
<event>
 4    1  0.9856522E-003  0.9118800E+02  0.7818608E-02  0.1130116E+00
         25   -1    0    0    0    0  0.00000000000E+00  0.00000000000E+00  0.99999998245E-14  0.12500000000E+03  0.12500000000E+03 0.  0.
        -13    1    1    0    0    0 -0.15416296559E+02 -0.10767159839E+00 -0.12333690209E+02  0.19743476669E+02  0.10566000000E+00 0. -1.
         13    1    1    0    0    0 -0.26442952385E+02  0.33914639745E+00 -0.33830208615E+02  0.42939945622E+02  0.10566000000E+00 0.  1.
         22    1    1    0    0    0  0.41859248944E+02 -0.23147479905E+00  0.46163898823E+02  0.62316577709E+02  0.00000000000E+00 0.  1.
</event>
<event>
 4    1  0.9856522E-003  0.9118800E+02  0.7818608E-02  0.1130116E+00
         25   -1    0    0    0    0  0.00000000000E+00  0.00000000000E+00  0.99999998245E-14  0.12500000000E+03  0.12500000000E+03 0.  0.
        -13    1    1    0    0    0  0.19609072341E+02 -0.33603147929E+02  0.25762682462E+02  0.46662771462E+02  0.10566000000E+00 0. -1.
         13    1    1    0    0    0  0.75869806833E+01 -0.11403176651E+02  0.79849008461E+01  0.15854479468E+02  0.10566000000E+00 0.  1.
         22    1    1    0    0    0 -0.27196053024E+02  0.45006324581E+02 -0.33747583308E+02  0.62482749071E+02  0.00000000000E+00 0. -1.
</event>
<event>
 4    1  0.9856522E-003  0.9118800E+02  0.7818608E-02  0.1130116E+00
         25   -1    0    0    0    0  0.00000000000E+00  0.00000000000E+00  0.99999998245E-14  0.12500000000E+03  0.12500000000E+03 0.  0.
        -13    1    1    0    0    0 -0.56663858861E+02  0.19098067436E+02  0.10164884811E+02  0.60653648926E+02  0.10566000000E+00 0.  1.
         13    1    1    0    0    0 -0.17186146300E+01  0.72375911937E+00 -0.64746801104E-01  0.18689086904E+01  0.10566000000E+00 0. -1.
         22    1    1    0    0    0  0.58382473491E+02 -0.19821826556E+02 -0.10100138010E+02  0.62477442383E+02  0.00000000000E+00 0.  1.
</event>
<event>
 4    1  0.9856522E-003  0.9118800E+02  0.7818608E-02  0.1130116E+00
         25   -1    0    0    0    0  0.00000000000E+00  0.00000000000E+00  0.99999998245E-14  0.12500000000E+03  0.12500000000E+03 0.  0.
        -13    1    1    0    0    0 -0.27327689805E+02 -0.14234659187E+02  0.20353911577E+02  0.36928593702E+02  0.10566000000E+00 0.  1.
         13    1    1    0    0    0 -0.18629045523E+02 -0.14352663179E+02  0.10519179049E+02  0.25762464349E+02  0.10566000000E+00 0. -1.
         22    1    1    0    0    0  0.45956735328E+02  0.28587322366E+02 -0.30873090626E+02  0.62308941950E+02  0.00000000000E+00 0. -1.
</event>
<event>
 4    1  0.9856522E-003  0.9118800E+02  0.7818608E-02  0.1130116E+00
         25   -1    0    0    0    0  0.00000000000E+00  0.00000000000E+00  0.99999998245E-14  0.12500000000E+03  0.12500000000E+03 0.  0.
        -13    1    1    0    0    0 -0.28110680697E+02 -0.33661663351E+02  0.19231634773E+01  0.43897923306E+02  0.10566000000E+00 0.  1.
         13    1    1    0    0    0  0.20553437276E+02 -0.17702567396E+02  0.79225001512E+01  0.28259544386E+02  0.10566000000E+00 0. -1.
         22    1    1    0    0    0  0.75572434212E+01  0.51364230747E+02 -0.98456636285E+01  0.52842532307E+02  0.00000000000E+00 0.  1.
</event>
<event>
 4    1  0.9856522E-003  0.9118800E+02  0.7818608E-02  0.1130116E+00
         25   -1    0    0    0    0  0.00000000000E+00  0.00000000000E+00  0.99999998245E-14  0.12500000000E+03  0.12500000000E+03 0.  0.
        -13    1    1    0    0    0 -0.30923381894E+02 -0.19302498295E+02 -0.41211354697E+02  0.55020259071E+02  0.10566000000E+00 0.  1.
         13    1    1    0    0    0 -0.38921844216E+01 -0.26428236783E+01 -0.58199512322E+01  0.74844246905E+01  0.10566000000E+00 0.  1.
         22    1    1    0    0    0  0.34815566316E+02  0.21945321973E+02  0.47031305929E+02  0.62495316239E+02  0.00000000000E+00 0.  1.
</event>
<event>
 4    1  0.9856522E-003  0.9118800E+02  0.7818608E-02  0.1130116E+00
         25   -1    0    0    0    0  0.00000000000E+00  0.00000000000E+00  0.99999998245E-14  0.12500000000E+03  0.12500000000E+03 0.  0.
        -13    1    1    0    0    0 -0.34716211273E+02 -0.46010277602E+02 -0.10318565382E+02  0.58554631975E+02  0.10566000000E+00 0.  1.
         13    1    1    0    0    0  0.39902962703E+01 -0.43806755371E+01  0.38612863556E+01  0.70734347273E+01  0.10566000000E+00 0. -1.
         22    1    1    0    0    0  0.30725915003E+02  0.50390953139E+02  0.64572790261E+01  0.59371933297E+02  0.00000000000E+00 0.  1.
</event>
<event>
 4    1  0.9856522E-003  0.9118800E+02  0.7818608E-02  0.1130116E+00
         25   -1    0    0    0    0  0.00000000000E+00  0.00000000000E+00  0.99999998245E-14  0.12500000000E+03  0.12500000000E+03 0.  0.
        -13    1    1    0    0    0 -0.25999440506E+01 -0.72473859890E+01  0.78262549513E+01  0.10979332554E+02  0.10566000000E+00 0.  1.
         13    1    1    0    0    0 -0.12919957483E+02 -0.33878717804E+02  0.36602667215E+02  0.51521444397E+02  0.10566000000E+00 0.  1.
         22    1    1    0    0    0  0.15519901534E+02  0.41126103793E+02 -0.44428922167E+02  0.62499223049E+02  0.00000000000E+00 0.  1.
</event>
<event>
 4    1  0.9856522E-003  0.9118800E+02  0.7818608E-02  0.1130116E+00
         25   -1    0    0    0    0  0.00000000000E+00  0.00000000000E+00  0.99999998245E-14  0.12500000000E+03  0.12500000000E+03 0.  0.
        -13    1    1    0    0    0 -0.12620774849E+02 -0.15229099152E+02  0.25278210338E+02  0.32096861228E+02  0.10566000000E+00 0.  1.
         13    1    1    0    0    0 -0.11425847598E+02 -0.15108086958E+02  0.23785378889E+02  0.30406573266E+02  0.10566000000E+00 0.  1.
         22    1    1    0    0    0  0.24046622447E+02  0.30337186110E+02 -0.49063589227E+02  0.62496565506E+02  0.00000000000E+00 0.  1.
</event>
<event>
 4    1  0.9856522E-003  0.9118800E+02  0.7818608E-02  0.1130116E+00
         25   -1    0    0    0    0  0.00000000000E+00  0.00000000000E+00  0.99999998245E-14  0.12500000000E+03  0.12500000000E+03 0.  0.
        -13    1    1    0    0    0 -0.56336566934E+01 -0.22019842272E+00 -0.15200100484E+01  0.58402200016E+01  0.10566000000E+00 0. -1.
         13    1    1    0    0    0  0.42577112923E+02  0.17816755983E+01  0.45071996945E+02  0.62028066110E+02  0.10566000000E+00 0.  1.
         22    1    1    0    0    0 -0.36943456229E+02 -0.15614771756E+01 -0.43551986896E+02  0.57131713888E+02  0.00000000000E+00 0.  1.
</event>
<event>
 4    1  0.9856522E-003  0.9118800E+02  0.7818608E-02  0.1130116E+00
         25   -1    0    0    0    0  0.00000000000E+00  0.00000000000E+00  0.99999998245E-14  0.12500000000E+03  0.12500000000E+03 0.  0.
        -13    1    1    0    0    0  0.72928557543E+01  0.69192144013E+01  0.12686963565E+02  0.16187386494E+02  0.10566000000E+00 0.  1.
         13    1    1    0    0    0  0.20567444530E+02  0.19448678387E+02  0.36655714214E+02  0.46313317891E+02  0.10566000000E+00 0. -1.
         22    1    1    0    0    0 -0.27860300284E+02 -0.26367892788E+02 -0.49342677779E+02  0.62499295615E+02  0.00000000000E+00 0. -1.
</event>
<event>
 4    1  0.9856522E-003  0.9118800E+02  0.7818608E-02  0.1130116E+00
         25   -1    0    0    0    0  0.00000000000E+00  0.00000000000E+00  0.99999998245E-14  0.12500000000E+03  0.12500000000E+03 0.  0.
        -13    1    1    0    0    0 -0.26148858203E+01  0.13803678425E+02  0.23639663365E+02  0.27499527522E+02  0.10566000000E+00 0. -1.
         13    1    1    0    0    0 -0.31319933970E+01  0.17799549708E+02  0.29973726446E+02  0.35000982751E+02  0.10566000000E+00 0.  1.
         22    1    1    0    0    0  0.57468792173E+01 -0.31603228132E+02 -0.53613389811E+02  0.62499489727E+02  0.00000000000E+00 0.  1.
</event>
<event>
 4    1  0.9856522E-003  0.9118800E+02  0.7818608E-02  0.1130116E+00
         25   -1    0    0    0    0  0.00000000000E+00  0.00000000000E+00  0.99999998245E-14  0.12500000000E+03  0.12500000000E+03 0.  0.
        -13    1    1    0    0    0 -0.30477585490E+02 -0.19343238578E+02 -0.36173248706E+02  0.51103416539E+02  0.10566000000E+00 0. -1.
         13    1    1    0    0    0 -0.12438855954E+02 -0.22740594287E+01 -0.16374571898E+01  0.12751035794E+02  0.10566000000E+00 0.  1.
         22    1    1    0    0    0  0.42916441444E+02  0.21617298006E+02  0.37810705895E+02  0.61145547668E+02  0.00000000000E+00 0. -1.
</event>
<event>
 4    1  0.9856522E-003  0.9118800E+02  0.7818608E-02  0.1130116E+00
         25   -1    0    0    0    0  0.00000000000E+00  0.00000000000E+00  0.99999998245E-14  0.12500000000E+03  0.12500000000E+03 0.  0.
        -13    1    1    0    0    0 -0.28055339085E+01 -0.41487310548E+01 -0.66421970017E+01  0.83194311658E+01  0.10566000000E+00 0. -1.
         13    1    1    0    0    0 -0.10700082718E+02 -0.28212384252E+02 -0.45047295433E+02  0.54219003912E+02  0.10566000000E+00 0.  1.
         22    1    1    0    0    0  0.13505616627E+02  0.32361115307E+02  0.51689492435E+02  0.62461564922E+02  0.00000000000E+00 0.  1.
</event>
<event>
 4    1  0.9856522E-003  0.9118800E+02  0.7818608E-02  0.1130116E+00
         25   -1    0    0    0    0  0.00000000000E+00  0.00000000000E+00  0.99999998245E-14  0.12500000000E+03  0.12500000000E+03 0.  0.
        -13    1    1    0    0    0 -0.52970628173E+01  0.13778845605E+02 -0.44065835040E+02  0.46472835534E+02  0.10566000000E+00 0. -1.
         13    1    1    0    0    0 -0.13145367393E+01  0.47200314590E+01 -0.15263001200E+02  0.16030504468E+02  0.10566000000E+00 0.  1.
         22    1    1    0    0    0  0.66115995566E+01 -0.18498877064E+02  0.59328836241E+02  0.62496659999E+02  0.00000000000E+00 0. -1.
</event>
<event>
 4    1  0.9856522E-003  0.9118800E+02  0.7818608E-02  0.1130116E+00
         25   -1    0    0    0    0  0.00000000000E+00  0.00000000000E+00  0.99999998245E-14  0.12500000000E+03  0.12500000000E+03 0.  0.
        -13    1    1    0    0    0  0.32640477810E+01  0.55005256492E+01  0.16328796427E+02  0.17537119123E+02  0.10566000000E+00 0. -1.
         13    1    1    0    0    0  0.17639840194E+02 -0.36150765710E+02 -0.45160127999E+02  0.60477187008E+02  0.10566000000E+00 0.  1.
         22    1    1    0    0    0 -0.20903887975E+02  0.30650240060E+02  0.28831331572E+02  0.46985693870E+02  0.00000000000E+00 0.  1.
</event>
<event>
 4    1  0.9856522E-003  0.9118800E+02  0.7818608E-02  0.1130116E+00
         25   -1    0    0    0    0  0.00000000000E+00  0.00000000000E+00  0.99999998245E-14  0.12500000000E+03  0.12500000000E+03 0.  0.
        -13    1    1    0    0    0  0.63979989561E-01 -0.17783558746E+01 -0.89324599522E+00  0.19939146169E+01  0.10566000000E+00 0. -1.
         13    1    1    0    0    0  0.21237773339E+02 -0.52969202075E+02 -0.20274947798E+02  0.60562893402E+02  0.10566000000E+00 0.  1.
         22    1    1    0    0    0 -0.21301753329E+02  0.54747557950E+02  0.21168193794E+02  0.62443191982E+02  0.00000000000E+00 0.  1.
</event>
<event>
 4    1  0.9856522E-003  0.9118800E+02  0.7818608E-02  0.1130116E+00
         25   -1    0    0    0    0  0.00000000000E+00  0.00000000000E+00  0.99999998245E-14  0.12500000000E+03  0.12500000000E+03 0.  0.
        -13    1    1    0    0    0 -0.58773953770E+01 -0.23993722556E+02 -0.39960170205E+02  0.46979451523E+02  0.10566000000E+00 0.  1.
         13    1    1    0    0    0 -0.94482459644E+00 -0.83536627707E+01 -0.13063559757E+02  0.15535254512E+02  0.10566000000E+00 0. -1.
         22    1    1    0    0    0  0.68222199735E+01  0.32347385326E+02  0.53023729962E+02  0.62485293965E+02  0.00000000000E+00 0. -1.
</event>
<event>
 4    1  0.9856522E-003  0.9118800E+02  0.7818608E-02  0.1130116E+00
         25   -1    0    0    0    0  0.00000000000E+00  0.00000000000E+00  0.99999998245E-14  0.12500000000E+03  0.12500000000E+03 0.  0.
        -13    1    1    0    0    0 -0.13206352429E-01 -0.79143522809E+01  0.15063945352E+02  0.17016778779E+02  0.10566000000E+00 0. -1.
         13    1    1    0    0    0  0.74545820666E+00 -0.18599469960E+02  0.41514106383E+02  0.45496463418E+02  0.10566000000E+00 0.  1.
         22    1    1    0    0    0 -0.73225185423E+00  0.26513822241E+02 -0.56578051735E+02  0.62486757803E+02  0.00000000000E+00 0.  1.
</event>
<event>
 4    1  0.9856522E-003  0.9118800E+02  0.7818608E-02  0.1130116E+00
         25   -1    0    0    0    0  0.00000000000E+00  0.00000000000E+00  0.99999998245E-14  0.12500000000E+03  0.12500000000E+03 0.  0.
        -13    1    1    0    0    0  0.35226325706E+02  0.79332725447E+01  0.38025420466E+02  0.52438293276E+02  0.10566000000E+00 0. -1.
         13    1    1    0    0    0  0.63931081230E+01  0.17525790436E+01  0.75763763498E+01  0.10067572071E+02  0.10566000000E+00 0.  1.
         22    1    1    0    0    0 -0.41619433829E+02 -0.96858515883E+01 -0.45601796815E+02  0.62494134653E+02  0.00000000000E+00 0. -1.
</event>
<event>
 4    1  0.9856522E-003  0.9118800E+02  0.7818608E-02  0.1130116E+00
         25   -1    0    0    0    0  0.00000000000E+00  0.00000000000E+00  0.99999998245E-14  0.12500000000E+03  0.12500000000E+03 0.  0.
        -13    1    1    0    0    0 -0.56440373710E-01  0.15068686367E+01  0.12643897233E+01  0.19707064754E+01  0.10566000000E+00 0.  1.
         13    1    1    0    0    0  0.35490258641E+02  0.14830591495E+02 -0.48410434382E+02  0.61831110483E+02  0.10566000000E+00 0. -1.
         22    1    1    0    0    0 -0.35433818268E+02 -0.16337460132E+02  0.47146044659E+02  0.61198183041E+02  0.00000000000E+00 0. -1.
</event>
<event>
 4    1  0.9856522E-003  0.9118800E+02  0.7818608E-02  0.1130116E+00
         25   -1    0    0    0    0  0.00000000000E+00  0.00000000000E+00  0.99999998245E-14  0.12500000000E+03  0.12500000000E+03 0.  0.
        -13    1    1    0    0    0  0.38184313824E+01 -0.28735742232E+02  0.54384520816E+02  0.61628001495E+02  0.10566000000E+00 0.  1.
         13    1    1    0    0    0 -0.97044759866E+00 -0.16479830063E+01 -0.45399880910E+01  0.49275016421E+01  0.10566000000E+00 0. -1.
         22    1    1    0    0    0 -0.28479837838E+01  0.30383725238E+02 -0.49844532725E+02  0.58444496863E+02  0.00000000000E+00 0.  1.
</event>
<event>
 4    1  0.9856522E-003  0.9118800E+02  0.7818608E-02  0.1130116E+00
         25   -1    0    0    0    0  0.00000000000E+00  0.00000000000E+00  0.99999998245E-14  0.12500000000E+03  0.12500000000E+03 0.  0.
        -13    1    1    0    0    0  0.39831492991E+02 -0.33140372323E+02 -0.11469393416E+02  0.53069673647E+02  0.10566000000E+00 0. -1.
         13    1    1    0    0    0  0.84033073334E+01 -0.45221737797E+01 -0.56982454215E+00  0.95604128508E+01  0.10566000000E+00 0.  1.
         22    1    1    0    0    0 -0.48234800324E+02  0.37662546103E+02  0.12039217958E+02  0.62369913503E+02  0.00000000000E+00 0. -1.
</event>
<event>
 4    1  0.9856522E-003  0.9118800E+02  0.7818608E-02  0.1130116E+00
         25   -1    0    0    0    0  0.00000000000E+00  0.00000000000E+00  0.99999998245E-14  0.12500000000E+03  0.12500000000E+03 0.  0.
        -13    1    1    0    0    0 -0.14645442988E+02  0.43877432038E+02 -0.19455122327E+02  0.50181978751E+02  0.10566000000E+00 0. -1.
         13    1    1    0    0    0 -0.48640759632E+01  0.10436993187E+02 -0.44577684082E+01  0.12347992751E+02  0.10566000000E+00 0.  1.
         22    1    1    0    0    0  0.19509518951E+02 -0.54314425225E+02  0.23912890735E+02  0.62470028498E+02  0.00000000000E+00 0. -1.
</event>
<event>
 4    1  0.9856522E-003  0.9118800E+02  0.7818608E-02  0.1130116E+00
         25   -1    0    0    0    0  0.00000000000E+00  0.00000000000E+00  0.99999998245E-14  0.12500000000E+03  0.12500000000E+03 0.  0.
        -13    1    1    0    0    0  0.53578568602E+00 -0.98323028990E+00 -0.11396195515E+00  0.11304686936E+01  0.10566000000E+00 0. -1.
         13    1    1    0    0    0  0.34621098181E+02 -0.45763534961E+02 -0.21831416026E+02  0.61396607896E+02  0.10566000000E+00 0.  1.
         22    1    1    0    0    0 -0.35156883867E+02  0.46746765251E+02  0.21945377981E+02  0.62472923410E+02  0.00000000000E+00 0.  1.
</event>
<event>
 4    1  0.9856522E-003  0.9118800E+02  0.7818608E-02  0.1130116E+00
         25   -1    0    0    0    0  0.00000000000E+00  0.00000000000E+00  0.99999998245E-14  0.12500000000E+03  0.12500000000E+03 0.  0.
        -13    1    1    0    0    0  0.19668378039E+02 -0.63962708920E+01  0.27592204756E+01  0.20865805465E+02  0.10566000000E+00 0. -1.
         13    1    1    0    0    0  0.39128025283E+02 -0.13649727343E+02  0.40708185451E+01  0.41640126642E+02  0.10566000000E+00 0.  1.
         22    1    1    0    0    0 -0.58796403322E+02  0.20045998235E+02 -0.68300390207E+01  0.62494067894E+02  0.00000000000E+00 0. -1.
</event>
<event>
 4    1  0.9856522E-003  0.9118800E+02  0.7818608E-02  0.1130116E+00
         25   -1    0    0    0    0  0.00000000000E+00  0.00000000000E+00  0.99999998245E-14  0.12500000000E+03  0.12500000000E+03 0.  0.
        -13    1    1    0    0    0 -0.70003535323E+01  0.13121209991E+01 -0.83976372265E+01  0.11011724938E+02  0.10566000000E+00 0.  1.
         13    1    1    0    0    0  0.29552843375E+02 -0.40699565693E+02  0.35095444791E+02  0.61331285722E+02  0.10566000000E+00 0. -1.
         22    1    1    0    0    0 -0.22552489843E+02  0.39387444694E+02 -0.26697807565E+02  0.52656989340E+02  0.00000000000E+00 0. -1.
</event>
<event>
 4    1  0.9856522E-003  0.9118800E+02  0.7818608E-02  0.1130116E+00
         25   -1    0    0    0    0  0.00000000000E+00  0.00000000000E+00  0.99999998245E-14  0.12500000000E+03  0.12500000000E+03 0.  0.
        -13    1    1    0    0    0 -0.19585362973E+02 -0.10086027473E+02 -0.22694713386E+02  0.31628714370E+02  0.10566000000E+00 0.  1.
         13    1    1    0    0    0  0.78331199701E+01  0.15564383620E+02 -0.32390847276E+02  0.36780238678E+02  0.10566000000E+00 0. -1.
         22    1    1    0    0    0  0.11752243003E+02 -0.54783561467E+01  0.55085560662E+02  0.56591046952E+02  0.00000000000E+00 0. -1.
</event>
<event>
 4    1  0.9856522E-003  0.9118800E+02  0.7818608E-02  0.1130116E+00
         25   -1    0    0    0    0  0.00000000000E+00  0.00000000000E+00  0.99999998245E-14  0.12500000000E+03  0.12500000000E+03 0.  0.
        -13    1    1    0    0    0  0.92887535571E+01 -0.23266193657E+02  0.50127175604E+01  0.25548683162E+02  0.10566000000E+00 0. -1.
         13    1    1    0    0    0  0.69616660302E+01 -0.36499096202E+02  0.14102509138E+01  0.37183985654E+02  0.10566000000E+00 0.  1.
         22    1    1    0    0    0 -0.16250419587E+02  0.59765289859E+02 -0.64229684742E+01  0.62267331184E+02  0.00000000000E+00 0.  1.
</event>
<event>
 4    1  0.9856522E-003  0.9118800E+02  0.7818608E-02  0.1130116E+00
         25   -1    0    0    0    0  0.00000000000E+00  0.00000000000E+00  0.99999998245E-14  0.12500000000E+03  0.12500000000E+03 0.  0.
        -13    1    1    0    0    0  0.28802153851E+01 -0.62427555397E+01 -0.41621269212E+02  0.42185410419E+02  0.10566000000E+00 0. -1.
         13    1    1    0    0    0  0.11603572860E+01 -0.30829417293E+01 -0.20046147252E+02  0.20315268701E+02  0.10566000000E+00 0. -1.
         22    1    1    0    0    0 -0.40405726711E+01  0.93256972690E+01  0.61667416464E+02  0.62499320879E+02  0.00000000000E+00 0. -1.
</event>
<event>
 4    1  0.9856522E-003  0.9118800E+02  0.7818608E-02  0.1130116E+00
         25   -1    0    0    0    0  0.00000000000E+00  0.00000000000E+00  0.99999998245E-14  0.12500000000E+03  0.12500000000E+03 0.  0.
        -13    1    1    0    0    0 -0.94039755387E+01 -0.11385525107E+02  0.46074993592E+02  0.48383686677E+02  0.10566000000E+00 0.  1.
         13    1    1    0    0    0 -0.27619443474E+01 -0.26989896644E+01  0.13583498622E+02  0.14122162746E+02  0.10566000000E+00 0. -1.
         22    1    1    0    0    0  0.12165919886E+02  0.14084514772E+02 -0.59658492214E+02  0.62494150577E+02  0.00000000000E+00 0.  1.
</event>
<event>
 4    1  0.9856522E-003  0.9118800E+02  0.7818608E-02  0.1130116E+00
         25   -1    0    0    0    0  0.00000000000E+00  0.00000000000E+00  0.99999998245E-14  0.12500000000E+03  0.12500000000E+03 0.  0.
        -13    1    1    0    0    0  0.62694680819E+01  0.37064524474E+01  0.53534532921E+01  0.90396153658E+01  0.10566000000E+00 0. -1.
         13    1    1    0    0    0  0.36908250318E+02  0.18177714549E+02  0.34159311159E+02  0.53474460732E+02  0.10566000000E+00 0.  1.
         22    1    1    0    0    0 -0.43177718400E+02 -0.21884166996E+02 -0.39512764451E+02  0.62485923902E+02  0.00000000000E+00 0.  1.
</event>
<event>
 4    1  0.9856522E-003  0.9118800E+02  0.7818608E-02  0.1130116E+00
         25   -1    0    0    0    0  0.00000000000E+00  0.00000000000E+00  0.99999998245E-14  0.12500000000E+03  0.12500000000E+03 0.  0.
        -13    1    1    0    0    0 -0.27067500887E+02 -0.13971778390E+02 -0.13998857526E+02  0.33523713573E+02  0.10566000000E+00 0. -1.
         13    1    1    0    0    0 -0.24822879913E+02 -0.13057352412E+02 -0.76813328899E+01  0.29080644047E+02  0.10566000000E+00 0.  1.
         22    1    1    0    0    0  0.51890380801E+02  0.27029130802E+02  0.21680190415E+02  0.62395642380E+02  0.00000000000E+00 0.  1.
</event>
<event>
 4    1  0.9856522E-003  0.9118800E+02  0.7818608E-02  0.1130116E+00
         25   -1    0    0    0    0  0.00000000000E+00  0.00000000000E+00  0.99999998245E-14  0.12500000000E+03  0.12500000000E+03 0.  0.
        -13    1    1    0    0    0  0.96424829367E+01 -0.17331619350E+02  0.27938751023E+01  0.20029463512E+02  0.10566000000E+00 0. -1.
         13    1    1    0    0    0  0.20417093976E+02 -0.36749361848E+02  0.60316986174E+01  0.42470764944E+02  0.10566000000E+00 0. -1.
         22    1    1    0    0    0 -0.30059576913E+02  0.54080981198E+02 -0.88255737197E+01  0.62499771544E+02  0.00000000000E+00 0. -1.
</event>
<event>
 4    1  0.9856522E-003  0.9118800E+02  0.7818608E-02  0.1130116E+00
         25   -1    0    0    0    0  0.00000000000E+00  0.00000000000E+00  0.99999998245E-14  0.12500000000E+03  0.12500000000E+03 0.  0.
        -13    1    1    0    0    0  0.23424174493E+02  0.98677590403E+01  0.30858379205E+02  0.39978936334E+02  0.10566000000E+00 0. -1.
         13    1    1    0    0    0  0.89847641961E+01 -0.53336217529E+01  0.21140459071E+02  0.23581850700E+02  0.10566000000E+00 0.  1.
         22    1    1    0    0    0 -0.32408938689E+02 -0.45341372874E+01 -0.51998838276E+02  0.61439212967E+02  0.00000000000E+00 0. -1.
</event>
<event>
 4    1  0.9856522E-003  0.9118800E+02  0.7818608E-02  0.1130116E+00
         25   -1    0    0    0    0  0.00000000000E+00  0.00000000000E+00  0.99999998245E-14  0.12500000000E+03  0.12500000000E+03 0.  0.
        -13    1    1    0    0    0  0.20025852307E+02 -0.30310984913E+02  0.30753211880E+02  0.47597917727E+02  0.10566000000E+00 0.  1.
         13    1    1    0    0    0  0.92010759142E+01 -0.12790743108E+02  0.19979667763E+01  0.15882882059E+02  0.10566000000E+00 0. -1.
         22    1    1    0    0    0 -0.29226928221E+02  0.43101728020E+02 -0.32751178656E+02  0.61519200214E+02  0.00000000000E+00 0. -1.
</event>
<event>
 4    1  0.9856522E-003  0.9118800E+02  0.7818608E-02  0.1130116E+00
         25   -1    0    0    0    0  0.00000000000E+00  0.00000000000E+00  0.99999998245E-14  0.12500000000E+03  0.12500000000E+03 0.  0.
        -13    1    1    0    0    0 -0.13824266454E+02 -0.37059030348E+02 -0.43262141713E+02  0.58618308940E+02  0.10566000000E+00 0. -1.
         13    1    1    0    0    0 -0.86522493341E+00 -0.26055189819E+01 -0.27465391547E+01  0.38848403718E+01  0.10566000000E+00 0. -1.
         22    1    1    0    0    0  0.14689491387E+02  0.39664549330E+02  0.46008680868E+02  0.62496850688E+02  0.00000000000E+00 0. -1.
</event>
<event>
 4    1  0.9856522E-003  0.9118800E+02  0.7818608E-02  0.1130116E+00
         25   -1    0    0    0    0  0.00000000000E+00  0.00000000000E+00  0.99999998245E-14  0.12500000000E+03  0.12500000000E+03 0.  0.
        -13    1    1    0    0    0 -0.31322630289E+02 -0.15628920860E+02 -0.75456792799E+00  0.35013581254E+02  0.10566000000E+00 0.  1.
         13    1    1    0    0    0 -0.24517917511E+02 -0.12396415706E+02 -0.85299533910E+00  0.27487054526E+02  0.10566000000E+00 0. -1.
         22    1    1    0    0    0  0.55840547800E+02  0.28025336566E+02  0.16075632671E+01  0.62499364220E+02  0.00000000000E+00 0.  1.
</event>
<event>
 4    1  0.9856522E-003  0.9118800E+02  0.7818608E-02  0.1130116E+00
         25   -1    0    0    0    0  0.00000000000E+00  0.00000000000E+00  0.99999998245E-14  0.12500000000E+03  0.12500000000E+03 0.  0.
        -13    1    1    0    0    0  0.12362301417E+02 -0.27808990481E+02  0.27174556077E+02  0.40799927818E+02  0.10566000000E+00 0. -1.
         13    1    1    0    0    0  0.95343128372E+01 -0.13739909539E+02  0.13946634490E+02  0.21776317711E+02  0.10566000000E+00 0.  1.
         22    1    1    0    0    0 -0.21896614254E+02  0.41548900020E+02 -0.41121190567E+02  0.62423754471E+02  0.00000000000E+00 0. -1.
</event>
<event>
 4    1  0.9856522E-003  0.9118800E+02  0.7818608E-02  0.1130116E+00
         25   -1    0    0    0    0  0.00000000000E+00  0.00000000000E+00  0.99999998245E-14  0.12500000000E+03  0.12500000000E+03 0.  0.
        -13    1    1    0    0    0  0.17336725763E+02 -0.13985985553E+02  0.53610196345E+01  0.22911166439E+02  0.10566000000E+00 0.  1.
         13    1    1    0    0    0  0.29639660115E+02 -0.24710125311E+02  0.88478386969E+01  0.39590341730E+02  0.10566000000E+00 0. -1.
         22    1    1    0    0    0 -0.46976385877E+02  0.38696110864E+02 -0.14208858331E+02  0.62498491831E+02  0.00000000000E+00 0.  1.
</event>
<event>
 4    1  0.9856522E-003  0.9118800E+02  0.7818608E-02  0.1130116E+00
         25   -1    0    0    0    0  0.00000000000E+00  0.00000000000E+00  0.99999998245E-14  0.12500000000E+03  0.12500000000E+03 0.  0.
        -13    1    1    0    0    0  0.21164221586E+02 -0.16237539142E+02 -0.55010537406E+01  0.27237009913E+02  0.10566000000E+00 0.  1.
         13    1    1    0    0    0  0.28578148522E+02 -0.19828193000E+02 -0.58789403164E+01  0.35276634106E+02  0.10566000000E+00 0. -1.
         22    1    1    0    0    0 -0.49742370108E+02  0.36065732143E+02  0.11379994057E+02  0.62486355980E+02  0.00000000000E+00 0. -1.
</event>
<event>
 4    1  0.9856522E-003  0.9118800E+02  0.7818608E-02  0.1130116E+00
         25   -1    0    0    0    0  0.00000000000E+00  0.00000000000E+00  0.99999998245E-14  0.12500000000E+03  0.12500000000E+03 0.  0.
        -13    1    1    0    0    0  0.18458274989E+02 -0.30735744349E+01 -0.17485345588E+01  0.18794236152E+02  0.10566000000E+00 0. -1.
         13    1    1    0    0    0  0.43402743665E+02 -0.54466587432E+01  0.11173575594E+01  0.43757558216E+02  0.10566000000E+00 0.  1.
         22    1    1    0    0    0 -0.61861018654E+02  0.85202331781E+01  0.63117699940E+00  0.62448205632E+02  0.00000000000E+00 0.  1.
</event>
<event>
 4    1  0.9856522E-003  0.9118800E+02  0.7818608E-02  0.1130116E+00
         25   -1    0    0    0    0  0.00000000000E+00  0.00000000000E+00  0.99999998245E-14  0.12500000000E+03  0.12500000000E+03 0.  0.
        -13    1    1    0    0    0  0.40846301429E+01  0.75180240228E+01 -0.19312577828E+02  0.21123250578E+02  0.10566000000E+00 0. -1.
         13    1    1    0    0    0  0.96338177043E+01  0.12298663324E+02 -0.38333573681E+02  0.41394946531E+02  0.10566000000E+00 0.  1.
         22    1    1    0    0    0 -0.13718447847E+02 -0.19816687347E+02  0.57646151508E+02  0.62481802891E+02  0.00000000000E+00 0.  1.
</event>
<event>
 4    1  0.9856522E-003  0.9118800E+02  0.7818608E-02  0.1130116E+00
         25   -1    0    0    0    0  0.00000000000E+00  0.00000000000E+00  0.99999998245E-14  0.12500000000E+03  0.12500000000E+03 0.  0.
        -13    1    1    0    0    0 -0.46728570771E+01 -0.16687920522E+02  0.70475178008E+01  0.18708312479E+02  0.10566000000E+00 0. -1.
         13    1    1    0    0    0 -0.10500912985E+02 -0.39047917654E+02  0.16815295698E+02  0.43792400940E+02  0.10566000000E+00 0. -1.
         22    1    1    0    0    0  0.15173770062E+02  0.55735838176E+02 -0.23862813499E+02  0.62499286581E+02  0.00000000000E+00 0. -1.
</event>
<event>
 4    1  0.9856522E-003  0.9118800E+02  0.7818608E-02  0.1130116E+00
         25   -1    0    0    0    0  0.00000000000E+00  0.00000000000E+00  0.99999998245E-14  0.12500000000E+03  0.12500000000E+03 0.  0.
        -13    1    1    0    0    0  0.32049335996E+02 -0.20807933314E+02 -0.16838589502E+02  0.41757386017E+02  0.10566000000E+00 0. -1.
         13    1    1    0    0    0  0.18218142330E+02  0.74448979505E+01 -0.12703950505E+02  0.23424959721E+02  0.10566000000E+00 0.  1.
         22    1    1    0    0    0 -0.50267478326E+02  0.13363035363E+02  0.29542540007E+02  0.59817654262E+02  0.00000000000E+00 0. -1.
</event>
<event>
 4    1  0.9856522E-003  0.9118800E+02  0.7818608E-02  0.1130116E+00
         25   -1    0    0    0    0  0.00000000000E+00  0.00000000000E+00  0.99999998245E-14  0.12500000000E+03  0.12500000000E+03 0.  0.
        -13    1    1    0    0    0 -0.40378024237E+02 -0.29791109059E+02 -0.33352142373E+02  0.60251735122E+02  0.10566000000E+00 0. -1.
         13    1    1    0    0    0  0.24450399404E+01 -0.37941110223E+01  0.48112370930E+01  0.65979288538E+01  0.10566000000E+00 0.  1.
         22    1    1    0    0    0  0.37932984297E+02  0.33585220081E+02  0.28540905280E+02  0.58150336025E+02  0.00000000000E+00 0. -1.
</event>
<event>
 4    1  0.9856522E-003  0.9118800E+02  0.7818608E-02  0.1130116E+00
         25   -1    0    0    0    0  0.00000000000E+00  0.00000000000E+00  0.99999998245E-14  0.12500000000E+03  0.12500000000E+03 0.  0.
        -13    1    1    0    0    0  0.34714052543E+02  0.37893474916E+02 -0.34665677321E+02  0.61989525191E+02  0.10566000000E+00 0.  1.
         13    1    1    0    0    0 -0.11076506983E+01  0.79761001772E+00  0.87165000990E+00  0.16229632113E+01  0.10566000000E+00 0. -1.
         22    1    1    0    0    0 -0.33606401845E+02 -0.38691084934E+02  0.33794027311E+02  0.61387511598E+02  0.00000000000E+00 0.  1.
</event>
<event>
 4    1  0.9856522E-003  0.9118800E+02  0.7818608E-02  0.1130116E+00
         25   -1    0    0    0    0  0.00000000000E+00  0.00000000000E+00  0.99999998245E-14  0.12500000000E+03  0.12500000000E+03 0.  0.
        -13    1    1    0    0    0  0.21751373963E+01  0.20998500359E+02 -0.12459272311E+01  0.21147854234E+02  0.10566000000E+00 0.  1.
         13    1    1    0    0    0  0.25573310663E+01  0.41265484118E+02 -0.11776878466E+01  0.41361555028E+02  0.10566000000E+00 0. -1.
         22    1    1    0    0    0 -0.47324684626E+01 -0.62263984477E+02  0.24236150777E+01  0.62490590737E+02  0.00000000000E+00 0. -1.
</event>
<event>
 4    1  0.9856522E-003  0.9118800E+02  0.7818608E-02  0.1130116E+00
         25   -1    0    0    0    0  0.00000000000E+00  0.00000000000E+00  0.99999998245E-14  0.12500000000E+03  0.12500000000E+03 0.  0.
        -13    1    1    0    0    0 -0.21380972168E+02 -0.19215180265E+02  0.33332292765E+02  0.44016156448E+02  0.10566000000E+00 0.  1.
         13    1    1    0    0    0 -0.90925654078E+01 -0.80133663600E+01  0.13955884856E+02  0.18484227662E+02  0.10566000000E+00 0.  1.
         22    1    1    0    0    0  0.30473537576E+02  0.27228546625E+02 -0.47288177621E+02  0.62499615890E+02  0.00000000000E+00 0.  1.
</event>
<event>
 4    1  0.9856522E-003  0.9118800E+02  0.7818608E-02  0.1130116E+00
         25   -1    0    0    0    0  0.00000000000E+00  0.00000000000E+00  0.99999998245E-14  0.12500000000E+03  0.12500000000E+03 0.  0.
        -13    1    1    0    0    0  0.65643462637E+01  0.51089038724E+02  0.18585453463E+02  0.54759572351E+02  0.10566000000E+00 0.  1.
         13    1    1    0    0    0  0.17992706833E+01  0.71992403502E+01  0.22862824449E+01  0.77656093170E+01  0.10566000000E+00 0. -1.
         22    1    1    0    0    0 -0.83636169470E+01 -0.58288279074E+02 -0.20871735908E+02  0.62474818332E+02  0.00000000000E+00 0.  1.
</event>
<event>
 4    1  0.9856522E-003  0.9118800E+02  0.7818608E-02  0.1130116E+00
         25   -1    0    0    0    0  0.00000000000E+00  0.00000000000E+00  0.99999998245E-14  0.12500000000E+03  0.12500000000E+03 0.  0.
        -13    1    1    0    0    0  0.20042964505E+01  0.25574712175E+01 -0.34458665104E+01  0.47374068153E+01  0.10566000000E+00 0. -1.
         13    1    1    0    0    0 -0.22174042520E+01  0.92699470303E+01 -0.57446445985E+02  0.58231899505E+02  0.10566000000E+00 0.  1.
         22    1    1    0    0    0  0.21310780154E+00 -0.11827418248E+02  0.60892312496E+02  0.62030693680E+02  0.00000000000E+00 0.  1.
</event>
<event>
 4    1  0.9856522E-003  0.9118800E+02  0.7818608E-02  0.1130116E+00
         25   -1    0    0    0    0  0.00000000000E+00  0.00000000000E+00  0.99999998245E-14  0.12500000000E+03  0.12500000000E+03 0.  0.
        -13    1    1    0    0    0 -0.45696716680E+02 -0.83132313610E+01 -0.15433666495E+02  0.48943936872E+02  0.10566000000E+00 0.  1.
         13    1    1    0    0    0 -0.64241957656E+01  0.28228721921E+01 -0.14206849853E+02  0.15845650679E+02  0.10566000000E+00 0. -1.
         22    1    1    0    0    0  0.52120912446E+02  0.54903591690E+01  0.29640516348E+02  0.60210412450E+02  0.00000000000E+00 0.  1.
</event>
<event>
 4    1  0.9856522E-003  0.9118800E+02  0.7818608E-02  0.1130116E+00
         25   -1    0    0    0    0  0.00000000000E+00  0.00000000000E+00  0.99999998245E-14  0.12500000000E+03  0.12500000000E+03 0.  0.
        -13    1    1    0    0    0  0.63005943263E+00  0.11453683927E+00 -0.22564380474E+01  0.23479289328E+01  0.10566000000E+00 0. -1.
         13    1    1    0    0    0  0.54324217644E+02  0.22999517338E+02 -0.14453361105E+02  0.60737214553E+02  0.10566000000E+00 0.  1.
         22    1    1    0    0    0 -0.54954277076E+02 -0.23114054177E+02  0.16709799153E+02  0.61914856514E+02  0.00000000000E+00 0.  1.
</event>
<event>
 4    1  0.9856522E-003  0.9118800E+02  0.7818608E-02  0.1130116E+00
         25   -1    0    0    0    0  0.00000000000E+00  0.00000000000E+00  0.99999998245E-14  0.12500000000E+03  0.12500000000E+03 0.  0.
        -13    1    1    0    0    0  0.27492144665E+01 -0.86925518628E+01 -0.64916439209E+01  0.11192463665E+02  0.10566000000E+00 0. -1.
         13    1    1    0    0    0  0.13396059149E+02 -0.39492483002E+02 -0.29890498329E+02  0.51308514584E+02  0.10566000000E+00 0.  1.
         22    1    1    0    0    0 -0.16145273616E+02  0.48185034865E+02  0.36382142250E+02  0.62499021751E+02  0.00000000000E+00 0.  1.
</event>
<event>
 4    1  0.9856522E-003  0.9118800E+02  0.7818608E-02  0.1130116E+00
         25   -1    0    0    0    0  0.00000000000E+00  0.00000000000E+00  0.99999998245E-14  0.12500000000E+03  0.12500000000E+03 0.  0.
        -13    1    1    0    0    0 -0.41500272242E+02 -0.22814049171E+02  0.78529554644E+01  0.48004515510E+02  0.10566000000E+00 0. -1.
         13    1    1    0    0    0 -0.12769461272E+02 -0.66216261202E+01  0.18356229993E+01  0.14501232689E+02  0.10566000000E+00 0.  1.
         22    1    1    0    0    0  0.54269733515E+02  0.29435675291E+02 -0.96885784637E+01  0.62494251802E+02  0.00000000000E+00 0. -1.
</event>
<event>
 4    1  0.9856522E-003  0.9118800E+02  0.7818608E-02  0.1130116E+00
         25   -1    0    0    0    0  0.00000000000E+00  0.00000000000E+00  0.99999998245E-14  0.12500000000E+03  0.12500000000E+03 0.  0.
        -13    1    1    0    0    0  0.76193563525E+01 -0.20176089278E+02  0.26719960043E+00  0.21568767453E+02  0.10566000000E+00 0.  1.
         13    1    1    0    0    0  0.14398376288E+02 -0.38303714922E+02  0.95856602570E+00  0.40931868140E+02  0.10566000000E+00 0.  1.
         22    1    1    0    0    0 -0.22017732640E+02  0.58479804200E+02 -0.12257656261E+01  0.62499364407E+02  0.00000000000E+00 0.  1.
</event>
<event>
 4    1  0.9856522E-003  0.9118800E+02  0.7818608E-02  0.1130116E+00
         25   -1    0    0    0    0  0.00000000000E+00  0.00000000000E+00  0.99999998245E-14  0.12500000000E+03  0.12500000000E+03 0.  0.
        -13    1    1    0    0    0  0.23184849443E+02  0.29180214969E+01  0.53589676267E+02  0.58462951170E+02  0.10566000000E+00 0.  1.
         13    1    1    0    0    0  0.11537696961E+01 -0.96400640840E-01  0.38863197812E+01  0.40564914733E+01  0.10566000000E+00 0. -1.
         22    1    1    0    0    0 -0.24338619139E+02 -0.28216208560E+01 -0.57475996048E+02  0.62480557356E+02  0.00000000000E+00 0.  1.
</event>
<event>
 4    1  0.9856522E-003  0.9118800E+02  0.7818608E-02  0.1130116E+00
         25   -1    0    0    0    0  0.00000000000E+00  0.00000000000E+00  0.99999998245E-14  0.12500000000E+03  0.12500000000E+03 0.  0.
        -13    1    1    0    0    0 -0.43304980556E+02  0.34483879831E+02  0.89695111754E+01  0.56079609520E+02  0.10566000000E+00 0.  1.
         13    1    1    0    0    0 -0.15948768035E+00  0.41449414383E+01  0.74235757933E+01  0.85045057141E+01  0.10566000000E+00 0. -1.
         22    1    1    0    0    0  0.43464468236E+02 -0.38628821269E+02 -0.16393086969E+02  0.60415884766E+02  0.00000000000E+00 0.  1.
</event>
<event>
 4    1  0.9856522E-003  0.9118800E+02  0.7818608E-02  0.1130116E+00
         25   -1    0    0    0    0  0.00000000000E+00  0.00000000000E+00  0.99999998245E-14  0.12500000000E+03  0.12500000000E+03 0.  0.
        -13    1    1    0    0    0  0.22349296594E+02 -0.24367943854E+01 -0.55626514830E+01  0.23159949928E+02  0.10566000000E+00 0.  1.
         13    1    1    0    0    0  0.15774381702E+02 -0.13886110406E+02 -0.36913116906E+02  0.42476399848E+02  0.10566000000E+00 0. -1.
         22    1    1    0    0    0 -0.38123678296E+02  0.16322904791E+02  0.42475768389E+02  0.59363650224E+02  0.00000000000E+00 0. -1.
</event>
<event>
 4    1  0.9856522E-003  0.9118800E+02  0.7818608E-02  0.1130116E+00
         25   -1    0    0    0    0  0.00000000000E+00  0.00000000000E+00  0.99999998245E-14  0.12500000000E+03  0.12500000000E+03 0.  0.
        -13    1    1    0    0    0 -0.26654574373E+02 -0.71971824217E+00  0.33026724363E+01  0.26868255221E+02  0.10566000000E+00 0. -1.
         13    1    1    0    0    0 -0.35350027912E+02 -0.91288201599E+00  0.43778536891E+01  0.35631932222E+02  0.10566000000E+00 0. -1.
         22    1    1    0    0    0  0.62004602285E+02  0.16326002582E+01 -0.76805261255E+01  0.62499812557E+02  0.00000000000E+00 0. -1.
</event>
<event>
 4    1  0.9856522E-003  0.9118800E+02  0.7818608E-02  0.1130116E+00
         25   -1    0    0    0    0  0.00000000000E+00  0.00000000000E+00  0.99999998245E-14  0.12500000000E+03  0.12500000000E+03 0.  0.
        -13    1    1    0    0    0 -0.45968685509E+01 -0.15963565700E+02 -0.10739256291E+02  0.19781542408E+02  0.10566000000E+00 0.  1.
         13    1    1    0    0    0 -0.12458930283E+02 -0.33561555701E+02 -0.23332800143E+02  0.42732115457E+02  0.10566000000E+00 0. -1.
         22    1    1    0    0    0  0.17055798834E+02  0.49525121401E+02  0.34072056434E+02  0.62486342134E+02  0.00000000000E+00 0. -1.
</event>
<event>
 4    1  0.9856522E-003  0.9118800E+02  0.7818608E-02  0.1130116E+00
         25   -1    0    0    0    0  0.00000000000E+00  0.00000000000E+00  0.99999998245E-14  0.12500000000E+03  0.12500000000E+03 0.  0.
        -13    1    1    0    0    0 -0.30498133122E+02 -0.27001529389E+02 -0.26875161225E+02  0.48800657456E+02  0.10566000000E+00 0. -1.
         13    1    1    0    0    0 -0.84608622269E+01 -0.74424595104E+01 -0.77927517854E+01  0.13700895504E+02  0.10566000000E+00 0.  1.
         22    1    1    0    0    0  0.38958995349E+02  0.34443988899E+02  0.34667913011E+02  0.62498447040E+02  0.00000000000E+00 0. -1.
</event>
<event>
 4    1  0.9856522E-003  0.9118800E+02  0.7818608E-02  0.1130116E+00
         25   -1    0    0    0    0  0.00000000000E+00  0.00000000000E+00  0.99999998245E-14  0.12500000000E+03  0.12500000000E+03 0.  0.
        -13    1    1    0    0    0  0.36687964922E+01 -0.14186787346E+00  0.45949812661E+00  0.37016883660E+01  0.10566000000E+00 0.  1.
         13    1    1    0    0    0  0.56796486445E+02  0.79304952325E+01  0.13143049650E+02  0.58834382340E+02  0.10566000000E+00 0. -1.
         22    1    1    0    0    0 -0.60465282938E+02 -0.77886273591E+01 -0.13602547777E+02  0.62463929294E+02  0.00000000000E+00 0. -1.
</event>
<event>
 4    1  0.9856522E-003  0.9118800E+02  0.7818608E-02  0.1130116E+00
         25   -1    0    0    0    0  0.00000000000E+00  0.00000000000E+00  0.99999998245E-14  0.12500000000E+03  0.12500000000E+03 0.  0.
        -13    1    1    0    0    0  0.82184542711E+01  0.11806668279E+02  0.20654718708E+02  0.25170796082E+02  0.10566000000E+00 0.  1.
         13    1    1    0    0    0  0.12072914305E+02  0.17370772946E+02  0.30756834510E+02  0.37329519763E+02  0.10566000000E+00 0.  1.
         22    1    1    0    0    0 -0.20291368576E+02 -0.29177441225E+02 -0.51411553219E+02  0.62499684155E+02  0.00000000000E+00 0.  1.
</event>
<event>
 4    1  0.9856522E-003  0.9118800E+02  0.7818608E-02  0.1130116E+00
         25   -1    0    0    0    0  0.00000000000E+00  0.00000000000E+00  0.99999998245E-14  0.12500000000E+03  0.12500000000E+03 0.  0.
        -13    1    1    0    0    0  0.79895671916E+01  0.17251022892E+02  0.28305926696E+01  0.19221196467E+02  0.10566000000E+00 0. -1.
         13    1    1    0    0    0  0.24769584863E+02  0.35346096414E+02  0.44403477009E+01  0.43389016095E+02  0.10566000000E+00 0.  1.
         22    1    1    0    0    0 -0.32759152054E+02 -0.52597119306E+02 -0.72709403705E+01  0.62389787437E+02  0.00000000000E+00 0.  1.
</event>
<event>
 4    1  0.9856522E-003  0.9118800E+02  0.7818608E-02  0.1130116E+00
         25   -1    0    0    0    0  0.00000000000E+00  0.00000000000E+00  0.99999998245E-14  0.12500000000E+03  0.12500000000E+03 0.  0.
        -13    1    1    0    0    0 -0.70736798852E+01 -0.22421927564E+02 -0.68961615840E+00  0.23521618084E+02  0.10566000000E+00 0.  1.
         13    1    1    0    0    0 -0.12870757679E+02 -0.36799950919E+02  0.27476384114E+00  0.38986913832E+02  0.10566000000E+00 0. -1.
         22    1    1    0    0    0  0.19944437565E+02  0.59221878484E+02  0.41485231726E+00  0.62491468084E+02  0.00000000000E+00 0. -1.
</event>
<event>
 4    1  0.9856522E-003  0.9118800E+02  0.7818608E-02  0.1130116E+00
         25   -1    0    0    0    0  0.00000000000E+00  0.00000000000E+00  0.99999998245E-14  0.12500000000E+03  0.12500000000E+03 0.  0.
        -13    1    1    0    0    0 -0.39602697055E+01 -0.24462008983E+01  0.37737553241E+01  0.59933319829E+01  0.10566000000E+00 0.  1.
         13    1    1    0    0    0 -0.12455182618E+02  0.18675034317E+02  0.53087600946E+02  0.57638468223E+02  0.10566000000E+00 0. -1.
         22    1    1    0    0    0  0.16415452323E+02 -0.16228833419E+02 -0.56861356270E+02  0.61368199794E+02  0.00000000000E+00 0.  1.
</event>
<event>
 4    1  0.9856522E-003  0.9118800E+02  0.7818608E-02  0.1130116E+00
         25   -1    0    0    0    0  0.00000000000E+00  0.00000000000E+00  0.99999998245E-14  0.12500000000E+03  0.12500000000E+03 0.  0.
        -13    1    1    0    0    0 -0.17924427472E+01  0.15296018200E+02 -0.32756648451E+02  0.36196549636E+02  0.10566000000E+00 0.  1.
         13    1    1    0    0    0 -0.14537289224E+01  0.11197630385E+02 -0.23756660994E+02  0.26303808843E+02  0.10566000000E+00 0.  1.
         22    1    1    0    0    0  0.32461716697E+01 -0.26493648584E+02  0.56513309445E+02  0.62499641521E+02  0.00000000000E+00 0.  1.
</event>
<event>
 4    1  0.9856522E-003  0.9118800E+02  0.7818608E-02  0.1130116E+00
         25   -1    0    0    0    0  0.00000000000E+00  0.00000000000E+00  0.99999998245E-14  0.12500000000E+03  0.12500000000E+03 0.  0.
        -13    1    1    0    0    0  0.38426293862E+00 -0.38062951660E+01  0.53252645206E+01  0.65578309788E+01  0.10566000000E+00 0.  1.
         13    1    1    0    0    0  0.16815623750E+02 -0.13755689633E+02  0.51844009775E+02  0.56212069104E+02  0.10566000000E+00 0. -1.
         22    1    1    0    0    0 -0.17199886688E+02  0.17561984799E+02 -0.57169274296E+02  0.62230099917E+02  0.00000000000E+00 0. -1.
</event>
<event>
 4    1  0.9856522E-003  0.9118800E+02  0.7818608E-02  0.1130116E+00
         25   -1    0    0    0    0  0.00000000000E+00  0.00000000000E+00  0.99999998245E-14  0.12500000000E+03  0.12500000000E+03 0.  0.
        -13    1    1    0    0    0 -0.11985105618E+02  0.52373099197E+01  0.86008164278E+01  0.15654308644E+02  0.10566000000E+00 0. -1.
         13    1    1    0    0    0 -0.37122127288E+02  0.12888367808E+02  0.25525320714E+02  0.46858462637E+02  0.10566000000E+00 0. -1.
         22    1    1    0    0    0  0.49107232906E+02 -0.18125677727E+02 -0.34126137142E+02  0.62487228719E+02  0.00000000000E+00 0. -1.
</event>
<event>
 4    1  0.9856522E-003  0.9118800E+02  0.7818608E-02  0.1130116E+00
         25   -1    0    0    0    0  0.00000000000E+00  0.00000000000E+00  0.99999998245E-14  0.12500000000E+03  0.12500000000E+03 0.  0.
        -13    1    1    0    0    0  0.21972618907E+00 -0.19116794258E+02 -0.15150855722E+02  0.24393845442E+02  0.10566000000E+00 0. -1.
         13    1    1    0    0    0  0.52410528049E+00 -0.30171162973E+02 -0.23271526231E+02  0.38107070980E+02  0.10566000000E+00 0. -1.
         22    1    1    0    0    0 -0.74383146956E+00  0.49287957231E+02  0.38422381953E+02  0.62499083579E+02  0.00000000000E+00 0. -1.
</event>
<event>
 4    1  0.9856522E-003  0.9118800E+02  0.7818608E-02  0.1130116E+00
         25   -1    0    0    0    0  0.00000000000E+00  0.00000000000E+00  0.99999998245E-14  0.12500000000E+03  0.12500000000E+03 0.  0.
        -13    1    1    0    0    0  0.29433746310E+02  0.21829120450E+02  0.30674486696E+02  0.47789028235E+02  0.10566000000E+00 0. -1.
         13    1    1    0    0    0  0.90838459010E+01  0.66020159732E+01  0.95033081463E+01  0.14711454755E+02  0.10566000000E+00 0. -1.
         22    1    1    0    0    0 -0.38517592211E+02 -0.28431136423E+02 -0.40177794842E+02  0.62499517010E+02  0.00000000000E+00 0. -1.
</event>
<event>
 4    1  0.9856522E-003  0.9118800E+02  0.7818608E-02  0.1130116E+00
         25   -1    0    0    0    0  0.00000000000E+00  0.00000000000E+00  0.99999998245E-14  0.12500000000E+03  0.12500000000E+03 0.  0.
        -13    1    1    0    0    0  0.14136179619E+02 -0.14513487983E+02 -0.84636957570E+00  0.20278077156E+02  0.10566000000E+00 0.  1.
         13    1    1    0    0    0  0.30624694297E+02 -0.28904199732E+02 -0.31963310462E+01  0.42232124729E+02  0.10566000000E+00 0. -1.
         22    1    1    0    0    0 -0.44760873916E+02  0.43417687715E+02  0.40427006219E+01  0.62489798115E+02  0.00000000000E+00 0. -1.
</event>
<event>
 4    1  0.9856522E-003  0.9118800E+02  0.7818608E-02  0.1130116E+00
         25   -1    0    0    0    0  0.00000000000E+00  0.00000000000E+00  0.99999998245E-14  0.12500000000E+03  0.12500000000E+03 0.  0.
        -13    1    1    0    0    0  0.56136352850E+01  0.21537430199E+02 -0.49779722436E+02  0.54528943970E+02  0.10566000000E+00 0. -1.
         13    1    1    0    0    0  0.74045039151E+00  0.30003933300E+01 -0.73482597152E+01  0.79723717798E+01  0.10566000000E+00 0.  1.
         22    1    1    0    0    0 -0.63540856765E+01 -0.24537823529E+02  0.57127982151E+02  0.62498684250E+02  0.00000000000E+00 0. -1.
</event>
<event>
 4    1  0.9856522E-003  0.9118800E+02  0.7818608E-02  0.1130116E+00
         25   -1    0    0    0    0  0.00000000000E+00  0.00000000000E+00  0.99999998245E-14  0.12500000000E+03  0.12500000000E+03 0.  0.
        -13    1    1    0    0    0  0.15041804792E+02  0.11315119157E+02  0.18670932526E+02  0.26512312203E+02  0.10566000000E+00 0. -1.
         13    1    1    0    0    0  0.58990058822E+01  0.49304553180E+01  0.36489290082E+02  0.37290576756E+02  0.10566000000E+00 0.  1.
         22    1    1    0    0    0 -0.20940810674E+02 -0.16245574475E+02 -0.55160222608E+02  0.61197111042E+02  0.00000000000E+00 0.  1.
</event>
<event>
 4    1  0.9856522E-003  0.9118800E+02  0.7818608E-02  0.1130116E+00
         25   -1    0    0    0    0  0.00000000000E+00  0.00000000000E+00  0.99999998245E-14  0.12500000000E+03  0.12500000000E+03 0.  0.
        -13    1    1    0    0    0 -0.19473079597E+01 -0.95549903375E+01 -0.60969943085E+02  0.61744918596E+02  0.10566000000E+00 0. -1.
         13    1    1    0    0    0  0.18191131837E+00 -0.17697539227E+00 -0.72341957459E+00  0.77389400678E+00  0.10566000000E+00 0.  1.
         22    1    1    0    0    0  0.17653966414E+01  0.97319657297E+01  0.61693362660E+02  0.62481187397E+02  0.00000000000E+00 0. -1.
</event>
<event>
 4    1  0.9856522E-003  0.9118800E+02  0.7818608E-02  0.1130116E+00
         25   -1    0    0    0    0  0.00000000000E+00  0.00000000000E+00  0.99999998245E-14  0.12500000000E+03  0.12500000000E+03 0.  0.
        -13    1    1    0    0    0 -0.82468202465E+01  0.54575199526E+02  0.92220680604E+01  0.55959987052E+02  0.10566000000E+00 0.  1.
         13    1    1    0    0    0 -0.20054871827E+01  0.50769545944E+01 -0.64490139426E+01  0.84497568995E+01  0.10566000000E+00 0. -1.
         22    1    1    0    0    0  0.10252307429E+02 -0.59652154121E+02 -0.27730541178E+01  0.60590256048E+02  0.00000000000E+00 0.  1.
</event>
<event>
 4    1  0.9856522E-003  0.9118800E+02  0.7818608E-02  0.1130116E+00
         25   -1    0    0    0    0  0.00000000000E+00  0.00000000000E+00  0.99999998245E-14  0.12500000000E+03  0.12500000000E+03 0.  0.
        -13    1    1    0    0    0  0.37626324243E+02  0.11330685143E+02 -0.13460043734E+01  0.39318540076E+02  0.10566000000E+00 0. -1.
         13    1    1    0    0    0  0.22199190083E+02  0.66361535568E+01 -0.73284952754E+00  0.23181691199E+02  0.10566000000E+00 0. -1.
         22    1    1    0    0    0 -0.59825514326E+02 -0.17966838700E+02  0.20788539009E+01  0.62499768726E+02  0.00000000000E+00 0. -1.
</event>
<event>
 4    1  0.9856522E-003  0.9118800E+02  0.7818608E-02  0.1130116E+00
         25   -1    0    0    0    0  0.00000000000E+00  0.00000000000E+00  0.99999998245E-14  0.12500000000E+03  0.12500000000E+03 0.  0.
        -13    1    1    0    0    0  0.48422433127E+01  0.31388650405E+01  0.30553252781E+01  0.65303882452E+01  0.10566000000E+00 0.  1.
         13    1    1    0    0    0  0.42389712762E+02  0.35888022188E+02 -0.11205139881E+02  0.56660428946E+02  0.10566000000E+00 0. -1.
         22    1    1    0    0    0 -0.47231956075E+02 -0.39026887228E+02  0.81498146029E+01  0.61809182808E+02  0.00000000000E+00 0. -1.
</event>
<event>
 4    1  0.9856522E-003  0.9118800E+02  0.7818608E-02  0.1130116E+00
         25   -1    0    0    0    0  0.00000000000E+00  0.00000000000E+00  0.99999998245E-14  0.12500000000E+03  0.12500000000E+03 0.  0.
        -13    1    1    0    0    0 -0.74344125513E+01  0.23684199515E+01  0.10650854232E+02  0.13203475412E+02  0.10566000000E+00 0. -1.
         13    1    1    0    0    0 -0.28230923575E+02  0.87476323905E+01  0.39454928310E+02  0.49297146472E+02  0.10566000000E+00 0.  1.
         22    1    1    0    0    0  0.35665336126E+02 -0.11116052342E+02 -0.50105782542E+02  0.62499378116E+02  0.00000000000E+00 0.  1.
</event>
<event>
 4    1  0.9856522E-003  0.9118800E+02  0.7818608E-02  0.1130116E+00
         25   -1    0    0    0    0  0.00000000000E+00  0.00000000000E+00  0.99999998245E-14  0.12500000000E+03  0.12500000000E+03 0.  0.
        -13    1    1    0    0    0  0.40160766160E+01  0.33622463383E+02 -0.24659104819E+01  0.33951300327E+02  0.10566000000E+00 0.  1.
         13    1    1    0    0    0  0.51641666695E+01  0.27465596298E+02 -0.63207108932E+01  0.28652925638E+02  0.10566000000E+00 0. -1.
         22    1    1    0    0    0 -0.91802432856E+01 -0.61088059681E+02  0.87866213752E+01  0.62395774036E+02  0.00000000000E+00 0. -1.
</event>
<event>
 4    1  0.9856522E-003  0.9118800E+02  0.7818608E-02  0.1130116E+00
         25   -1    0    0    0    0  0.00000000000E+00  0.00000000000E+00  0.99999998245E-14  0.12500000000E+03  0.12500000000E+03 0.  0.
        -13    1    1    0    0    0 -0.18557986967E+02 -0.18439287946E+02 -0.21806880722E+02  0.34058147793E+02  0.10566000000E+00 0.  1.
         13    1    1    0    0    0 -0.15580778672E+02 -0.15343120700E+02 -0.18187052876E+02  0.28442082785E+02  0.10566000000E+00 0.  1.
         22    1    1    0    0    0  0.34138765639E+02  0.33782408645E+02  0.39993933597E+02  0.62499769422E+02  0.00000000000E+00 0.  1.
</event>
<event>
 4    1  0.9856522E-003  0.9118800E+02  0.7818608E-02  0.1130116E+00
         25   -1    0    0    0    0  0.00000000000E+00  0.00000000000E+00  0.99999998245E-14  0.12500000000E+03  0.12500000000E+03 0.  0.
        -13    1    1    0    0    0 -0.33573059570E+01  0.23262507341E+01 -0.60751456846E+01  0.73213048626E+01  0.10566000000E+00 0.  1.
         13    1    1    0    0    0  0.13336436306E+02 -0.28687129885E+02 -0.47541069104E+02  0.57104959241E+02  0.10566000000E+00 0. -1.
         22    1    1    0    0    0 -0.99791303485E+01  0.26360879151E+02  0.53616214789E+02  0.60573735896E+02  0.00000000000E+00 0. -1.
</event>
<event>
 4    1  0.9856522E-003  0.9118800E+02  0.7818608E-02  0.1130116E+00
         25   -1    0    0    0    0  0.00000000000E+00  0.00000000000E+00  0.99999998245E-14  0.12500000000E+03  0.12500000000E+03 0.  0.
        -13    1    1    0    0    0  0.21768069441E+02 -0.22431191527E+02 -0.21108631397E+02  0.37717273019E+02  0.10566000000E+00 0. -1.
         13    1    1    0    0    0  0.13791639030E+02 -0.15002479397E+02 -0.14107263169E+02  0.24785272509E+02  0.10566000000E+00 0.  1.
         22    1    1    0    0    0 -0.35559708471E+02  0.37433670924E+02  0.35215894566E+02  0.62497454472E+02  0.00000000000E+00 0. -1.
</event>
<event>
 4    1  0.9856522E-003  0.9118800E+02  0.7818608E-02  0.1130116E+00
         25   -1    0    0    0    0  0.00000000000E+00  0.00000000000E+00  0.99999998245E-14  0.12500000000E+03  0.12500000000E+03 0.  0.
        -13    1    1    0    0    0 -0.22742884821E+01  0.26598872094E+01  0.18951795894E+01  0.39812382218E+01  0.10566000000E+00 0.  1.
         13    1    1    0    0    0  0.10873271636E+02  0.57026162655E+02  0.11656960593E+02  0.59212390236E+02  0.10566000000E+00 0. -1.
         22    1    1    0    0    0 -0.85989831541E+01 -0.59686049864E+02 -0.13552140183E+02  0.61806371542E+02  0.00000000000E+00 0. -1.
</event>
<event>
 4    1  0.9856522E-003  0.9118800E+02  0.7818608E-02  0.1130116E+00
         25   -1    0    0    0    0  0.00000000000E+00  0.00000000000E+00  0.99999998245E-14  0.12500000000E+03  0.12500000000E+03 0.  0.
        -13    1    1    0    0    0  0.48018474368E+02  0.27869052266E+02  0.23724830310E+02  0.60376623723E+02  0.10566000000E+00 0. -1.
         13    1    1    0    0    0  0.12772384974E+01 -0.51442930575E+01  0.19529654161E+00  0.53051290291E+01  0.10566000000E+00 0.  1.
         22    1    1    0    0    0 -0.49295712866E+02 -0.22724759209E+02 -0.23920126851E+02  0.59318247248E+02  0.00000000000E+00 0. -1.
</event>
<event>
 4    1  0.9856522E-003  0.9118800E+02  0.7818608E-02  0.1130116E+00
         25   -1    0    0    0    0  0.00000000000E+00  0.00000000000E+00  0.99999998245E-14  0.12500000000E+03  0.12500000000E+03 0.  0.
        -13    1    1    0    0    0 -0.53114145956E+01  0.19758119612E+02 -0.36867515107E+02  0.42164193931E+02  0.10566000000E+00 0. -1.
         13    1    1    0    0    0  0.22068404953E+02 -0.15986889252E+02 -0.12927512527E+02  0.30161678821E+02  0.10566000000E+00 0.  1.
         22    1    1    0    0    0 -0.16756990358E+02 -0.37712303595E+01  0.49795027634E+02  0.52674127248E+02  0.00000000000E+00 0.  1.
</event>
<event>
 4    1  0.9856522E-003  0.9118800E+02  0.7818608E-02  0.1130116E+00
         25   -1    0    0    0    0  0.00000000000E+00  0.00000000000E+00  0.99999998245E-14  0.12500000000E+03  0.12500000000E+03 0.  0.
        -13    1    1    0    0    0 -0.28041245127E+02 -0.69269320083E+01  0.11534333956E+02  0.31102183833E+02  0.10566000000E+00 0. -1.
         13    1    1    0    0    0  0.18279043580E+02  0.47409959225E+02 -0.12172511450E+02  0.52249486762E+02  0.10566000000E+00 0.  1.
         22    1    1    0    0    0  0.97622015476E+01 -0.40483027217E+02  0.63817749442E+00  0.41648329405E+02  0.00000000000E+00 0.  1.
</event>
<event>
 4    1  0.9856522E-003  0.9118800E+02  0.7818608E-02  0.1130116E+00
         25   -1    0    0    0    0  0.00000000000E+00  0.00000000000E+00  0.99999998245E-14  0.12500000000E+03  0.12500000000E+03 0.  0.
        -13    1    1    0    0    0  0.25756055849E+02  0.36308382033E+02 -0.54925043194E+01  0.44853670825E+02  0.10566000000E+00 0. -1.
         13    1    1    0    0    0  0.96679312310E+01  0.13427640629E+02 -0.67486912760E+01  0.17869706912E+02  0.10566000000E+00 0.  1.
         22    1    1    0    0    0 -0.35423987080E+02 -0.49736022662E+02  0.12241195595E+02  0.62276622263E+02  0.00000000000E+00 0.  1.
</event>
<event>
 4    1  0.9856522E-003  0.9118800E+02  0.7818608E-02  0.1130116E+00
         25   -1    0    0    0    0  0.00000000000E+00  0.00000000000E+00  0.99999998245E-14  0.12500000000E+03  0.12500000000E+03 0.  0.
        -13    1    1    0    0    0  0.21166375980E+02 -0.58896593349E+01 -0.84668686659E+01  0.23545755207E+02  0.10566000000E+00 0.  1.
         13    1    1    0    0    0  0.35241857624E+02 -0.98840542611E+01 -0.13336112124E+02  0.38955694167E+02  0.10566000000E+00 0. -1.
         22    1    1    0    0    0 -0.56408233605E+02  0.15773713596E+02  0.21802980790E+02  0.62498550626E+02  0.00000000000E+00 0. -1.
</event>
<event>
 4    1  0.9856522E-003  0.9118800E+02  0.7818608E-02  0.1130116E+00
         25   -1    0    0    0    0  0.00000000000E+00  0.00000000000E+00  0.99999998245E-14  0.12500000000E+03  0.12500000000E+03 0.  0.
        -13    1    1    0    0    0  0.96996458067E+01 -0.72110340501E+01 -0.91009669295E+00  0.12121121271E+02  0.10566000000E+00 0.  1.
         13    1    1    0    0    0  0.40365562024E+02 -0.30015571631E+02 -0.27982685164E+01  0.50380101315E+02  0.10566000000E+00 0. -1.
         22    1    1    0    0    0 -0.50065207831E+02  0.37226605681E+02  0.37083652093E+01  0.62498777413E+02  0.00000000000E+00 0.  1.
</event>
