<event>
 5    1  0.1766627E-003  0.9118800E+02  0.7818608E-02  0.1130116E+00
         25   -1    0    0    0    0  0.00000000000E+00  0.00000000000E+00  0.99999998245E-14  0.12500000000E+03  0.12500000000E+03 0.  0.
        -13    1    3    3    0    0  0.21862075855E+02  0.13095298084E+02 -0.56398652471E+02  0.61889064924E+02  0.10566000000E+00 0. -1.
         23    2    1    0    0    0  0.14734424594E+02  0.96890037669E+01 -0.24116984736E+02  0.95123437030E+02  0.90309796022E+02 0.  0.
         13    1    3    3    0    0 -0.71276512606E+01 -0.34062943167E+01  0.32281667736E+02  0.33234372106E+02  0.10566000000E+00 0.  1.
         22    1    1    0    0    0 -0.14734424594E+02 -0.96890037669E+01  0.24116984736E+02  0.29876562970E+02  0.00000000000E+00 0. -1.
</event>
<event>
 5    1  0.1766627E-003  0.9118800E+02  0.7818608E-02  0.1130116E+00
         25   -1    0    0    0    0  0.00000000000E+00  0.00000000000E+00  0.99999998245E-14  0.12500000000E+03  0.12500000000E+03 0.  0.
        -13    1    3    3    0    0 -0.75914037786E+01  0.32625416984E+01  0.28594082138E+02  0.29764177916E+02  0.10566000000E+00 0.  1.
         23    2    1    0    0    0  0.20360260408E+02 -0.18121999372E+02 -0.21010267658E+02  0.90585200681E+02  0.83793198831E+02 0.  0.
         13    1    3    3    0    0  0.27951664186E+02 -0.21384541070E+02 -0.49604349796E+02  0.60821022766E+02  0.10566000000E+00 0. -1.
         22    1    1    0    0    0 -0.20360260408E+02  0.18121999372E+02  0.21010267658E+02  0.34414799319E+02  0.00000000000E+00 0. -1.
</event>
<event>
 5    1  0.1766627E-003  0.9118800E+02  0.7818608E-02  0.1130116E+00
         25   -1    0    0    0    0  0.00000000000E+00  0.00000000000E+00  0.99999998245E-14  0.12500000000E+03  0.12500000000E+03 0.  0.
        -13    1    3    3    0    0 -0.30722219702E+02  0.28435107658E+02  0.80324026606E+01  0.42625588412E+02  0.10566000000E+00 0.  1.
         23    2    1    0    0    0  0.61096431856E+01  0.11460087501E+02 -0.26239309689E+02  0.95722658619E+02  0.91135419320E+02 0.  0.
         13    1    3    3    0    0  0.36831862888E+02 -0.16975020157E+02 -0.34271712350E+02  0.53097070207E+02  0.10566000000E+00 0. -1.
         22    1    1    0    0    0 -0.61096431856E+01 -0.11460087501E+02  0.26239309689E+02  0.29277341381E+02  0.00000000000E+00 0. -1.
</event>
<event>
 5    1  0.1766627E-003  0.9118800E+02  0.7818608E-02  0.1130116E+00
         25   -1    0    0    0    0  0.00000000000E+00  0.00000000000E+00  0.99999998245E-14  0.12500000000E+03  0.12500000000E+03 0.  0.
        -13    1    3    3    0    0  0.44212931786E+02 -0.89540383831E+01  0.38139718883E+02  0.59072899548E+02  0.10566000000E+00 0.  1.
         23    2    1    0    0    0  0.20098148085E+02  0.10533173497E+02  0.17894017873E+02  0.96102263480E+02  0.91654600921E+02 0.  0.
         13    1    3    3    0    0 -0.24114783701E+02  0.19487211880E+02 -0.20245701010E+02  0.37029363932E+02  0.10566000000E+00 0. -1.
         22    1    1    0    0    0 -0.20098148085E+02 -0.10533173497E+02 -0.17894017873E+02  0.28897736520E+02  0.00000000000E+00 0.  1.
</event>
<event>
 5    1  0.1766627E-003  0.9118800E+02  0.7818608E-02  0.1130116E+00
         25   -1    0    0    0    0  0.00000000000E+00  0.00000000000E+00  0.99999998245E-14  0.12500000000E+03  0.12500000000E+03 0.  0.
        -13    1    3    3    0    0 -0.27370885162E+02 -0.29553933436E+02  0.27258303248E+01  0.40373774298E+02  0.10566000000E+00 0. -1.
         23    2    1    0    0    0  0.13692114106E+02  0.67174577742E+00  0.25369489176E+02  0.96163630393E+02  0.91738255914E+02 0.  0.
         13    1    3    3    0    0  0.41062999269E+02  0.30225679213E+02  0.22643658851E+02  0.55789856094E+02  0.10566000000E+00 0.  1.
         22    1    1    0    0    0 -0.13692114106E+02 -0.67174577742E+00 -0.25369489176E+02  0.28836369607E+02  0.00000000000E+00 0.  1.
</event>
<event>
 5    1  0.1766627E-003  0.9118800E+02  0.7818608E-02  0.1130116E+00
         25   -1    0    0    0    0  0.00000000000E+00  0.00000000000E+00  0.99999998245E-14  0.12500000000E+03  0.12500000000E+03 0.  0.
        -13    1    3    3    0    0 -0.17458377091E+02 -0.48487235993E+02 -0.25562492920E+02  0.57526160946E+02  0.10566000000E+00 0. -1.
         23    2    1    0    0    0 -0.25212862431E+02 -0.18390556413E+02 -0.10416294182E+02  0.92100149216E+02  0.86023469495E+02 0.  0.
         13    1    3    3    0    0 -0.77544853398E+01  0.30096679579E+02  0.15146198738E+02  0.34573988269E+02  0.10566000000E+00 0.  1.
         22    1    1    0    0    0  0.25212862431E+02  0.18390556413E+02  0.10416294182E+02  0.32899850784E+02  0.00000000000E+00 0. -1.
</event>
<event>
 5    1  0.1766627E-003  0.9118800E+02  0.7818608E-02  0.1130116E+00
         25   -1    0    0    0    0  0.00000000000E+00  0.00000000000E+00  0.99999998245E-14  0.12500000000E+03  0.12500000000E+03 0.  0.
        -13    1    3    3    0    0 -0.18163755694E+02  0.30533648870E+02 -0.41705991827E+02  0.54787102976E+02  0.10566000000E+00 0.  1.
         23    2    1    0    0    0  0.37970511835E+01 -0.16051757323E+01 -0.28962656470E+02  0.95745433577E+02  0.91166651766E+02 0.  0.
         13    1    3    3    0    0  0.21960806877E+02 -0.32138824602E+02  0.12743335357E+02  0.40958330600E+02  0.10566000000E+00 0. -1.
         22    1    1    0    0    0 -0.37970511835E+01  0.16051757323E+01  0.28962656470E+02  0.29254566423E+02  0.00000000000E+00 0.  1.
</event>
<event>
 5    1  0.1766627E-003  0.9118800E+02  0.7818608E-02  0.1130116E+00
         25   -1    0    0    0    0  0.00000000000E+00  0.00000000000E+00  0.99999998245E-14  0.12500000000E+03  0.12500000000E+03 0.  0.
        -13    1    3    3    0    0  0.28635255798E+02 -0.76857653079E+01  0.54796066030E+02  0.62303040691E+02  0.10566000000E+00 0.  1.
         23    2    1    0    0    0  0.14180433039E+02 -0.35360000269E+00  0.23393410025E+02  0.97641978385E+02  0.93730969248E+02 0.  0.
         13    1    3    3    0    0 -0.14454822760E+02  0.73321653052E+01 -0.31402656005E+02  0.35338937693E+02  0.10566000000E+00 0. -1.
         22    1    1    0    0    0 -0.14180433039E+02  0.35360000269E+00 -0.23393410025E+02  0.27358021615E+02  0.00000000000E+00 0.  1.
</event>
<event>
 5    1  0.1766627E-003  0.9118800E+02  0.7818608E-02  0.1130116E+00
         25   -1    0    0    0    0  0.00000000000E+00  0.00000000000E+00  0.99999998245E-14  0.12500000000E+03  0.12500000000E+03 0.  0.
        -13    1    3    3    0    0 -0.86861782108E+01  0.34499016649E+02  0.15184060402E+02  0.38680727707E+02  0.10566000000E+00 0.  1.
         23    2    1    0    0    0  0.23063255199E+02 -0.13814347863E+02  0.80830993738E+01  0.96927122650E+02  0.92772736633E+02 0.  0.
         13    1    3    3    0    0  0.31749433410E+02 -0.48313364511E+02 -0.71009610279E+01  0.58246394943E+02  0.10566000000E+00 0. -1.
         22    1    1    0    0    0 -0.23063255199E+02  0.13814347863E+02 -0.80830993738E+01  0.28072877350E+02  0.00000000000E+00 0. -1.
</event>
<event>
 5    1  0.1766627E-003  0.9118800E+02  0.7818608E-02  0.1130116E+00
         25   -1    0    0    0    0  0.00000000000E+00  0.00000000000E+00  0.99999998245E-14  0.12500000000E+03  0.12500000000E+03 0.  0.
        -13    1    3    3    0    0 -0.24491036261E+01 -0.34401528706E+02 -0.71639682065E+00  0.34496197969E+02  0.10566000000E+00 0. -1.
         23    2    1    0    0    0 -0.56746305700E+01  0.23448033518E+02  0.17459826099E+02  0.95219851656E+02  0.90443147414E+02 0.  0.
         13    1    3    3    0    0 -0.32255269439E+01  0.57849562224E+02  0.18176222920E+02  0.60723653688E+02  0.10566000000E+00 0.  1.
         22    1    1    0    0    0  0.56746305700E+01 -0.23448033518E+02 -0.17459826099E+02  0.29780148344E+02  0.00000000000E+00 0. -1.
</event>
<event>
 5    1  0.1766627E-003  0.9118800E+02  0.7818608E-02  0.1130116E+00
         25   -1    0    0    0    0  0.00000000000E+00  0.00000000000E+00  0.99999998245E-14  0.12500000000E+03  0.12500000000E+03 0.  0.
        -13    1    3    3    0    0 -0.11531206122E+02 -0.33688566214E+02  0.25294799029E+02  0.43677525458E+02  0.10566000000E+00 0.  1.
         23    2    1    0    0    0 -0.40075588827E+01 -0.15631665694E+02 -0.23639909827E+02  0.96377371938E+02  0.92029033378E+02 0.  0.
         13    1    3    3    0    0  0.75236472391E+01  0.18056900520E+02 -0.48934708856E+02  0.52699846480E+02  0.10566000000E+00 0. -1.
         22    1    1    0    0    0  0.40075588827E+01  0.15631665694E+02  0.23639909827E+02  0.28622628062E+02  0.00000000000E+00 0. -1.
</event>
<event>
 5    1  0.1766627E-003  0.9118800E+02  0.7818608E-02  0.1130116E+00
         25   -1    0    0    0    0  0.00000000000E+00  0.00000000000E+00  0.99999998245E-14  0.12500000000E+03  0.12500000000E+03 0.  0.
        -13    1    3    3    0    0  0.13227754988E+02  0.38825692115E+01  0.47593964070E+02  0.49550423063E+02  0.10566000000E+00 0. -1.
         23    2    1    0    0    0  0.24350489688E+02  0.15514852153E+02  0.42125362779E+01  0.95821198666E+02  0.91270475328E+02 0.  0.
         13    1    3    3    0    0  0.11122734700E+02  0.11632282942E+02 -0.43381427793E+02  0.46270775604E+02  0.10566000000E+00 0.  1.
         22    1    1    0    0    0 -0.24350489688E+02 -0.15514852153E+02 -0.42125362779E+01  0.29178801334E+02  0.00000000000E+00 0. -1.
</event>
<event>
 5    1  0.1766627E-003  0.9118800E+02  0.7818608E-02  0.1130116E+00
         25   -1    0    0    0    0  0.00000000000E+00  0.00000000000E+00  0.99999998245E-14  0.12500000000E+03  0.12500000000E+03 0.  0.
        -13    1    3    3    0    0 -0.44509060924E+01 -0.33965750466E+02  0.32692832380E+02  0.47353090953E+02  0.10566000000E+00 0. -1.
         23    2    1    0    0    0  0.61647952470E+01 -0.18036613205E+02 -0.16279097653E+02  0.99933425907E+02  0.96738598692E+02 0.  0.
         13    1    3    3    0    0  0.10615701339E+02  0.15929137260E+02 -0.48971930033E+02  0.52580334955E+02  0.10566000000E+00 0.  1.
         22    1    1    0    0    0 -0.61647952470E+01  0.18036613205E+02  0.16279097653E+02  0.25066574093E+02  0.00000000000E+00 0.  1.
</event>
<event>
 5    1  0.1766627E-003  0.9118800E+02  0.7818608E-02  0.1130116E+00
         25   -1    0    0    0    0  0.00000000000E+00  0.00000000000E+00  0.99999998245E-14  0.12500000000E+03  0.12500000000E+03 0.  0.
        -13    1    3    3    0    0 -0.37596791425E+02 -0.29417435190E+02 -0.35461249540E+01  0.47869514149E+02  0.10566000000E+00 0.  1.
         23    2    1    0    0    0 -0.11608166276E+02  0.11645233024E+02  0.17641943945E+02  0.10088363289E+03  0.97958706720E+02 0.  0.
         13    1    3    3    0    0  0.25988625150E+02  0.41062668214E+02  0.21188068899E+02  0.53014118740E+02  0.10566000000E+00 0. -1.
         22    1    1    0    0    0  0.11608166276E+02 -0.11645233024E+02 -0.17641943945E+02  0.24116367111E+02  0.00000000000E+00 0. -1.
</event>
<event>
 5    1  0.1766627E-003  0.9118800E+02  0.7818608E-02  0.1130116E+00
         25   -1    0    0    0    0  0.00000000000E+00  0.00000000000E+00  0.99999998245E-14  0.12500000000E+03  0.12500000000E+03 0.  0.
        -13    1    3    3    0    0  0.64968073331E+01 -0.93526488880E+01 -0.43889902660E+02  0.45343304537E+02  0.10566000000E+00 0.  1.
         23    2    1    0    0    0  0.59321308200E+00 -0.24709092713E+02  0.73938726890E+01  0.99201540399E+02  0.95788230486E+02 0.  0.
         13    1    3    3    0    0 -0.59035942511E+01 -0.15356443825E+02  0.51283775349E+02  0.53858235862E+02  0.10566000000E+00 0. -1.
         22    1    1    0    0    0 -0.59321308200E+00  0.24709092713E+02 -0.73938726890E+01  0.25798459601E+02  0.00000000000E+00 0. -1.
</event>
<event>
 5    1  0.1766627E-003  0.9118800E+02  0.7818608E-02  0.1130116E+00
         25   -1    0    0    0    0  0.00000000000E+00  0.00000000000E+00  0.99999998245E-14  0.12500000000E+03  0.12500000000E+03 0.  0.
        -13    1    3    3    0    0  0.16599551436E+02  0.27242594610E+02  0.21517285059E+02  0.38479979071E+02  0.10566000000E+00 0. -1.
         23    2    1    0    0    0 -0.21470468960E+02 -0.14676054553E+02  0.13583886624E+02  0.95659079933E+02  0.91048173969E+02 0.  0.
         13    1    3    3    0    0 -0.38070020396E+02 -0.41918649163E+02 -0.79333984355E+01  0.57179100862E+02  0.10566000000E+00 0.  1.
         22    1    1    0    0    0  0.21470468960E+02  0.14676054553E+02 -0.13583886624E+02  0.29340920067E+02  0.00000000000E+00 0.  1.
</event>
<event>
 5    1  0.1766627E-003  0.9118800E+02  0.7818608E-02  0.1130116E+00
         25   -1    0    0    0    0  0.00000000000E+00  0.00000000000E+00  0.99999998245E-14  0.12500000000E+03  0.12500000000E+03 0.  0.
        -13    1    3    3    0    0  0.33570664881E+02 -0.19010569266E+02  0.45129322644E+02  0.59372200656E+02  0.10566000000E+00 0.  1.
         23    2    1    0    0    0  0.25894367932E+02 -0.77137063537E+01  0.11563378030E+02  0.95610694670E+02  0.90981721613E+02 0.  0.
         13    1    3    3    0    0 -0.76762969489E+01  0.11296862913E+02 -0.33565944615E+02  0.36238494014E+02  0.10566000000E+00 0. -1.
         22    1    1    0    0    0 -0.25894367932E+02  0.77137063537E+01 -0.11563378030E+02  0.29389305330E+02  0.00000000000E+00 0.  1.
</event>
<event>
 5    1  0.1766627E-003  0.9118800E+02  0.7818608E-02  0.1130116E+00
         25   -1    0    0    0    0  0.00000000000E+00  0.00000000000E+00  0.99999998245E-14  0.12500000000E+03  0.12500000000E+03 0.  0.
        -13    1    3    3    0    0  0.12180192553E+02 -0.45054802985E+02 -0.31284970894E+02  0.56187658169E+02  0.10566000000E+00 0. -1.
         23    2    1    0    0    0 -0.11809775466E+02 -0.20954258433E+02 -0.23591136478E+01  0.10083148411E+03  0.97892139766E+02 0.  0.
         13    1    3    3    0    0 -0.23989968020E+02  0.24100544552E+02  0.28925857246E+02  0.44643825943E+02  0.10566000000E+00 0.  1.
         22    1    1    0    0    0  0.11809775466E+02  0.20954258433E+02  0.23591136478E+01  0.24168515888E+02  0.00000000000E+00 0. -1.
</event>
<event>
 5    1  0.1766627E-003  0.9118800E+02  0.7818608E-02  0.1130116E+00
         25   -1    0    0    0    0  0.00000000000E+00  0.00000000000E+00  0.99999998245E-14  0.12500000000E+03  0.12500000000E+03 0.  0.
        -13    1    3    3    0    0 -0.28471664027E+02  0.47725055977E+02  0.72574558237E+01  0.56044611244E+02  0.10566000000E+00 0. -1.
         23    2    1    0    0    0 -0.28890372860E+02  0.19644482389E+02 -0.95603032520E+01  0.88779029132E+02  0.81054039277E+02 0.  0.
         13    1    3    3    0    0 -0.41870883270E+00 -0.28080573587E+02 -0.16817759076E+02  0.32734417888E+02  0.10566000000E+00 0.  1.
         22    1    1    0    0    0  0.28890372860E+02 -0.19644482389E+02  0.95603032520E+01  0.36220970868E+02  0.00000000000E+00 0. -1.
</event>
<event>
 5    1  0.1766627E-003  0.9118800E+02  0.7818608E-02  0.1130116E+00
         25   -1    0    0    0    0  0.00000000000E+00  0.00000000000E+00  0.99999998245E-14  0.12500000000E+03  0.12500000000E+03 0.  0.
        -13    1    3    3    0    0 -0.45894258602E+02 -0.20128188987E+02 -0.57608070009E+01  0.50444276443E+02  0.10566000000E+00 0.  1.
         23    2    1    0    0    0 -0.21262134178E+02  0.17326520992E+02  0.62811660361E+01  0.96862130033E+02  0.92685125604E+02 0.  0.
         13    1    3    3    0    0  0.24632124424E+02  0.37454709979E+02  0.12041973037E+02  0.46417853590E+02  0.10566000000E+00 0. -1.
         22    1    1    0    0    0  0.21262134178E+02 -0.17326520992E+02 -0.62811660361E+01  0.28137869967E+02  0.00000000000E+00 0.  1.
</event>
<event>
 5    1  0.1766627E-003  0.9118800E+02  0.7818608E-02  0.1130116E+00
         25   -1    0    0    0    0  0.00000000000E+00  0.00000000000E+00  0.99999998245E-14  0.12500000000E+03  0.12500000000E+03 0.  0.
        -13    1    3    3    0    0 -0.18508457296E+02 -0.28548575469E+02  0.79473840595E+00  0.34032733154E+02  0.10566000000E+00 0. -1.
         23    2    1    0    0    0  0.69975706092E+01  0.27388669889E+02  0.71585926520E+01  0.95839227009E+02  0.91295162808E+02 0.  0.
         13    1    3    3    0    0  0.25506027906E+02  0.55937245357E+02  0.63638542461E+01  0.61806493854E+02  0.10566000000E+00 0.  1.
         22    1    1    0    0    0 -0.69975706092E+01 -0.27388669889E+02 -0.71585926520E+01  0.29160772991E+02  0.00000000000E+00 0.  1.
</event>
<event>
 5    1  0.1766627E-003  0.9118800E+02  0.7818608E-02  0.1130116E+00
         25   -1    0    0    0    0  0.00000000000E+00  0.00000000000E+00  0.99999998245E-14  0.12500000000E+03  0.12500000000E+03 0.  0.
        -13    1    3    3    0    0 -0.30396326361E+02 -0.13342524462E+02  0.28254025429E+02  0.43591980137E+02  0.10566000000E+00 0. -1.
         23    2    1    0    0    0  0.10961899575E+02 -0.26814992106E+02 -0.10034549911E+01  0.96013555481E+02  0.91533539592E+02 0.  0.
         13    1    3    3    0    0  0.41358225936E+02 -0.13472467643E+02 -0.29257480420E+02  0.52421575344E+02  0.10566000000E+00 0.  1.
         22    1    1    0    0    0 -0.10961899575E+02  0.26814992106E+02  0.10034549911E+01  0.28986444519E+02  0.00000000000E+00 0. -1.
</event>
<event>
 5    1  0.1766627E-003  0.9118800E+02  0.7818608E-02  0.1130116E+00
         25   -1    0    0    0    0  0.00000000000E+00  0.00000000000E+00  0.99999998245E-14  0.12500000000E+03  0.12500000000E+03 0.  0.
        -13    1    3    3    0    0 -0.24209963633E+02 -0.98441013853E+01  0.24033065936E+02  0.35505324862E+02  0.10566000000E+00 0.  1.
         23    2    1    0    0    0  0.23762268464E+02  0.15681046746E+02 -0.33117513224E+01  0.96338033452E+02  0.91975585690E+02 0.  0.
         13    1    3    3    0    0  0.47972232097E+02  0.25525148131E+02 -0.27344817258E+02  0.60832708590E+02  0.10566000000E+00 0. -1.
         22    1    1    0    0    0 -0.23762268464E+02 -0.15681046746E+02  0.33117513224E+01  0.28661966548E+02  0.00000000000E+00 0. -1.
</event>
<event>
 5    1  0.1766627E-003  0.9118800E+02  0.7818608E-02  0.1130116E+00
         25   -1    0    0    0    0  0.00000000000E+00  0.00000000000E+00  0.99999998245E-14  0.12500000000E+03  0.12500000000E+03 0.  0.
        -13    1    3    3    0    0  0.26445743609E+02 -0.34564508862E+02  0.13024890058E+02  0.45428422303E+02  0.10566000000E+00 0. -1.
         23    2    1    0    0    0 -0.16146573636E+02 -0.19679409865E+02 -0.11818576738E+02  0.96934544919E+02  0.92782736701E+02 0.  0.
         13    1    3    3    0    0 -0.42592317245E+02  0.14885098997E+02 -0.24843466795E+02  0.51506122616E+02  0.10566000000E+00 0.  1.
         22    1    1    0    0    0  0.16146573636E+02  0.19679409865E+02  0.11818576738E+02  0.28065455081E+02  0.00000000000E+00 0.  1.
</event>
<event>
 5    1  0.1766627E-003  0.9118800E+02  0.7818608E-02  0.1130116E+00
         25   -1    0    0    0    0  0.00000000000E+00  0.00000000000E+00  0.99999998245E-14  0.12500000000E+03  0.12500000000E+03 0.  0.
        -13    1    3    3    0    0 -0.24685724414E+02 -0.24774281743E+02 -0.13800458624E+02  0.37598056439E+02  0.10566000000E+00 0. -1.
         23    2    1    0    0    0 -0.98435826200E+01  0.23964599559E+02  0.13909397019E+02  0.95594737270E+02  0.90959795060E+02 0.  0.
         13    1    3    3    0    0  0.14842141794E+02  0.48738881302E+02  0.27709855643E+02  0.57996680831E+02  0.10566000000E+00 0.  1.
         22    1    1    0    0    0  0.98435826200E+01 -0.23964599559E+02 -0.13909397019E+02  0.29405262730E+02  0.00000000000E+00 0.  1.
</event>
<event>
 5    1  0.1766627E-003  0.9118800E+02  0.7818608E-02  0.1130116E+00
         25   -1    0    0    0    0  0.00000000000E+00  0.00000000000E+00  0.99999998245E-14  0.12500000000E+03  0.12500000000E+03 0.  0.
        -13    1    3    3    0    0 -0.39953343149E+02  0.21536582173E+02 -0.30333541499E+02  0.54591472817E+02  0.10566000000E+00 0. -1.
         23    2    1    0    0    0 -0.12298506732E+02  0.24888496666E+02  0.18745383525E+01  0.97175470747E+02  0.93106754249E+02 0.  0.
         13    1    3    3    0    0  0.27654836416E+02  0.33519144925E+01  0.32208079851E+02  0.42583997930E+02  0.10566000000E+00 0.  1.
         22    1    1    0    0    0  0.12298506732E+02 -0.24888496666E+02 -0.18745383525E+01  0.27824529253E+02  0.00000000000E+00 0. -1.
</event>
<event>
 5    1  0.1766627E-003  0.9118800E+02  0.7818608E-02  0.1130116E+00
         25   -1    0    0    0    0  0.00000000000E+00  0.00000000000E+00  0.99999998245E-14  0.12500000000E+03  0.12500000000E+03 0.  0.
        -13    1    3    3    0    0 -0.25485830068E+02 -0.31422698289E+01  0.24101652292E+02  0.35217924431E+02  0.10566000000E+00 0.  1.
         23    2    1    0    0    0  0.21034788598E+02  0.89717141852E+01 -0.15393356887E+02  0.97433545330E+02  0.93452588688E+02 0.  0.
         13    1    3    3    0    0  0.46520618667E+02  0.12113984014E+02 -0.39495009180E+02  0.62215620900E+02  0.10566000000E+00 0. -1.
         22    1    1    0    0    0 -0.21034788598E+02 -0.89717141852E+01  0.15393356887E+02  0.27566454670E+02  0.00000000000E+00 0. -1.
</event>
<event>
 5    1  0.1766627E-003  0.9118800E+02  0.7818608E-02  0.1130116E+00
         25   -1    0    0    0    0  0.00000000000E+00  0.00000000000E+00  0.99999998245E-14  0.12500000000E+03  0.12500000000E+03 0.  0.
        -13    1    3    3    0    0  0.21635330208E+02 -0.26914243281E+02 -0.45320184125E+01  0.34828355682E+02  0.10566000000E+00 0.  1.
         23    2    1    0    0    0 -0.28005422165E+02  0.82556189673E+01 -0.24411500550E+01  0.95701226497E+02  0.91106018595E+02 0.  0.
         13    1    3    3    0    0 -0.49640752373E+02  0.35169862248E+02  0.20908683575E+01  0.60872870815E+02  0.10566000000E+00 0. -1.
         22    1    1    0    0    0  0.28005422165E+02 -0.82556189673E+01  0.24411500550E+01  0.29298773503E+02  0.00000000000E+00 0. -1.
</event>
<event>
 5    1  0.1766627E-003  0.9118800E+02  0.7818608E-02  0.1130116E+00
         25   -1    0    0    0    0  0.00000000000E+00  0.00000000000E+00  0.99999998245E-14  0.12500000000E+03  0.12500000000E+03 0.  0.
        -13    1    3    3    0    0 -0.70151944727E+01 -0.31682106295E+02 -0.68831066074E+01  0.33171631455E+02  0.10566000000E+00 0. -1.
         23    2    1    0    0    0  0.15928226810E+02  0.20807286528E+02  0.15363121272E+02  0.94624399969E+02  0.89616404706E+02 0.  0.
         13    1    3    3    0    0  0.22943421283E+02  0.52489392824E+02  0.22246227880E+02  0.61452768514E+02  0.10566000000E+00 0.  1.
         22    1    1    0    0    0 -0.15928226810E+02 -0.20807286528E+02 -0.15363121272E+02  0.30375600031E+02  0.00000000000E+00 0.  1.
</event>
<event>
 5    1  0.1766627E-003  0.9118800E+02  0.7818608E-02  0.1130116E+00
         25   -1    0    0    0    0  0.00000000000E+00  0.00000000000E+00  0.99999998245E-14  0.12500000000E+03  0.12500000000E+03 0.  0.
        -13    1    3    3    0    0 -0.11571743839E+01  0.27516302075E+02 -0.54704399184E+02  0.61245966288E+02  0.10566000000E+00 0.  1.
         23    2    1    0    0    0  0.33852697118E+01  0.53198953937E+01 -0.28149853066E+02  0.96152546634E+02  0.91723152250E+02 0.  0.
         13    1    3    3    0    0  0.45424440957E+01 -0.22196406681E+02  0.26554546118E+02  0.34906580346E+02  0.10566000000E+00 0. -1.
         22    1    1    0    0    0 -0.33852697118E+01 -0.53198953937E+01  0.28149853066E+02  0.28847453366E+02  0.00000000000E+00 0.  1.
</event>
<event>
 5    1  0.1766627E-003  0.9118800E+02  0.7818608E-02  0.1130116E+00
         25   -1    0    0    0    0  0.00000000000E+00  0.00000000000E+00  0.99999998245E-14  0.12500000000E+03  0.12500000000E+03 0.  0.
        -13    1    3    3    0    0 -0.14794594851E+02 -0.47594907676E+01  0.54734667657E+02  0.56898398894E+02  0.10566000000E+00 0.  1.
         23    2    1    0    0    0 -0.18848079329E+02  0.50502618051E+00  0.73237598548E+01  0.10477272623E+03  0.10280166126E+03 0.  0.
         13    1    3    3    0    0 -0.40534844775E+01  0.52645169481E+01 -0.47410907802E+02  0.47874327334E+02  0.10566000000E+00 0. -1.
         22    1    1    0    0    0  0.18848079329E+02 -0.50502618051E+00 -0.73237598548E+01  0.20227273772E+02  0.00000000000E+00 0.  1.
</event>
<event>
 5    1  0.1766627E-003  0.9118800E+02  0.7818608E-02  0.1130116E+00
         25   -1    0    0    0    0  0.00000000000E+00  0.00000000000E+00  0.99999998245E-14  0.12500000000E+03  0.12500000000E+03 0.  0.
        -13    1    3    3    0    0 -0.11324897763E+02  0.32091339708E+02 -0.28930658401E+02  0.44666559674E+02  0.10566000000E+00 0. -1.
         23    2    1    0    0    0  0.26400499964E+02  0.13244175393E+02 -0.62440520170E+00  0.95457074247E+02  0.90770416777E+02 0.  0.
         13    1    3    3    0    0  0.37725397727E+02 -0.18847164315E+02  0.28306253199E+02  0.50790514573E+02  0.10566000000E+00 0.  1.
         22    1    1    0    0    0 -0.26400499964E+02 -0.13244175393E+02  0.62440520170E+00  0.29542925753E+02  0.00000000000E+00 0. -1.
</event>
<event>
 5    1  0.1766627E-003  0.9118800E+02  0.7818608E-02  0.1130116E+00
         25   -1    0    0    0    0  0.00000000000E+00  0.00000000000E+00  0.99999998245E-14  0.12500000000E+03  0.12500000000E+03 0.  0.
        -13    1    3    3    0    0  0.28190066659E+02 -0.21276391625E+02  0.33837320039E+02  0.48911553750E+02  0.10566000000E+00 0. -1.
         23    2    1    0    0    0  0.10043048945E+01 -0.29440518689E+02 -0.29702108028E+01  0.95392992025E+02  0.90682126167E+02 0.  0.
         13    1    3    3    0    0 -0.27185761764E+02 -0.81641270645E+01 -0.36807530842E+02  0.46481438275E+02  0.10566000000E+00 0.  1.
         22    1    1    0    0    0 -0.10043048945E+01  0.29440518689E+02  0.29702108028E+01  0.29607007975E+02  0.00000000000E+00 0.  1.
</event>
<event>
 5    1  0.1766627E-003  0.9118800E+02  0.7818608E-02  0.1130116E+00
         25   -1    0    0    0    0  0.00000000000E+00  0.00000000000E+00  0.99999998245E-14  0.12500000000E+03  0.12500000000E+03 0.  0.
        -13    1    3    3    0    0 -0.12500408461E+02  0.53071053037E+02 -0.15241561986E+02  0.56613719697E+02  0.10566000000E+00 0.  1.
         23    2    1    0    0    0 -0.14619264196E+02  0.14024079937E+02 -0.20628400551E+02  0.96087569922E+02  0.91634559422E+02 0.  0.
         13    1    3    3    0    0 -0.21188557355E+01 -0.39046973099E+02 -0.53868385654E+01  0.39473850225E+02  0.10566000000E+00 0. -1.
         22    1    1    0    0    0  0.14619264196E+02 -0.14024079937E+02  0.20628400551E+02  0.28912430078E+02  0.00000000000E+00 0.  1.
</event>
<event>
 5    1  0.1766627E-003  0.9118800E+02  0.7818608E-02  0.1130116E+00
         25   -1    0    0    0    0  0.00000000000E+00  0.00000000000E+00  0.99999998245E-14  0.12500000000E+03  0.12500000000E+03 0.  0.
        -13    1    3    3    0    0  0.89739468033E+01 -0.98233131566E+01 -0.31808115683E+02  0.34478929652E+02  0.10566000000E+00 0.  1.
         23    2    1    0    0    0 -0.21219630384E+02  0.44853344479E+01  0.19584154163E+02  0.95777918743E+02  0.91211181802E+02 0.  0.
         13    1    3    3    0    0 -0.30193577187E+02  0.14308647604E+02  0.51392269846E+02  0.61298989091E+02  0.10566000000E+00 0. -1.
         22    1    1    0    0    0  0.21219630384E+02 -0.44853344479E+01 -0.19584154163E+02  0.29222081257E+02  0.00000000000E+00 0. -1.
</event>
<event>
 5    1  0.1766627E-003  0.9118800E+02  0.7818608E-02  0.1130116E+00
         25   -1    0    0    0    0  0.00000000000E+00  0.00000000000E+00  0.99999998245E-14  0.12500000000E+03  0.12500000000E+03 0.  0.
        -13    1    3    3    0    0 -0.92547770720E+01  0.47352831014E+02  0.35184609040E+02  0.59715235753E+02  0.10566000000E+00 0.  1.
         23    2    1    0    0    0 -0.24976718576E+00  0.27772903474E+02  0.50387238454E+01  0.96772614556E+02  0.92564321631E+02 0.  0.
         13    1    3    3    0    0  0.90050098863E+01 -0.19579927541E+02 -0.30145885195E+02  0.37057378803E+02  0.10566000000E+00 0. -1.
         22    1    1    0    0    0  0.24976718576E+00 -0.27772903474E+02 -0.50387238454E+01  0.28227385444E+02  0.00000000000E+00 0.  1.
</event>
<event>
 5    1  0.1766627E-003  0.9118800E+02  0.7818608E-02  0.1130116E+00
         25   -1    0    0    0    0  0.00000000000E+00  0.00000000000E+00  0.99999998245E-14  0.12500000000E+03  0.12500000000E+03 0.  0.
        -13    1    3    3    0    0  0.26126142074E+02 -0.87311194399E+01  0.42231034708E+02  0.50421019455E+02  0.10566000000E+00 0.  1.
         23    2    1    0    0    0  0.27949175799E+02 -0.94107792529E+01 -0.26920887894E+01  0.95386379214E+02  0.90673010337E+02 0.  0.
         13    1    3    3    0    0  0.18230337249E+01 -0.67965981299E+00 -0.44923123498E+02  0.44965359759E+02  0.10566000000E+00 0. -1.
         22    1    1    0    0    0 -0.27949175799E+02  0.94107792529E+01  0.26920887894E+01  0.29613620786E+02  0.00000000000E+00 0.  1.
</event>
<event>
 4    1  0.1766627E-003  0.9118800E+02  0.7818608E-02  0.1130116E+00
         25   -1    0    0    0    0  0.00000000000E+00  0.00000000000E+00  0.99999998245E-14  0.12500000000E+03  0.12500000000E+03 0.  0.
        -13    1    1    0    0    0 -0.14716645355E+02  0.36987370834E+01 -0.60111227519E+01  0.16321919841E+02  0.10566000000E+00 0. -1.
         13    1    1    0    0    0  0.13497580440E+02 -0.27329045559E+02 -0.43898864850E+02  0.53443268126E+02  0.10566000000E+00 0.  1.
         22    1    1    0    0    0  0.12190649147E+01  0.23630308475E+02  0.49909987602E+02  0.55234812033E+02  0.00000000000E+00 0.  1.
</event>
<event>
 5    1  0.1766627E-003  0.9118800E+02  0.7818608E-02  0.1130116E+00
         25   -1    0    0    0    0  0.00000000000E+00  0.00000000000E+00  0.99999998245E-14  0.12500000000E+03  0.12500000000E+03 0.  0.
        -13    1    3    3    0    0  0.19693941688E+02  0.58193900192E+02 -0.62990169929E+01  0.61758158472E+02  0.10566000000E+00 0.  1.
         23    2    1    0    0    0  0.14070276718E+02  0.26019668754E+02  0.16499505895E+01  0.95373690983E+02  0.90655516908E+02 0.  0.
         13    1    3    3    0    0 -0.56236649692E+01 -0.32174231438E+02  0.79489675823E+01  0.33615532511E+02  0.10566000000E+00 0. -1.
         22    1    1    0    0    0 -0.14070276718E+02 -0.26019668754E+02 -0.16499505895E+01  0.29626309017E+02  0.00000000000E+00 0.  1.
</event>
<event>
 5    1  0.1766627E-003  0.9118800E+02  0.7818608E-02  0.1130116E+00
         25   -1    0    0    0    0  0.00000000000E+00  0.00000000000E+00  0.99999998245E-14  0.12500000000E+03  0.12500000000E+03 0.  0.
        -13    1    3    3    0    0  0.38066950857E+02 -0.19197448594E+02  0.26150681676E+02  0.50015038701E+02  0.10566000000E+00 0. -1.
         23    2    1    0    0    0  0.13249199042E+02 -0.23183652786E+02 -0.12018524052E+02  0.95717446284E+02  0.91128269878E+02 0.  0.
         13    1    3    3    0    0 -0.24817751815E+02 -0.39862041919E+01 -0.38169205728E+02  0.45702407583E+02  0.10566000000E+00 0.  1.
         22    1    1    0    0    0 -0.13249199042E+02  0.23183652786E+02  0.12018524052E+02  0.29282553716E+02  0.00000000000E+00 0. -1.
</event>
<event>
 5    1  0.1766627E-003  0.9118800E+02  0.7818608E-02  0.1130116E+00
         25   -1    0    0    0    0  0.00000000000E+00  0.00000000000E+00  0.99999998245E-14  0.12500000000E+03  0.12500000000E+03 0.  0.
        -13    1    3    3    0    0  0.49911740806E+02 -0.51453034344E+01  0.12689923536E+02  0.51756172010E+02  0.10566000000E+00 0. -1.
         23    2    1    0    0    0  0.26515115564E+02  0.73702532855E+01 -0.17838326667E+02  0.92203995897E+02  0.86174236139E+02 0.  0.
         13    1    3    3    0    0 -0.23396625242E+02  0.12515556720E+02 -0.30528250202E+02  0.40447823887E+02  0.10566000000E+00 0.  1.
         22    1    1    0    0    0 -0.26515115564E+02 -0.73702532855E+01  0.17838326667E+02  0.32796004103E+02  0.00000000000E+00 0. -1.
</event>
<event>
 5    1  0.1766627E-003  0.9118800E+02  0.7818608E-02  0.1130116E+00
         25   -1    0    0    0    0  0.00000000000E+00  0.00000000000E+00  0.99999998245E-14  0.12500000000E+03  0.12500000000E+03 0.  0.
        -13    1    3    3    0    0 -0.16066015550E+02 -0.26490902832E+02  0.32780898394E+02  0.45105246392E+02  0.10566000000E+00 0.  1.
         23    2    1    0    0    0 -0.19666816414E+02  0.17870188579E+02  0.39488690696E+01  0.98135136802E+02  0.94386356008E+02 0.  0.
         13    1    3    3    0    0 -0.36008008639E+01  0.44361091410E+02 -0.28832029324E+02  0.53029890411E+02  0.10566000000E+00 0. -1.
         22    1    1    0    0    0  0.19666816414E+02 -0.17870188579E+02 -0.39488690696E+01  0.26864863198E+02  0.00000000000E+00 0. -1.
</event>
<event>
 5    1  0.1766627E-003  0.9118800E+02  0.7818608E-02  0.1130116E+00
         25   -1    0    0    0    0  0.00000000000E+00  0.00000000000E+00  0.99999998245E-14  0.12500000000E+03  0.12500000000E+03 0.  0.
        -13    1    3    3    0    0  0.20951859745E+02  0.25972263629E+02  0.23641607920E+02  0.40895912924E+02  0.10566000000E+00 0.  1.
         23    2    1    0    0    0 -0.27284884492E+02  0.93001997065E+01  0.14453306826E+02  0.92753190630E+02  0.86967221742E+02 0.  0.
         13    1    3    3    0    0 -0.48236744237E+02 -0.16672063922E+02 -0.91883010946E+01  0.51857277706E+02  0.10566000000E+00 0. -1.
         22    1    1    0    0    0  0.27284884492E+02 -0.93001997065E+01 -0.14453306826E+02  0.32246809370E+02  0.00000000000E+00 0. -1.
</event>
<event>
 5    1  0.1766627E-003  0.9118800E+02  0.7818608E-02  0.1130116E+00
         25   -1    0    0    0    0  0.00000000000E+00  0.00000000000E+00  0.99999998245E-14  0.12500000000E+03  0.12500000000E+03 0.  0.
        -13    1    3    3    0    0 -0.14005773439E+02  0.37377891989E+02 -0.20005854923E+02  0.44648783796E+02  0.10566000000E+00 0.  1.
         23    2    1    0    0    0 -0.27768882030E+02 -0.13005309970E+01  0.99538245562E+01  0.95472372033E+02  0.90791480924E+02 0.  0.
         13    1    3    3    0    0 -0.13763108591E+02 -0.38678422986E+02  0.29959679479E+02  0.50823588238E+02  0.10566000000E+00 0. -1.
         22    1    1    0    0    0  0.27768882030E+02  0.13005309970E+01 -0.99538245562E+01  0.29527627967E+02  0.00000000000E+00 0. -1.
</event>
<event>
 5    1  0.1766627E-003  0.9118800E+02  0.7818608E-02  0.1130116E+00
         25   -1    0    0    0    0  0.00000000000E+00  0.00000000000E+00  0.99999998245E-14  0.12500000000E+03  0.12500000000E+03 0.  0.
        -13    1    3    3    0    0 -0.34789522232E+02 -0.42205816437E+02 -0.93833294641E+01  0.55495043329E+02  0.10566000000E+00 0. -1.
         23    2    1    0    0    0 -0.18045672942E+02 -0.70015849660E+01 -0.21260868099E+02  0.96247730241E+02  0.91852776552E+02 0.  0.
         13    1    3    3    0    0  0.16743849290E+02  0.35204231471E+02 -0.11877538635E+02  0.40752686912E+02  0.10566000000E+00 0.  1.
         22    1    1    0    0    0  0.18045672942E+02  0.70015849660E+01  0.21260868099E+02  0.28752269759E+02  0.00000000000E+00 0. -1.
</event>
<event>
 5    1  0.1766627E-003  0.9118800E+02  0.7818608E-02  0.1130116E+00
         25   -1    0    0    0    0  0.00000000000E+00  0.00000000000E+00  0.99999998245E-14  0.12500000000E+03  0.12500000000E+03 0.  0.
        -13    1    3    3    0    0  0.44879055407E+02 -0.33482834569E+02  0.13329060319E+02  0.57557839066E+02  0.10566000000E+00 0.  1.
         23    2    1    0    0    0  0.24654647758E+02 -0.14387571209E+02 -0.10898407951E+02  0.94444654195E+02  0.89365337513E+02 0.  0.
         13    1    3    3    0    0 -0.20224407649E+02  0.19095263360E+02 -0.24227468271E+02  0.36886815129E+02  0.10566000000E+00 0. -1.
         22    1    1    0    0    0 -0.24654647758E+02  0.14387571209E+02  0.10898407951E+02  0.30555345805E+02  0.00000000000E+00 0.  1.
</event>
<event>
 5    1  0.1766627E-003  0.9118800E+02  0.7818608E-02  0.1130116E+00
         25   -1    0    0    0    0  0.00000000000E+00  0.00000000000E+00  0.99999998245E-14  0.12500000000E+03  0.12500000000E+03 0.  0.
        -13    1    3    3    0    0 -0.27673708308E+02 -0.36089307715E+02 -0.37198213211E+02  0.58753642381E+02  0.10566000000E+00 0.  1.
         23    2    1    0    0    0 -0.10182051521E+02 -0.26794789969E+02 -0.59909831537E+01  0.95716441101E+02  0.91126891065E+02 0.  0.
         13    1    3    3    0    0  0.17491656788E+02  0.92945177466E+01  0.31207230057E+02  0.36962798720E+02  0.10566000000E+00 0. -1.
         22    1    1    0    0    0  0.10182051521E+02  0.26794789969E+02  0.59909831537E+01  0.29283558899E+02  0.00000000000E+00 0.  1.
</event>
<event>
 5    1  0.1766627E-003  0.9118800E+02  0.7818608E-02  0.1130116E+00
         25   -1    0    0    0    0  0.00000000000E+00  0.00000000000E+00  0.99999998245E-14  0.12500000000E+03  0.12500000000E+03 0.  0.
        -13    1    3    3    0    0  0.23466804246E+02  0.29657186083E+02  0.77000822190E+01  0.38594585347E+02  0.10566000000E+00 0.  1.
         23    2    1    0    0    0 -0.18526848518E+02 -0.12833828682E+00  0.25860065796E+02  0.93187996139E+02  0.87589948252E+02 0.  0.
         13    1    3    3    0    0 -0.41993652763E+02 -0.29785524370E+02  0.18159983577E+02  0.54593410792E+02  0.10566000000E+00 0. -1.
         22    1    1    0    0    0  0.18526848518E+02  0.12833828682E+00 -0.25860065796E+02  0.31812003861E+02  0.00000000000E+00 0. -1.
</event>
<event>
 5    1  0.1766627E-003  0.9118800E+02  0.7818608E-02  0.1130116E+00
         25   -1    0    0    0    0  0.00000000000E+00  0.00000000000E+00  0.99999998245E-14  0.12500000000E+03  0.12500000000E+03 0.  0.
        -13    1    3    3    0    0 -0.59937580568E+00 -0.31115867112E+02 -0.50131065514E+02  0.59005858448E+02  0.10566000000E+00 0.  1.
         23    2    1    0    0    0 -0.82755600122E+01 -0.23956087068E+02 -0.15276529843E+02  0.95406903421E+02  0.90701300185E+02 0.  0.
         13    1    3    3    0    0 -0.76761842065E+01  0.71597800447E+01  0.34854535671E+02  0.36401044973E+02  0.10566000000E+00 0. -1.
         22    1    1    0    0    0  0.82755600122E+01  0.23956087068E+02  0.15276529843E+02  0.29593096579E+02  0.00000000000E+00 0.  1.
</event>
<event>
 5    1  0.1766627E-003  0.9118800E+02  0.7818608E-02  0.1130116E+00
         25   -1    0    0    0    0  0.00000000000E+00  0.00000000000E+00  0.99999998245E-14  0.12500000000E+03  0.12500000000E+03 0.  0.
        -13    1    3    3    0    0 -0.87638919177E+01 -0.46643141542E+02  0.54879304867E+01  0.47775694652E+02  0.10566000000E+00 0.  1.
         23    2    1    0    0    0  0.19127650230E+02 -0.35998158296E+02 -0.12165961691E+02  0.82458901896E+02  0.70637988887E+02 0.  0.
         13    1    3    3    0    0  0.27891542148E+02  0.10644983245E+02 -0.17653892178E+02  0.34683207244E+02  0.10566000000E+00 0. -1.
         22    1    1    0    0    0 -0.19127650230E+02  0.35998158296E+02  0.12165961691E+02  0.42541098104E+02  0.00000000000E+00 0.  1.
</event>
<event>
 5    1  0.1766627E-003  0.9118800E+02  0.7818608E-02  0.1130116E+00
         25   -1    0    0    0    0  0.00000000000E+00  0.00000000000E+00  0.99999998245E-14  0.12500000000E+03  0.12500000000E+03 0.  0.
        -13    1    3    3    0    0 -0.63424412482E+00  0.14272821145E+02  0.43866184517E+02  0.46134249720E+02  0.10566000000E+00 0. -1.
         23    2    1    0    0    0 -0.26057753357E+02  0.66328101855E+01 -0.80623249523E+00  0.98099243657E+02  0.94338809163E+02 0.  0.
         13    1    3    3    0    0 -0.25423509232E+02 -0.76400109593E+01 -0.44672417013E+02  0.51964993938E+02  0.10566000000E+00 0.  1.
         22    1    1    0    0    0  0.26057753357E+02 -0.66328101855E+01  0.80623249523E+00  0.26900756343E+02  0.00000000000E+00 0.  1.
</event>
<event>
 5    1  0.1766627E-003  0.9118800E+02  0.7818608E-02  0.1130116E+00
         25   -1    0    0    0    0  0.00000000000E+00  0.00000000000E+00  0.99999998245E-14  0.12500000000E+03  0.12500000000E+03 0.  0.
        -13    1    3    3    0    0  0.35975634899E+02  0.10995065187E+02 -0.11576751579E+02  0.39359498294E+02  0.10566000000E+00 0.  1.
         23    2    1    0    0    0 -0.55634316872E+01 -0.26675810187E+02 -0.11465567457E+02  0.95436342270E+02  0.90741862266E+02 0.  0.
         13    1    3    3    0    0 -0.41539066586E+02 -0.37670875374E+02  0.11118412155E+00  0.56076843975E+02  0.10566000000E+00 0. -1.
         22    1    1    0    0    0  0.55634316872E+01  0.26675810187E+02  0.11465567457E+02  0.29563657730E+02  0.00000000000E+00 0. -1.
</event>
<event>
 5    1  0.1766627E-003  0.9118800E+02  0.7818608E-02  0.1130116E+00
         25   -1    0    0    0    0  0.00000000000E+00  0.00000000000E+00  0.99999998245E-14  0.12500000000E+03  0.12500000000E+03 0.  0.
        -13    1    3    3    0    0 -0.13655360984E+02  0.30077651712E+02  0.41249716435E+02  0.52845854010E+02  0.10566000000E+00 0. -1.
         23    2    1    0    0    0 -0.24669690346E+02 -0.25131958126E+01  0.17494699059E+02  0.94652442106E+02  0.89655510296E+02 0.  0.
         13    1    3    3    0    0 -0.11014329362E+02 -0.32590847524E+02 -0.23755017376E+02  0.41806588096E+02  0.10566000000E+00 0.  1.
         22    1    1    0    0    0  0.24669690346E+02  0.25131958126E+01 -0.17494699059E+02  0.30347557894E+02  0.00000000000E+00 0. -1.
</event>
<event>
 5    1  0.1766627E-003  0.9118800E+02  0.7818608E-02  0.1130116E+00
         25   -1    0    0    0    0  0.00000000000E+00  0.00000000000E+00  0.99999998245E-14  0.12500000000E+03  0.12500000000E+03 0.  0.
        -13    1    3    3    0    0 -0.57308993690E+01 -0.32740644134E+02 -0.13852897514E+02  0.36009816988E+02  0.10566000000E+00 0.  1.
         23    2    1    0    0    0  0.18975109664E+02  0.11912406914E+02  0.18080685528E+02  0.96209872970E+02  0.91801243142E+02 0.  0.
         13    1    3    3    0    0  0.24706009033E+02  0.44653051049E+02  0.31933583043E+02  0.60200055982E+02  0.10566000000E+00 0. -1.
         22    1    1    0    0    0 -0.18975109664E+02 -0.11912406914E+02 -0.18080685528E+02  0.28790127030E+02  0.00000000000E+00 0. -1.
</event>
<event>
 5    1  0.1766627E-003  0.9118800E+02  0.7818608E-02  0.1130116E+00
         25   -1    0    0    0    0  0.00000000000E+00  0.00000000000E+00  0.99999998245E-14  0.12500000000E+03  0.12500000000E+03 0.  0.
        -13    1    3    3    0    0  0.23782865651E+02  0.19932395518E+02 -0.31643279793E+02  0.44319672943E+02  0.10566000000E+00 0.  1.
         23    2    1    0    0    0 -0.22339575422E+02  0.55925303132E+01 -0.21119394775E+02  0.93753210389E+02  0.88392887708E+02 0.  0.
         13    1    3    3    0    0 -0.46122441073E+02 -0.14339865205E+02  0.10523885018E+02  0.49433537447E+02  0.10566000000E+00 0. -1.
         22    1    1    0    0    0  0.22339575422E+02 -0.55925303132E+01  0.21119394775E+02  0.31246789611E+02  0.00000000000E+00 0.  1.
</event>
<event>
 5    1  0.1766627E-003  0.9118800E+02  0.7818608E-02  0.1130116E+00
         25   -1    0    0    0    0  0.00000000000E+00  0.00000000000E+00  0.99999998245E-14  0.12500000000E+03  0.12500000000E+03 0.  0.
        -13    1    3    3    0    0 -0.30148293560E+01  0.14852373610E+02  0.44685665313E+02  0.47185824634E+02  0.10566000000E+00 0.  1.
         23    2    1    0    0    0 -0.21048202831E+02 -0.16069037112E+02  0.27251118726E+02  0.87001785990E+02  0.78265231728E+02 0.  0.
         13    1    3    3    0    0 -0.18033373475E+02 -0.30921410723E+02 -0.17434546587E+02  0.39815961356E+02  0.10566000000E+00 0. -1.
         22    1    1    0    0    0  0.21048202831E+02  0.16069037112E+02 -0.27251118726E+02  0.37998214010E+02  0.00000000000E+00 0.  1.
</event>
<event>
 5    1  0.1766627E-003  0.9118800E+02  0.7818608E-02  0.1130116E+00
         25   -1    0    0    0    0  0.00000000000E+00  0.00000000000E+00  0.99999998245E-14  0.12500000000E+03  0.12500000000E+03 0.  0.
        -13    1    3    3    0    0 -0.15994156360E+01  0.42857556170E+02  0.24137480428E+02  0.49213386153E+02  0.10566000000E+00 0.  1.
         23    2    1    0    0    0 -0.27345550527E+02  0.12443115549E+02  0.17838649817E+01  0.94903614296E+02  0.90005019715E+02 0.  0.
         13    1    3    3    0    0 -0.25746134891E+02 -0.30414440621E+02 -0.22353615447E+02  0.45690228142E+02  0.10566000000E+00 0. -1.
         22    1    1    0    0    0  0.27345550527E+02 -0.12443115549E+02 -0.17838649817E+01  0.30096385704E+02  0.00000000000E+00 0. -1.
</event>
<event>
 5    1  0.1766627E-003  0.9118800E+02  0.7818608E-02  0.1130116E+00
         25   -1    0    0    0    0  0.00000000000E+00  0.00000000000E+00  0.99999998245E-14  0.12500000000E+03  0.12500000000E+03 0.  0.
        -13    1    3    3    0    0  0.19103764403E+02  0.10774524089E+02 -0.56286376557E+02  0.60408704122E+02  0.10566000000E+00 0. -1.
         23    2    1    0    0    0 -0.19930409387E+01  0.31572454963E+01 -0.29135207532E+02  0.95626530180E+02  0.91003475456E+02 0.  0.
         13    1    3    3    0    0 -0.21096805342E+02 -0.76172785928E+01  0.27151169025E+02  0.35217826058E+02  0.10566000000E+00 0.  1.
         22    1    1    0    0    0  0.19930409387E+01 -0.31572454963E+01  0.29135207532E+02  0.29373469820E+02  0.00000000000E+00 0. -1.
</event>
<event>
 5    1  0.1766627E-003  0.9118800E+02  0.7818608E-02  0.1130116E+00
         25   -1    0    0    0    0  0.00000000000E+00  0.00000000000E+00  0.99999998245E-14  0.12500000000E+03  0.12500000000E+03 0.  0.
        -13    1    3    3    0    0  0.16143309161E+02 -0.24632249671E+02  0.27895169625E+02  0.40564834610E+02  0.10566000000E+00 0. -1.
         23    2    1    0    0    0  0.20777203982E+02 -0.10457328134E+00 -0.20997044925E+02  0.95460551182E+02  0.90775204740E+02 0.  0.
         13    1    3    3    0    0  0.46338948214E+01  0.24527676390E+02 -0.48892214550E+02  0.54895716572E+02  0.10566000000E+00 0.  1.
         22    1    1    0    0    0 -0.20777203982E+02  0.10457328134E+00  0.20997044925E+02  0.29539448818E+02  0.00000000000E+00 0.  1.
</event>
<event>
 5    1  0.1766627E-003  0.9118800E+02  0.7818608E-02  0.1130116E+00
         25   -1    0    0    0    0  0.00000000000E+00  0.00000000000E+00  0.99999998245E-14  0.12500000000E+03  0.12500000000E+03 0.  0.
        -13    1    3    3    0    0 -0.33845773179E+02 -0.33283967872E+01 -0.50608213562E+02  0.60973904510E+02  0.10566000000E+00 0.  1.
         23    2    1    0    0    0 -0.16551028540E+02 -0.11165857362E+02 -0.22209828445E+02  0.95135482661E+02  0.90326467136E+02 0.  0.
         13    1    3    3    0    0  0.17294744640E+02 -0.78374605752E+01  0.28398385117E+02  0.34161578151E+02  0.10566000000E+00 0. -1.
         22    1    1    0    0    0  0.16551028540E+02  0.11165857362E+02  0.22209828445E+02  0.29864517339E+02  0.00000000000E+00 0.  1.
</event>
<event>
 5    1  0.1766627E-003  0.9118800E+02  0.7818608E-02  0.1130116E+00
         25   -1    0    0    0    0  0.00000000000E+00  0.00000000000E+00  0.99999998245E-14  0.12500000000E+03  0.12500000000E+03 0.  0.
        -13    1    3    3    0    0 -0.10147421044E+02  0.23870608095E+02 -0.22307551958E+02  0.34211315717E+02  0.10566000000E+00 0. -1.
         23    2    1    0    0    0  0.53547719717E+01 -0.30347993702E+02 -0.21083631447E+01  0.94111175164E+02  0.88897659087E+02 0.  0.
         13    1    3    3    0    0  0.15502193015E+02 -0.54218601797E+02  0.20199188814E+02  0.59899859448E+02  0.10566000000E+00 0.  1.
         22    1    1    0    0    0 -0.53547719717E+01  0.30347993702E+02  0.21083631447E+01  0.30888824836E+02  0.00000000000E+00 0.  1.
</event>
<event>
 5    1  0.1766627E-003  0.9118800E+02  0.7818608E-02  0.1130116E+00
         25   -1    0    0    0    0  0.00000000000E+00  0.00000000000E+00  0.99999998245E-14  0.12500000000E+03  0.12500000000E+03 0.  0.
        -13    1    3    3    0    0  0.28511735246E+01  0.25310145125E+02  0.41037797879E+02  0.48299530593E+02  0.10566000000E+00 0. -1.
         23    2    1    0    0    0 -0.17710895509E+02  0.23199882900E+02 -0.16890223411E+01  0.95763666735E+02  0.91191648103E+02 0.  0.
         13    1    3    3    0    0 -0.20562069034E+02 -0.21102622249E+01 -0.42726820220E+02  0.47464136142E+02  0.10566000000E+00 0.  1.
         22    1    1    0    0    0  0.17710895509E+02 -0.23199882900E+02  0.16890223411E+01  0.29236333265E+02  0.00000000000E+00 0.  1.
</event>
<event>
 5    1  0.1766627E-003  0.9118800E+02  0.7818608E-02  0.1130116E+00
         25   -1    0    0    0    0  0.00000000000E+00  0.00000000000E+00  0.99999998245E-14  0.12500000000E+03  0.12500000000E+03 0.  0.
        -13    1    3    3    0    0 -0.28012838108E+02 -0.66645250706E+01 -0.23926328088E+02  0.37438153441E+02  0.10566000000E+00 0.  1.
         23    2    1    0    0    0  0.17133671243E+02 -0.19406335716E+02  0.11942780770E+02  0.96490377612E+02  0.92182397468E+02 0.  0.
         13    1    3    3    0    0  0.45146509352E+02 -0.12741810646E+02  0.35869108858E+02  0.59052224170E+02  0.10566000000E+00 0. -1.
         22    1    1    0    0    0 -0.17133671243E+02  0.19406335716E+02 -0.11942780770E+02  0.28509622388E+02  0.00000000000E+00 0. -1.
</event>
<event>
 5    1  0.1766627E-003  0.9118800E+02  0.7818608E-02  0.1130116E+00
         25   -1    0    0    0    0  0.00000000000E+00  0.00000000000E+00  0.99999998245E-14  0.12500000000E+03  0.12500000000E+03 0.  0.
        -13    1    3    3    0    0 -0.16874647693E+02  0.71479889796E+01 -0.55869746934E+02  0.58798701242E+02  0.10566000000E+00 0.  1.
         23    2    1    0    0    0 -0.20306974552E+02  0.69416817222E+01 -0.17537661088E+02  0.97284846798E+02  0.93253480897E+02 0.  0.
         13    1    3    3    0    0 -0.34323268590E+01 -0.20630725746E+00  0.38332085846E+02  0.38486145556E+02  0.10566000000E+00 0. -1.
         22    1    1    0    0    0  0.20306974552E+02 -0.69416817222E+01  0.17537661088E+02  0.27715153202E+02  0.00000000000E+00 0.  1.
</event>
<event>
 5    1  0.1766627E-003  0.9118800E+02  0.7818608E-02  0.1130116E+00
         25   -1    0    0    0    0  0.00000000000E+00  0.00000000000E+00  0.99999998245E-14  0.12500000000E+03  0.12500000000E+03 0.  0.
        -13    1    3    3    0    0  0.23389156043E+02 -0.39190154541E+02  0.18340703792E+02  0.49186516577E+02  0.10566000000E+00 0.  1.
         23    2    1    0    0    0  0.20785676918E+02 -0.11308590760E+02 -0.18145929907E+02  0.95180486890E+02  0.90388725638E+02 0.  0.
         13    1    3    3    0    0 -0.26034791241E+01  0.27881563781E+02 -0.36486633699E+02  0.45993970313E+02  0.10566000000E+00 0. -1.
         22    1    1    0    0    0 -0.20785676918E+02  0.11308590760E+02  0.18145929907E+02  0.29819513110E+02  0.00000000000E+00 0.  1.
</event>
<event>
 5    1  0.1766627E-003  0.9118800E+02  0.7818608E-02  0.1130116E+00
         25   -1    0    0    0    0  0.00000000000E+00  0.00000000000E+00  0.99999998245E-14  0.12500000000E+03  0.12500000000E+03 0.  0.
        -13    1    3    3    0    0  0.53250471967E+02 -0.19382424087E+02  0.21563658456E+02  0.60632447240E+02  0.10566000000E+00 0. -1.
         23    2    1    0    0    0  0.21150301630E+02 -0.19096225492E+02  0.11456415772E+02  0.94287615699E+02  0.89145408883E+02 0.  0.
         13    1    3    3    0    0 -0.32100170337E+02  0.28619859525E+00 -0.10107242684E+02  0.33655168459E+02  0.10566000000E+00 0.  1.
         22    1    1    0    0    0 -0.21150301630E+02  0.19096225492E+02 -0.11456415772E+02  0.30712384301E+02  0.00000000000E+00 0. -1.
</event>
<event>
 5    1  0.1766627E-003  0.9118800E+02  0.7818608E-02  0.1130116E+00
         25   -1    0    0    0    0  0.00000000000E+00  0.00000000000E+00  0.99999998245E-14  0.12500000000E+03  0.12500000000E+03 0.  0.
        -13    1    3    3    0    0  0.65674243718E+01  0.21234124719E+02  0.28038288888E+02  0.35779546158E+02  0.10566000000E+00 0. -1.
         23    2    1    0    0    0 -0.34287015317E+02 -0.44322148325E+01  0.25813797969E+01  0.90331462833E+02  0.83413822045E+02 0.  0.
         13    1    3    3    0    0 -0.40854439689E+02 -0.25666339552E+02 -0.25456909091E+02  0.54551916674E+02  0.10566000000E+00 0.  1.
         22    1    1    0    0    0  0.34287015317E+02  0.44322148325E+01 -0.25813797969E+01  0.34668537167E+02  0.00000000000E+00 0.  1.
</event>
<event>
 5    1  0.1766627E-003  0.9118800E+02  0.7818608E-02  0.1130116E+00
         25   -1    0    0    0    0  0.00000000000E+00  0.00000000000E+00  0.99999998245E-14  0.12500000000E+03  0.12500000000E+03 0.  0.
        -13    1    3    3    0    0 -0.19405922008E+02 -0.52818814838E+01  0.41789908612E+02  0.46377750126E+02  0.10566000000E+00 0. -1.
         23    2    1    0    0    0 -0.24280277818E+02  0.14573192446E+02 -0.38822198062E+01  0.96417112469E+02  0.92082995809E+02 0.  0.
         13    1    3    3    0    0 -0.48743558106E+01  0.19855073930E+02 -0.45672128418E+02  0.50039362342E+02  0.10566000000E+00 0.  1.
         22    1    1    0    0    0  0.24280277818E+02 -0.14573192446E+02  0.38822198062E+01  0.28582887531E+02  0.00000000000E+00 0.  1.
</event>
<event>
 5    1  0.1766627E-003  0.9118800E+02  0.7818608E-02  0.1130116E+00
         25   -1    0    0    0    0  0.00000000000E+00  0.00000000000E+00  0.99999998245E-14  0.12500000000E+03  0.12500000000E+03 0.  0.
        -13    1    3    3    0    0 -0.15378857327E+02 -0.31749982438E+02  0.25041654129E+02  0.43262758154E+02  0.10566000000E+00 0. -1.
         23    2    1    0    0    0 -0.72354716156E+01  0.13802178221E+02  0.31374384848E+02  0.89968525613E+02  0.82868156750E+02 0.  0.
         13    1    3    3    0    0  0.81433857112E+01  0.45552160659E+02  0.63327307192E+01  0.46705767459E+02  0.10566000000E+00 0.  1.
         22    1    1    0    0    0  0.72354716156E+01 -0.13802178221E+02 -0.31374384848E+02  0.35031474387E+02  0.00000000000E+00 0.  1.
</event>
<event>
 5    1  0.1766627E-003  0.9118800E+02  0.7818608E-02  0.1130116E+00
         25   -1    0    0    0    0  0.00000000000E+00  0.00000000000E+00  0.99999998245E-14  0.12500000000E+03  0.12500000000E+03 0.  0.
        -13    1    3    3    0    0 -0.37573496653E+02 -0.17497173415E+02  0.22388190494E+01  0.41508338958E+02  0.10566000000E+00 0.  1.
         23    2    1    0    0    0 -0.11768148237E+02  0.16001036799E+02 -0.25944509300E+02  0.92325238266E+02  0.86349925110E+02 0.  0.
         13    1    3    3    0    0  0.25805348416E+02  0.33498210214E+02 -0.28183328349E+02  0.50816899308E+02  0.10566000000E+00 0. -1.
         22    1    1    0    0    0  0.11768148237E+02 -0.16001036799E+02  0.25944509300E+02  0.32674761734E+02  0.00000000000E+00 0. -1.
</event>
<event>
 5    1  0.1766627E-003  0.9118800E+02  0.7818608E-02  0.1130116E+00
         25   -1    0    0    0    0  0.00000000000E+00  0.00000000000E+00  0.99999998245E-14  0.12500000000E+03  0.12500000000E+03 0.  0.
        -13    1    3    3    0    0  0.28461589199E+02 -0.55340329563E+02  0.22256632692E+01  0.62270208582E+02  0.10566000000E+00 0. -1.
         23    2    1    0    0    0  0.15526686049E+02 -0.24844915460E+02  0.39331172591E+01  0.95439600557E+02  0.90746350555E+02 0.  0.
         13    1    3    3    0    0 -0.12934903150E+02  0.30495414103E+02  0.17074539900E+01  0.33169391974E+02  0.10566000000E+00 0.  1.
         22    1    1    0    0    0 -0.15526686049E+02  0.24844915460E+02 -0.39331172591E+01  0.29560399443E+02  0.00000000000E+00 0. -1.
</event>
<event>
 5    1  0.1766627E-003  0.9118800E+02  0.7818608E-02  0.1130116E+00
         25   -1    0    0    0    0  0.00000000000E+00  0.00000000000E+00  0.99999998245E-14  0.12500000000E+03  0.12500000000E+03 0.  0.
        -13    1    3    3    0    0 -0.30504456886E+02  0.67581447596E+01  0.45295973841E+02  0.55026637375E+02  0.10566000000E+00 0.  1.
         23    2    1    0    0    0  0.70488789634E+01  0.11278104155E+02  0.21516131482E+02  0.99705213147E+02  0.96443264601E+02 0.  0.
         13    1    3    3    0    0  0.37553335850E+02  0.45199593958E+01 -0.23779842359E+02  0.44678575772E+02  0.10566000000E+00 0. -1.
         22    1    1    0    0    0 -0.70488789634E+01 -0.11278104155E+02 -0.21516131482E+02  0.25294786853E+02  0.00000000000E+00 0.  1.
</event>
<event>
 5    1  0.1766627E-003  0.9118800E+02  0.7818608E-02  0.1130116E+00
         25   -1    0    0    0    0  0.00000000000E+00  0.00000000000E+00  0.99999998245E-14  0.12500000000E+03  0.12500000000E+03 0.  0.
        -13    1    3    3    0    0 -0.59713521686E+02 -0.95469297997E+01 -0.11616002556E+02  0.61577522037E+02  0.10566000000E+00 0.  1.
         23    2    1    0    0    0 -0.26959487721E+02  0.10007136216E+01 -0.10632875056E+02  0.96002182188E+02  0.91518006681E+02 0.  0.
         13    1    3    3    0    0  0.32754033966E+02  0.10547643421E+02  0.98312749967E+00  0.34424660151E+02  0.10566000000E+00 0. -1.
         22    1    1    0    0    0  0.26959487721E+02 -0.10007136216E+01  0.10632875056E+02  0.28997817812E+02  0.00000000000E+00 0.  1.
</event>
<event>
 5    1  0.1766627E-003  0.9118800E+02  0.7818608E-02  0.1130116E+00
         25   -1    0    0    0    0  0.00000000000E+00  0.00000000000E+00  0.99999998245E-14  0.12500000000E+03  0.12500000000E+03 0.  0.
        -13    1    3    3    0    0 -0.42724060456E+02  0.33887409762E+02 -0.14374108603E+02  0.56394397279E+02  0.10566000000E+00 0. -1.
         23    2    1    0    0    0 -0.16669613225E+02  0.44024505638E+01 -0.22582012289E+02  0.96588649186E+02  0.92315558259E+02 0.  0.
         13    1    3    3    0    0  0.26054447232E+02 -0.29484959198E+02 -0.82079036865E+01  0.40194251908E+02  0.10566000000E+00 0.  1.
         22    1    1    0    0    0  0.16669613225E+02 -0.44024505638E+01  0.22582012289E+02  0.28411350814E+02  0.00000000000E+00 0. -1.
</event>
<event>
 5    1  0.1766627E-003  0.9118800E+02  0.7818608E-02  0.1130116E+00
         25   -1    0    0    0    0  0.00000000000E+00  0.00000000000E+00  0.99999998245E-14  0.12500000000E+03  0.12500000000E+03 0.  0.
        -13    1    3    3    0    0  0.29265861233E+02  0.34261712785E+02 -0.76787148681E+01  0.45709183133E+02  0.10566000000E+00 0.  1.
         23    2    1    0    0    0  0.14892072988E+02  0.64434659554E+01  0.27664479720E+02  0.92927963432E+02  0.87218064975E+02 0.  0.
         13    1    3    3    0    0 -0.14373788245E+02 -0.27818246829E+02  0.35343194589E+02  0.47218780299E+02  0.10566000000E+00 0. -1.
         22    1    1    0    0    0 -0.14892072988E+02 -0.64434659554E+01 -0.27664479720E+02  0.32072036568E+02  0.00000000000E+00 0. -1.
</event>
<event>
 5    1  0.1766627E-003  0.9118800E+02  0.7818608E-02  0.1130116E+00
         25   -1    0    0    0    0  0.00000000000E+00  0.00000000000E+00  0.99999998245E-14  0.12500000000E+03  0.12500000000E+03 0.  0.
        -13    1    3    3    0    0 -0.39759401174E+02  0.17075417228E+02 -0.55319276638E+01  0.43623310775E+02  0.10566000000E+00 0.  1.
         23    2    1    0    0    0 -0.55592119986E+01 -0.16510128123E+02 -0.24300075199E+02  0.95100454462E+02  0.90277979682E+02 0.  0.
         13    1    3    3    0    0  0.34200189176E+02 -0.33585545351E+02 -0.18768147536E+02  0.51477143687E+02  0.10566000000E+00 0. -1.
         22    1    1    0    0    0  0.55592119986E+01  0.16510128123E+02  0.24300075199E+02  0.29899545538E+02  0.00000000000E+00 0. -1.
</event>
<event>
 5    1  0.1766627E-003  0.9118800E+02  0.7818608E-02  0.1130116E+00
         25   -1    0    0    0    0  0.00000000000E+00  0.00000000000E+00  0.99999998245E-14  0.12500000000E+03  0.12500000000E+03 0.  0.
        -13    1    3    3    0    0 -0.14618726986E+02  0.41852289724E+02  0.32197783970E+02  0.54790781984E+02  0.10566000000E+00 0. -1.
         23    2    1    0    0    0 -0.16290604135E+02  0.10796618233E+01  0.23288021201E+02  0.96559159925E+02  0.92275619647E+02 0.  0.
         13    1    3    3    0    0 -0.16718771493E+01 -0.40772627901E+02 -0.89097627692E+01  0.41768377940E+02  0.10566000000E+00 0.  1.
         22    1    1    0    0    0  0.16290604135E+02 -0.10796618233E+01 -0.23288021201E+02  0.28440840075E+02  0.00000000000E+00 0. -1.
</event>
<event>
 5    1  0.1766627E-003  0.9118800E+02  0.7818608E-02  0.1130116E+00
         25   -1    0    0    0    0  0.00000000000E+00  0.00000000000E+00  0.99999998245E-14  0.12500000000E+03  0.12500000000E+03 0.  0.
        -13    1    3    3    0    0 -0.31463162708E+02  0.18225697884E+02  0.16972180102E+01  0.36400527249E+02  0.10566000000E+00 0. -1.
         23    2    1    0    0    0  0.16179683784E+02 -0.88381926181E+01  0.23291015087E+02  0.95295333702E+02  0.90547409822E+02 0.  0.
         13    1    3    3    0    0  0.47642846492E+02 -0.27063890503E+02  0.21593797077E+02  0.58894806453E+02  0.10566000000E+00 0.  1.
         22    1    1    0    0    0 -0.16179683784E+02  0.88381926181E+01 -0.23291015087E+02  0.29704666298E+02  0.00000000000E+00 0.  1.
</event>
<event>
 5    1  0.1766627E-003  0.9118800E+02  0.7818608E-02  0.1130116E+00
         25   -1    0    0    0    0  0.00000000000E+00  0.00000000000E+00  0.99999998245E-14  0.12500000000E+03  0.12500000000E+03 0.  0.
        -13    1    3    3    0    0  0.30328781680E+02 -0.34688802531E+02  0.39388999766E+02  0.60618911948E+02  0.10566000000E+00 0. -1.
         23    2    1    0    0    0  0.22437982609E+02 -0.16033595021E+02  0.11422853056E+02  0.95150028395E+02  0.90346594284E+02 0.  0.
         13    1    3    3    0    0 -0.78907990701E+01  0.18655207510E+02 -0.27966146710E+02  0.34531116447E+02  0.10566000000E+00 0.  1.
         22    1    1    0    0    0 -0.22437982609E+02  0.16033595021E+02 -0.11422853056E+02  0.29849971605E+02  0.00000000000E+00 0. -1.
</event>
<event>
 5    1  0.1766627E-003  0.9118800E+02  0.7818608E-02  0.1130116E+00
         25   -1    0    0    0    0  0.00000000000E+00  0.00000000000E+00  0.99999998245E-14  0.12500000000E+03  0.12500000000E+03 0.  0.
        -13    1    3    3    0    0 -0.24369729472E+02 -0.24366353944E+02  0.26411980102E+02  0.43418967929E+02  0.10566000000E+00 0.  1.
         23    2    1    0    0    0  0.17829598778E+02 -0.11424480819E+02  0.30633634162E+02  0.87759794623E+02  0.79466651217E+02 0.  0.
         13    1    3    3    0    0  0.42199328251E+02  0.12941873125E+02  0.42216540598E+01  0.44340826693E+02  0.10566000000E+00 0. -1.
         22    1    1    0    0    0 -0.17829598778E+02  0.11424480819E+02 -0.30633634162E+02  0.37240205377E+02  0.00000000000E+00 0. -1.
</event>
<event>
 5    1  0.1766627E-003  0.9118800E+02  0.7818608E-02  0.1130116E+00
         25   -1    0    0    0    0  0.00000000000E+00  0.00000000000E+00  0.99999998245E-14  0.12500000000E+03  0.12500000000E+03 0.  0.
        -13    1    3    3    0    0 -0.34590866296E+02 -0.25926271205E+01  0.34478717807E+01  0.34858983495E+02  0.10566000000E+00 0.  1.
         23    2    1    0    0    0  0.25874849389E+02  0.39337699357E+00 -0.10646783454E+02  0.97017566684E+02  0.92894519058E+02 0.  0.
         13    1    3    3    0    0  0.60465715685E+02  0.29860041141E+01 -0.14094655234E+02  0.62158583189E+02  0.10566000000E+00 0. -1.
         22    1    1    0    0    0 -0.25874849389E+02 -0.39337699357E+00  0.10646783454E+02  0.27982433316E+02  0.00000000000E+00 0. -1.
</event>
<event>
 5    1  0.1766627E-003  0.9118800E+02  0.7818608E-02  0.1130116E+00
         25   -1    0    0    0    0  0.00000000000E+00  0.00000000000E+00  0.99999998245E-14  0.12500000000E+03  0.12500000000E+03 0.  0.
        -13    1    3    3    0    0 -0.39474013049E+02  0.10750952918E+02 -0.67227289217E+01  0.41460667421E+02  0.10566000000E+00 0.  1.
         23    2    1    0    0    0 -0.57963235510E+01 -0.22735035509E+02  0.18395314034E+02  0.95186131000E+02  0.90396530631E+02 0.  0.
         13    1    3    3    0    0  0.33677689498E+02 -0.33485988427E+02  0.25118042956E+02  0.53725463579E+02  0.10566000000E+00 0. -1.
         22    1    1    0    0    0  0.57963235510E+01  0.22735035509E+02 -0.18395314034E+02  0.29813869000E+02  0.00000000000E+00 0. -1.
</event>
<event>
 5    1  0.1766627E-003  0.9118800E+02  0.7818608E-02  0.1130116E+00
         25   -1    0    0    0    0  0.00000000000E+00  0.00000000000E+00  0.99999998245E-14  0.12500000000E+03  0.12500000000E+03 0.  0.
        -13    1    3    3    0    0  0.16271405987E+02  0.29496995379E+02  0.29754293121E+02  0.44946195749E+02  0.10566000000E+00 0. -1.
         23    2    1    0    0    0 -0.20173581157E+02 -0.50782430716E+01  0.20042863885E+02  0.96112661561E+02  0.91668780892E+02 0.  0.
         13    1    3    3    0    0 -0.36444987144E+02 -0.34575238450E+02 -0.97114292359E+01  0.51166465812E+02  0.10566000000E+00 0.  1.
         22    1    1    0    0    0  0.20173581157E+02  0.50782430716E+01 -0.20042863885E+02  0.28887338439E+02  0.00000000000E+00 0.  1.
</event>
<event>
 5    1  0.1766627E-003  0.9118800E+02  0.7818608E-02  0.1130116E+00
         25   -1    0    0    0    0  0.00000000000E+00  0.00000000000E+00  0.99999998245E-14  0.12500000000E+03  0.12500000000E+03 0.  0.
        -13    1    3    3    0    0  0.35381431415E+01  0.37116525310E+02 -0.42865951126E+00  0.37287394935E+02  0.10566000000E+00 0.  1.
         23    2    1    0    0    0 -0.20472488821E+02 -0.12135838846E+02  0.18068843060E+02  0.95118827457E+02  0.90303415574E+02 0.  0.
         13    1    3    3    0    0 -0.24010631962E+02 -0.49252364156E+02  0.18497502571E+02  0.57831432523E+02  0.10566000000E+00 0. -1.
         22    1    1    0    0    0  0.20472488821E+02  0.12135838846E+02 -0.18068843060E+02  0.29881172543E+02  0.00000000000E+00 0.  1.
</event>
<event>
 5    1  0.1766627E-003  0.9118800E+02  0.7818608E-02  0.1130116E+00
         25   -1    0    0    0    0  0.00000000000E+00  0.00000000000E+00  0.99999998245E-14  0.12500000000E+03  0.12500000000E+03 0.  0.
        -13    1    3    3    0    0  0.44022745528E+02  0.64768164573E+01  0.36541903293E+02  0.57578408588E+02  0.10566000000E+00 0.  1.
         23    2    1    0    0    0  0.21989311751E+02  0.18720518274E+02  0.93766581725E+01  0.94637039765E+02  0.89634033387E+02 0.  0.
         13    1    3    3    0    0 -0.22033433778E+02  0.12243701817E+02 -0.27165245120E+02  0.37058631177E+02  0.10566000000E+00 0. -1.
         22    1    1    0    0    0 -0.21989311751E+02 -0.18720518274E+02 -0.93766581725E+01  0.30362960235E+02  0.00000000000E+00 0.  1.
</event>
<event>
 5    1  0.1766627E-003  0.9118800E+02  0.7818608E-02  0.1130116E+00
         25   -1    0    0    0    0  0.00000000000E+00  0.00000000000E+00  0.99999998245E-14  0.12500000000E+03  0.12500000000E+03 0.  0.
        -13    1    3    3    0    0  0.40762630078E+02  0.26120211513E+02  0.22198558582E+02  0.53260159852E+02  0.10566000000E+00 0.  1.
         23    2    1    0    0    0  0.31337155967E+02 -0.10323981311E+01 -0.54889999769E+01  0.93169003931E+02  0.87562840193E+02 0.  0.
         13    1    3    3    0    0 -0.94254741108E+01 -0.27152609644E+02 -0.27687558559E+02  0.39908844079E+02  0.10566000000E+00 0. -1.
         22    1    1    0    0    0 -0.31337155967E+02  0.10323981311E+01  0.54889999769E+01  0.31830996069E+02  0.00000000000E+00 0.  1.
</event>
<event>
 5    1  0.1766627E-003  0.9118800E+02  0.7818608E-02  0.1130116E+00
         25   -1    0    0    0    0  0.00000000000E+00  0.00000000000E+00  0.99999998245E-14  0.12500000000E+03  0.12500000000E+03 0.  0.
        -13    1    3    3    0    0 -0.58884102828E+01  0.13723883732E+02  0.37332778697E+02  0.40209027464E+02  0.10566000000E+00 0.  1.
         23    2    1    0    0    0 -0.30648637647E+01 -0.27017705724E+02 -0.30447996036E+01  0.97639067686E+02  0.93727087447E+02 0.  0.
         13    1    3    3    0    0  0.28235465180E+01 -0.40741589456E+02 -0.40377578301E+02  0.57430040221E+02  0.10566000000E+00 0. -1.
         22    1    1    0    0    0  0.30648637647E+01  0.27017705724E+02  0.30447996036E+01  0.27360932314E+02  0.00000000000E+00 0. -1.
</event>
<event>
 5    1  0.1766627E-003  0.9118800E+02  0.7818608E-02  0.1130116E+00
         25   -1    0    0    0    0  0.00000000000E+00  0.00000000000E+00  0.99999998245E-14  0.12500000000E+03  0.12500000000E+03 0.  0.
        -13    1    3    3    0    0  0.91413240467E+00  0.15159159569E+02 -0.39059134539E+02  0.41907790587E+02  0.10566000000E+00 0.  1.
         23    2    1    0    0    0 -0.91341452237E+01 -0.26813753998E+02 -0.65896664057E+01  0.95916779481E+02  0.91401284839E+02 0.  0.
         13    1    3    3    0    0 -0.10048277628E+02 -0.41972913566E+02  0.32469468133E+02  0.54008988895E+02  0.10566000000E+00 0. -1.
         22    1    1    0    0    0  0.91341452237E+01  0.26813753998E+02  0.65896664057E+01  0.29083220519E+02  0.00000000000E+00 0. -1.
</event>
<event>
 5    1  0.1766627E-003  0.9118800E+02  0.7818608E-02  0.1130116E+00
         25   -1    0    0    0    0  0.00000000000E+00  0.00000000000E+00  0.99999998245E-14  0.12500000000E+03  0.12500000000E+03 0.  0.
        -13    1    3    3    0    0  0.41720191859E+02  0.35395467852E+02 -0.88113718864E+01  0.55417190399E+02  0.10566000000E+00 0. -1.
         23    2    1    0    0    0  0.95183520778E+01  0.35530485626E+02 -0.35611773520E+01  0.88044669949E+02  0.79913500031E+02 0.  0.
         13    1    3    3    0    0 -0.32201839781E+02  0.13501777386E+00  0.52501945344E+01  0.32627479550E+02  0.10566000000E+00 0.  1.
         22    1    1    0    0    0 -0.95183520778E+01 -0.35530485626E+02  0.35611773520E+01  0.36955330051E+02  0.00000000000E+00 0. -1.
</event>
<event>
 5    1  0.1766627E-003  0.9118800E+02  0.7818608E-02  0.1130116E+00
         25   -1    0    0    0    0  0.00000000000E+00  0.00000000000E+00  0.99999998245E-14  0.12500000000E+03  0.12500000000E+03 0.  0.
        -13    1    3    3    0    0 -0.14398745611E+02  0.40544200530E+01 -0.59861403916E+02  0.61702196395E+02  0.10566000000E+00 0.  1.
         23    2    1    0    0    0 -0.13504788287E+02  0.85225667737E+01 -0.48243832445E+02  0.74181884922E+02  0.54041384424E+02 0.  0.
         13    1    3    3    0    0  0.89395732332E+00  0.44681467207E+01  0.11617571471E+02  0.12479688527E+02  0.10566000000E+00 0. -1.
         22    1    1    0    0    0  0.13504788287E+02 -0.85225667737E+01  0.48243832445E+02  0.50818115078E+02  0.00000000000E+00 0.  1.
</event>
<event>
 5    1  0.1766627E-003  0.9118800E+02  0.7818608E-02  0.1130116E+00
         25   -1    0    0    0    0  0.00000000000E+00  0.00000000000E+00  0.99999998245E-14  0.12500000000E+03  0.12500000000E+03 0.  0.
        -13    1    3    3    0    0  0.64083814316E+01  0.58121163191E+02  0.53744835833E+01  0.58719955731E+02  0.10566000000E+00 0. -1.
         23    2    1    0    0    0 -0.69177038992E+01  0.24296282098E+02  0.14046718753E+02  0.96095428411E+02  0.91645278671E+02 0.  0.
         13    1    3    3    0    0 -0.13326085331E+02 -0.33824881092E+02  0.86722351695E+01  0.37375472680E+02  0.10566000000E+00 0.  1.
         22    1    1    0    0    0  0.69177038992E+01 -0.24296282098E+02 -0.14046718753E+02  0.28904571589E+02  0.00000000000E+00 0. -1.
</event>
<event>
 5    1  0.1766627E-003  0.9118800E+02  0.7818608E-02  0.1130116E+00
         25   -1    0    0    0    0  0.00000000000E+00  0.00000000000E+00  0.99999998245E-14  0.12500000000E+03  0.12500000000E+03 0.  0.
        -13    1    3    3    0    0 -0.10412289640E+02 -0.64030427391E+01  0.55854770827E+02  0.57176755068E+02  0.10566000000E+00 0. -1.
         23    2    1    0    0    0  0.44867086291E+01 -0.17863686160E+02  0.19060825220E+02  0.98494210149E+02  0.94860700700E+02 0.  0.
         13    1    3    3    0    0  0.14898998270E+02 -0.11460643421E+02 -0.36793945607E+02  0.41317455082E+02  0.10566000000E+00 0.  1.
         22    1    1    0    0    0 -0.44867086291E+01  0.17863686160E+02 -0.19060825220E+02  0.26505789851E+02  0.00000000000E+00 0.  1.
</event>
<event>
 5    1  0.1766627E-003  0.9118800E+02  0.7818608E-02  0.1130116E+00
         25   -1    0    0    0    0  0.00000000000E+00  0.00000000000E+00  0.99999998245E-14  0.12500000000E+03  0.12500000000E+03 0.  0.
        -13    1    3    3    0    0 -0.46032452199E+02  0.23973811338E+02  0.25677960893E+01  0.51964747920E+02  0.10566000000E+00 0.  1.
         23    2    1    0    0    0 -0.13289606930E+02  0.22309729704E+02  0.22760183669E+02  0.90469380943E+02  0.83620244174E+02 0.  0.
         13    1    3    3    0    0  0.32742845270E+02 -0.16640816341E+01  0.20192387579E+02  0.38504633023E+02  0.10566000000E+00 0. -1.
         22    1    1    0    0    0  0.13289606930E+02 -0.22309729704E+02 -0.22760183669E+02  0.34530619057E+02  0.00000000000E+00 0.  1.
</event>
<event>
 5    1  0.1766627E-003  0.9118800E+02  0.7818608E-02  0.1130116E+00
         25   -1    0    0    0    0  0.00000000000E+00  0.00000000000E+00  0.99999998245E-14  0.12500000000E+03  0.12500000000E+03 0.  0.
        -13    1    3    3    0    0 -0.58704018849E+01  0.21537134263E+02 -0.35017819700E+02  0.41527925919E+02  0.10566000000E+00 0. -1.
         23    2    1    0    0    0  0.17946779152E+02  0.17925605159E+02  0.13914485168E+02  0.96068579369E+02  0.91608650477E+02 0.  0.
         13    1    3    3    0    0  0.23817181037E+02 -0.36115291035E+01  0.48932304868E+02  0.54540653450E+02  0.10566000000E+00 0.  1.
         22    1    1    0    0    0 -0.17946779152E+02 -0.17925605159E+02 -0.13914485168E+02  0.28931420631E+02  0.00000000000E+00 0.  1.
</event>
<event>
 5    1  0.1766627E-003  0.9118800E+02  0.7818608E-02  0.1130116E+00
         25   -1    0    0    0    0  0.00000000000E+00  0.00000000000E+00  0.99999998245E-14  0.12500000000E+03  0.12500000000E+03 0.  0.
        -13    1    3    3    0    0 -0.55149759923E+02 -0.37394844820E+00  0.10028366506E+02  0.56055464995E+02  0.10566000000E+00 0. -1.
         23    2    1    0    0    0 -0.18311903628E+02 -0.15732506440E+02  0.15455940869E+02  0.96334276888E+02  0.91970480166E+02 0.  0.
         13    1    3    3    0    0  0.36837856295E+02 -0.15358557992E+02  0.54275743629E+01  0.40278811893E+02  0.10566000000E+00 0.  1.
         22    1    1    0    0    0  0.18311903628E+02  0.15732506440E+02 -0.15455940869E+02  0.28665723112E+02  0.00000000000E+00 0. -1.
</event>
<event>
 5    1  0.1766627E-003  0.9118800E+02  0.7818608E-02  0.1130116E+00
         25   -1    0    0    0    0  0.00000000000E+00  0.00000000000E+00  0.99999998245E-14  0.12500000000E+03  0.12500000000E+03 0.  0.
        -13    1    3    3    0    0  0.74977594175E+01 -0.33930336728E+02 -0.34878620374E+02  0.49234271295E+02  0.10566000000E+00 0.  1.
         23    2    1    0    0    0 -0.17885012087E+02 -0.30900852815E+02 -0.43805496760E+01  0.89028822962E+02  0.81438355463E+02 0.  0.
         13    1    3    3    0    0 -0.25382771504E+02  0.30294839127E+01  0.30498070698E+02  0.39794551667E+02  0.10566000000E+00 0. -1.
         22    1    1    0    0    0  0.17885012087E+02  0.30900852815E+02  0.43805496760E+01  0.35971177038E+02  0.00000000000E+00 0.  1.
</event>
<event>
 5    1  0.1766627E-003  0.9118800E+02  0.7818608E-02  0.1130116E+00
         25   -1    0    0    0    0  0.00000000000E+00  0.00000000000E+00  0.99999998245E-14  0.12500000000E+03  0.12500000000E+03 0.  0.
        -13    1    3    3    0    0  0.46011755380E+01  0.63192110046E-01  0.39046080839E+02  0.39316439341E+02  0.10566000000E+00 0. -1.
         23    2    1    0    0    0  0.19109912954E+02 -0.17714219597E+02 -0.12766789563E+02  0.95983224425E+02  0.91492109530E+02 0.  0.
         13    1    3    3    0    0  0.14508737416E+02 -0.17777411707E+02 -0.51812870402E+02  0.56666785084E+02  0.10566000000E+00 0.  1.
         22    1    1    0    0    0 -0.19109912954E+02  0.17714219597E+02  0.12766789563E+02  0.29016775575E+02  0.00000000000E+00 0.  1.
</event>
<event>
 5    1  0.1766627E-003  0.9118800E+02  0.7818608E-02  0.1130116E+00
         25   -1    0    0    0    0  0.00000000000E+00  0.00000000000E+00  0.99999998245E-14  0.12500000000E+03  0.12500000000E+03 0.  0.
        -13    1    3    3    0    0 -0.57039901851E+02  0.54937431341E+01 -0.68990950784E+01  0.57717764108E+02  0.10566000000E+00 0. -1.
         23    2    1    0    0    0 -0.24427025301E+02 -0.14224929389E+02 -0.72021689846E+01  0.95829819691E+02  0.91282281538E+02 0.  0.
         13    1    3    3    0    0  0.32612876549E+02 -0.19718672523E+02 -0.30307390618E+00  0.38112055582E+02  0.10566000000E+00 0.  1.
         22    1    1    0    0    0  0.24427025301E+02  0.14224929389E+02  0.72021689846E+01  0.29170180309E+02  0.00000000000E+00 0. -1.
</event>
<event>
 5    1  0.1766627E-003  0.9118800E+02  0.7818608E-02  0.1130116E+00
         25   -1    0    0    0    0  0.00000000000E+00  0.00000000000E+00  0.99999998245E-14  0.12500000000E+03  0.12500000000E+03 0.  0.
        -13    1    3    3    0    0  0.73249728689E+01  0.58868263847E+02 -0.28985158383E+00  0.59323038475E+02  0.10566000000E+00 0.  1.
         23    2    1    0    0    0  0.13084789633E+02  0.26577929570E+02 -0.10331385383E+02  0.93625877161E+02  0.88212636795E+02 0.  0.
         13    1    3    3    0    0  0.57598167638E+01 -0.32290334277E+02 -0.10041533799E+02  0.34302838687E+02  0.10566000000E+00 0. -1.
         22    1    1    0    0    0 -0.13084789633E+02 -0.26577929570E+02  0.10331385383E+02  0.31374122839E+02  0.00000000000E+00 0.  1.
</event>
<event>
 5    1  0.1766627E-003  0.9118800E+02  0.7818608E-02  0.1130116E+00
         25   -1    0    0    0    0  0.00000000000E+00  0.00000000000E+00  0.99999998245E-14  0.12500000000E+03  0.12500000000E+03 0.  0.
        -13    1    3    3    0    0 -0.11636990905E+02 -0.26955853613E+01  0.33879730903E+02  0.35923990144E+02  0.10566000000E+00 0. -1.
         23    2    1    0    0    0  0.21244129979E+02 -0.13286674894E+02 -0.15013370936E+02  0.95789555033E+02  0.91227127316E+02 0.  0.
         13    1    3    3    0    0  0.32881120884E+02 -0.10591089532E+02 -0.48893101839E+02  0.59865564889E+02  0.10566000000E+00 0.  1.
         22    1    1    0    0    0 -0.21244129979E+02  0.13286674894E+02  0.15013370936E+02  0.29210444967E+02  0.00000000000E+00 0.  1.
</event>
<event>
 5    1  0.1766627E-003  0.9118800E+02  0.7818608E-02  0.1130116E+00
         25   -1    0    0    0    0  0.00000000000E+00  0.00000000000E+00  0.99999998245E-14  0.12500000000E+03  0.12500000000E+03 0.  0.
        -13    1    3    3    0    0  0.45183043360E+02 -0.32457384954E+02 -0.14546846234E+02  0.57503140303E+02  0.10566000000E+00 0.  1.
         23    2    1    0    0    0  0.23151159727E+02 -0.30393863290E+01 -0.19486402445E+02  0.94587273286E+02  0.89564604178E+02 0.  0.
         13    1    3    3    0    0 -0.22031883633E+02  0.29417998625E+02 -0.49395562106E+01  0.37084132983E+02  0.10566000000E+00 0. -1.
         22    1    1    0    0    0 -0.23151159727E+02  0.30393863290E+01  0.19486402445E+02  0.30412726714E+02  0.00000000000E+00 0.  1.
</event>
<event>
 5    1  0.1766627E-003  0.9118800E+02  0.7818608E-02  0.1130116E+00
         25   -1    0    0    0    0  0.00000000000E+00  0.00000000000E+00  0.99999998245E-14  0.12500000000E+03  0.12500000000E+03 0.  0.
        -13    1    3    3    0    0  0.12147097477E+02  0.77750758632E+01  0.36456827108E+02  0.39206060611E+02  0.10566000000E+00 0. -1.
         23    2    1    0    0    0 -0.96679225918E+01  0.23855070590E+02 -0.13421262685E+02  0.95971334648E+02  0.91475863822E+02 0.  0.
         13    1    3    3    0    0 -0.21815020069E+02  0.16079994726E+02 -0.49878089793E+02  0.56765274037E+02  0.10566000000E+00 0.  1.
         22    1    1    0    0    0  0.96679225918E+01 -0.23855070590E+02  0.13421262685E+02  0.29028665352E+02  0.00000000000E+00 0.  1.
</event>
<event>
 5    1  0.1766627E-003  0.9118800E+02  0.7818608E-02  0.1130116E+00
         25   -1    0    0    0    0  0.00000000000E+00  0.00000000000E+00  0.99999998245E-14  0.12500000000E+03  0.12500000000E+03 0.  0.
        -13    1    3    3    0    0  0.31526038030E+02 -0.49247202570E+02 -0.17969420168E+02  0.61172618548E+02  0.10566000000E+00 0. -1.
         23    2    1    0    0    0  0.13473803880E+02 -0.19716577148E+02 -0.16796536175E+02  0.95803931208E+02  0.91246823517E+02 0.  0.
         13    1    3    3    0    0 -0.18052234150E+02  0.29530625422E+02  0.11728839933E+01  0.34631312660E+02  0.10566000000E+00 0.  1.
         22    1    1    0    0    0 -0.13473803880E+02  0.19716577148E+02  0.16796536175E+02  0.29196068792E+02  0.00000000000E+00 0. -1.
</event>
<event>
 5    1  0.1766627E-003  0.9118800E+02  0.7818608E-02  0.1130116E+00
         25   -1    0    0    0    0  0.00000000000E+00  0.00000000000E+00  0.99999998245E-14  0.12500000000E+03  0.12500000000E+03 0.  0.
        -13    1    3    3    0    0 -0.28079069703E+01  0.23629551738E+02 -0.12493344560E+02  0.26876288419E+02  0.10566000000E+00 0. -1.
         23    2    1    0    0    0 -0.20166135274E+02 -0.32429937111E+02 -0.32541342010E+00  0.86809952516E+02  0.77958246062E+02 0.  0.
         13    1    3    3    0    0 -0.17358228304E+02 -0.56059488849E+02  0.12167931140E+02  0.59933664097E+02  0.10566000000E+00 0.  1.
         22    1    1    0    0    0  0.20166135274E+02  0.32429937111E+02  0.32541342010E+00  0.38190047484E+02  0.00000000000E+00 0.  1.
</event>
<event>
 5    1  0.1766627E-003  0.9118800E+02  0.7818608E-02  0.1130116E+00
         25   -1    0    0    0    0  0.00000000000E+00  0.00000000000E+00  0.99999998245E-14  0.12500000000E+03  0.12500000000E+03 0.  0.
        -13    1    3    3    0    0  0.33381615522E+02 -0.64650237825E+01 -0.55810495236E+01  0.34457046669E+02  0.10566000000E+00 0.  1.
         23    2    1    0    0    0 -0.27477140064E+02  0.45541641006E+01 -0.68483680033E+01  0.96318406930E+02  0.91948908272E+02 0.  0.
         13    1    3    3    0    0 -0.60858755586E+02  0.11019187883E+02 -0.12673184796E+01  0.61861360260E+02  0.10566000000E+00 0. -1.
         22    1    1    0    0    0  0.27477140064E+02 -0.45541641006E+01  0.68483680033E+01  0.28681593070E+02  0.00000000000E+00 0. -1.
</event>
<event>
 5    1  0.1766627E-003  0.9118800E+02  0.7818608E-02  0.1130116E+00
         25   -1    0    0    0    0  0.00000000000E+00  0.00000000000E+00  0.99999998245E-14  0.12500000000E+03  0.12500000000E+03 0.  0.
        -13    1    3    3    0    0  0.33213681500E+02  0.11820868114E+02 -0.67986189574E+01  0.35904232974E+02  0.10566000000E+00 0.  1.
         23    2    1    0    0    0 -0.62873212391E+01 -0.24659080930E+02  0.16676509487E+02  0.94574572322E+02  0.89546876442E+02 0.  0.
         13    1    3    3    0    0 -0.39501002739E+02 -0.36479949044E+02  0.23475128445E+02  0.58670339348E+02  0.10566000000E+00 0. -1.
         22    1    1    0    0    0  0.62873212391E+01  0.24659080930E+02 -0.16676509487E+02  0.30425427678E+02  0.00000000000E+00 0. -1.
</event>
<event>
 5    1  0.1766627E-003  0.9118800E+02  0.7818608E-02  0.1130116E+00
         25   -1    0    0    0    0  0.00000000000E+00  0.00000000000E+00  0.99999998245E-14  0.12500000000E+03  0.12500000000E+03 0.  0.
        -13    1    3    3    0    0 -0.25144127963E+02 -0.43122282772E+02  0.22868894564E+02  0.54906793251E+02  0.10566000000E+00 0. -1.
         23    2    1    0    0    0 -0.26393647312E+02 -0.68615171742E+01  0.12454968562E+00  0.97728759673E+02  0.93846629765E+02 0.  0.
         13    1    3    3    0    0 -0.12495193483E+01  0.36260765598E+02 -0.22744344878E+02  0.42821966422E+02  0.10566000000E+00 0.  1.
         22    1    1    0    0    0  0.26393647312E+02  0.68615171742E+01 -0.12454968562E+00  0.27271240327E+02  0.00000000000E+00 0. -1.
</event>
<event>
 5    1  0.1766627E-003  0.9118800E+02  0.7818608E-02  0.1130116E+00
         25   -1    0    0    0    0  0.00000000000E+00  0.00000000000E+00  0.99999998245E-14  0.12500000000E+03  0.12500000000E+03 0.  0.
        -13    1    3    3    0    0  0.41512477440E+02 -0.21640465252E+02 -0.90518514916E+01  0.47681680958E+02  0.10566000000E+00 0. -1.
         23    2    1    0    0    0  0.14563267025E+02  0.94345737317E+01 -0.27276953776E+02  0.92671496551E+02  0.86849721576E+02 0.  0.
         13    1    3    3    0    0 -0.26949210415E+02  0.31075038983E+02 -0.18225102284E+02  0.44989815593E+02  0.10566000000E+00 0.  1.
         22    1    1    0    0    0 -0.14563267025E+02 -0.94345737317E+01  0.27276953776E+02  0.32328503449E+02  0.00000000000E+00 0. -1.
</event>
<event>
 5    1  0.1766627E-003  0.9118800E+02  0.7818608E-02  0.1130116E+00
         25   -1    0    0    0    0  0.00000000000E+00  0.00000000000E+00  0.99999998245E-14  0.12500000000E+03  0.12500000000E+03 0.  0.
        -13    1    3    3    0    0 -0.46176011243E+02 -0.15085041819E+02 -0.77344390028E+01  0.49189584383E+02  0.10566000000E+00 0.  1.
         23    2    1    0    0    0 -0.47288505480E+01 -0.72264210562E+01 -0.27789298109E+02  0.95899685943E+02  0.91377904801E+02 0.  0.
         13    1    3    3    0    0  0.41447160695E+02  0.78586207633E+01 -0.20054859107E+02  0.46710101561E+02  0.10566000000E+00 0. -1.
         22    1    1    0    0    0  0.47288505480E+01  0.72264210562E+01  0.27789298109E+02  0.29100314057E+02  0.00000000000E+00 0. -1.
</event>
<event>
 4    1  0.1766627E-003  0.9118800E+02  0.7818608E-02  0.1130116E+00
         25   -1    0    0    0    0  0.00000000000E+00  0.00000000000E+00  0.99999998245E-14  0.12500000000E+03  0.12500000000E+03 0.  0.
        -13    1    1    0    0    0  0.20263960358E+02 -0.56477390875E+02 -0.14395067485E+02  0.61705371739E+02  0.10566000000E+00 0. -1.
         13    1    1    0    0    0 -0.34044733931E+01  0.18645301136E+01  0.32467036614E+01  0.50615373484E+01  0.10566000000E+00 0.  1.
         22    1    1    0    0    0 -0.16859486965E+02  0.54612860762E+02  0.11148363824E+02  0.58233090913E+02  0.00000000000E+00 0. -1.
</event>
<event>
 5    1  0.1766627E-003  0.9118800E+02  0.7818608E-02  0.1130116E+00
         25   -1    0    0    0    0  0.00000000000E+00  0.00000000000E+00  0.99999998245E-14  0.12500000000E+03  0.12500000000E+03 0.  0.
        -13    1    3    3    0    0 -0.34210707429E+02  0.15459221418E+02  0.17978624853E+02  0.41624537779E+02  0.10566000000E+00 0.  1.
         23    2    1    0    0    0 -0.13551160905E+02 -0.20569833779E+02 -0.16289223705E+02  0.95468815932E+02  0.90786584818E+02 0.  0.
         13    1    3    3    0    0  0.20659546524E+02 -0.36029055197E+02 -0.34267848558E+02  0.53844278153E+02  0.10566000000E+00 0. -1.
         22    1    1    0    0    0  0.13551160905E+02  0.20569833779E+02  0.16289223705E+02  0.29531184068E+02  0.00000000000E+00 0. -1.
</event>
<event>
 5    1  0.1766627E-003  0.9118800E+02  0.7818608E-02  0.1130116E+00
         25   -1    0    0    0    0  0.00000000000E+00  0.00000000000E+00  0.99999998245E-14  0.12500000000E+03  0.12500000000E+03 0.  0.
        -13    1    3    3    0    0 -0.24040340955E+02 -0.24989306952E+02  0.30058003178E+02  0.45890066183E+02  0.10566000000E+00 0.  1.
         23    2    1    0    0    0 -0.42193543791E+02 -0.14194850523E+02  0.27700661957E+01  0.80396612397E+02  0.66889110468E+02 0.  0.
         13    1    3    3    0    0 -0.18153202836E+02  0.10794456429E+02 -0.27287936983E+02  0.34506546214E+02  0.10566000000E+00 0. -1.
         22    1    1    0    0    0  0.42193543791E+02  0.14194850523E+02 -0.27700661957E+01  0.44603387603E+02  0.00000000000E+00 0. -1.
</event>
<event>
 5    1  0.1766627E-003  0.9118800E+02  0.7818608E-02  0.1130116E+00
         25   -1    0    0    0    0  0.00000000000E+00  0.00000000000E+00  0.99999998245E-14  0.12500000000E+03  0.12500000000E+03 0.  0.
        -13    1    3    3    0    0 -0.30080724671E+02  0.29655121460E+02 -0.41986670809E+02  0.59558105370E+02  0.10566000000E+00 0.  1.
         23    2    1    0    0    0 -0.43256618353E+01  0.16674338017E+02 -0.29178928063E+02  0.91115567859E+02  0.84580683165E+02 0.  0.
         13    1    3    3    0    0  0.25755062836E+02 -0.12980783443E+02  0.12807742746E+02  0.31557462489E+02  0.10566000000E+00 0. -1.
         22    1    1    0    0    0  0.43256618353E+01 -0.16674338017E+02  0.29178928063E+02  0.33884432141E+02  0.00000000000E+00 0.  1.
</event>
<event>
 5    1  0.1766627E-003  0.9118800E+02  0.7818608E-02  0.1130116E+00
         25   -1    0    0    0    0  0.00000000000E+00  0.00000000000E+00  0.99999998245E-14  0.12500000000E+03  0.12500000000E+03 0.  0.
        -13    1    3    3    0    0 -0.40388003514E+01 -0.59050434717E+02 -0.38651961755E+01  0.59314556847E+02  0.10566000000E+00 0.  1.
         23    2    1    0    0    0 -0.29041237070E+01 -0.25714068589E+02 -0.15728743718E+02  0.94717321175E+02  0.89745920764E+02 0.  0.
         13    1    3    3    0    0  0.11346766443E+01  0.33336366128E+02 -0.11863547542E+02  0.35402764327E+02  0.10566000000E+00 0. -1.
         22    1    1    0    0    0  0.29041237070E+01  0.25714068589E+02  0.15728743718E+02  0.30282678825E+02  0.00000000000E+00 0.  1.
</event>
<event>
 5    1  0.1766627E-003  0.9118800E+02  0.7818608E-02  0.1130116E+00
         25   -1    0    0    0    0  0.00000000000E+00  0.00000000000E+00  0.99999998245E-14  0.12500000000E+03  0.12500000000E+03 0.  0.
        -13    1    3    3    0    0  0.50604012305E+01  0.23941360379E+02  0.34946471219E+02  0.42662201210E+02  0.10566000000E+00 0.  1.
         23    2    1    0    0    0 -0.64766213617E+01  0.23836948480E+02 -0.16440030065E+02  0.95328105459E+02  0.90592639683E+02 0.  0.
         13    1    3    3    0    0 -0.11537022592E+02 -0.10441189872E+00 -0.51386501284E+02  0.52665904249E+02  0.10566000000E+00 0. -1.
         22    1    1    0    0    0  0.64766213617E+01 -0.23836948480E+02  0.16440030065E+02  0.29671894541E+02  0.00000000000E+00 0. -1.
</event>
<event>
 5    1  0.1766627E-003  0.9118800E+02  0.7818608E-02  0.1130116E+00
         25   -1    0    0    0    0  0.00000000000E+00  0.00000000000E+00  0.99999998245E-14  0.12500000000E+03  0.12500000000E+03 0.  0.
        -13    1    3    3    0    0  0.22066940203E+02  0.29990184137E+02  0.31162323531E+01  0.37364194928E+02  0.10566000000E+00 0.  1.
         23    2    1    0    0    0  0.19117601702E+01 -0.14561200117E+02 -0.26622175169E+02  0.94595665005E+02  0.89576315236E+02 0.  0.
         13    1    3    3    0    0 -0.20155180033E+02 -0.44551384254E+02 -0.29738407522E+02  0.57231470076E+02  0.10566000000E+00 0. -1.
         22    1    1    0    0    0 -0.19117601702E+01  0.14561200117E+02  0.26622175169E+02  0.30404334995E+02  0.00000000000E+00 0. -1.
</event>
<event>
 5    1  0.1766627E-003  0.9118800E+02  0.7818608E-02  0.1130116E+00
         25   -1    0    0    0    0  0.00000000000E+00  0.00000000000E+00  0.99999998245E-14  0.12500000000E+03  0.12500000000E+03 0.  0.
        -13    1    3    3    0    0 -0.30247028440E+02  0.12977193487E+02  0.13000393769E+02  0.35388016085E+02  0.10566000000E+00 0. -1.
         23    2    1    0    0    0  0.16462339909E+02 -0.38589604740E+01 -0.22810437365E+02  0.96606052335E+02  0.92339120007E+02 0.  0.
         13    1    3    3    0    0  0.46709368349E+02 -0.16836153961E+02 -0.35810831134E+02  0.61218036250E+02  0.10566000000E+00 0.  1.
         22    1    1    0    0    0 -0.16462339909E+02  0.38589604740E+01  0.22810437365E+02  0.28393947665E+02  0.00000000000E+00 0.  1.
</event>
<event>
 5    1  0.1766627E-003  0.9118800E+02  0.7818608E-02  0.1130116E+00
         25   -1    0    0    0    0  0.00000000000E+00  0.00000000000E+00  0.99999998245E-14  0.12500000000E+03  0.12500000000E+03 0.  0.
        -13    1    3    3    0    0  0.16688046386E+02 -0.11882320329E+02  0.49895857197E+02  0.53937817512E+02  0.10566000000E+00 0.  1.
         23    2    1    0    0    0  0.24817302681E+02 -0.12875071506E+02  0.90251419911E+01  0.95621110188E+02  0.90996030391E+02 0.  0.
         13    1    3    3    0    0  0.81292562952E+01 -0.99275117651E+00 -0.40870715206E+02  0.41683292675E+02  0.10566000000E+00 0. -1.
         22    1    1    0    0    0 -0.24817302681E+02  0.12875071506E+02 -0.90251419911E+01  0.29378889812E+02  0.00000000000E+00 0.  1.
</event>
<event>
 5    1  0.1766627E-003  0.9118800E+02  0.7818608E-02  0.1130116E+00
         25   -1    0    0    0    0  0.00000000000E+00  0.00000000000E+00  0.99999998245E-14  0.12500000000E+03  0.12500000000E+03 0.  0.
        -13    1    3    3    0    0  0.67063120640E+01 -0.44708534051E+02  0.33334138966E+02  0.56169418931E+02  0.10566000000E+00 0.  1.
         23    2    1    0    0    0 -0.57783239898E+01 -0.87660229510E+01  0.28626670042E+02  0.94508715603E+02  0.89454898696E+02 0.  0.
         13    1    3    3    0    0 -0.12484636054E+02  0.35942511100E+02 -0.47074689242E+01  0.38339296672E+02  0.10566000000E+00 0. -1.
         22    1    1    0    0    0  0.57783239898E+01  0.87660229510E+01 -0.28626670042E+02  0.30491284397E+02  0.00000000000E+00 0.  1.
</event>
<event>
 5    1  0.1766627E-003  0.9118800E+02  0.7818608E-02  0.1130116E+00
         25   -1    0    0    0    0  0.00000000000E+00  0.00000000000E+00  0.99999998245E-14  0.12500000000E+03  0.12500000000E+03 0.  0.
        -13    1    3    3    0    0  0.15484407779E+02  0.39313230543E+02 -0.69439392541E+01  0.42819696827E+02  0.10566000000E+00 0. -1.
         23    2    1    0    0    0 -0.27726951774E+02  0.10180221359E+02  0.47099791620E+00  0.95459475282E+02  0.90773723183E+02 0.  0.
         13    1    3    3    0    0 -0.43211359553E+02 -0.29133009183E+02  0.74149371703E+01  0.52639778455E+02  0.10566000000E+00 0.  1.
         22    1    1    0    0    0  0.27726951774E+02 -0.10180221359E+02 -0.47099791620E+00  0.29540524718E+02  0.00000000000E+00 0.  1.
</event>
<event>
 5    1  0.1766627E-003  0.9118800E+02  0.7818608E-02  0.1130116E+00
         25   -1    0    0    0    0  0.00000000000E+00  0.00000000000E+00  0.99999998245E-14  0.12500000000E+03  0.12500000000E+03 0.  0.
        -13    1    3    3    0    0 -0.34421090463E+02  0.31944171943E+02  0.35338136450E+02  0.58771052752E+02  0.10566000000E+00 0. -1.
         23    2    1    0    0    0 -0.18930817667E+02  0.23252466675E+02  0.40582319947E+01  0.94742400773E+02  0.89780845359E+02 0.  0.
         13    1    3    3    0    0  0.15490272796E+02 -0.86917052679E+01 -0.31279904455E+02  0.35971348021E+02  0.10566000000E+00 0.  1.
         22    1    1    0    0    0  0.18930817667E+02 -0.23252466675E+02 -0.40582319947E+01  0.30257599227E+02  0.00000000000E+00 0. -1.
</event>
<event>
 5    1  0.1766627E-003  0.9118800E+02  0.7818608E-02  0.1130116E+00
         25   -1    0    0    0    0  0.00000000000E+00  0.00000000000E+00  0.99999998245E-14  0.12500000000E+03  0.12500000000E+03 0.  0.
        -13    1    3    3    0    0  0.35836471729E+02  0.50773872216E+02 -0.59931701913E+01  0.62435310993E+02  0.10566000000E+00 0. -1.
         23    2    1    0    0    0  0.14515048944E+02  0.23052163367E+02 -0.40176734024E+01  0.97464012977E+02  0.93493332620E+02 0.  0.
         13    1    3    3    0    0 -0.21321422785E+02 -0.27721708849E+02  0.19754967889E+01  0.35028701984E+02  0.10566000000E+00 0.  1.
         22    1    1    0    0    0 -0.14515048944E+02 -0.23052163367E+02  0.40176734024E+01  0.27535987023E+02  0.00000000000E+00 0. -1.
</event>
<event>
 5    1  0.1766627E-003  0.9118800E+02  0.7818608E-02  0.1130116E+00
         25   -1    0    0    0    0  0.00000000000E+00  0.00000000000E+00  0.99999998245E-14  0.12500000000E+03  0.12500000000E+03 0.  0.
        -13    1    3    3    0    0 -0.29604381585E+02  0.48543242620E+01 -0.51578323565E+02  0.59668404528E+02  0.10566000000E+00 0.  1.
         23    2    1    0    0    0 -0.72838786602E+01  0.10484730935E+02 -0.56575812472E+01  0.11103602146E+03  0.11015446139E+03 0.  0.
         13    1    3    3    0    0  0.22320502925E+02  0.56304066731E+01  0.45920742318E+02  0.51367616931E+02  0.10566000000E+00 0. -1.
         22    1    1    0    0    0  0.72838786602E+01 -0.10484730935E+02  0.56575812472E+01  0.13963978541E+02  0.00000000000E+00 0.  1.
</event>
<event>
 5    1  0.1766627E-003  0.9118800E+02  0.7818608E-02  0.1130116E+00
         25   -1    0    0    0    0  0.00000000000E+00  0.00000000000E+00  0.99999998245E-14  0.12500000000E+03  0.12500000000E+03 0.  0.
        -13    1    3    3    0    0 -0.13689721294E+02  0.29557511062E+02  0.26347570290E+02  0.41895829786E+02  0.10566000000E+00 0. -1.
         23    2    1    0    0    0 -0.21226139079E+02 -0.18675291749E+02  0.14641865602E+01  0.96689942699E+02  0.92452613130E+02 0.  0.
         13    1    3    3    0    0 -0.75364177855E+01 -0.48232802811E+02 -0.24883383729E+02  0.54794112912E+02  0.10566000000E+00 0.  1.
         22    1    1    0    0    0  0.21226139079E+02  0.18675291749E+02 -0.14641865602E+01  0.28310057301E+02  0.00000000000E+00 0.  1.
</event>
<event>
 5    1  0.1766627E-003  0.9118800E+02  0.7818608E-02  0.1130116E+00
         25   -1    0    0    0    0  0.00000000000E+00  0.00000000000E+00  0.99999998245E-14  0.12500000000E+03  0.12500000000E+03 0.  0.
        -13    1    3    3    0    0  0.31451377467E+02  0.27205551107E+01 -0.50803419642E+01  0.31975171668E+02  0.10566000000E+00 0.  1.
         23    2    1    0    0    0 -0.30666511502E+02  0.31373977404E+00 -0.31613758218E+01  0.94169371440E+02  0.88979451897E+02 0.  0.
         13    1    3    3    0    0 -0.62117888969E+02 -0.24068153367E+01  0.19189661423E+01  0.62194199771E+02  0.10566000000E+00 0. -1.
         22    1    1    0    0    0  0.30666511502E+02 -0.31373977404E+00  0.31613758218E+01  0.30830628560E+02  0.00000000000E+00 0. -1.
</event>
<event>
 5    1  0.1766627E-003  0.9118800E+02  0.7818608E-02  0.1130116E+00
         25   -1    0    0    0    0  0.00000000000E+00  0.00000000000E+00  0.99999998245E-14  0.12500000000E+03  0.12500000000E+03 0.  0.
        -13    1    3    3    0    0 -0.17996892825E+02 -0.24582223030E+02 -0.14490633043E+02  0.33736678119E+02  0.10566000000E+00 0. -1.
         23    2    1    0    0    0  0.16562125108E+01 -0.39683077013E+01  0.34407517567E+02  0.90324824860E+02  0.83403874101E+02 0.  0.
         13    1    3    3    0    0  0.19653105336E+02  0.20613915328E+02  0.48898150610E+02  0.56588146741E+02  0.10566000000E+00 0.  1.
         22    1    1    0    0    0 -0.16562125108E+01  0.39683077013E+01 -0.34407517567E+02  0.34675175140E+02  0.00000000000E+00 0.  1.
</event>
<event>
 5    1  0.1766627E-003  0.9118800E+02  0.7818608E-02  0.1130116E+00
         25   -1    0    0    0    0  0.00000000000E+00  0.00000000000E+00  0.99999998245E-14  0.12500000000E+03  0.12500000000E+03 0.  0.
        -13    1    3    3    0    0  0.79356087226E+01 -0.59260537726E+02 -0.12457482819E+02  0.61073605261E+02  0.10566000000E+00 0. -1.
         23    2    1    0    0    0 -0.24627035365E+01 -0.34220353495E+02 -0.54988849766E+00  0.90686739016E+02  0.83944533794E+02 0.  0.
         13    1    3    3    0    0 -0.10398312259E+02  0.25040184231E+02  0.11907594321E+02  0.29613133754E+02  0.10566000000E+00 0.  1.
         22    1    1    0    0    0  0.24627035365E+01  0.34220353495E+02  0.54988849766E+00  0.34313260984E+02  0.00000000000E+00 0. -1.
</event>
<event>
 5    1  0.1766627E-003  0.9118800E+02  0.7818608E-02  0.1130116E+00
         25   -1    0    0    0    0  0.00000000000E+00  0.00000000000E+00  0.99999998245E-14  0.12500000000E+03  0.12500000000E+03 0.  0.
        -13    1    3    3    0    0  0.41659451447E+02 -0.14183665834E+01  0.45732468848E+02  0.61878845574E+02  0.10566000000E+00 0. -1.
         23    2    1    0    0    0  0.24375090109E+02  0.26133168887E+01  0.18921313776E+02  0.94032427315E+02  0.88786861802E+02 0.  0.
         13    1    3    3    0    0 -0.17284361338E+02  0.40316834721E+01 -0.26811155071E+02  0.32153581741E+02  0.10566000000E+00 0.  1.
         22    1    1    0    0    0 -0.24375090109E+02 -0.26133168887E+01 -0.18921313776E+02  0.30967572685E+02  0.00000000000E+00 0. -1.
</event>
<event>
 5    1  0.1766627E-003  0.9118800E+02  0.7818608E-02  0.1130116E+00
         25   -1    0    0    0    0  0.00000000000E+00  0.00000000000E+00  0.99999998245E-14  0.12500000000E+03  0.12500000000E+03 0.  0.
        -13    1    3    3    0    0 -0.24125229852E+02  0.28803089579E+02  0.85779253343E+01  0.38538768167E+02  0.10566000000E+00 0. -1.
         23    2    1    0    0    0 -0.53702266138E+01 -0.26456288488E+02 -0.23257938732E+01  0.97904172802E+02  0.94079982995E+02 0.  0.
         13    1    3    3    0    0  0.18755003239E+02 -0.55259378067E+02 -0.10903719207E+02  0.59365404635E+02  0.10566000000E+00 0.  1.
         22    1    1    0    0    0  0.53702266138E+01  0.26456288488E+02  0.23257938732E+01  0.27095827198E+02  0.00000000000E+00 0.  1.
</event>
<event>
 5    1  0.1766627E-003  0.9118800E+02  0.7818608E-02  0.1130116E+00
         25   -1    0    0    0    0  0.00000000000E+00  0.00000000000E+00  0.99999998245E-14  0.12500000000E+03  0.12500000000E+03 0.  0.
        -13    1    3    3    0    0 -0.17685027576E+02 -0.54040345806E+02  0.17426058423E+02  0.59470983273E+02  0.10566000000E+00 0.  1.
         23    2    1    0    0    0 -0.80749889373E+01 -0.18332014582E+02  0.20197125700E+02  0.96553698105E+02  0.92268220565E+02 0.  0.
         13    1    3    3    0    0  0.96100386386E+01  0.35708331224E+02  0.27710672770E+01  0.37082714833E+02  0.10566000000E+00 0. -1.
         22    1    1    0    0    0  0.80749889373E+01  0.18332014582E+02 -0.20197125700E+02  0.28446301895E+02  0.00000000000E+00 0.  1.
</event>
<event>
 5    1  0.1766627E-003  0.9118800E+02  0.7818608E-02  0.1130116E+00
         25   -1    0    0    0    0  0.00000000000E+00  0.00000000000E+00  0.99999998245E-14  0.12500000000E+03  0.12500000000E+03 0.  0.
        -13    1    3    3    0    0 -0.37357095536E+02  0.68775444402E+00  0.72738323557E+00  0.37370654844E+02  0.10566000000E+00 0.  1.
         23    2    1    0    0    0  0.14775689927E+02  0.22570594546E+02  0.12730673092E+02  0.95170102442E+02  0.90374363679E+02 0.  0.
         13    1    3    3    0    0  0.52132785464E+02  0.21882840102E+02  0.12003289856E+02  0.57799447597E+02  0.10566000000E+00 0. -1.
         22    1    1    0    0    0 -0.14775689927E+02 -0.22570594546E+02 -0.12730673092E+02  0.29829897558E+02  0.00000000000E+00 0. -1.
</event>
<event>
 5    1  0.1766627E-003  0.9118800E+02  0.7818608E-02  0.1130116E+00
         25   -1    0    0    0    0  0.00000000000E+00  0.00000000000E+00  0.99999998245E-14  0.12500000000E+03  0.12500000000E+03 0.  0.
        -13    1    3    3    0    0 -0.11325975093E+02 -0.42297032280E+02  0.15397723919E+02  0.46415705503E+02  0.10566000000E+00 0. -1.
         23    2    1    0    0    0  0.21673630169E+01 -0.19618763277E+02 -0.24056898845E+02  0.93882035462E+02  0.88574877169E+02 0.  0.
         13    1    3    3    0    0  0.13493338110E+02  0.22678269003E+02 -0.39454622763E+02  0.47466329959E+02  0.10566000000E+00 0.  1.
         22    1    1    0    0    0 -0.21673630169E+01  0.19618763277E+02  0.24056898845E+02  0.31117964538E+02  0.00000000000E+00 0. -1.
</event>
<event>
 5    1  0.1766627E-003  0.9118800E+02  0.7818608E-02  0.1130116E+00
         25   -1    0    0    0    0  0.00000000000E+00  0.00000000000E+00  0.99999998245E-14  0.12500000000E+03  0.12500000000E+03 0.  0.
        -13    1    3    3    0    0  0.50916075143E+01 -0.38246502442E+02 -0.10122778107E+02  0.39889863584E+02  0.10566000000E+00 0. -1.
         23    2    1    0    0    0 -0.12949291276E+02  0.16006616429E+02 -0.18060544880E+02  0.97612426259E+02  0.93691550124E+02 0.  0.
         13    1    3    3    0    0 -0.18040898791E+02  0.54253118871E+02 -0.79377667728E+01  0.57722562675E+02  0.10566000000E+00 0.  1.
         22    1    1    0    0    0  0.12949291276E+02 -0.16006616429E+02  0.18060544880E+02  0.27387573741E+02  0.00000000000E+00 0.  1.
</event>
<event>
 5    1  0.1766627E-003  0.9118800E+02  0.7818608E-02  0.1130116E+00
         25   -1    0    0    0    0  0.00000000000E+00  0.00000000000E+00  0.99999998245E-14  0.12500000000E+03  0.12500000000E+03 0.  0.
        -13    1    3    3    0    0 -0.44155549469E+02  0.34413875532E+02 -0.25246672324E+02  0.61411993988E+02  0.10566000000E+00 0. -1.
         23    2    1    0    0    0 -0.19061964967E+02  0.24609085336E+02 -0.10357284751E+02  0.92193919209E+02  0.86159618164E+02 0.  0.
         13    1    3    3    0    0  0.25093584503E+02 -0.98047901962E+01  0.14889387573E+02  0.30781925221E+02  0.10566000000E+00 0.  1.
         22    1    1    0    0    0  0.19061964967E+02 -0.24609085336E+02  0.10357284751E+02  0.32806080791E+02  0.00000000000E+00 0. -1.
</event>
<event>
 5    1  0.1766627E-003  0.9118800E+02  0.7818608E-02  0.1130116E+00
         25   -1    0    0    0    0  0.00000000000E+00  0.00000000000E+00  0.99999998245E-14  0.12500000000E+03  0.12500000000E+03 0.  0.
        -13    1    3    3    0    0 -0.20351345683E+02 -0.26359780829E+02 -0.31267323638E+02  0.45680105166E+02  0.10566000000E+00 0. -1.
         23    2    1    0    0    0  0.70722165706E+01 -0.27588255215E+02  0.96295219243E+01  0.94935805923E+02  0.90049716716E+02 0.  0.
         13    1    3    3    0    0  0.27423562254E+02 -0.12284743860E+01  0.40896845563E+02  0.49255700756E+02  0.10566000000E+00 0.  1.
         22    1    1    0    0    0 -0.70722165706E+01  0.27588255215E+02 -0.96295219243E+01  0.30064194077E+02  0.00000000000E+00 0. -1.
</event>
<event>
 5    1  0.1766627E-003  0.9118800E+02  0.7818608E-02  0.1130116E+00
         25   -1    0    0    0    0  0.00000000000E+00  0.00000000000E+00  0.99999998245E-14  0.12500000000E+03  0.12500000000E+03 0.  0.
        -13    1    3    3    0    0  0.43817571313E+02  0.17775655799E+02  0.36204779769E+02  0.59554602988E+02  0.10566000000E+00 0.  1.
         23    2    1    0    0    0  0.11441756692E+02  0.12551921287E+02  0.26080941325E+02  0.93876375137E+02  0.88566888758E+02 0.  0.
         13    1    3    3    0    0 -0.32375814621E+02 -0.52237345116E+01 -0.10123838444E+02  0.34321772150E+02  0.10566000000E+00 0. -1.
         22    1    1    0    0    0 -0.11441756692E+02 -0.12551921287E+02 -0.26080941325E+02  0.31123624863E+02  0.00000000000E+00 0.  1.
</event>
<event>
 5    1  0.1766627E-003  0.9118800E+02  0.7818608E-02  0.1130116E+00
         25   -1    0    0    0    0  0.00000000000E+00  0.00000000000E+00  0.99999998245E-14  0.12500000000E+03  0.12500000000E+03 0.  0.
        -13    1    3    3    0    0  0.35138964329E+02  0.75374970592E+01 -0.21067062541E+01  0.36000139602E+02  0.10566000000E+00 0.  1.
         23    2    1    0    0    0 -0.22057494342E+02 -0.55969284507E+01 -0.17057955258E+02  0.96560019298E+02  0.92276783779E+02 0.  0.
         13    1    3    3    0    0 -0.57196458672E+02 -0.13134425510E+02 -0.14951249004E+02  0.60559879697E+02  0.10566000000E+00 0. -1.
         22    1    1    0    0    0  0.22057494342E+02  0.55969284507E+01  0.17057955258E+02  0.28439980702E+02  0.00000000000E+00 0. -1.
</event>
<event>
 5    1  0.1766627E-003  0.9118800E+02  0.7818608E-02  0.1130116E+00
         25   -1    0    0    0    0  0.00000000000E+00  0.00000000000E+00  0.99999998245E-14  0.12500000000E+03  0.12500000000E+03 0.  0.
        -13    1    3    3    0    0 -0.10814632557E+02  0.40659633928E+02 -0.29090317899E+02  0.51150951780E+02  0.10566000000E+00 0.  1.
         23    2    1    0    0    0 -0.26041917793E+02  0.18184833512E+01 -0.12625201129E+02  0.96001998904E+02  0.91517756342E+02 0.  0.
         13    1    3    3    0    0 -0.15227285236E+02 -0.38841150577E+02  0.16465116770E+02  0.44851047124E+02  0.10566000000E+00 0. -1.
         22    1    1    0    0    0  0.26041917793E+02 -0.18184833512E+01  0.12625201129E+02  0.28998001096E+02  0.00000000000E+00 0. -1.
</event>
<event>
 5    1  0.1766627E-003  0.9118800E+02  0.7818608E-02  0.1130116E+00
         25   -1    0    0    0    0  0.00000000000E+00  0.00000000000E+00  0.99999998245E-14  0.12500000000E+03  0.12500000000E+03 0.  0.
        -13    1    3    3    0    0  0.44089166845E+02 -0.20462270242E+02 -0.84447631708E+01  0.49334413198E+02  0.10566000000E+00 0.  1.
         23    2    1    0    0    0  0.12009449448E+02 -0.18493798324E+02  0.22176364136E+02  0.93726391657E+02  0.88354954101E+02 0.  0.
         13    1    3    3    0    0 -0.32079717397E+02  0.19684719174E+01  0.30621127307E+02  0.44391978459E+02  0.10566000000E+00 0. -1.
         22    1    1    0    0    0 -0.12009449448E+02  0.18493798324E+02 -0.22176364136E+02  0.31273608343E+02  0.00000000000E+00 0. -1.
</event>
<event>
 5    1  0.1766627E-003  0.9118800E+02  0.7818608E-02  0.1130116E+00
         25   -1    0    0    0    0  0.00000000000E+00  0.00000000000E+00  0.99999998245E-14  0.12500000000E+03  0.12500000000E+03 0.  0.
        -13    1    3    3    0    0  0.42889833608E+02 -0.59902810057E-02  0.44492808161E+02  0.61799344697E+02  0.10566000000E+00 0.  1.
         23    2    1    0    0    0  0.20207889132E+02 -0.54562788911E+01  0.26327776674E+02  0.91365470316E+02  0.84949205876E+02 0.  0.
         13    1    3    3    0    0 -0.22681944476E+02 -0.54502886101E+01 -0.18165031488E+02  0.29566125619E+02  0.10566000000E+00 0. -1.
         22    1    1    0    0    0 -0.20207889132E+02  0.54562788911E+01 -0.26327776674E+02  0.33634529684E+02  0.00000000000E+00 0.  1.
</event>
<event>
 5    1  0.1766627E-003  0.9118800E+02  0.7818608E-02  0.1130116E+00
         25   -1    0    0    0    0  0.00000000000E+00  0.00000000000E+00  0.99999998245E-14  0.12500000000E+03  0.12500000000E+03 0.  0.
        -13    1    3    3    0    0 -0.44196119675E+02  0.26957965087E+02 -0.24039206797E+02  0.57078222672E+02  0.10566000000E+00 0.  1.
         23    2    1    0    0    0 -0.32124103442E+02  0.27659824885E+01 -0.77291947136E+00  0.92747773944E+02  0.86959435865E+02 0.  0.
         13    1    3    3    0    0  0.12072016232E+02 -0.24191982598E+02  0.23266287326E+02  0.35669551272E+02  0.10566000000E+00 0. -1.
         22    1    1    0    0    0  0.32124103442E+02 -0.27659824885E+01  0.77291947136E+00  0.32252226056E+02  0.00000000000E+00 0.  1.
</event>
<event>
 5    1  0.1766627E-003  0.9118800E+02  0.7818608E-02  0.1130116E+00
         25   -1    0    0    0    0  0.00000000000E+00  0.00000000000E+00  0.99999998245E-14  0.12500000000E+03  0.12500000000E+03 0.  0.
        -13    1    3    3    0    0 -0.61736065027E+01  0.50832548316E+02 -0.22226832163E+02  0.55822080019E+02  0.10566000000E+00 0. -1.
         23    2    1    0    0    0 -0.21790614005E+02  0.15304458904E+02 -0.10649945618E+02  0.96321111201E+02  0.91952584522E+02 0.  0.
         13    1    3    3    0    0 -0.15617007503E+02 -0.35528089412E+02  0.11576886545E+02  0.40499031183E+02  0.10566000000E+00 0.  1.
         22    1    1    0    0    0  0.21790614005E+02 -0.15304458904E+02  0.10649945618E+02  0.28678888799E+02  0.00000000000E+00 0. -1.
</event>
<event>
 5    1  0.1766627E-003  0.9118800E+02  0.7818608E-02  0.1130116E+00
         25   -1    0    0    0    0  0.00000000000E+00  0.00000000000E+00  0.99999998245E-14  0.12500000000E+03  0.12500000000E+03 0.  0.
        -13    1    3    3    0    0  0.27568908700E+02 -0.33144998474E+02 -0.95356909463E+01  0.44154005669E+02  0.10566000000E+00 0. -1.
         23    2    1    0    0    0  0.39449926515E+01  0.72578730935E+01 -0.29002688093E+02  0.94843813148E+02  0.89921928844E+02 0.  0.
         13    1    3    3    0    0 -0.23623916048E+02  0.40402871568E+02 -0.19466997146E+02  0.50689807479E+02  0.10566000000E+00 0.  1.
         22    1    1    0    0    0 -0.39449926515E+01 -0.72578730935E+01  0.29002688093E+02  0.30156186852E+02  0.00000000000E+00 0.  1.
</event>
<event>
 5    1  0.1766627E-003  0.9118800E+02  0.7818608E-02  0.1130116E+00
         25   -1    0    0    0    0  0.00000000000E+00  0.00000000000E+00  0.99999998245E-14  0.12500000000E+03  0.12500000000E+03 0.  0.
        -13    1    3    3    0    0  0.33106225290E+02 -0.31031938430E+02  0.16826832989E+02  0.48395834823E+02  0.10566000000E+00 0. -1.
         23    2    1    0    0    0  0.26801787449E+02  0.65883637748E+01 -0.10660716351E+02  0.95412955186E+02  0.90709640042E+02 0.  0.
         13    1    3    3    0    0 -0.63044378410E+01  0.37620302205E+02 -0.27487549341E+02  0.47017120363E+02  0.10566000000E+00 0.  1.
         22    1    1    0    0    0 -0.26801787449E+02 -0.65883637748E+01  0.10660716351E+02  0.29587044814E+02  0.00000000000E+00 0. -1.
</event>
<event>
 5    1  0.1766627E-003  0.9118800E+02  0.7818608E-02  0.1130116E+00
         25   -1    0    0    0    0  0.00000000000E+00  0.00000000000E+00  0.99999998245E-14  0.12500000000E+03  0.12500000000E+03 0.  0.
        -13    1    3    3    0    0 -0.12725761156E+02  0.30748607785E+02 -0.16234078540E+02  0.37026724778E+02  0.10566000000E+00 0. -1.
         23    2    1    0    0    0  0.69136225388E+01 -0.70136799396E+01  0.26127244159E+02  0.97078274225E+02  0.92976171981E+02 0.  0.
         13    1    3    3    0    0  0.19639383695E+02 -0.37762287725E+02  0.42361322699E+02  0.60051549447E+02  0.10566000000E+00 0.  1.
         22    1    1    0    0    0 -0.69136225388E+01  0.70136799396E+01 -0.26127244159E+02  0.27921725775E+02  0.00000000000E+00 0.  1.
</event>
<event>
 5    1  0.1766627E-003  0.9118800E+02  0.7818608E-02  0.1130116E+00
         25   -1    0    0    0    0  0.00000000000E+00  0.00000000000E+00  0.99999998245E-14  0.12500000000E+03  0.12500000000E+03 0.  0.
        -13    1    3    3    0    0 -0.34976552935E+02 -0.58802235980E+01  0.42156801923E+01  0.35717214454E+02  0.10566000000E+00 0.  1.
         23    2    1    0    0    0  0.23807342112E+02  0.50421449362E+01  0.14915711775E+02  0.96457203680E+02  0.92137402395E+02 0.  0.
         13    1    3    3    0    0  0.58783895048E+02  0.10922368534E+02  0.10700031582E+02  0.60739989227E+02  0.10566000000E+00 0. -1.
         22    1    1    0    0    0 -0.23807342112E+02 -0.50421449362E+01 -0.14915711775E+02  0.28542796320E+02  0.00000000000E+00 0. -1.
</event>
<event>
 5    1  0.1766627E-003  0.9118800E+02  0.7818608E-02  0.1130116E+00
         25   -1    0    0    0    0  0.00000000000E+00  0.00000000000E+00  0.99999998245E-14  0.12500000000E+03  0.12500000000E+03 0.  0.
        -13    1    3    3    0    0  0.46903742391E+02  0.40745985433E+02  0.38720922698E+01  0.62251109562E+02  0.10566000000E+00 0.  1.
         23    2    1    0    0    0  0.29018830629E+02  0.20819152795E+02  0.42768490592E+01  0.89030275341E+02  0.81440584693E+02 0.  0.
         13    1    3    3    0    0 -0.17884911761E+02 -0.19926832638E+02  0.40475678948E+00  0.26779165778E+02  0.10566000000E+00 0. -1.
         22    1    1    0    0    0 -0.29018830629E+02 -0.20819152795E+02 -0.42768490592E+01  0.35969724659E+02  0.00000000000E+00 0.  1.
</event>
<event>
 5    1  0.1766627E-003  0.9118800E+02  0.7818608E-02  0.1130116E+00
         25   -1    0    0    0    0  0.00000000000E+00  0.00000000000E+00  0.99999998245E-14  0.12500000000E+03  0.12500000000E+03 0.  0.
        -13    1    3    3    0    0 -0.35634286916E+02 -0.39744365845E+02  0.11495913597E+02  0.54603884604E+02  0.10566000000E+00 0.  1.
         23    2    1    0    0    0 -0.25760165242E+02 -0.11191850610E+02 -0.13520650273E+02  0.93828673157E+02  0.88499538356E+02 0.  0.
         13    1    3    3    0    0  0.98741216738E+01  0.28552515235E+02 -0.25016563870E+02  0.39224788553E+02  0.10566000000E+00 0. -1.
         22    1    1    0    0    0  0.25760165242E+02  0.11191850610E+02  0.13520650273E+02  0.31171326843E+02  0.00000000000E+00 0.  1.
</event>
<event>
 5    1  0.1766627E-003  0.9118800E+02  0.7818608E-02  0.1130116E+00
         25   -1    0    0    0    0  0.00000000000E+00  0.00000000000E+00  0.99999998245E-14  0.12500000000E+03  0.12500000000E+03 0.  0.
        -13    1    3    3    0    0 -0.31682399639E+02  0.33266938411E+02  0.19309771191E+02  0.49833142240E+02  0.10566000000E+00 0.  1.
         23    2    1    0    0    0 -0.18627559396E+02 -0.82391308768E+01  0.23914609776E+02  0.93586980288E+02  0.88157501507E+02 0.  0.
         13    1    3    3    0    0  0.13054840243E+02 -0.41506069287E+02  0.46048385859E+01  0.43753838048E+02  0.10566000000E+00 0. -1.
         22    1    1    0    0    0  0.18627559396E+02  0.82391308768E+01 -0.23914609776E+02  0.31413019712E+02  0.00000000000E+00 0.  1.
</event>
<event>
 5    1  0.1766627E-003  0.9118800E+02  0.7818608E-02  0.1130116E+00
         25   -1    0    0    0    0  0.00000000000E+00  0.00000000000E+00  0.99999998245E-14  0.12500000000E+03  0.12500000000E+03 0.  0.
        -13    1    3    3    0    0  0.91240081618E+01  0.28796071447E+02 -0.43634170378E+02  0.53069890186E+02  0.10566000000E+00 0. -1.
         23    2    1    0    0    0  0.15031456038E+02  0.22361198684E+02  0.49121200693E+00  0.98051731661E+02  0.94275834206E+02 0.  0.
         13    1    3    3    0    0  0.59074478767E+01 -0.64348727626E+01  0.44125382385E+02  0.44981841476E+02  0.10566000000E+00 0.  1.
         22    1    1    0    0    0 -0.15031456038E+02 -0.22361198684E+02 -0.49121200693E+00  0.26948268339E+02  0.00000000000E+00 0.  1.
</event>
<event>
 5    1  0.1766627E-003  0.9118800E+02  0.7818608E-02  0.1130116E+00
         25   -1    0    0    0    0  0.00000000000E+00  0.00000000000E+00  0.99999998245E-14  0.12500000000E+03  0.12500000000E+03 0.  0.
        -13    1    3    3    0    0 -0.38805962219E+02  0.21214526836E+02 -0.32843573070E+02  0.55087841750E+02  0.10566000000E+00 0. -1.
         23    2    1    0    0    0 -0.39441942936E+01  0.26108518233E+02 -0.16136729235E+02  0.94054799672E+02  0.88818353497E+02 0.  0.
         13    1    3    3    0    0  0.34861767926E+02  0.48939913971E+01  0.16706843835E+02  0.38966957922E+02  0.10566000000E+00 0.  1.
         22    1    1    0    0    0  0.39441942936E+01 -0.26108518233E+02  0.16136729235E+02  0.30945200328E+02  0.00000000000E+00 0. -1.
</event>
<event>
 5    1  0.1766627E-003  0.9118800E+02  0.7818608E-02  0.1130116E+00
         25   -1    0    0    0    0  0.00000000000E+00  0.00000000000E+00  0.99999998245E-14  0.12500000000E+03  0.12500000000E+03 0.  0.
        -13    1    3    3    0    0  0.73665336214E+01 -0.35703699829E+02  0.32801786251E+02  0.49040680505E+02  0.10566000000E+00 0.  1.
         23    2    1    0    0    0  0.26387328290E+02  0.11563414774E+01  0.78513424831E+01  0.97445112980E+02  0.93468060025E+02 0.  0.
         13    1    3    3    0    0  0.19020794669E+02  0.36860041306E+02 -0.24950443768E+02  0.48404432475E+02  0.10566000000E+00 0. -1.
         22    1    1    0    0    0 -0.26387328290E+02 -0.11563414774E+01 -0.78513424831E+01  0.27554887020E+02  0.00000000000E+00 0. -1.
</event>
<event>
 5    1  0.1766627E-003  0.9118800E+02  0.7818608E-02  0.1130116E+00
         25   -1    0    0    0    0  0.00000000000E+00  0.00000000000E+00  0.99999998245E-14  0.12500000000E+03  0.12500000000E+03 0.  0.
        -13    1    3    3    0    0 -0.29565111063E+02  0.27347360707E+02 -0.10461575084E+02  0.41610451176E+02  0.10566000000E+00 0.  1.
         23    2    1    0    0    0  0.18279858538E+01  0.11540475718E+02  0.28568650959E+02  0.94134292010E+02  0.88930158004E+02 0.  0.
         13    1    3    3    0    0  0.31393096916E+02 -0.15806884989E+02  0.39030226043E+02  0.52523840835E+02  0.10566000000E+00 0. -1.
         22    1    1    0    0    0 -0.18279858538E+01 -0.11540475718E+02 -0.28568650959E+02  0.30865707990E+02  0.00000000000E+00 0. -1.
</event>
<event>
 5    1  0.1766627E-003  0.9118800E+02  0.7818608E-02  0.1130116E+00
         25   -1    0    0    0    0  0.00000000000E+00  0.00000000000E+00  0.99999998245E-14  0.12500000000E+03  0.12500000000E+03 0.  0.
        -13    1    3    3    0    0  0.58848721328E+02 -0.12277606715E+02 -0.40517090215E+01  0.60252295713E+02  0.10566000000E+00 0. -1.
         23    2    1    0    0    0  0.25143772076E+02  0.11764185616E+01 -0.11542505543E+02  0.97308436861E+02  0.93285096427E+02 0.  0.
         13    1    3    3    0    0 -0.33704949252E+02  0.13454025277E+02 -0.74907965219E+01  0.37056141148E+02  0.10566000000E+00 0.  1.
         22    1    1    0    0    0 -0.25143772076E+02 -0.11764185616E+01  0.11542505543E+02  0.27691563139E+02  0.00000000000E+00 0. -1.
</event>
<event>
 5    1  0.1766627E-003  0.9118800E+02  0.7818608E-02  0.1130116E+00
         25   -1    0    0    0    0  0.00000000000E+00  0.00000000000E+00  0.99999998245E-14  0.12500000000E+03  0.12500000000E+03 0.  0.
        -13    1    3    3    0    0  0.66083179603E+01  0.73787052230E+01 -0.59853580939E+02  0.60667763040E+02  0.10566000000E+00 0. -1.
         23    2    1    0    0    0  0.35327669130E+01 -0.73885180936E+01 -0.26259130516E+02  0.97493408479E+02  0.93532625964E+02 0.  0.
         13    1    3    3    0    0 -0.30755510474E+01 -0.14767223317E+02  0.33594450423E+02  0.36825645439E+02  0.10566000000E+00 0.  1.
         22    1    1    0    0    0 -0.35327669130E+01  0.73885180936E+01  0.26259130516E+02  0.27506591521E+02  0.00000000000E+00 0. -1.
</event>
<event>
 5    1  0.1766627E-003  0.9118800E+02  0.7818608E-02  0.1130116E+00
         25   -1    0    0    0    0  0.00000000000E+00  0.00000000000E+00  0.99999998245E-14  0.12500000000E+03  0.12500000000E+03 0.  0.
        -13    1    3    3    0    0  0.48372908420E+02  0.69215794321E+01  0.37689612246E+02  0.61711948326E+02  0.10566000000E+00 0. -1.
         23    2    1    0    0    0  0.19553359302E+02  0.90955330325E+01  0.19940174193E+02  0.95628702310E+02  0.91006458988E+02 0.  0.
         13    1    3    3    0    0 -0.28819549118E+02  0.21739536004E+01 -0.17749438053E+02  0.33916753984E+02  0.10566000000E+00 0.  1.
         22    1    1    0    0    0 -0.19553359302E+02 -0.90955330325E+01 -0.19940174193E+02  0.29371297690E+02  0.00000000000E+00 0. -1.
</event>
<event>
 5    1  0.1766627E-003  0.9118800E+02  0.7818608E-02  0.1130116E+00
         25   -1    0    0    0    0  0.00000000000E+00  0.00000000000E+00  0.99999998245E-14  0.12500000000E+03  0.12500000000E+03 0.  0.
        -13    1    3    3    0    0  0.48547615705E+02  0.91326124864E+01 -0.26125710487E+02  0.55882372122E+02  0.10566000000E+00 0.  1.
         23    2    1    0    0    0  0.17963912071E+02  0.22196839320E+02 -0.32216705809E+01  0.96263594971E+02  0.91874363903E+02 0.  0.
         13    1    3    3    0    0 -0.30583703634E+02  0.13064226833E+02  0.22904039906E+02  0.40381222849E+02  0.10566000000E+00 0. -1.
         22    1    1    0    0    0 -0.17963912071E+02 -0.22196839320E+02  0.32216705809E+01  0.28736405029E+02  0.00000000000E+00 0.  1.
</event>
<event>
 5    1  0.1766627E-003  0.9118800E+02  0.7818608E-02  0.1130116E+00
         25   -1    0    0    0    0  0.00000000000E+00  0.00000000000E+00  0.99999998245E-14  0.12500000000E+03  0.12500000000E+03 0.  0.
        -13    1    3    3    0    0  0.57810364183E+01 -0.56567198903E+02  0.82080024076E+01  0.57451291033E+02  0.10566000000E+00 0. -1.
         23    2    1    0    0    0  0.71489285636E+01 -0.24987513158E+02 -0.13417954665E+02  0.95750649566E+02  0.91173803208E+02 0.  0.
         13    1    3    3    0    0  0.13678921453E+01  0.31579685745E+02 -0.21625957072E+02  0.38299358532E+02  0.10566000000E+00 0.  1.
         22    1    1    0    0    0 -0.71489285636E+01  0.24987513158E+02  0.13417954665E+02  0.29249350434E+02  0.00000000000E+00 0. -1.
</event>
<event>
 5    1  0.1766627E-003  0.9118800E+02  0.7818608E-02  0.1130116E+00
         25   -1    0    0    0    0  0.00000000000E+00  0.00000000000E+00  0.99999998245E-14  0.12500000000E+03  0.12500000000E+03 0.  0.
        -13    1    3    3    0    0 -0.76883961791E+01  0.35923754281E+02 -0.18828833175E+02  0.41281517416E+02  0.10566000000E+00 0.  1.
         23    2    1    0    0    0 -0.27889333714E+02 -0.76649619400E+01  0.61505958402E+01  0.95429805450E+02  0.90732857128E+02 0.  0.
         13    1    3    3    0    0 -0.20200937534E+02 -0.43588716221E+02  0.24979429015E+02  0.54148288034E+02  0.10566000000E+00 0. -1.
         22    1    1    0    0    0  0.27889333714E+02  0.76649619400E+01 -0.61505958402E+01  0.29570194550E+02  0.00000000000E+00 0. -1.
</event>
<event>
 5    1  0.1766627E-003  0.9118800E+02  0.7818608E-02  0.1130116E+00
         25   -1    0    0    0    0  0.00000000000E+00  0.00000000000E+00  0.99999998245E-14  0.12500000000E+03  0.12500000000E+03 0.  0.
        -13    1    3    3    0    0  0.33822603314E+02  0.37908893003E+01 -0.19974449565E+02  0.39463009719E+02  0.10566000000E+00 0.  1.
         23    2    1    0    0    0  0.16387423366E+01  0.21362169783E+02  0.21379656065E+02  0.94732567540E+02  0.89767153709E+02 0.  0.
         13    1    3    3    0    0 -0.32183860978E+02  0.17571280482E+02  0.41354105630E+02  0.55269557821E+02  0.10566000000E+00 0. -1.
         22    1    1    0    0    0 -0.16387423366E+01 -0.21362169783E+02 -0.21379656065E+02  0.30267432460E+02  0.00000000000E+00 0. -1.
</event>
<event>
 5    1  0.1766627E-003  0.9118800E+02  0.7818608E-02  0.1130116E+00
         25   -1    0    0    0    0  0.00000000000E+00  0.00000000000E+00  0.99999998245E-14  0.12500000000E+03  0.12500000000E+03 0.  0.
        -13    1    3    3    0    0  0.37225775621E+02  0.34518589195E+02  0.18436911348E+01  0.50800607591E+02  0.10566000000E+00 0.  1.
         23    2    1    0    0    0 -0.70747615318E+01  0.28252460601E+02  0.40412273316E+01  0.95596168632E+02  0.90961762066E+02 0.  0.
         13    1    3    3    0    0 -0.44300537153E+02 -0.62661285939E+01  0.21975361968E+01  0.44795561041E+02  0.10566000000E+00 0. -1.
         22    1    1    0    0    0  0.70747615318E+01 -0.28252460601E+02 -0.40412273316E+01  0.29403831368E+02  0.00000000000E+00 0.  1.
</event>
<event>
 5    1  0.1766627E-003  0.9118800E+02  0.7818608E-02  0.1130116E+00
         25   -1    0    0    0    0  0.00000000000E+00  0.00000000000E+00  0.99999998245E-14  0.12500000000E+03  0.12500000000E+03 0.  0.
        -13    1    3    3    0    0 -0.47394864221E+01 -0.70218063113E+00 -0.32292027370E+02  0.32645703927E+02  0.10566000000E+00 0. -1.
         23    2    1    0    0    0 -0.81651576712E+00  0.16588415404E+02  0.26318403302E+02  0.93879258107E+02  0.88570957581E+02 0.  0.
         13    1    3    3    0    0  0.39229706550E+01  0.17290596035E+02  0.58610430672E+02  0.61233554180E+02  0.10566000000E+00 0.  1.
         22    1    1    0    0    0  0.81651576712E+00 -0.16588415404E+02 -0.26318403302E+02  0.31120741893E+02  0.00000000000E+00 0.  1.
</event>
<event>
 5    1  0.1766627E-003  0.9118800E+02  0.7818608E-02  0.1130116E+00
         25   -1    0    0    0    0  0.00000000000E+00  0.00000000000E+00  0.99999998245E-14  0.12500000000E+03  0.12500000000E+03 0.  0.
        -13    1    3    3    0    0  0.16596001005E+01 -0.39869455314E+02  0.47276155621E+02  0.61865772394E+02  0.10566000000E+00 0. -1.
         23    2    1    0    0    0  0.14789669985E+01 -0.22276160256E+02  0.35588951418E+02  0.82988238288E+02  0.71568565530E+02 0.  0.
         13    1    3    3    0    0 -0.18063310199E+00  0.17593295059E+02 -0.11687204203E+02  0.21122465894E+02  0.10566000000E+00 0.  1.
         22    1    1    0    0    0 -0.14789669985E+01  0.22276160256E+02 -0.35588951418E+02  0.42011761712E+02  0.00000000000E+00 0. -1.
</event>
<event>
 5    1  0.1766627E-003  0.9118800E+02  0.7818608E-02  0.1130116E+00
         25   -1    0    0    0    0  0.00000000000E+00  0.00000000000E+00  0.99999998245E-14  0.12500000000E+03  0.12500000000E+03 0.  0.
        -13    1    3    3    0    0 -0.55527203600E+01  0.12726976657E+02 -0.34862912947E+02  0.37526557282E+02  0.10566000000E+00 0. -1.
         23    2    1    0    0    0  0.25419410628E+02  0.38715843138E+01  0.13748392098E+02  0.95842601504E+02  0.91299783001E+02 0.  0.
         13    1    3    3    0    0  0.30972130988E+02 -0.88553923428E+01  0.48611305045E+02  0.58316044222E+02  0.10566000000E+00 0.  1.
         22    1    1    0    0    0 -0.25419410628E+02 -0.38715843138E+01 -0.13748392098E+02  0.29157398496E+02  0.00000000000E+00 0. -1.
</event>
<event>
 5    1  0.1766627E-003  0.9118800E+02  0.7818608E-02  0.1130116E+00
         25   -1    0    0    0    0  0.00000000000E+00  0.00000000000E+00  0.99999998245E-14  0.12500000000E+03  0.12500000000E+03 0.  0.
        -13    1    3    3    0    0  0.21329655203E+02 -0.35723664267E+02  0.63174980020E-01  0.41607085152E+02  0.10566000000E+00 0.  1.
         23    2    1    0    0    0  0.19957144048E+02  0.74994059385E+01  0.25486961586E+02  0.91771790616E+02  0.85545003677E+02 0.  0.
         13    1    3    3    0    0 -0.13725111553E+01  0.43223070206E+02  0.25423786606E+02  0.50164705464E+02  0.10566000000E+00 0. -1.
         22    1    1    0    0    0 -0.19957144048E+02 -0.74994059385E+01 -0.25486961586E+02  0.33228209384E+02  0.00000000000E+00 0. -1.
</event>
<event>
 5    1  0.1766627E-003  0.9118800E+02  0.7818608E-02  0.1130116E+00
         25   -1    0    0    0    0  0.00000000000E+00  0.00000000000E+00  0.99999998245E-14  0.12500000000E+03  0.12500000000E+03 0.  0.
        -13    1    3    3    0    0  0.24956033712E+00  0.43499496465E+02 -0.35530865678E+02  0.56166912439E+02  0.10566000000E+00 0.  1.
         23    2    1    0    0    0  0.17826870649E+02  0.22961260395E+02 -0.77814764355E+01  0.94907340238E+02  0.90010194198E+02 0.  0.
         13    1    3    3    0    0  0.17577310312E+02 -0.20538236070E+02  0.27749389243E+02  0.38740427799E+02  0.10566000000E+00 0. -1.
         22    1    1    0    0    0 -0.17826870649E+02 -0.22961260395E+02  0.77814764355E+01  0.30092659762E+02  0.00000000000E+00 0.  1.
</event>
<event>
 5    1  0.1766627E-003  0.9118800E+02  0.7818608E-02  0.1130116E+00
         25   -1    0    0    0    0  0.00000000000E+00  0.00000000000E+00  0.99999998245E-14  0.12500000000E+03  0.12500000000E+03 0.  0.
        -13    1    3    3    0    0  0.12163489307E+02 -0.31841588879E+02  0.10586266820E+02  0.35691980383E+02  0.10566000000E+00 0. -1.
         23    2    1    0    0    0 -0.31671047723E+02 -0.12793612871E+02 -0.12315678604E+02  0.88690115207E+02  0.80916801727E+02 0.  0.
         13    1    3    3    0    0 -0.43834537030E+02  0.19047976007E+02 -0.22901945424E+02  0.52998134824E+02  0.10566000000E+00 0.  1.
         22    1    1    0    0    0  0.31671047723E+02  0.12793612871E+02  0.12315678604E+02  0.36309884793E+02  0.00000000000E+00 0.  1.
</event>
<event>
 5    1  0.1766627E-003  0.9118800E+02  0.7818608E-02  0.1130116E+00
         25   -1    0    0    0    0  0.00000000000E+00  0.00000000000E+00  0.99999998245E-14  0.12500000000E+03  0.12500000000E+03 0.  0.
        -13    1    3    3    0    0 -0.60461473247E+01 -0.46984955950E+02 -0.14912188953E+02  0.49664137227E+02  0.10566000000E+00 0.  1.
         23    2    1    0    0    0  0.98949672923E+01 -0.21997533920E+02  0.18701221636E+02  0.94478899643E+02  0.89413225593E+02 0.  0.
         13    1    3    3    0    0  0.15941114617E+02  0.24987422030E+02  0.33613410590E+02  0.44814762416E+02  0.10566000000E+00 0. -1.
         22    1    1    0    0    0 -0.98949672923E+01  0.21997533920E+02 -0.18701221636E+02  0.30521100357E+02  0.00000000000E+00 0.  1.
</event>
<event>
 5    1  0.1766627E-003  0.9118800E+02  0.7818608E-02  0.1130116E+00
         25   -1    0    0    0    0  0.00000000000E+00  0.00000000000E+00  0.99999998245E-14  0.12500000000E+03  0.12500000000E+03 0.  0.
        -13    1    3    3    0    0 -0.18190208281E+02 -0.12613014203E+02 -0.37262812897E+02  0.43341668099E+02  0.10566000000E+00 0. -1.
         23    2    1    0    0    0  0.29219734580E+01 -0.27500227413E+02  0.86504144870E+01  0.96023628463E+02  0.91547294420E+02 0.  0.
         13    1    3    3    0    0  0.21112181739E+02 -0.14887213211E+02  0.45913227384E+02  0.52681960364E+02  0.10566000000E+00 0.  1.
         22    1    1    0    0    0 -0.29219734580E+01  0.27500227413E+02 -0.86504144870E+01  0.28976371537E+02  0.00000000000E+00 0.  1.
</event>
<event>
 5    1  0.1766627E-003  0.9118800E+02  0.7818608E-02  0.1130116E+00
         25   -1    0    0    0    0  0.00000000000E+00  0.00000000000E+00  0.99999998245E-14  0.12500000000E+03  0.12500000000E+03 0.  0.
        -13    1    3    3    0    0 -0.40488711828E+02 -0.54352429423E+01  0.18618661009E+02  0.44894803186E+02  0.10566000000E+00 0.  1.
         23    2    1    0    0    0  0.92973434779E+01 -0.12221482666E+02  0.25117956549E+02  0.95559942672E+02  0.90911966583E+02 0.  0.
         13    1    3    3    0    0  0.49786055306E+02 -0.67862397240E+01  0.64992955399E+01  0.50665139486E+02  0.10566000000E+00 0. -1.
         22    1    1    0    0    0 -0.92973434779E+01  0.12221482666E+02 -0.25117956549E+02  0.29440057328E+02  0.00000000000E+00 0.  1.
</event>
<event>
 5    1  0.1766627E-003  0.9118800E+02  0.7818608E-02  0.1130116E+00
         25   -1    0    0    0    0  0.00000000000E+00  0.00000000000E+00  0.99999998245E-14  0.12500000000E+03  0.12500000000E+03 0.  0.
        -13    1    3    3    0    0  0.10009588677E+02 -0.35976120821E+02 -0.24917860761E+01  0.37425837288E+02  0.10566000000E+00 0. -1.
         23    2    1    0    0    0  0.16921501586E+02  0.20181975773E+02 -0.14010089307E+02  0.95168272520E+02  0.90371832614E+02 0.  0.
         13    1    3    3    0    0  0.69119129091E+01  0.56158096594E+02 -0.11518303231E+02  0.57742435232E+02  0.10566000000E+00 0.  1.
         22    1    1    0    0    0 -0.16921501586E+02 -0.20181975773E+02  0.14010089307E+02  0.29831727480E+02  0.00000000000E+00 0.  1.
</event>
<event>
 5    1  0.1766627E-003  0.9118800E+02  0.7818608E-02  0.1130116E+00
         25   -1    0    0    0    0  0.00000000000E+00  0.00000000000E+00  0.99999998245E-14  0.12500000000E+03  0.12500000000E+03 0.  0.
        -13    1    3    3    0    0 -0.21112855538E+02 -0.47338546673E+02  0.86058262359E+01  0.52542954611E+02  0.10566000000E+00 0. -1.
         23    2    1    0    0    0 -0.30012918345E+02 -0.12374133476E+02 -0.68962500571E+01  0.91811858869E+02  0.85603532154E+02 0.  0.
         13    1    3    3    0    0 -0.89000628071E+01  0.34964413197E+02 -0.15502076293E+02  0.39268904258E+02  0.10566000000E+00 0.  1.
         22    1    1    0    0    0  0.30012918345E+02  0.12374133476E+02  0.68962500571E+01  0.33188141131E+02  0.00000000000E+00 0. -1.
</event>
<event>
 5    1  0.1766627E-003  0.9118800E+02  0.7818608E-02  0.1130116E+00
         25   -1    0    0    0    0  0.00000000000E+00  0.00000000000E+00  0.99999998245E-14  0.12500000000E+03  0.12500000000E+03 0.  0.
        -13    1    3    3    0    0 -0.31884796904E+02  0.11639974381E+02  0.31196142590E+02  0.46101407286E+02  0.10566000000E+00 0. -1.
         23    2    1    0    0    0  0.15798557346E+02  0.15565184521E+02  0.19764765183E+02  0.95292840490E+02  0.90543967897E+02 0.  0.
         13    1    3    3    0    0  0.47683354250E+02  0.39252101398E+01 -0.11431377407E+02  0.49191433204E+02  0.10566000000E+00 0.  1.
         22    1    1    0    0    0 -0.15798557346E+02 -0.15565184521E+02 -0.19764765183E+02  0.29707159510E+02  0.00000000000E+00 0. -1.
</event>
<event>
 5    1  0.1766627E-003  0.9118800E+02  0.7818608E-02  0.1130116E+00
         25   -1    0    0    0    0  0.00000000000E+00  0.00000000000E+00  0.99999998245E-14  0.12500000000E+03  0.12500000000E+03 0.  0.
        -13    1    3    3    0    0 -0.13097385726E+02  0.12200574453E+02  0.25824669504E+02  0.31421652549E+02  0.10566000000E+00 0. -1.
         23    2    1    0    0    0  0.24605411936E+01 -0.37481395031E+00 -0.32151551641E+02  0.92752255561E+02  0.86965877736E+02 0.  0.
         13    1    3    3    0    0  0.15557926920E+02 -0.12575388403E+02 -0.57976221145E+02  0.61330603012E+02  0.10566000000E+00 0.  1.
         22    1    1    0    0    0 -0.24605411936E+01  0.37481395031E+00  0.32151551641E+02  0.32247744439E+02  0.00000000000E+00 0.  1.
</event>
<event>
 5    1  0.1766627E-003  0.9118800E+02  0.7818608E-02  0.1130116E+00
         25   -1    0    0    0    0  0.00000000000E+00  0.00000000000E+00  0.99999998245E-14  0.12500000000E+03  0.12500000000E+03 0.  0.
        -13    1    3    3    0    0 -0.30871071378E+02 -0.25266724727E+02  0.20747601432E+02  0.44965593021E+02  0.10566000000E+00 0.  1.
         23    2    1    0    0    0  0.27997445347E+01  0.12181882067E+02  0.26546101697E+02  0.95658351521E+02  0.91047173929E+02 0.  0.
         13    1    3    3    0    0  0.33670815913E+02  0.37448606794E+02  0.57985002643E+01  0.50692758501E+02  0.10566000000E+00 0. -1.
         22    1    1    0    0    0 -0.27997445347E+01 -0.12181882067E+02 -0.26546101697E+02  0.29341648479E+02  0.00000000000E+00 0. -1.
</event>
<event>
 5    1  0.1766627E-003  0.9118800E+02  0.7818608E-02  0.1130116E+00
         25   -1    0    0    0    0  0.00000000000E+00  0.00000000000E+00  0.99999998245E-14  0.12500000000E+03  0.12500000000E+03 0.  0.
        -13    1    3    3    0    0  0.32634694423E+02  0.37880160466E+02  0.37303618139E+02  0.62381895830E+02  0.10566000000E+00 0.  1.
         23    2    1    0    0    0  0.18000985270E+02  0.17523080881E+02  0.16687402516E+02  0.94841033887E+02  0.89918065325E+02 0.  0.
         13    1    3    3    0    0 -0.14633709153E+02 -0.20357079584E+02 -0.20616215623E+02  0.32459138057E+02  0.10566000000E+00 0. -1.
         22    1    1    0    0    0 -0.18000985270E+02 -0.17523080881E+02 -0.16687402516E+02  0.30158966113E+02  0.00000000000E+00 0.  1.
</event>
<event>
 5    1  0.1766627E-003  0.9118800E+02  0.7818608E-02  0.1130116E+00
         25   -1    0    0    0    0  0.00000000000E+00  0.00000000000E+00  0.99999998245E-14  0.12500000000E+03  0.12500000000E+03 0.  0.
        -13    1    3    3    0    0  0.55209626525E+02  0.81739209182E+01 -0.11384256872E+02  0.56960761168E+02  0.10566000000E+00 0.  1.
         23    2    1    0    0    0  0.18411250578E+02  0.58706754785E+01 -0.22375580474E+02  0.95434723409E+02  0.90739632202E+02 0.  0.
         13    1    3    3    0    0 -0.36798375948E+02 -0.23032454398E+01 -0.10991323602E+02  0.38473962241E+02  0.10566000000E+00 0. -1.
         22    1    1    0    0    0 -0.18411250578E+02 -0.58706754785E+01  0.22375580474E+02  0.29565276591E+02  0.00000000000E+00 0.  1.
</event>
<event>
 5    1  0.1766627E-003  0.9118800E+02  0.7818608E-02  0.1130116E+00
         25   -1    0    0    0    0  0.00000000000E+00  0.00000000000E+00  0.99999998245E-14  0.12500000000E+03  0.12500000000E+03 0.  0.
        -13    1    3    3    0    0 -0.28541304825E+02 -0.15284122171E+02  0.29673606960E+02  0.43917474718E+02  0.10566000000E+00 0.  1.
         23    2    1    0    0    0  0.21636032945E+02 -0.57912104527E+01  0.17909201818E+02  0.96322560263E+02  0.91954554350E+02 0.  0.
         13    1    3    3    0    0  0.50177337770E+02  0.94929117181E+01 -0.11764405141E+02  0.52405085544E+02  0.10566000000E+00 0. -1.
         22    1    1    0    0    0 -0.21636032945E+02  0.57912104527E+01 -0.17909201818E+02  0.28677439737E+02  0.00000000000E+00 0. -1.
</event>
<event>
 5    1  0.1766627E-003  0.9118800E+02  0.7818608E-02  0.1130116E+00
         25   -1    0    0    0    0  0.00000000000E+00  0.00000000000E+00  0.99999998245E-14  0.12500000000E+03  0.12500000000E+03 0.  0.
        -13    1    3    3    0    0  0.99206387433E+01 -0.31649765563E+02  0.41716410490E+02  0.53295373171E+02  0.10566000000E+00 0. -1.
         23    2    1    0    0    0 -0.19449542723E+02 -0.14943654287E+02  0.17137045457E+02  0.95078839551E+02  0.90248046449E+02 0.  0.
         13    1    3    3    0    0 -0.29370181466E+02  0.16706111275E+02 -0.24579365033E+02  0.41783466380E+02  0.10566000000E+00 0.  1.
         22    1    1    0    0    0  0.19449542723E+02  0.14943654287E+02 -0.17137045457E+02  0.29921160449E+02  0.00000000000E+00 0. -1.
</event>
<event>
 5    1  0.1766627E-003  0.9118800E+02  0.7818608E-02  0.1130116E+00
         25   -1    0    0    0    0  0.00000000000E+00  0.00000000000E+00  0.99999998245E-14  0.12500000000E+03  0.12500000000E+03 0.  0.
        -13    1    3    3    0    0 -0.13655976586E+02  0.60100933537E+02  0.98109485145E+01  0.62408923908E+02  0.10566000000E+00 0.  1.
         23    2    1    0    0    0 -0.36162059052E+01  0.26586116664E+02  0.42406306903E+01  0.97836025823E+02  0.93989395444E+02 0.  0.
         13    1    3    3    0    0  0.10039770681E+02 -0.33514816874E+02 -0.55703178242E+01  0.35427101915E+02  0.10566000000E+00 0. -1.
         22    1    1    0    0    0  0.36162059052E+01 -0.26586116664E+02 -0.42406306903E+01  0.27163974177E+02  0.00000000000E+00 0.  1.
</event>
<event>
 5    1  0.1766627E-003  0.9118800E+02  0.7818608E-02  0.1130116E+00
         25   -1    0    0    0    0  0.00000000000E+00  0.00000000000E+00  0.99999998245E-14  0.12500000000E+03  0.12500000000E+03 0.  0.
        -13    1    3    3    0    0  0.26865243928E+02  0.31179259151E+02  0.33579207261E+02  0.53117434584E+02  0.10566000000E+00 0. -1.
         23    2    1    0    0    0  0.16771336734E+02 -0.88015197518E+01  0.22045368982E+02  0.95935540959E+02  0.91426939354E+02 0.  0.
         13    1    3    3    0    0 -0.10093907194E+02 -0.39980778902E+02 -0.11533838279E+02  0.42818106375E+02  0.10566000000E+00 0.  1.
         22    1    1    0    0    0 -0.16771336734E+02  0.88015197518E+01 -0.22045368982E+02  0.29064459041E+02  0.00000000000E+00 0.  1.
</event>
<event>
 5    1  0.1766627E-003  0.9118800E+02  0.7818608E-02  0.1130116E+00
         25   -1    0    0    0    0  0.00000000000E+00  0.00000000000E+00  0.99999998245E-14  0.12500000000E+03  0.12500000000E+03 0.  0.
        -13    1    3    3    0    0 -0.14779540006E+02  0.11140602109E+02 -0.55659804768E+02  0.58656396488E+02  0.10566000000E+00 0.  1.
         23    2    1    0    0    0 -0.23452622056E+01  0.19414428941E+02 -0.21510898804E+02  0.95928724258E+02  0.91417619005E+02 0.  0.
         13    1    3    3    0    0  0.12434277801E+02  0.82738268320E+01  0.34148905964E+02  0.37272327771E+02  0.10566000000E+00 0. -1.
         22    1    1    0    0    0  0.23452622056E+01 -0.19414428941E+02  0.21510898804E+02  0.29071275742E+02  0.00000000000E+00 0.  1.
</event>
<event>
 5    1  0.1766627E-003  0.9118800E+02  0.7818608E-02  0.1130116E+00
         25   -1    0    0    0    0  0.00000000000E+00  0.00000000000E+00  0.99999998245E-14  0.12500000000E+03  0.12500000000E+03 0.  0.
        -13    1    3    3    0    0 -0.33477034601E+02 -0.17311745169E+02  0.13253266141E+02  0.39950827200E+02  0.10566000000E+00 0.  1.
         23    2    1    0    0    0  0.97334409687E+00  0.27460215923E+02  0.55786833500E+01  0.96961944340E+02  0.92819642776E+02 0.  0.
         13    1    3    3    0    0  0.34450378698E+02  0.44771961092E+02 -0.76745827913E+01  0.57011117140E+02  0.10566000000E+00 0. -1.
         22    1    1    0    0    0 -0.97334409687E+00 -0.27460215923E+02 -0.55786833500E+01  0.28038055660E+02  0.00000000000E+00 0. -1.
</event>
<event>
 5    1  0.1766627E-003  0.9118800E+02  0.7818608E-02  0.1130116E+00
         25   -1    0    0    0    0  0.00000000000E+00  0.00000000000E+00  0.99999998245E-14  0.12500000000E+03  0.12500000000E+03 0.  0.
        -13    1    3    3    0    0  0.22058638105E+02 -0.47316058020E+02  0.24920056965E+02  0.57848191543E+02  0.10566000000E+00 0. -1.
         23    2    1    0    0    0  0.40652087223E+01 -0.13569515347E+02  0.25198116506E+02  0.96093205917E+02  0.91642247241E+02 0.  0.
         13    1    3    3    0    0 -0.17993429383E+02  0.33746542673E+02  0.27805954064E+00  0.38245014374E+02  0.10566000000E+00 0.  1.
         22    1    1    0    0    0 -0.40652087223E+01  0.13569515347E+02 -0.25198116506E+02  0.28906794083E+02  0.00000000000E+00 0. -1.
</event>
<event>
 5    1  0.1766627E-003  0.9118800E+02  0.7818608E-02  0.1130116E+00
         25   -1    0    0    0    0  0.00000000000E+00  0.00000000000E+00  0.99999998245E-14  0.12500000000E+03  0.12500000000E+03 0.  0.
        -13    1    3    3    0    0 -0.27693480956E+02  0.20344744720E+02 -0.43545849421E+02  0.55471521442E+02  0.10566000000E+00 0.  1.
         23    2    1    0    0    0 -0.91980949689E+00 -0.44845827232E+01 -0.30363941007E+02  0.94292892595E+02  0.89152807857E+02 0.  0.
         13    1    3    3    0    0  0.26773671459E+02 -0.24829327444E+02  0.13181908414E+02  0.38821371153E+02  0.10566000000E+00 0. -1.
         22    1    1    0    0    0  0.91980949689E+00  0.44845827232E+01  0.30363941007E+02  0.30707107405E+02  0.00000000000E+00 0.  1.
</event>
<event>
 5    1  0.1766627E-003  0.9118800E+02  0.7818608E-02  0.1130116E+00
         25   -1    0    0    0    0  0.00000000000E+00  0.00000000000E+00  0.99999998245E-14  0.12500000000E+03  0.12500000000E+03 0.  0.
        -13    1    3    3    0    0  0.28399976708E+02  0.66426083377E+01  0.15008064599E+02  0.32801464748E+02  0.10566000000E+00 0. -1.
         23    2    1    0    0    0 -0.24612867988E+02 -0.14467142524E+02 -0.95109665786E+01  0.94907642687E+02  0.90010614217E+02 0.  0.
         13    1    3    3    0    0 -0.53012844696E+02 -0.21109750861E+02 -0.24519031178E+02  0.62106177939E+02  0.10566000000E+00 0.  1.
         22    1    1    0    0    0  0.24612867988E+02  0.14467142524E+02  0.95109665786E+01  0.30092357313E+02  0.00000000000E+00 0.  1.
</event>
<event>
 5    1  0.1766627E-003  0.9118800E+02  0.7818608E-02  0.1130116E+00
         25   -1    0    0    0    0  0.00000000000E+00  0.00000000000E+00  0.99999998245E-14  0.12500000000E+03  0.12500000000E+03 0.  0.
        -13    1    3    3    0    0 -0.35943120382E+02 -0.14885349914E+02  0.16000126498E+02  0.42065386683E+02  0.10566000000E+00 0.  1.
         23    2    1    0    0    0 -0.95034907015E+01  0.56703199583E+01 -0.26562611215E+02  0.96224295343E+02  0.91820879084E+02 0.  0.
         13    1    3    3    0    0  0.26439629681E+02  0.20555669872E+02 -0.42562737713E+02  0.54158908659E+02  0.10566000000E+00 0. -1.
         22    1    1    0    0    0  0.95034907015E+01 -0.56703199583E+01  0.26562611215E+02  0.28775704657E+02  0.00000000000E+00 0. -1.
</event>
<event>
 5    1  0.1766627E-003  0.9118800E+02  0.7818608E-02  0.1130116E+00
         25   -1    0    0    0    0  0.00000000000E+00  0.00000000000E+00  0.99999998245E-14  0.12500000000E+03  0.12500000000E+03 0.  0.
        -13    1    3    3    0    0 -0.14039929595E+02  0.33243127020E+02  0.13392063767E+02  0.38491345171E+02  0.10566000000E+00 0.  1.
         23    2    1    0    0    0  0.25495343395E+02 -0.52622184259E+00 -0.12527580873E+02  0.96588211482E+02  0.92314965583E+02 0.  0.
         13    1    3    3    0    0  0.39535272989E+02 -0.33769348862E+02 -0.25919644640E+02  0.58096866312E+02  0.10566000000E+00 0. -1.
         22    1    1    0    0    0 -0.25495343395E+02  0.52622184259E+00  0.12527580873E+02  0.28411788518E+02  0.00000000000E+00 0. -1.
</event>
<event>
 5    1  0.1766627E-003  0.9118800E+02  0.7818608E-02  0.1130116E+00
         25   -1    0    0    0    0  0.00000000000E+00  0.00000000000E+00  0.99999998245E-14  0.12500000000E+03  0.12500000000E+03 0.  0.
        -13    1    3    3    0    0 -0.19539358087E+02 -0.14196714454E+02  0.40953072977E+02  0.47544700714E+02  0.10566000000E+00 0.  1.
         23    2    1    0    0    0 -0.16237943693E+02  0.22411317504E+02  0.10083136490E+02  0.95544820334E+02  0.90891171648E+02 0.  0.
         13    1    3    3    0    0  0.33014143939E+01  0.36608031958E+02 -0.30869936487E+02  0.48000119620E+02  0.10566000000E+00 0. -1.
         22    1    1    0    0    0  0.16237943693E+02 -0.22411317504E+02 -0.10083136490E+02  0.29455179666E+02  0.00000000000E+00 0. -1.
</event>
<event>
 5    1  0.1766627E-003  0.9118800E+02  0.7818608E-02  0.1130116E+00
         25   -1    0    0    0    0  0.00000000000E+00  0.00000000000E+00  0.99999998245E-14  0.12500000000E+03  0.12500000000E+03 0.  0.
        -13    1    3    3    0    0  0.96763122044E-01  0.12421133045E+02 -0.49712713523E+02  0.51241184209E+02  0.10566000000E+00 0. -1.
         23    2    1    0    0    0 -0.22207670720E+02  0.18743242499E+02 -0.17010561174E+02  0.91327326069E+02  0.84893059300E+02 0.  0.
         13    1    3    3    0    0 -0.22304433842E+02  0.63221094541E+01  0.32702152349E+02  0.40086141861E+02  0.10566000000E+00 0.  1.
         22    1    1    0    0    0  0.22207670720E+02 -0.18743242499E+02  0.17010561174E+02  0.33672673931E+02  0.00000000000E+00 0. -1.
</event>
<event>
 5    1  0.1766627E-003  0.9118800E+02  0.7818608E-02  0.1130116E+00
         25   -1    0    0    0    0  0.00000000000E+00  0.00000000000E+00  0.99999998245E-14  0.12500000000E+03  0.12500000000E+03 0.  0.
        -13    1    3    3    0    0  0.17749295814E+02 -0.39708421918E+02  0.44502171626E+02  0.62227411296E+02  0.10566000000E+00 0. -1.
         23    2    1    0    0    0  0.10326509970E+02 -0.20403113606E+02  0.17698676467E+02  0.96083447618E+02  0.91628935956E+02 0.  0.
         13    1    3    3    0    0 -0.74227858433E+01  0.19305308312E+02 -0.26803495159E+02  0.33856036322E+02  0.10566000000E+00 0.  1.
         22    1    1    0    0    0 -0.10326509970E+02  0.20403113606E+02 -0.17698676467E+02  0.28916552382E+02  0.00000000000E+00 0. -1.
</event>
<event>
 5    1  0.1766627E-003  0.9118800E+02  0.7818608E-02  0.1130116E+00
         25   -1    0    0    0    0  0.00000000000E+00  0.00000000000E+00  0.99999998245E-14  0.12500000000E+03  0.12500000000E+03 0.  0.
        -13    1    3    3    0    0 -0.15076354847E+02 -0.51840165546E+02  0.30031504547E+02  0.61778650590E+02  0.10566000000E+00 0. -1.
         23    2    1    0    0    0 -0.68118154612E+01 -0.18679604719E+02  0.18485583945E+02  0.97851422208E+02  0.94009869439E+02 0.  0.
         13    1    3    3    0    0  0.82645393859E+01  0.33160560827E+02 -0.11545920602E+02  0.36072771618E+02  0.10566000000E+00 0.  1.
         22    1    1    0    0    0  0.68118154612E+01  0.18679604719E+02 -0.18485583945E+02  0.27148577792E+02  0.00000000000E+00 0. -1.
</event>
<event>
 5    1  0.1766627E-003  0.9118800E+02  0.7818608E-02  0.1130116E+00
         25   -1    0    0    0    0  0.00000000000E+00  0.00000000000E+00  0.99999998245E-14  0.12500000000E+03  0.12500000000E+03 0.  0.
        -13    1    3    3    0    0 -0.20241150020E+01  0.43418468493E+02 -0.41859915752E+02  0.60345042536E+02  0.10566000000E+00 0. -1.
         23    2    1    0    0    0  0.21049591714E+00  0.26672663822E+02 -0.98015787140E+01  0.96582641763E+02  0.92307423541E+02 0.  0.
         13    1    3    3    0    0  0.22346109191E+01 -0.16745804672E+02  0.32058337038E+02  0.36237599227E+02  0.10566000000E+00 0.  1.
         22    1    1    0    0    0 -0.21049591714E+00 -0.26672663822E+02  0.98015787140E+01  0.28417358237E+02  0.00000000000E+00 0. -1.
</event>
<event>
 5    1  0.1766627E-003  0.9118800E+02  0.7818608E-02  0.1130116E+00
         25   -1    0    0    0    0  0.00000000000E+00  0.00000000000E+00  0.99999998245E-14  0.12500000000E+03  0.12500000000E+03 0.  0.
        -13    1    3    3    0    0  0.87687618558E+01 -0.41075061421E+02  0.17616696480E+02  0.45545702477E+02  0.10566000000E+00 0. -1.
         23    2    1    0    0    0 -0.24808516259E+02 -0.16100626559E+02 -0.76792551746E+01  0.94444090349E+02  0.89364548828E+02 0.  0.
         13    1    3    3    0    0 -0.33577278115E+02  0.24974434862E+02 -0.25295951655E+02  0.48898387871E+02  0.10566000000E+00 0.  1.
         22    1    1    0    0    0  0.24808516259E+02  0.16100626559E+02  0.76792551746E+01  0.30555909651E+02  0.00000000000E+00 0.  1.
</event>
<event>
 5    1  0.1766627E-003  0.9118800E+02  0.7818608E-02  0.1130116E+00
         25   -1    0    0    0    0  0.00000000000E+00  0.00000000000E+00  0.99999998245E-14  0.12500000000E+03  0.12500000000E+03 0.  0.
        -13    1    3    3    0    0 -0.32862664177E+02  0.48084327825E+02  0.38263475202E+01  0.58367023040E+02  0.10566000000E+00 0. -1.
         23    2    1    0    0    0 -0.27224223958E+02  0.11787261828E+02  0.37323553240E+01  0.95099692514E+02  0.90276924673E+02 0.  0.
         13    1    3    3    0    0  0.56384402191E+01 -0.36297065997E+02 -0.93992196196E-01  0.36732669474E+02  0.10566000000E+00 0.  1.
         22    1    1    0    0    0  0.27224223958E+02 -0.11787261828E+02 -0.37323553240E+01  0.29900307486E+02  0.00000000000E+00 0. -1.
</event>
<event>
 5    1  0.1766627E-003  0.9118800E+02  0.7818608E-02  0.1130116E+00
         25   -1    0    0    0    0  0.00000000000E+00  0.00000000000E+00  0.99999998245E-14  0.12500000000E+03  0.12500000000E+03 0.  0.
        -13    1    3    3    0    0  0.51781847817E+02  0.54282030027E+00 -0.30778729814E+02  0.60241146986E+02  0.10566000000E+00 0. -1.
         23    2    1    0    0    0  0.27802046760E+02 -0.92501670798E+01 -0.82761871882E+01  0.94553084402E+02  0.89516876066E+02 0.  0.
         13    1    3    3    0    0 -0.23979801058E+02 -0.97929873801E+01  0.22502542626E+02  0.34311937416E+02  0.10566000000E+00 0.  1.
         22    1    1    0    0    0 -0.27802046760E+02  0.92501670798E+01  0.82761871882E+01  0.30446915598E+02  0.00000000000E+00 0. -1.
</event>
<event>
 4    1  0.1766627E-003  0.9118800E+02  0.7818608E-02  0.1130116E+00
         25   -1    0    0    0    0  0.00000000000E+00  0.00000000000E+00  0.99999998245E-14  0.12500000000E+03  0.12500000000E+03 0.  0.
        -13    1    1    0    0    0 -0.37742928157E+02 -0.29646515479E+02  0.34035833752E+02  0.58837858978E+02  0.10566000000E+00 0. -1.
         13    1    1    0    0    0  0.41166251423E+01 -0.37944872265E+01 -0.13246801795E+02  0.14381712614E+02  0.10566000000E+00 0.  1.
         22    1    1    0    0    0  0.33626303015E+02  0.33441002706E+02 -0.20789031957E+02  0.51780428408E+02  0.00000000000E+00 0. -1.
</event>
<event>
 5    1  0.1766627E-003  0.9118800E+02  0.7818608E-02  0.1130116E+00
         25   -1    0    0    0    0  0.00000000000E+00  0.00000000000E+00  0.99999998245E-14  0.12500000000E+03  0.12500000000E+03 0.  0.
        -13    1    3    3    0    0  0.34774559536E+02  0.20831397989E+02  0.35865343176E+02  0.54125328066E+02  0.10566000000E+00 0. -1.
         23    2    1    0    0    0 -0.20157111773E+01  0.80087364055E+01  0.30436851495E+02  0.93462643115E+02  0.87981025106E+02 0.  0.
         13    1    3    3    0    0 -0.36790270714E+02 -0.12822661583E+02 -0.54284916809E+01  0.39337315049E+02  0.10566000000E+00 0.  1.
         22    1    1    0    0    0  0.20157111773E+01 -0.80087364055E+01 -0.30436851495E+02  0.31537356885E+02  0.00000000000E+00 0. -1.
</event>
<event>
 5    1  0.1766627E-003  0.9118800E+02  0.7818608E-02  0.1130116E+00
         25   -1    0    0    0    0  0.00000000000E+00  0.00000000000E+00  0.99999998245E-14  0.12500000000E+03  0.12500000000E+03 0.  0.
        -13    1    3    3    0    0 -0.24293292651E+02 -0.88726265230E+01  0.40362137201E+02  0.47937468151E+02  0.10566000000E+00 0.  1.
         23    2    1    0    0    0 -0.27411425238E+02 -0.22292637518E+01 -0.76074574933E+01  0.96465297269E+02  0.92148382065E+02 0.  0.
         13    1    3    3    0    0 -0.31181325868E+01  0.66433627712E+01 -0.47969594694E+02  0.48527829118E+02  0.10566000000E+00 0. -1.
         22    1    1    0    0    0  0.27411425238E+02  0.22292637518E+01  0.76074574933E+01  0.28534702731E+02  0.00000000000E+00 0. -1.
</event>
<event>
 5    1  0.1766627E-003  0.9118800E+02  0.7818608E-02  0.1130116E+00
         25   -1    0    0    0    0  0.00000000000E+00  0.00000000000E+00  0.99999998245E-14  0.12500000000E+03  0.12500000000E+03 0.  0.
        -13    1    3    3    0    0 -0.11798551742E+01 -0.26579749048E+02  0.32525325975E+02  0.42021222157E+02  0.10566000000E+00 0.  1.
         23    2    1    0    0    0 -0.26713955351E+02 -0.32327862848E+02  0.92575459632E+00  0.83052614522E+02  0.71680915386E+02 0.  0.
         13    1    3    3    0    0 -0.25534100177E+02 -0.57481137999E+01 -0.31599571379E+02  0.41031392366E+02  0.10566000000E+00 0. -1.
         22    1    1    0    0    0  0.26713955351E+02  0.32327862848E+02 -0.92575459632E+00  0.41947385478E+02  0.00000000000E+00 0.  1.
</event>
<event>
 5    1  0.1766627E-003  0.9118800E+02  0.7818608E-02  0.1130116E+00
         25   -1    0    0    0    0  0.00000000000E+00  0.00000000000E+00  0.99999998245E-14  0.12500000000E+03  0.12500000000E+03 0.  0.
        -13    1    3    3    0    0  0.47654931717E+02  0.22235197605E+02  0.18731771822E+02  0.55823713322E+02  0.10566000000E+00 0. -1.
         23    2    1    0    0    0  0.31189215974E+02 -0.41569145106E+01 -0.24214158629E+01  0.93441952119E+02  0.87951623235E+02 0.  0.
         13    1    3    3    0    0 -0.16465715743E+02 -0.26392112116E+02 -0.21153187685E+02  0.37618238796E+02  0.10566000000E+00 0.  1.
         22    1    1    0    0    0 -0.31189215974E+02  0.41569145106E+01  0.24214158629E+01  0.31558047881E+02  0.00000000000E+00 0. -1.
</event>
<event>
 5    1  0.1766627E-003  0.9118800E+02  0.7818608E-02  0.1130116E+00
         25   -1    0    0    0    0  0.00000000000E+00  0.00000000000E+00  0.99999998245E-14  0.12500000000E+03  0.12500000000E+03 0.  0.
        -13    1    3    3    0    0  0.35410170967E+02 -0.65385468297E+01  0.18819918770E+01  0.36058090077E+02  0.10566000000E+00 0.  1.
         23    2    1    0    0    0 -0.16045564446E+02  0.20252709988E+02 -0.13179776249E+02  0.95994157447E+02  0.91507045422E+02 0.  0.
         13    1    3    3    0    0 -0.51455735413E+02  0.26791256817E+02 -0.15061768126E+02  0.59936067370E+02  0.10566000000E+00 0. -1.
         22    1    1    0    0    0  0.16045564446E+02 -0.20252709988E+02  0.13179776249E+02  0.29005842553E+02  0.00000000000E+00 0. -1.
</event>
<event>
 5    1  0.1766627E-003  0.9118800E+02  0.7818608E-02  0.1130116E+00
         25   -1    0    0    0    0  0.00000000000E+00  0.00000000000E+00  0.99999998245E-14  0.12500000000E+03  0.12500000000E+03 0.  0.
        -13    1    3    3    0    0  0.96015428980E+01 -0.22435866398E+02  0.20457648828E+02  0.31844690086E+02  0.10566000000E+00 0. -1.
         23    2    1    0    0    0  0.35762152167E+01  0.31250096388E+02 -0.74866458776E+01  0.92667234792E+02  0.86843587546E+02 0.  0.
         13    1    3    3    0    0 -0.60253276814E+01  0.53685962786E+02 -0.27944294706E+02  0.60822544706E+02  0.10566000000E+00 0.  1.
         22    1    1    0    0    0 -0.35762152167E+01 -0.31250096388E+02  0.74866458776E+01  0.32332765208E+02  0.00000000000E+00 0.  1.
</event>
<event>
 5    1  0.1766627E-003  0.9118800E+02  0.7818608E-02  0.1130116E+00
         25   -1    0    0    0    0  0.00000000000E+00  0.00000000000E+00  0.99999998245E-14  0.12500000000E+03  0.12500000000E+03 0.  0.
        -13    1    3    3    0    0 -0.48586080618E+02 -0.15331075627E+02  0.19641558514E+02  0.54602665636E+02  0.10566000000E+00 0.  1.
         23    2    1    0    0    0 -0.10062139227E+02 -0.68491156391E+01  0.27591832035E+02  0.94842642259E+02  0.89920301183E+02 0.  0.
         13    1    3    3    0    0  0.38523941391E+02  0.84819599874E+01  0.79502735212E+01  0.40239976623E+02  0.10566000000E+00 0. -1.
         22    1    1    0    0    0  0.10062139227E+02  0.68491156391E+01 -0.27591832035E+02  0.30157357741E+02  0.00000000000E+00 0.  1.
</event>
<event>
 5    1  0.1766627E-003  0.9118800E+02  0.7818608E-02  0.1130116E+00
         25   -1    0    0    0    0  0.00000000000E+00  0.00000000000E+00  0.99999998245E-14  0.12500000000E+03  0.12500000000E+03 0.  0.
        -13    1    3    3    0    0 -0.19985986865E+02 -0.49100690351E+02  0.26357327296E+02  0.59203355733E+02  0.10566000000E+00 0.  1.
         23    2    1    0    0    0 -0.84121179151E+01 -0.14252642058E+02  0.23798857961E+02  0.96012292714E+02  0.91531815116E+02 0.  0.
         13    1    3    3    0    0  0.11573868950E+02  0.34848048293E+02 -0.25584693344E+01  0.36808936981E+02  0.10566000000E+00 0. -1.
         22    1    1    0    0    0  0.84121179151E+01  0.14252642058E+02 -0.23798857961E+02  0.28987707286E+02  0.00000000000E+00 0.  1.
</event>
<event>
 5    1  0.1766627E-003  0.9118800E+02  0.7818608E-02  0.1130116E+00
         25   -1    0    0    0    0  0.00000000000E+00  0.00000000000E+00  0.99999998245E-14  0.12500000000E+03  0.12500000000E+03 0.  0.
        -13    1    3    3    0    0  0.22011997827E+02  0.58414535091E+01  0.42728790236E+02  0.48419121290E+02  0.10566000000E+00 0.  1.
         23    2    1    0    0    0 -0.18867049897E+02 -0.63086365506E+01  0.20191521825E+02  0.96654594366E+02  0.92404808270E+02 0.  0.
         13    1    3    3    0    0 -0.40879047725E+02 -0.12150090060E+02 -0.22537268411E+02  0.48235473075E+02  0.10566000000E+00 0. -1.
         22    1    1    0    0    0  0.18867049897E+02  0.63086365506E+01 -0.20191521825E+02  0.28345405634E+02  0.00000000000E+00 0. -1.
</event>
<event>
 5    1  0.1766627E-003  0.9118800E+02  0.7818608E-02  0.1130116E+00
         25   -1    0    0    0    0  0.00000000000E+00  0.00000000000E+00  0.99999998245E-14  0.12500000000E+03  0.12500000000E+03 0.  0.
        -13    1    3    3    0    0  0.46136741730E+02  0.31578519121E+01 -0.24087057909E+02  0.52141811331E+02  0.10566000000E+00 0. -1.
         23    2    1    0    0    0  0.23846096261E+02  0.25521758803E+01  0.14692074133E+02  0.96875154206E+02  0.92702689020E+02 0.  0.
         13    1    3    3    0    0 -0.22290645469E+02 -0.60567603180E+00  0.38779132041E+02  0.44733342875E+02  0.10566000000E+00 0.  1.
         22    1    1    0    0    0 -0.23846096261E+02 -0.25521758803E+01 -0.14692074133E+02  0.28124845794E+02  0.00000000000E+00 0. -1.
</event>
<event>
 5    1  0.1766627E-003  0.9118800E+02  0.7818608E-02  0.1130116E+00
         25   -1    0    0    0    0  0.00000000000E+00  0.00000000000E+00  0.99999998245E-14  0.12500000000E+03  0.12500000000E+03 0.  0.
        -13    1    3    3    0    0 -0.30775228093E+02  0.20057145272E+01 -0.37372802489E+01  0.31066315884E+02  0.10566000000E+00 0.  1.
         23    2    1    0    0    0  0.29720137886E+02  0.11667979728E+02  0.40268636836E+01  0.92818577129E+02  0.87061152543E+02 0.  0.
         13    1    3    3    0    0  0.60495365979E+02  0.96622652010E+01  0.77641439324E+01  0.61752261244E+02  0.10566000000E+00 0. -1.
         22    1    1    0    0    0 -0.29720137886E+02 -0.11667979728E+02 -0.40268636836E+01  0.32181422871E+02  0.00000000000E+00 0. -1.
</event>
<event>
 5    1  0.1766627E-003  0.9118800E+02  0.7818608E-02  0.1130116E+00
         25   -1    0    0    0    0  0.00000000000E+00  0.00000000000E+00  0.99999998245E-14  0.12500000000E+03  0.12500000000E+03 0.  0.
        -13    1    3    3    0    0 -0.39921207301E+02 -0.39258896927E+02 -0.23987098701E+02  0.60912690372E+02  0.10566000000E+00 0.  1.
         23    2    1    0    0    0 -0.19738351072E+02 -0.22803525703E+02 -0.23871491365E+01  0.94746045407E+02  0.89785919563E+02 0.  0.
         13    1    3    3    0    0  0.20182856229E+02  0.16455371224E+02  0.21599949565E+02  0.33833355035E+02  0.10566000000E+00 0. -1.
         22    1    1    0    0    0  0.19738351072E+02  0.22803525703E+02  0.23871491365E+01  0.30253954593E+02  0.00000000000E+00 0.  1.
</event>
<event>
 5    1  0.1766627E-003  0.9118800E+02  0.7818608E-02  0.1130116E+00
         25   -1    0    0    0    0  0.00000000000E+00  0.00000000000E+00  0.99999998245E-14  0.12500000000E+03  0.12500000000E+03 0.  0.
        -13    1    3    3    0    0  0.94709521957E+00 -0.30672911191E+02 -0.26594129555E+02  0.40607676135E+02  0.10566000000E+00 0. -1.
         23    2    1    0    0    0 -0.23768460598E+02 -0.57152056033E+01  0.15974966204E+02  0.95797211785E+02  0.91237618044E+02 0.  0.
         13    1    3    3    0    0 -0.24715555818E+02  0.24957705588E+02  0.42569095758E+02  0.55189535650E+02  0.10566000000E+00 0.  1.
         22    1    1    0    0    0  0.23768460598E+02  0.57152056033E+01 -0.15974966204E+02  0.29202788215E+02  0.00000000000E+00 0.  1.
</event>
<event>
 5    1  0.1766627E-003  0.9118800E+02  0.7818608E-02  0.1130116E+00
         25   -1    0    0    0    0  0.00000000000E+00  0.00000000000E+00  0.99999998245E-14  0.12500000000E+03  0.12500000000E+03 0.  0.
        -13    1    3    3    0    0  0.16173909022E+02 -0.27159864393E+02  0.33642788792E+02  0.46163859984E+02  0.10566000000E+00 0.  1.
         23    2    1    0    0    0 -0.22224103981E+02 -0.14974770824E+02  0.26936759982E+02  0.87003373869E+02  0.78267767741E+02 0.  0.
         13    1    3    3    0    0 -0.38398013003E+02  0.12185093569E+02 -0.67060288096E+01  0.40839513885E+02  0.10566000000E+00 0. -1.
         22    1    1    0    0    0  0.22224103981E+02  0.14974770824E+02 -0.26936759982E+02  0.37996626131E+02  0.00000000000E+00 0.  1.
</event>
<event>
 5    1  0.1766627E-003  0.9118800E+02  0.7818608E-02  0.1130116E+00
         25   -1    0    0    0    0  0.00000000000E+00  0.00000000000E+00  0.99999998245E-14  0.12500000000E+03  0.12500000000E+03 0.  0.
        -13    1    3    3    0    0  0.81331274963E+01 -0.27758093602E+02 -0.16104151349E+02  0.33106107866E+02  0.10566000000E+00 0.  1.
         23    2    1    0    0    0 -0.28372598805E+02  0.16041122989E+02  0.18840119074E+00  0.92406174132E+02  0.86467008349E+02 0.  0.
         13    1    3    3    0    0 -0.36505726302E+02  0.43799216592E+02  0.16292552539E+02  0.59300066266E+02  0.10566000000E+00 0. -1.
         22    1    1    0    0    0  0.28372598805E+02 -0.16041122989E+02 -0.18840119074E+00  0.32593825868E+02  0.00000000000E+00 0. -1.
</event>
<event>
 5    1  0.1766627E-003  0.9118800E+02  0.7818608E-02  0.1130116E+00
         25   -1    0    0    0    0  0.00000000000E+00  0.00000000000E+00  0.99999998245E-14  0.12500000000E+03  0.12500000000E+03 0.  0.
        -13    1    3    3    0    0  0.21679755511E+02  0.25235226590E+02  0.48848297640E+01  0.33625900522E+02  0.10566000000E+00 0. -1.
         23    2    1    0    0    0 -0.36119239177E+01 -0.29937904864E+02  0.56275301862E+01  0.94324386917E+02  0.89196954708E+02 0.  0.
         13    1    3    3    0    0 -0.25291679428E+02 -0.55173131454E+02  0.74270042219E+00  0.60698486395E+02  0.10566000000E+00 0.  1.
         22    1    1    0    0    0  0.36119239177E+01  0.29937904864E+02 -0.56275301862E+01  0.30675613083E+02  0.00000000000E+00 0.  1.
</event>
<event>
 5    1  0.1766627E-003  0.9118800E+02  0.7818608E-02  0.1130116E+00
         25   -1    0    0    0    0  0.00000000000E+00  0.00000000000E+00  0.99999998245E-14  0.12500000000E+03  0.12500000000E+03 0.  0.
        -13    1    3    3    0    0 -0.49417554345E+02  0.22783414600E+02 -0.26671277428E+02  0.60601541746E+02  0.10566000000E+00 0.  1.
         23    2    1    0    0    0 -0.18090159774E+02  0.17677879010E+02 -0.19292100649E+02  0.93188894480E+02  0.87591230269E+02 0.  0.
         13    1    3    3    0    0  0.31327394571E+02 -0.51055355898E+01  0.73791767788E+01  0.32587352735E+02  0.10566000000E+00 0. -1.
         22    1    1    0    0    0  0.18090159774E+02 -0.17677879010E+02  0.19292100649E+02  0.31811105520E+02  0.00000000000E+00 0.  1.
</event>
<event>
 5    1  0.1766627E-003  0.9118800E+02  0.7818608E-02  0.1130116E+00
         25   -1    0    0    0    0  0.00000000000E+00  0.00000000000E+00  0.99999998245E-14  0.12500000000E+03  0.12500000000E+03 0.  0.
        -13    1    3    3    0    0  0.17975146402E+02 -0.11560834644E+02 -0.24901452143E+02  0.32815427297E+02  0.10566000000E+00 0.  1.
         23    2    1    0    0    0  0.78670351584E+01 -0.59098048059E+01  0.32329480558E+02  0.91206341598E+02  0.84714729531E+02 0.  0.
         13    1    3    3    0    0 -0.10108111243E+02  0.56510298382E+01  0.57230932701E+02  0.58390914301E+02  0.10566000000E+00 0. -1.
         22    1    1    0    0    0 -0.78670351584E+01  0.59098048059E+01 -0.32329480558E+02  0.33793658402E+02  0.00000000000E+00 0.  1.
</event>
<event>
 5    1  0.1766627E-003  0.9118800E+02  0.7818608E-02  0.1130116E+00
         25   -1    0    0    0    0  0.00000000000E+00  0.00000000000E+00  0.99999998245E-14  0.12500000000E+03  0.12500000000E+03 0.  0.
        -13    1    3    3    0    0  0.45204805848E+01 -0.11662420654E+02  0.40253661398E+02  0.42152286062E+02  0.10566000000E+00 0.  1.
         23    2    1    0    0    0  0.22940114604E+00 -0.25562156131E+02 -0.12263750447E+02  0.96647292440E+02  0.92394930109E+02 0.  0.
         13    1    3    3    0    0 -0.42910794388E+01 -0.13899735477E+02 -0.52517411846E+02  0.54495006378E+02  0.10566000000E+00 0. -1.
         22    1    1    0    0    0 -0.22940114604E+00  0.25562156131E+02  0.12263750447E+02  0.28352707560E+02  0.00000000000E+00 0.  1.
</event>
<event>
 5    1  0.1766627E-003  0.9118800E+02  0.7818608E-02  0.1130116E+00
         25   -1    0    0    0    0  0.00000000000E+00  0.00000000000E+00  0.99999998245E-14  0.12500000000E+03  0.12500000000E+03 0.  0.
        -13    1    3    3    0    0  0.27447202865E+02 -0.12694827199E+01  0.23084362992E+02  0.35886759540E+02  0.10566000000E+00 0.  1.
         23    2    1    0    0    0 -0.70005897263E+00 -0.40137230875E+01 -0.29300207148E+02  0.95417873732E+02  0.90716417660E+02 0.  0.
         13    1    3    3    0    0 -0.28147261838E+02 -0.27442403676E+01 -0.52384570141E+02  0.59531114192E+02  0.10566000000E+00 0. -1.
         22    1    1    0    0    0  0.70005897263E+00  0.40137230875E+01  0.29300207148E+02  0.29582126268E+02  0.00000000000E+00 0. -1.
</event>
<event>
 5    1  0.1766627E-003  0.9118800E+02  0.7818608E-02  0.1130116E+00
         25   -1    0    0    0    0  0.00000000000E+00  0.00000000000E+00  0.99999998245E-14  0.12500000000E+03  0.12500000000E+03 0.  0.
        -13    1    3    3    0    0 -0.48193808919E+00  0.29645249562E+02 -0.36384388653E+02  0.46935146613E+02  0.10566000000E+00 0. -1.
         23    2    1    0    0    0  0.25832126325E+02 -0.36198256326E+01 -0.90717694293E+01  0.97382996385E+02  0.93384951123E+02 0.  0.
         13    1    3    3    0    0  0.26314064414E+02 -0.33265075194E+02  0.27312619224E+02  0.50447849772E+02  0.10566000000E+00 0.  1.
         22    1    1    0    0    0 -0.25832126325E+02  0.36198256326E+01  0.90717694293E+01  0.27617003615E+02  0.00000000000E+00 0.  1.
</event>
<event>
 5    1  0.1766627E-003  0.9118800E+02  0.7818608E-02  0.1130116E+00
         25   -1    0    0    0    0  0.00000000000E+00  0.00000000000E+00  0.99999998245E-14  0.12500000000E+03  0.12500000000E+03 0.  0.
        -13    1    3    3    0    0 -0.29701202560E+02  0.44771556323E+01  0.45619555580E+01  0.30381391650E+02  0.10566000000E+00 0. -1.
         23    2    1    0    0    0  0.17614916506E+02 -0.17153653565E+02 -0.24763726891E+02  0.90103362860E+02  0.83071298985E+02 0.  0.
         13    1    3    3    0    0  0.47316119066E+02 -0.21630809197E+02 -0.29325682449E+02  0.59721971210E+02  0.10566000000E+00 0.  1.
         22    1    1    0    0    0 -0.17614916506E+02  0.17153653565E+02  0.24763726891E+02  0.34896637140E+02  0.00000000000E+00 0.  1.
</event>
<event>
 5    1  0.1766627E-003  0.9118800E+02  0.7818608E-02  0.1130116E+00
         25   -1    0    0    0    0  0.00000000000E+00  0.00000000000E+00  0.99999998245E-14  0.12500000000E+03  0.12500000000E+03 0.  0.
        -13    1    3    3    0    0  0.15485853435E+02 -0.44263777912E+02 -0.19606228143E+02  0.50828230716E+02  0.10566000000E+00 0. -1.
         23    2    1    0    0    0  0.14598769102E+02  0.20283168901E+01 -0.23465570973E+02  0.97289511917E+02  0.93259733965E+02 0.  0.
         13    1    3    3    0    0 -0.88708433328E+00  0.46292094802E+02 -0.38593428302E+01  0.46461281201E+02  0.10566000000E+00 0.  1.
         22    1    1    0    0    0 -0.14598769102E+02 -0.20283168901E+01  0.23465570973E+02  0.27710488083E+02  0.00000000000E+00 0. -1.
</event>
<event>
 5    1  0.1766627E-003  0.9118800E+02  0.7818608E-02  0.1130116E+00
         25   -1    0    0    0    0  0.00000000000E+00  0.00000000000E+00  0.99999998245E-14  0.12500000000E+03  0.12500000000E+03 0.  0.
        -13    1    3    3    0    0  0.85625996211E+01 -0.36104565010E+02 -0.10015417461E+02  0.38434066631E+02  0.10566000000E+00 0.  1.
         23    2    1    0    0    0  0.17084444140E+02  0.21279907104E+02  0.18463455944E+01  0.97648187081E+02  0.93739248825E+02 0.  0.
         13    1    3    3    0    0  0.85218445184E+01  0.57384472114E+02  0.11861763055E+02  0.59214120450E+02  0.10566000000E+00 0. -1.
         22    1    1    0    0    0 -0.17084444140E+02 -0.21279907104E+02 -0.18463455944E+01  0.27351812919E+02  0.00000000000E+00 0. -1.
</event>
<event>
 5    1  0.1766627E-003  0.9118800E+02  0.7818608E-02  0.1130116E+00
         25   -1    0    0    0    0  0.00000000000E+00  0.00000000000E+00  0.99999998245E-14  0.12500000000E+03  0.12500000000E+03 0.  0.
        -13    1    3    3    0    0 -0.54111986689E+02  0.22587684703E+02  0.39882355464E+01  0.58772678946E+02  0.10566000000E+00 0. -1.
         23    2    1    0    0    0 -0.22029446807E+02  0.13974367792E+02 -0.12741963241E+02  0.95966620778E+02  0.91469422183E+02 0.  0.
         13    1    3    3    0    0  0.32082539882E+02 -0.86133169115E+01 -0.16730198787E+02  0.37193941832E+02  0.10566000000E+00 0.  1.
         22    1    1    0    0    0  0.22029446807E+02 -0.13974367792E+02  0.12741963241E+02  0.29033379222E+02  0.00000000000E+00 0. -1.
</event>
<event>
 5    1  0.1766627E-003  0.9118800E+02  0.7818608E-02  0.1130116E+00
         25   -1    0    0    0    0  0.00000000000E+00  0.00000000000E+00  0.99999998245E-14  0.12500000000E+03  0.12500000000E+03 0.  0.
        -13    1    3    3    0    0 -0.15649117753E+02 -0.83675054674E+01  0.36351456998E+02  0.40451818552E+02  0.10566000000E+00 0. -1.
         23    2    1    0    0    0 -0.11995999509E+02  0.29291600284E+02 -0.60449808139E+00  0.93341395019E+02  0.87808591576E+02 0.  0.
         13    1    3    3    0    0  0.36531182442E+01  0.37659105752E+02 -0.36955955080E+02  0.52889576467E+02  0.10566000000E+00 0.  1.
         22    1    1    0    0    0  0.11995999509E+02 -0.29291600284E+02  0.60449808139E+00  0.31658604981E+02  0.00000000000E+00 0.  1.
</event>
<event>
 5    1  0.1766627E-003  0.9118800E+02  0.7818608E-02  0.1130116E+00
         25   -1    0    0    0    0  0.00000000000E+00  0.00000000000E+00  0.99999998245E-14  0.12500000000E+03  0.12500000000E+03 0.  0.
        -13    1    3    3    0    0  0.20801703428E+02 -0.17745898246E+02  0.51460539007E+02  0.58273716279E+02  0.10566000000E+00 0.  1.
         23    2    1    0    0    0  0.20928163177E+02  0.71251503788E+00  0.39569252486E+02  0.80231468263E+02  0.66579779705E+02 0.  0.
         13    1    3    3    0    0  0.12645974814E+00  0.18458413284E+02 -0.11891286521E+02  0.21957751984E+02  0.10566000000E+00 0. -1.
         22    1    1    0    0    0 -0.20928163177E+02 -0.71251503788E+00 -0.39569252486E+02  0.44768531737E+02  0.00000000000E+00 0.  1.
</event>
<event>
 5    1  0.1766627E-003  0.9118800E+02  0.7818608E-02  0.1130116E+00
         25   -1    0    0    0    0  0.00000000000E+00  0.00000000000E+00  0.99999998245E-14  0.12500000000E+03  0.12500000000E+03 0.  0.
        -13    1    3    3    0    0 -0.33110546339E+02  0.37119964337E+02  0.28954194270E+02  0.57554813535E+02  0.10566000000E+00 0.  1.
         23    2    1    0    0    0 -0.21360230701E+02  0.13516071623E+02 -0.36218349904E+01  0.99464508299E+02  0.96130781099E+02 0.  0.
         13    1    3    3    0    0  0.11750315637E+02 -0.23603892713E+02 -0.32576029260E+02  0.41909694764E+02  0.10566000000E+00 0. -1.
         22    1    1    0    0    0  0.21360230701E+02 -0.13516071623E+02  0.36218349904E+01  0.25535491701E+02  0.00000000000E+00 0.  1.
</event>
<event>
 5    1  0.1766627E-003  0.9118800E+02  0.7818608E-02  0.1130116E+00
         25   -1    0    0    0    0  0.00000000000E+00  0.00000000000E+00  0.99999998245E-14  0.12500000000E+03  0.12500000000E+03 0.  0.
        -13    1    3    3    0    0 -0.49546232316E+02 -0.80588660836E+01 -0.30691406688E+02  0.58836621825E+02  0.10566000000E+00 0. -1.
         23    2    1    0    0    0 -0.17351032321E+02  0.84020704144E+01 -0.21453064601E+02  0.96157547077E+02  0.91729966583E+02 0.  0.
         13    1    3    3    0    0  0.32195199995E+02  0.16460936498E+02  0.92383420872E+01  0.37320925252E+02  0.10566000000E+00 0.  1.
         22    1    1    0    0    0  0.17351032321E+02 -0.84020704144E+01  0.21453064601E+02  0.28842452923E+02  0.00000000000E+00 0. -1.
</event>
<event>
 5    1  0.1766627E-003  0.9118800E+02  0.7818608E-02  0.1130116E+00
         25   -1    0    0    0    0  0.00000000000E+00  0.00000000000E+00  0.99999998245E-14  0.12500000000E+03  0.12500000000E+03 0.  0.
        -13    1    3    3    0    0 -0.19881202878E+02  0.46989309256E+01 -0.32125851202E+02  0.38071297052E+02  0.10566000000E+00 0. -1.
         23    2    1    0    0    0 -0.14971932217E+02  0.11849301391E+02  0.23699183524E+02  0.94566203039E+02  0.89535192856E+02 0.  0.
         13    1    3    3    0    0  0.49092706613E+01  0.71503704656E+01  0.55825034727E+02  0.56494905987E+02  0.10566000000E+00 0.  1.
         22    1    1    0    0    0  0.14971932217E+02 -0.11849301391E+02 -0.23699183524E+02  0.30433796961E+02  0.00000000000E+00 0.  1.
</event>
<event>
 5    1  0.1766627E-003  0.9118800E+02  0.7818608E-02  0.1130116E+00
         25   -1    0    0    0    0  0.00000000000E+00  0.00000000000E+00  0.99999998245E-14  0.12500000000E+03  0.12500000000E+03 0.  0.
        -13    1    3    3    0    0  0.13237368502E+01 -0.40657534996E+02  0.42626922141E+02  0.58922432795E+02  0.10566000000E+00 0. -1.
         23    2    1    0    0    0 -0.13834500550E+02 -0.20354942236E+02  0.16187672237E+02  0.95542270771E+02  0.90887665240E+02 0.  0.
         13    1    3    3    0    0 -0.15158237400E+02  0.20302592760E+02 -0.26439249904E+02  0.36619837976E+02  0.10566000000E+00 0.  1.
         22    1    1    0    0    0  0.13834500550E+02  0.20354942236E+02 -0.16187672237E+02  0.29457729229E+02  0.00000000000E+00 0. -1.
</event>
<event>
 5    1  0.1766627E-003  0.9118800E+02  0.7818608E-02  0.1130116E+00
         25   -1    0    0    0    0  0.00000000000E+00  0.00000000000E+00  0.99999998245E-14  0.12500000000E+03  0.12500000000E+03 0.  0.
        -13    1    3    3    0    0  0.69068313256E+01 -0.24373562341E+02  0.33448137393E+02  0.41959074338E+02  0.10566000000E+00 0.  1.
         23    2    1    0    0    0 -0.28626891207E+02  0.55137336789E+01  0.86889495183E+01  0.94579644923E+02  0.89553957092E+02 0.  0.
         13    1    3    3    0    0 -0.35533722533E+02  0.29887296020E+02 -0.24759187875E+02  0.52620570585E+02  0.10566000000E+00 0. -1.
         22    1    1    0    0    0  0.28626891207E+02 -0.55137336789E+01 -0.86889495183E+01  0.30420355077E+02  0.00000000000E+00 0. -1.
</event>
<event>
 5    1  0.1766627E-003  0.9118800E+02  0.7818608E-02  0.1130116E+00
         25   -1    0    0    0    0  0.00000000000E+00  0.00000000000E+00  0.99999998245E-14  0.12500000000E+03  0.12500000000E+03 0.  0.
        -13    1    3    3    0    0 -0.23579475058E+02  0.99758044236E+00  0.23226040236E+02  0.33112639880E+02  0.10566000000E+00 0. -1.
         23    2    1    0    0    0  0.20515462633E+02 -0.15622497061E+02 -0.16194198643E+02  0.94550062543E+02  0.89512656288E+02 0.  0.
         13    1    3    3    0    0  0.44094937690E+02 -0.16620077503E+02 -0.39420238879E+02  0.61437422663E+02  0.10566000000E+00 0.  1.
         22    1    1    0    0    0 -0.20515462633E+02  0.15622497061E+02  0.16194198643E+02  0.30449937457E+02  0.00000000000E+00 0.  1.
</event>
<event>
 5    1  0.1766627E-003  0.9118800E+02  0.7818608E-02  0.1130116E+00
         25   -1    0    0    0    0  0.00000000000E+00  0.00000000000E+00  0.99999998245E-14  0.12500000000E+03  0.12500000000E+03 0.  0.
        -13    1    3    3    0    0  0.19017695831E+01  0.60375837214E+02  0.15866944683E+02  0.62455020170E+02  0.10566000000E+00 0. -1.
         23    2    1    0    0    0  0.60388677153E+00  0.28517252012E+02  0.57903335084E+01  0.95894565736E+02  0.91370900367E+02 0.  0.
         13    1    3    3    0    0 -0.12978828116E+01 -0.31858585202E+02 -0.10076611175E+02  0.33439545566E+02  0.10566000000E+00 0.  1.
         22    1    1    0    0    0 -0.60388677153E+00 -0.28517252012E+02 -0.57903335084E+01  0.29105434264E+02  0.00000000000E+00 0. -1.
</event>
<event>
 5    1  0.1766627E-003  0.9118800E+02  0.7818608E-02  0.1130116E+00
         25   -1    0    0    0    0  0.00000000000E+00  0.00000000000E+00  0.99999998245E-14  0.12500000000E+03  0.12500000000E+03 0.  0.
        -13    1    3    3    0    0 -0.16294999408E+02 -0.26752206840E+02 -0.53845490436E+02  0.62294105507E+02  0.10566000000E+00 0. -1.
         23    2    1    0    0    0 -0.45036847883E+01 -0.14257558962E+02 -0.25502638210E+02  0.95437427042E+02  0.90743356564E+02 0.  0.
         13    1    3    3    0    0  0.11791314619E+02  0.12494647878E+02  0.28342852226E+02  0.33143321536E+02  0.10566000000E+00 0.  1.
         22    1    1    0    0    0  0.45036847883E+01  0.14257558962E+02  0.25502638210E+02  0.29562572958E+02  0.00000000000E+00 0. -1.
</event>
<event>
 5    1  0.1766627E-003  0.9118800E+02  0.7818608E-02  0.1130116E+00
         25   -1    0    0    0    0  0.00000000000E+00  0.00000000000E+00  0.99999998245E-14  0.12500000000E+03  0.12500000000E+03 0.  0.
        -13    1    3    3    0    0  0.31267433753E+02  0.51039987352E+01 -0.13140569382E+02  0.34298526853E+02  0.10566000000E+00 0. -1.
         23    2    1    0    0    0 -0.22633394015E+02 -0.19681827025E+02 -0.27239775430E+00  0.95004683029E+02  0.90145275846E+02 0.  0.
         13    1    3    3    0    0 -0.53900827767E+02 -0.24785825760E+02  0.12868171628E+02  0.60706156176E+02  0.10566000000E+00 0.  1.
         22    1    1    0    0    0  0.22633394015E+02  0.19681827025E+02  0.27239775430E+00  0.29995316971E+02  0.00000000000E+00 0.  1.
</event>
<event>
 5    1  0.1766627E-003  0.9118800E+02  0.7818608E-02  0.1130116E+00
         25   -1    0    0    0    0  0.00000000000E+00  0.00000000000E+00  0.99999998245E-14  0.12500000000E+03  0.12500000000E+03 0.  0.
        -13    1    3    3    0    0 -0.38960140673E+02 -0.34077867056E+02  0.26596275856E+02  0.58194214813E+02  0.10566000000E+00 0. -1.
         23    2    1    0    0    0 -0.75332791792E+01 -0.27240398105E+02  0.69044157050E+01  0.95906005081E+02  0.91386548628E+02 0.  0.
         13    1    3    3    0    0  0.31426861493E+02  0.68374689502E+01 -0.19691860151E+02  0.37711790268E+02  0.10566000000E+00 0.  1.
         22    1    1    0    0    0  0.75332791792E+01  0.27240398105E+02 -0.69044157050E+01  0.29093994919E+02  0.00000000000E+00 0. -1.
</event>
<event>
 5    1  0.1766627E-003  0.9118800E+02  0.7818608E-02  0.1130116E+00
         25   -1    0    0    0    0  0.00000000000E+00  0.00000000000E+00  0.99999998245E-14  0.12500000000E+03  0.12500000000E+03 0.  0.
        -13    1    3    3    0    0  0.12891572364E+02  0.27594027612E+02 -0.49883560933E+02  0.58446589407E+02  0.10566000000E+00 0. -1.
         23    2    1    0    0    0  0.53852758236E+01  0.25470488142E+02 -0.13466965736E+02  0.95689487756E+02  0.91089911291E+02 0.  0.
         13    1    3    3    0    0 -0.75062965401E+01 -0.21235394697E+01  0.36416595198E+02  0.37242898349E+02  0.10566000000E+00 0.  1.
         22    1    1    0    0    0 -0.53852758236E+01 -0.25470488142E+02  0.13466965736E+02  0.29310512244E+02  0.00000000000E+00 0. -1.
</event>
<event>
 5    1  0.1766627E-003  0.9118800E+02  0.7818608E-02  0.1130116E+00
         25   -1    0    0    0    0  0.00000000000E+00  0.00000000000E+00  0.99999998245E-14  0.12500000000E+03  0.12500000000E+03 0.  0.
        -13    1    3    3    0    0  0.14468809230E+02 -0.23232596868E+02  0.33292448487E+02  0.43098704018E+02  0.10566000000E+00 0.  1.
         23    2    1    0    0    0 -0.18935799680E+02  0.10670677940E+02 -0.31422145240E+01  0.10303863872E+03  0.10067104688E+03 0.  0.
         13    1    3    3    0    0 -0.33404608910E+02  0.33903274808E+02 -0.36434663011E+02  0.59939934700E+02  0.10566000000E+00 0. -1.
         22    1    1    0    0    0  0.18935799680E+02 -0.10670677940E+02  0.31422145240E+01  0.21961361282E+02  0.00000000000E+00 0. -1.
</event>
<event>
 5    1  0.1766627E-003  0.9118800E+02  0.7818608E-02  0.1130116E+00
         25   -1    0    0    0    0  0.00000000000E+00  0.00000000000E+00  0.99999998245E-14  0.12500000000E+03  0.12500000000E+03 0.  0.
        -13    1    3    3    0    0  0.95464770619E+01  0.22596433247E+01 -0.61202750648E+02  0.61984103311E+02  0.10566000000E+00 0.  1.
         23    2    1    0    0    0  0.71475372767E+01 -0.37724950797E+01 -0.26277127845E+02  0.97508065619E+02  0.93552212185E+02 0.  0.
         13    1    3    3    0    0 -0.23989397852E+01 -0.60321384044E+01  0.34925622803E+02  0.35523962308E+02  0.10566000000E+00 0. -1.
         22    1    1    0    0    0 -0.71475372767E+01  0.37724950797E+01  0.26277127845E+02  0.27491934381E+02  0.00000000000E+00 0.  1.
</event>
<event>
 5    1  0.1766627E-003  0.9118800E+02  0.7818608E-02  0.1130116E+00
         25   -1    0    0    0    0  0.00000000000E+00  0.00000000000E+00  0.99999998245E-14  0.12500000000E+03  0.12500000000E+03 0.  0.
        -13    1    3    3    0    0  0.22575595228E+02 -0.29822819893E+02 -0.37715849839E+01  0.37593804059E+02  0.10566000000E+00 0.  1.
         23    2    1    0    0    0 -0.17425931051E+02  0.88598725655E+01 -0.21447791436E+02  0.95979866087E+02  0.91487521125E+02 0.  0.
         13    1    3    3    0    0 -0.40001526279E+02  0.38682692459E+02 -0.17676206452E+02  0.58386062028E+02  0.10566000000E+00 0. -1.
         22    1    1    0    0    0  0.17425931051E+02 -0.88598725655E+01  0.21447791436E+02  0.29020133913E+02  0.00000000000E+00 0. -1.
</event>
<event>
 5    1  0.1766627E-003  0.9118800E+02  0.7818608E-02  0.1130116E+00
         25   -1    0    0    0    0  0.00000000000E+00  0.00000000000E+00  0.99999998245E-14  0.12500000000E+03  0.12500000000E+03 0.  0.
        -13    1    3    3    0    0 -0.49396536074E+02  0.12491647529E+02 -0.30488492357E+02  0.59376917774E+02  0.10566000000E+00 0.  1.
         23    2    1    0    0    0 -0.20420695561E+02  0.17788159380E+02 -0.70627341771E+01  0.97012402114E+02  0.92887569290E+02 0.  0.
         13    1    3    3    0    0  0.28975840513E+02  0.52965118510E+01  0.23425758180E+02  0.37635484340E+02  0.10566000000E+00 0. -1.
         22    1    1    0    0    0  0.20420695561E+02 -0.17788159380E+02  0.70627341771E+01  0.27987597886E+02  0.00000000000E+00 0.  1.
</event>
<event>
 5    1  0.1766627E-003  0.9118800E+02  0.7818608E-02  0.1130116E+00
         25   -1    0    0    0    0  0.00000000000E+00  0.00000000000E+00  0.99999998245E-14  0.12500000000E+03  0.12500000000E+03 0.  0.
        -13    1    3    3    0    0 -0.25718650247E+02 -0.38492322722E+01  0.36257875031E+02  0.44619617047E+02  0.10566000000E+00 0. -1.
         23    2    1    0    0    0 -0.21445339828E+02 -0.94356571870E+00 -0.16683694415E+02  0.97812896882E+02  0.93958630367E+02 0.  0.
         13    1    3    3    0    0  0.42733104194E+01  0.29056665535E+01 -0.52941569447E+02  0.53193279835E+02  0.10566000000E+00 0.  1.
         22    1    1    0    0    0  0.21445339828E+02  0.94356571870E+00  0.16683694415E+02  0.27187103118E+02  0.00000000000E+00 0.  1.
</event>
<event>
 5    1  0.1766627E-003  0.9118800E+02  0.7818608E-02  0.1130116E+00
         25   -1    0    0    0    0  0.00000000000E+00  0.00000000000E+00  0.99999998245E-14  0.12500000000E+03  0.12500000000E+03 0.  0.
        -13    1    3    3    0    0  0.19753195881E+01 -0.16485515546E+02 -0.55769109645E+02  0.58188305225E+02  0.10566000000E+00 0.  1.
         23    2    1    0    0    0  0.13172097971E+02  0.34105956016E+01 -0.25438625793E+02  0.96151083043E+02  0.91721157651E+02 0.  0.
         13    1    3    3    0    0  0.11196778383E+02  0.19896111148E+02  0.30330483852E+02  0.37962777818E+02  0.10566000000E+00 0. -1.
         22    1    1    0    0    0 -0.13172097971E+02 -0.34105956016E+01  0.25438625793E+02  0.28848916957E+02  0.00000000000E+00 0.  1.
</event>
<event>
 5    1  0.1766627E-003  0.9118800E+02  0.7818608E-02  0.1130116E+00
         25   -1    0    0    0    0  0.00000000000E+00  0.00000000000E+00  0.99999998245E-14  0.12500000000E+03  0.12500000000E+03 0.  0.
        -13    1    3    3    0    0  0.28543604393E+02  0.15980911003E+02 -0.10186680842E+02  0.34262318935E+02  0.10566000000E+00 0. -1.
         23    2    1    0    0    0 -0.16030699165E+02  0.74719982962E+01  0.26857627956E+02  0.92841855562E+02  0.87094568663E+02 0.  0.
         13    1    3    3    0    0 -0.44574303558E+02 -0.85089127064E+01  0.37044308797E+02  0.58579536627E+02  0.10566000000E+00 0.  1.
         22    1    1    0    0    0  0.16030699165E+02 -0.74719982962E+01 -0.26857627956E+02  0.32158144438E+02  0.00000000000E+00 0.  1.
</event>
<event>
 5    1  0.1766627E-003  0.9118800E+02  0.7818608E-02  0.1130116E+00
         25   -1    0    0    0    0  0.00000000000E+00  0.00000000000E+00  0.99999998245E-14  0.12500000000E+03  0.12500000000E+03 0.  0.
        -13    1    3    3    0    0 -0.17036310754E+02 -0.26983491847E+02  0.16346483367E+02  0.35854754202E+02  0.10566000000E+00 0. -1.
         23    2    1    0    0    0  0.21735217706E+02  0.30124652216E+01 -0.18744738536E+02  0.96140688535E+02  0.91706990648E+02 0.  0.
         13    1    3    3    0    0  0.38771528460E+02  0.29995957069E+02 -0.35091221904E+02  0.60285934333E+02  0.10566000000E+00 0.  1.
         22    1    1    0    0    0 -0.21735217706E+02 -0.30124652216E+01  0.18744738536E+02  0.28859311465E+02  0.00000000000E+00 0.  1.
</event>
<event>
 5    1  0.1766627E-003  0.9118800E+02  0.7818608E-02  0.1130116E+00
         25   -1    0    0    0    0  0.00000000000E+00  0.00000000000E+00  0.99999998245E-14  0.12500000000E+03  0.12500000000E+03 0.  0.
        -13    1    3    3    0    0 -0.23258020074E+02 -0.15978046169E+02  0.26378459018E+02  0.38627292441E+02  0.10566000000E+00 0.  1.
         23    2    1    0    0    0  0.22077427029E+02  0.15390752967E+02  0.11527342613E+02  0.95722573733E+02  0.91135302892E+02 0.  0.
         13    1    3    3    0    0  0.45335447103E+02  0.31368799136E+02 -0.14851116405E+02  0.57095281291E+02  0.10566000000E+00 0. -1.
         22    1    1    0    0    0 -0.22077427029E+02 -0.15390752967E+02 -0.11527342613E+02  0.29277426267E+02  0.00000000000E+00 0. -1.
</event>
<event>
 5    1  0.1766627E-003  0.9118800E+02  0.7818608E-02  0.1130116E+00
         25   -1    0    0    0    0  0.00000000000E+00  0.00000000000E+00  0.99999998245E-14  0.12500000000E+03  0.12500000000E+03 0.  0.
        -13    1    3    3    0    0  0.46886626472E+02 -0.26379040307E+02  0.16314671142E+02  0.56217338677E+02  0.10566000000E+00 0.  1.
         23    2    1    0    0    0  0.35368437379E+02 -0.16295833986E+02 -0.82803058645E+01  0.85187388516E+02  0.75311666619E+02 0.  0.
         13    1    3    3    0    0 -0.11518189092E+02  0.10083206321E+02 -0.24594977007E+02  0.28970049839E+02  0.10566000000E+00 0. -1.
         22    1    1    0    0    0 -0.35368437379E+02  0.16295833986E+02  0.82803058645E+01  0.39812611484E+02  0.00000000000E+00 0.  1.
</event>
<event>
 5    1  0.1766627E-003  0.9118800E+02  0.7818608E-02  0.1130116E+00
         25   -1    0    0    0    0  0.00000000000E+00  0.00000000000E+00  0.99999998245E-14  0.12500000000E+03  0.12500000000E+03 0.  0.
        -13    1    3    3    0    0  0.22079304570E+02 -0.41589392190E+02  0.35783235832E+02  0.59140716631E+02  0.10566000000E+00 0. -1.
         23    2    1    0    0    0  0.77559122033E+01 -0.91226478789E+01  0.26650473289E+02  0.95783145191E+02  0.91218344086E+02 0.  0.
         13    1    3    3    0    0 -0.14323392367E+02  0.32466744311E+02 -0.91327625439E+01  0.36642428560E+02  0.10566000000E+00 0.  1.
         22    1    1    0    0    0 -0.77559122033E+01  0.91226478789E+01 -0.26650473289E+02  0.29216854809E+02  0.00000000000E+00 0. -1.
</event>
<event>
 5    1  0.1766627E-003  0.9118800E+02  0.7818608E-02  0.1130116E+00
         25   -1    0    0    0    0  0.00000000000E+00  0.00000000000E+00  0.99999998245E-14  0.12500000000E+03  0.12500000000E+03 0.  0.
        -13    1    3    3    0    0 -0.48321445041E+01 -0.89696739345E+01  0.33248977706E+02  0.34775139878E+02  0.10566000000E+00 0.  1.
         23    2    1    0    0    0  0.22254512894E+02  0.10557080207E+02 -0.16974539840E+02  0.95085951637E+02  0.90257896659E+02 0.  0.
         13    1    3    3    0    0  0.27086657398E+02  0.19526754142E+02 -0.50223517546E+02  0.60310811759E+02  0.10566000000E+00 0. -1.
         22    1    1    0    0    0 -0.22254512894E+02 -0.10557080207E+02  0.16974539840E+02  0.29914048363E+02  0.00000000000E+00 0. -1.
</event>
<event>
 5    1  0.1766627E-003  0.9118800E+02  0.7818608E-02  0.1130116E+00
         25   -1    0    0    0    0  0.00000000000E+00  0.00000000000E+00  0.99999998245E-14  0.12500000000E+03  0.12500000000E+03 0.  0.
        -13    1    3    3    0    0  0.75406815971E+01  0.24630122956E+02 -0.27597726497E+02  0.37751165645E+02  0.10566000000E+00 0.  1.
         23    2    1    0    0    0  0.20926893983E+02 -0.12016713511E+02  0.15836919428E+02  0.96135760666E+02  0.91700273535E+02 0.  0.
         13    1    3    3    0    0  0.13386212386E+02 -0.36646836467E+02  0.43434645925E+02  0.58384595020E+02  0.10566000000E+00 0. -1.
         22    1    1    0    0    0 -0.20926893983E+02  0.12016713511E+02 -0.15836919428E+02  0.28864239334E+02  0.00000000000E+00 0. -1.
</event>
<event>
 5    1  0.1766627E-003  0.9118800E+02  0.7818608E-02  0.1130116E+00
         25   -1    0    0    0    0  0.00000000000E+00  0.00000000000E+00  0.99999998245E-14  0.12500000000E+03  0.12500000000E+03 0.  0.
        -13    1    3    3    0    0 -0.28979271096E+02 -0.42878166751E+02 -0.34328839799E+02  0.62103266767E+02  0.10566000000E+00 0.  1.
         23    2    1    0    0    0 -0.96813676100E+01 -0.22034940281E+02 -0.12839321263E+02  0.97721516859E+02  0.93836982127E+02 0.  0.
         13    1    3    3    0    0  0.19297903486E+02  0.20843226470E+02  0.21489518535E+02  0.35618250091E+02  0.10566000000E+00 0. -1.
         22    1    1    0    0    0  0.96813676100E+01  0.22034940281E+02  0.12839321263E+02  0.27278483141E+02  0.00000000000E+00 0.  1.
</event>
<event>
 5    1  0.1766627E-003  0.9118800E+02  0.7818608E-02  0.1130116E+00
         25   -1    0    0    0    0  0.00000000000E+00  0.00000000000E+00  0.99999998245E-14  0.12500000000E+03  0.12500000000E+03 0.  0.
        -13    1    3    3    0    0  0.36343943929E+01  0.26168587599E+02 -0.43546672388E+02  0.50934542696E+02  0.10566000000E+00 0. -1.
         23    2    1    0    0    0  0.26518001498E+02  0.69523268083E+01 -0.10102853937E+02  0.95783448028E+02  0.91218759074E+02 0.  0.
         13    1    3    3    0    0  0.22883607105E+02 -0.19216260790E+02  0.33443818451E+02  0.44848905332E+02  0.10566000000E+00 0.  1.
         22    1    1    0    0    0 -0.26518001498E+02 -0.69523268083E+01  0.10102853937E+02  0.29216551972E+02  0.00000000000E+00 0. -1.
</event>
<event>
 5    1  0.1766627E-003  0.9118800E+02  0.7818608E-02  0.1130116E+00
         25   -1    0    0    0    0  0.00000000000E+00  0.00000000000E+00  0.99999998245E-14  0.12500000000E+03  0.12500000000E+03 0.  0.
        -13    1    3    3    0    0 -0.44326612337E+02 -0.37233466777E+02 -0.19752563681E+02  0.61166612997E+02  0.10566000000E+00 0.  1.
         23    2    1    0    0    0 -0.20375721585E+02 -0.24091686398E+02 -0.27895815908E+01  0.93324123547E+02  0.87784001314E+02 0.  0.
         13    1    3    3    0    0  0.23950890752E+02  0.13141780378E+02  0.16962982091E+02  0.32157510550E+02  0.10566000000E+00 0. -1.
         22    1    1    0    0    0  0.20375721585E+02  0.24091686398E+02  0.27895815908E+01  0.31675876453E+02  0.00000000000E+00 0.  1.
</event>
<event>
 5    1  0.1766627E-003  0.9118800E+02  0.7818608E-02  0.1130116E+00
         25   -1    0    0    0    0  0.00000000000E+00  0.00000000000E+00  0.99999998245E-14  0.12500000000E+03  0.12500000000E+03 0.  0.
        -13    1    3    3    0    0 -0.47751753924E+01 -0.34741252313E+02 -0.18495454018E+02  0.39646562218E+02  0.10566000000E+00 0.  1.
         23    2    1    0    0    0 -0.22228761373E+01  0.22993735276E+02 -0.14818239899E+02  0.97554904373E+02  0.93614774973E+02 0.  0.
         13    1    3    3    0    0  0.25522992551E+01  0.57734987589E+02  0.36772141194E+01  0.57908342155E+02  0.10566000000E+00 0. -1.
         22    1    1    0    0    0  0.22228761373E+01 -0.22993735276E+02  0.14818239899E+02  0.27445095627E+02  0.00000000000E+00 0. -1.
</event>
<event>
 5    1  0.1766627E-003  0.9118800E+02  0.7818608E-02  0.1130116E+00
         25   -1    0    0    0    0  0.00000000000E+00  0.00000000000E+00  0.99999998245E-14  0.12500000000E+03  0.12500000000E+03 0.  0.
        -13    1    3    3    0    0 -0.12356292107E+02 -0.80530472531E+01 -0.32275571850E+02  0.35485958166E+02  0.10566000000E+00 0. -1.
         23    2    1    0    0    0  0.85649842963E+01  0.18682030579E+02  0.19019806429E+02  0.96997674040E+02  0.92867747416E+02 0.  0.
         13    1    3    3    0    0  0.20921276403E+02  0.26735077832E+02  0.51295378279E+02  0.61511715875E+02  0.10566000000E+00 0.  1.
         22    1    1    0    0    0 -0.85649842963E+01 -0.18682030579E+02 -0.19019806429E+02  0.28002325960E+02  0.00000000000E+00 0.  1.
</event>
<event>
 5    1  0.1766627E-003  0.9118800E+02  0.7818608E-02  0.1130116E+00
         25   -1    0    0    0    0  0.00000000000E+00  0.00000000000E+00  0.99999998245E-14  0.12500000000E+03  0.12500000000E+03 0.  0.
        -13    1    3    3    0    0 -0.38783110579E+02 -0.21106253111E+02 -0.43103877676E+02  0.61705421328E+02  0.10566000000E+00 0.  1.
         23    2    1    0    0    0 -0.91618271926E+01 -0.12220016871E+02 -0.16696217394E+02  0.10237188552E+03  0.99839728460E+02 0.  0.
         13    1    3    3    0    0  0.29621283386E+02  0.88862362404E+01  0.26407660282E+02  0.40666464188E+02  0.10566000000E+00 0. -1.
         22    1    1    0    0    0  0.91618271926E+01  0.12220016871E+02  0.16696217394E+02  0.22628114484E+02  0.00000000000E+00 0.  1.
</event>
<event>
 5    1  0.1766627E-003  0.9118800E+02  0.7818608E-02  0.1130116E+00
         25   -1    0    0    0    0  0.00000000000E+00  0.00000000000E+00  0.99999998245E-14  0.12500000000E+03  0.12500000000E+03 0.  0.
        -13    1    3    3    0    0  0.48411000849E+02 -0.93736203152E+01  0.30469646823E+02  0.57964647006E+02  0.10566000000E+00 0. -1.
         23    2    1    0    0    0  0.16990437875E+02 -0.19724931112E+02  0.18141206390E+02  0.93269080444E+02  0.87705587684E+02 0.  0.
         13    1    3    3    0    0 -0.31420562974E+02 -0.10351310797E+02 -0.12328440433E+02  0.35304433438E+02  0.10566000000E+00 0.  1.
         22    1    1    0    0    0 -0.16990437875E+02  0.19724931112E+02 -0.18141206390E+02  0.31730919556E+02  0.00000000000E+00 0. -1.
</event>
<event>
 5    1  0.1766627E-003  0.9118800E+02  0.7818608E-02  0.1130116E+00
         25   -1    0    0    0    0  0.00000000000E+00  0.00000000000E+00  0.99999998245E-14  0.12500000000E+03  0.12500000000E+03 0.  0.
        -13    1    3    3    0    0 -0.40313383314E+02  0.16651063877E+01  0.45259627532E+02  0.60633212861E+02  0.10566000000E+00 0.  1.
         23    2    1    0    0    0 -0.10895501809E+02  0.61834848846E+01  0.26152881346E+02  0.96001368175E+02  0.91516894855E+02 0.  0.
         13    1    3    3    0    0  0.29417881505E+02  0.45183784968E+01 -0.19106746185E+02  0.35368155314E+02  0.10566000000E+00 0. -1.
         22    1    1    0    0    0  0.10895501809E+02 -0.61834848846E+01 -0.26152881346E+02  0.28998631825E+02  0.00000000000E+00 0.  1.
</event>
<event>
 5    1  0.1766627E-003  0.9118800E+02  0.7818608E-02  0.1130116E+00
         25   -1    0    0    0    0  0.00000000000E+00  0.00000000000E+00  0.99999998245E-14  0.12500000000E+03  0.12500000000E+03 0.  0.
        -13    1    3    3    0    0 -0.13380189552E+02 -0.20686971987E+02 -0.22939344467E+02  0.33663109943E+02  0.10566000000E+00 0.  1.
         23    2    1    0    0    0  0.98412536123E+01  0.17126576516E+02  0.21040961432E+02  0.96140132471E+02  0.91706232709E+02 0.  0.
         13    1    3    3    0    0  0.23221443164E+02  0.37813548502E+02  0.43980305899E+02  0.62477022528E+02  0.10566000000E+00 0. -1.
         22    1    1    0    0    0 -0.98412536123E+01 -0.17126576516E+02 -0.21040961432E+02  0.28859867529E+02  0.00000000000E+00 0. -1.
</event>
<event>
 5    1  0.1766627E-003  0.9118800E+02  0.7818608E-02  0.1130116E+00
         25   -1    0    0    0    0  0.00000000000E+00  0.00000000000E+00  0.99999998245E-14  0.12500000000E+03  0.12500000000E+03 0.  0.
        -13    1    3    3    0    0 -0.13782687216E+02 -0.32584357459E+02  0.30257702377E+02  0.46553652221E+02  0.10566000000E+00 0.  1.
         23    2    1    0    0    0  0.15548314593E+02  0.81336041024E+01  0.21086882738E+02  0.97567132378E+02  0.93631101106E+02 0.  0.
         13    1    3    3    0    0  0.29331001808E+02  0.40717961562E+02 -0.91708196390E+01  0.51013480157E+02  0.10566000000E+00 0. -1.
         22    1    1    0    0    0 -0.15548314593E+02 -0.81336041024E+01 -0.21086882738E+02  0.27432867622E+02  0.00000000000E+00 0. -1.
</event>
<event>
 5    1  0.1766627E-003  0.9118800E+02  0.7818608E-02  0.1130116E+00
         25   -1    0    0    0    0  0.00000000000E+00  0.00000000000E+00  0.99999998245E-14  0.12500000000E+03  0.12500000000E+03 0.  0.
        -13    1    3    3    0    0  0.29561914855E+02  0.46587641177E+02 -0.28206935023E+02  0.61967390358E+02  0.10566000000E+00 0. -1.
         23    2    1    0    0    0  0.15662254438E+02  0.15331876160E+02 -0.13903563189E+02  0.99044620788E+02  0.95583237009E+02 0.  0.
         13    1    3    3    0    0 -0.13899660417E+02 -0.31255765017E+02  0.14303371835E+02  0.37077230430E+02  0.10566000000E+00 0.  1.
         22    1    1    0    0    0 -0.15662254438E+02 -0.15331876160E+02  0.13903563189E+02  0.25955379212E+02  0.00000000000E+00 0. -1.
</event>
<event>
 5    1  0.1766627E-003  0.9118800E+02  0.7818608E-02  0.1130116E+00
         25   -1    0    0    0    0  0.00000000000E+00  0.00000000000E+00  0.99999998245E-14  0.12500000000E+03  0.12500000000E+03 0.  0.
        -13    1    3    3    0    0  0.42724649828E+02  0.31579726122E+02  0.12039388686E+02  0.54475984148E+02  0.10566000000E+00 0. -1.
         23    2    1    0    0    0  0.29061033976E+01  0.25537270524E+02  0.15643576171E+02  0.94911478963E+02  0.90015941592E+02 0.  0.
         13    1    3    3    0    0 -0.39818546431E+02 -0.60424555979E+01  0.36041874853E+01  0.40435494816E+02  0.10566000000E+00 0.  1.
         22    1    1    0    0    0 -0.29061033976E+01 -0.25537270524E+02 -0.15643576171E+02  0.30088521037E+02  0.00000000000E+00 0. -1.
</event>
<event>
 5    1  0.1766627E-003  0.9118800E+02  0.7818608E-02  0.1130116E+00
         25   -1    0    0    0    0  0.00000000000E+00  0.00000000000E+00  0.99999998245E-14  0.12500000000E+03  0.12500000000E+03 0.  0.
        -13    1    3    3    0    0  0.22036201213E+02  0.25154699414E+01  0.82450948671E+01  0.23662512680E+02  0.10566000000E+00 0. -1.
         23    2    1    0    0    0 -0.30294051047E+02 -0.13387718108E+01 -0.24931468643E+02  0.85743153877E+02  0.76228527923E+02 0.  0.
         13    1    3    3    0    0 -0.52330252260E+02 -0.38542417521E+01 -0.33176563510E+02  0.62080641197E+02  0.10566000000E+00 0.  1.
         22    1    1    0    0    0  0.30294051047E+02  0.13387718108E+01  0.24931468643E+02  0.39256846123E+02  0.00000000000E+00 0.  1.
</event>
<event>
 5    1  0.1766627E-003  0.9118800E+02  0.7818608E-02  0.1130116E+00
         25   -1    0    0    0    0  0.00000000000E+00  0.00000000000E+00  0.99999998245E-14  0.12500000000E+03  0.12500000000E+03 0.  0.
        -13    1    3    3    0    0 -0.31208174741E+02 -0.28517286031E+01 -0.17363875941E+02  0.35827334235E+02  0.10566000000E+00 0.  1.
         23    2    1    0    0    0  0.27520007441E+02  0.31227234254E+01 -0.10993114059E+02  0.95201497222E+02  0.90417776490E+02 0.  0.
         13    1    3    3    0    0  0.58728182181E+02  0.59744520285E+01  0.63707618820E+01  0.59374162987E+02  0.10566000000E+00 0. -1.
         22    1    1    0    0    0 -0.27520007441E+02 -0.31227234254E+01  0.10993114059E+02  0.29798502778E+02  0.00000000000E+00 0. -1.
</event>
<event>
 5    1  0.1766627E-003  0.9118800E+02  0.7818608E-02  0.1130116E+00
         25   -1    0    0    0    0  0.00000000000E+00  0.00000000000E+00  0.99999998245E-14  0.12500000000E+03  0.12500000000E+03 0.  0.
        -13    1    3    3    0    0 -0.33958603646E+02  0.59133522050E+01 -0.51140838232E+00  0.34473572464E+02  0.10566000000E+00 0.  1.
         23    2    1    0    0    0  0.24929936628E+02 -0.13165285639E+02  0.39298409817E+01  0.96534755642E+02  0.92242554770E+02 0.  0.
         13    1    3    3    0    0  0.58888540274E+02 -0.19078637844E+02  0.44412493640E+01  0.62061183178E+02  0.10566000000E+00 0. -1.
         22    1    1    0    0    0 -0.24929936628E+02  0.13165285639E+02 -0.39298409817E+01  0.28465244358E+02  0.00000000000E+00 0. -1.
</event>
<event>
 5    1  0.1766627E-003  0.9118800E+02  0.7818608E-02  0.1130116E+00
         25   -1    0    0    0    0  0.00000000000E+00  0.00000000000E+00  0.99999998245E-14  0.12500000000E+03  0.12500000000E+03 0.  0.
        -13    1    3    3    0    0 -0.35887526663E+02 -0.38593991673E+02 -0.24224395183E+02  0.58002096938E+02  0.10566000000E+00 0.  1.
         23    2    1    0    0    0 -0.24371951789E+02 -0.18356370414E+02  0.35919545213E+01  0.94277849912E+02  0.89131714209E+02 0.  0.
         13    1    3    3    0    0  0.11515574874E+02  0.20237621259E+02  0.27816349704E+02  0.36275752973E+02  0.10566000000E+00 0. -1.
         22    1    1    0    0    0  0.24371951789E+02  0.18356370414E+02 -0.35919545213E+01  0.30722150088E+02  0.00000000000E+00 0.  1.
</event>
<event>
 5    1  0.1766627E-003  0.9118800E+02  0.7818608E-02  0.1130116E+00
         25   -1    0    0    0    0  0.00000000000E+00  0.00000000000E+00  0.99999998245E-14  0.12500000000E+03  0.12500000000E+03 0.  0.
        -13    1    3    3    0    0  0.12140746687E+02  0.32448549437E+02 -0.21482379421E+01  0.34712133051E+02  0.10566000000E+00 0.  1.
         23    2    1    0    0    0 -0.18294769876E+02 -0.20223897663E+02 -0.97927606754E+01  0.96024099614E+02  0.91547937735E+02 0.  0.
         13    1    3    3    0    0 -0.30435516563E+02 -0.52672447100E+02 -0.76445227333E+01  0.61311966563E+02  0.10566000000E+00 0. -1.
         22    1    1    0    0    0  0.18294769876E+02  0.20223897663E+02  0.97927606754E+01  0.28975900386E+02  0.00000000000E+00 0. -1.
</event>
<event>
 5    1  0.1766627E-003  0.9118800E+02  0.7818608E-02  0.1130116E+00
         25   -1    0    0    0    0  0.00000000000E+00  0.00000000000E+00  0.99999998245E-14  0.12500000000E+03  0.12500000000E+03 0.  0.
        -13    1    3    3    0    0 -0.34848000656E+02  0.66280107672E+01  0.85244293319E+01  0.36482745729E+02  0.10566000000E+00 0.  1.
         23    2    1    0    0    0  0.24819809270E+02  0.62180552720E+01  0.12962765309E+02  0.96316896472E+02  0.91946854856E+02 0.  0.
         13    1    3    3    0    0  0.59667809926E+02 -0.40995549515E+00  0.44383359772E+01  0.59834150743E+02  0.10566000000E+00 0. -1.
         22    1    1    0    0    0 -0.24819809270E+02 -0.62180552720E+01 -0.12962765309E+02  0.28683103528E+02  0.00000000000E+00 0. -1.
</event>
<event>
 5    1  0.1766627E-003  0.9118800E+02  0.7818608E-02  0.1130116E+00
         25   -1    0    0    0    0  0.00000000000E+00  0.00000000000E+00  0.99999998245E-14  0.12500000000E+03  0.12500000000E+03 0.  0.
        -13    1    3    3    0    0  0.29482629231E+02  0.42251467990E+01  0.23507896446E+02  0.37943506047E+02  0.10566000000E+00 0. -1.
         23    2    1    0    0    0 -0.16820505141E+02  0.24396067350E+02 -0.34046072667E+01  0.95172347628E+02  0.90377469023E+02 0.  0.
         13    1    3    3    0    0 -0.46303134372E+02  0.20170920551E+02 -0.26912503713E+02  0.57228841581E+02  0.10566000000E+00 0.  1.
         22    1    1    0    0    0  0.16820505141E+02 -0.24396067350E+02  0.34046072667E+01  0.29827652372E+02  0.00000000000E+00 0.  1.
</event>
<event>
 5    1  0.1766627E-003  0.9118800E+02  0.7818608E-02  0.1130116E+00
         25   -1    0    0    0    0  0.00000000000E+00  0.00000000000E+00  0.99999998245E-14  0.12500000000E+03  0.12500000000E+03 0.  0.
        -13    1    3    3    0    0  0.11240105963E+02 -0.55557528984E+02 -0.16247975896E+02  0.58965980816E+02  0.10566000000E+00 0.  1.
         23    2    1    0    0    0  0.19265225804E+02 -0.22057749105E+02 -0.44536702118E+01  0.95376894166E+02  0.90659933496E+02 0.  0.
         13    1    3    3    0    0  0.80251198411E+01  0.33499779879E+02  0.11794305684E+02  0.36410913350E+02  0.10566000000E+00 0. -1.
         22    1    1    0    0    0 -0.19265225804E+02  0.22057749105E+02  0.44536702118E+01  0.29623105834E+02  0.00000000000E+00 0.  1.
</event>
<event>
 5    1  0.1766627E-003  0.9118800E+02  0.7818608E-02  0.1130116E+00
         25   -1    0    0    0    0  0.00000000000E+00  0.00000000000E+00  0.99999998245E-14  0.12500000000E+03  0.12500000000E+03 0.  0.
        -13    1    3    3    0    0  0.10926786454E+02 -0.31168857385E+02 -0.60885497119E+01  0.33585323201E+02  0.10566000000E+00 0. -1.
         23    2    1    0    0    0 -0.32683757255E+02 -0.10105826349E+01  0.12818035743E+02  0.89878050938E+02  0.82731570362E+02 0.  0.
         13    1    3    3    0    0 -0.43610543709E+02  0.30158274750E+02  0.18906585455E+02  0.56292727737E+02  0.10566000000E+00 0.  1.
         22    1    1    0    0    0  0.32683757255E+02  0.10105826349E+01 -0.12818035743E+02  0.35121949062E+02  0.00000000000E+00 0.  1.
</event>
<event>
 5    1  0.1766627E-003  0.9118800E+02  0.7818608E-02  0.1130116E+00
         25   -1    0    0    0    0  0.00000000000E+00  0.00000000000E+00  0.99999998245E-14  0.12500000000E+03  0.12500000000E+03 0.  0.
        -13    1    3    3    0    0  0.38604221595E+02  0.38748179527E+01  0.12918967829E+02  0.40892677009E+02  0.10566000000E+00 0.  1.
         23    2    1    0    0    0 -0.65851064470E+01 -0.77849019118E+00 -0.24419259875E+02  0.99696444385E+02  0.96431898749E+02 0.  0.
         13    1    3    3    0    0 -0.45189328042E+02 -0.46533081439E+01 -0.37338227704E+02  0.58803767377E+02  0.10566000000E+00 0. -1.
         22    1    1    0    0    0  0.65851064470E+01  0.77849019118E+00  0.24419259875E+02  0.25303555615E+02  0.00000000000E+00 0. -1.
</event>
<event>
 5    1  0.1766627E-003  0.9118800E+02  0.7818608E-02  0.1130116E+00
         25   -1    0    0    0    0  0.00000000000E+00  0.00000000000E+00  0.99999998245E-14  0.12500000000E+03  0.12500000000E+03 0.  0.
        -13    1    3    3    0    0 -0.23075357177E+02  0.10485082278E+02  0.21226817724E+02  0.33060520473E+02  0.10566000000E+00 0. -1.
         23    2    1    0    0    0  0.22955270073E+02  0.15796725201E+02 -0.16326812731E+02  0.92703780947E+02  0.86896175041E+02 0.  0.
         13    1    3    3    0    0  0.46030627250E+02  0.53116429224E+01 -0.37553630455E+02  0.59643260474E+02  0.10566000000E+00 0.  1.
         22    1    1    0    0    0 -0.22955270073E+02 -0.15796725201E+02  0.16326812731E+02  0.32296219053E+02  0.00000000000E+00 0.  1.
</event>
<event>
 5    1  0.1766627E-003  0.9118800E+02  0.7818608E-02  0.1130116E+00
         25   -1    0    0    0    0  0.00000000000E+00  0.00000000000E+00  0.99999998245E-14  0.12500000000E+03  0.12500000000E+03 0.  0.
        -13    1    3    3    0    0 -0.36682678462E+02 -0.14186992350E+01  0.49984891799E+02  0.62017192607E+02  0.10566000000E+00 0. -1.
         23    2    1    0    0    0 -0.12466313375E+02 -0.21858156673E+00  0.26212775892E+02  0.95973006235E+02  0.91478147985E+02 0.  0.
         13    1    3    3    0    0  0.24216365087E+02  0.12001176682E+01 -0.23772115907E+02  0.33955813629E+02  0.10566000000E+00 0.  1.
         22    1    1    0    0    0  0.12466313375E+02  0.21858156673E+00 -0.26212775892E+02  0.29026993765E+02  0.00000000000E+00 0. -1.
</event>
<event>
 5    1  0.1766627E-003  0.9118800E+02  0.7818608E-02  0.1130116E+00
         25   -1    0    0    0    0  0.00000000000E+00  0.00000000000E+00  0.99999998245E-14  0.12500000000E+03  0.12500000000E+03 0.  0.
        -13    1    3    3    0    0  0.18941303663E+02  0.29466519295E+02 -0.76446868573E+01  0.35853886052E+02  0.10566000000E+00 0.  1.
         23    2    1    0    0    0  0.66346887467E+01 -0.26366901426E+02  0.10524665952E+02  0.95845220306E+02  0.91303368375E+02 0.  0.
         13    1    3    3    0    0 -0.12306614917E+02 -0.55833420721E+02  0.18169352810E+02  0.59991334255E+02  0.10566000000E+00 0. -1.
         22    1    1    0    0    0 -0.66346887467E+01  0.26366901426E+02 -0.10524665952E+02  0.29154779694E+02  0.00000000000E+00 0. -1.
</event>
<event>
 5    1  0.1766627E-003  0.9118800E+02  0.7818608E-02  0.1130116E+00
         25   -1    0    0    0    0  0.00000000000E+00  0.00000000000E+00  0.99999998245E-14  0.12500000000E+03  0.12500000000E+03 0.  0.
        -13    1    3    3    0    0 -0.27799877930E+02 -0.20780278197E+02  0.50375829925E+01  0.35071948639E+02  0.10566000000E+00 0.  1.
         23    2    1    0    0    0  0.10442153371E+02  0.16546392234E+02 -0.22494779593E+02  0.95186634341E+02  0.90397226646E+02 0.  0.
         13    1    3    3    0    0  0.38242031301E+02  0.37326670432E+02 -0.27532362585E+02  0.60114685702E+02  0.10566000000E+00 0. -1.
         22    1    1    0    0    0 -0.10442153371E+02 -0.16546392234E+02  0.22494779593E+02  0.29813365659E+02  0.00000000000E+00 0. -1.
</event>
<event>
 5    1  0.1766627E-003  0.9118800E+02  0.7818608E-02  0.1130116E+00
         25   -1    0    0    0    0  0.00000000000E+00  0.00000000000E+00  0.99999998245E-14  0.12500000000E+03  0.12500000000E+03 0.  0.
        -13    1    3    3    0    0 -0.25186819552E+02 -0.45277958875E+02 -0.27812042130E+02  0.58804679155E+02  0.10566000000E+00 0. -1.
         23    2    1    0    0    0 -0.21121079435E+02 -0.24104004698E+02 -0.13709697003E+01  0.92922241399E+02  0.87209863833E+02 0.  0.
         13    1    3    3    0    0  0.40657401168E+01  0.21173954177E+02  0.26441072430E+02  0.34117562244E+02  0.10566000000E+00 0.  1.
         22    1    1    0    0    0  0.21121079435E+02  0.24104004698E+02  0.13709697003E+01  0.32077758601E+02  0.00000000000E+00 0. -1.
</event>
<event>
 5    1  0.1766627E-003  0.9118800E+02  0.7818608E-02  0.1130116E+00
         25   -1    0    0    0    0  0.00000000000E+00  0.00000000000E+00  0.99999998245E-14  0.12500000000E+03  0.12500000000E+03 0.  0.
        -13    1    3    3    0    0  0.44272014826E+02 -0.19269167817E+02 -0.27868080432E+02  0.55749019687E+02  0.10566000000E+00 0.  1.
         23    2    1    0    0    0  0.46612733241E+01 -0.78833028643E+01 -0.26473208137E+02  0.96987419217E+02  0.92853943396E+02 0.  0.
         13    1    3    3    0    0 -0.39610741502E+02  0.11385864953E+02  0.13948722945E+01  0.41238399530E+02  0.10566000000E+00 0. -1.
         22    1    1    0    0    0 -0.46612733241E+01  0.78833028643E+01  0.26473208137E+02  0.28012580783E+02  0.00000000000E+00 0.  1.
</event>
<event>
 5    1  0.1766627E-003  0.9118800E+02  0.7818608E-02  0.1130116E+00
         25   -1    0    0    0    0  0.00000000000E+00  0.00000000000E+00  0.99999998245E-14  0.12500000000E+03  0.12500000000E+03 0.  0.
        -13    1    3    3    0    0  0.37796103089E+02  0.36655975266E+01  0.14820930608E+02  0.40763380160E+02  0.10566000000E+00 0. -1.
         23    2    1    0    0    0  0.28245276465E+01  0.18054404022E+02 -0.23918052137E+02  0.94899955498E+02  0.89999938192E+02 0.  0.
         13    1    3    3    0    0 -0.34971575442E+02  0.14388806495E+02 -0.38738982744E+02  0.54136575338E+02  0.10566000000E+00 0.  1.
         22    1    1    0    0    0 -0.28245276465E+01 -0.18054404022E+02  0.23918052137E+02  0.30100044502E+02  0.00000000000E+00 0.  1.
</event>
<event>
 5    1  0.1766627E-003  0.9118800E+02  0.7818608E-02  0.1130116E+00
         25   -1    0    0    0    0  0.00000000000E+00  0.00000000000E+00  0.99999998245E-14  0.12500000000E+03  0.12500000000E+03 0.  0.
        -13    1    3    3    0    0 -0.42558117739E+02  0.36020130570E+02  0.24548059042E+02  0.60920124413E+02  0.10566000000E+00 0. -1.
         23    2    1    0    0    0 -0.24097961909E+02  0.81730411271E+01  0.72595439288E+01  0.98538493098E+02  0.94919035365E+02 0.  0.
         13    1    3    3    0    0  0.18460155830E+02 -0.27847089443E+02 -0.17288515113E+02  0.37618368685E+02  0.10566000000E+00 0.  1.
         22    1    1    0    0    0  0.24097961909E+02 -0.81730411271E+01 -0.72595439288E+01  0.26461506902E+02  0.00000000000E+00 0. -1.
</event>
<event>
 5    1  0.1766627E-003  0.9118800E+02  0.7818608E-02  0.1130116E+00
         25   -1    0    0    0    0  0.00000000000E+00  0.00000000000E+00  0.99999998245E-14  0.12500000000E+03  0.12500000000E+03 0.  0.
        -13    1    3    3    0    0 -0.16939402569E+02  0.48624763700E+02 -0.11308310069E+02  0.52718118754E+02  0.10566000000E+00 0. -1.
         23    2    1    0    0    0  0.13895319854E+02  0.13222334801E+02 -0.16163725357E+02  0.99916617675E+02  0.96716877632E+02 0.  0.
         13    1    3    3    0    0  0.30834722423E+02 -0.35402428899E+02 -0.48554152877E+01  0.47198498922E+02  0.10566000000E+00 0.  1.
         22    1    1    0    0    0 -0.13895319854E+02 -0.13222334801E+02  0.16163725357E+02  0.25083382325E+02  0.00000000000E+00 0.  1.
</event>
<event>
 5    1  0.1766627E-003  0.9118800E+02  0.7818608E-02  0.1130116E+00
         25   -1    0    0    0    0  0.00000000000E+00  0.00000000000E+00  0.99999998245E-14  0.12500000000E+03  0.12500000000E+03 0.  0.
        -13    1    3    3    0    0 -0.30115116728E+02  0.11931452160E+02  0.10828541854E+02  0.34154769636E+02  0.10566000000E+00 0. -1.
         23    2    1    0    0    0  0.23036749591E+02 -0.13976577153E+02 -0.91110187508E+01  0.96556244916E+02  0.92271670783E+02 0.  0.
         13    1    3    3    0    0  0.53151866318E+02 -0.25908029312E+02 -0.19939560605E+02  0.62401475280E+02  0.10566000000E+00 0.  1.
         22    1    1    0    0    0 -0.23036749591E+02  0.13976577153E+02  0.91110187508E+01  0.28443755084E+02  0.00000000000E+00 0.  1.
</event>
<event>
 5    1  0.1766627E-003  0.9118800E+02  0.7818608E-02  0.1130116E+00
         25   -1    0    0    0    0  0.00000000000E+00  0.00000000000E+00  0.99999998245E-14  0.12500000000E+03  0.12500000000E+03 0.  0.
        -13    1    3    3    0    0  0.58668082014E+02  0.53464393322E+00 -0.15126401160E+02  0.60589181108E+02  0.10566000000E+00 0.  1.
         23    2    1    0    0    0  0.27913231976E+02  0.75589660870E+01  0.10915476122E+01  0.96060788472E+02  0.91598019182E+02 0.  0.
         13    1    3    3    0    0 -0.30754850037E+02  0.70243221537E+01  0.16217948772E+02  0.35471607363E+02  0.10566000000E+00 0. -1.
         22    1    1    0    0    0 -0.27913231976E+02 -0.75589660870E+01 -0.10915476122E+01  0.28939211528E+02  0.00000000000E+00 0.  1.
</event>
<event>
 5    1  0.1766627E-003  0.9118800E+02  0.7818608E-02  0.1130116E+00
         25   -1    0    0    0    0  0.00000000000E+00  0.00000000000E+00  0.99999998245E-14  0.12500000000E+03  0.12500000000E+03 0.  0.
        -13    1    3    3    0    0 -0.25228510814E+02  0.33464014670E+02  0.14493151957E+02  0.44343890824E+02  0.10566000000E+00 0.  1.
         23    2    1    0    0    0  0.15268055674E+02  0.18931851156E+02 -0.14924526021E+02  0.96464583599E+02  0.92147413961E+02 0.  0.
         13    1    3    3    0    0  0.40496566488E+02 -0.14532163514E+02 -0.29417677978E+02  0.52120692775E+02  0.10566000000E+00 0. -1.
         22    1    1    0    0    0 -0.15268055674E+02 -0.18931851156E+02  0.14924526021E+02  0.28535416401E+02  0.00000000000E+00 0. -1.
</event>
<event>
 5    1  0.1766627E-003  0.9118800E+02  0.7818608E-02  0.1130116E+00
         25   -1    0    0    0    0  0.00000000000E+00  0.00000000000E+00  0.99999998245E-14  0.12500000000E+03  0.12500000000E+03 0.  0.
        -13    1    3    3    0    0 -0.24970796491E+02 -0.49054964028E+02 -0.25894202763E+02  0.60831332995E+02  0.10566000000E+00 0.  1.
         23    2    1    0    0    0 -0.11025945340E+02 -0.17153205371E+02 -0.20539745059E+02  0.96057210704E+02  0.91593136621E+02 0.  0.
         13    1    3    3    0    0  0.13944851151E+02  0.31901758657E+02  0.53544577045E+01  0.35225877709E+02  0.10566000000E+00 0. -1.
         22    1    1    0    0    0  0.11025945340E+02  0.17153205371E+02  0.20539745059E+02  0.28942789296E+02  0.00000000000E+00 0.  1.
</event>
<event>
 5    1  0.1766627E-003  0.9118800E+02  0.7818608E-02  0.1130116E+00
         25   -1    0    0    0    0  0.00000000000E+00  0.00000000000E+00  0.99999998245E-14  0.12500000000E+03  0.12500000000E+03 0.  0.
        -13    1    3    3    0    0 -0.20765065608E+02  0.47781274305E+02  0.27271863696E+02  0.58804794340E+02  0.10566000000E+00 0. -1.
         23    2    1    0    0    0  0.27576558200E+01  0.29316743863E+02  0.76350595771E+01  0.94580100738E+02  0.89554593319E+02 0.  0.
         13    1    3    3    0    0  0.23522721428E+02 -0.18464530442E+02 -0.19636804119E+02  0.35775306398E+02  0.10566000000E+00 0.  1.
         22    1    1    0    0    0 -0.27576558200E+01 -0.29316743863E+02 -0.76350595771E+01  0.30419899262E+02  0.00000000000E+00 0. -1.
</event>
<event>
 5    1  0.1766627E-003  0.9118800E+02  0.7818608E-02  0.1130116E+00
         25   -1    0    0    0    0  0.00000000000E+00  0.00000000000E+00  0.99999998245E-14  0.12500000000E+03  0.12500000000E+03 0.  0.
        -13    1    3    3    0    0  0.38173372085E+02  0.96128421028E+01  0.26395142331E+01  0.39453659767E+02  0.10566000000E+00 0. -1.
         23    2    1    0    0    0 -0.44395702004E+01 -0.24327365565E+02 -0.14211737363E+02  0.96478008875E+02  0.92165623845E+02 0.  0.
         13    1    3    3    0    0 -0.42612942285E+02 -0.33940207668E+02 -0.16851251596E+02  0.57024349107E+02  0.10566000000E+00 0.  1.
         22    1    1    0    0    0  0.44395702004E+01  0.24327365565E+02  0.14211737363E+02  0.28521991125E+02  0.00000000000E+00 0.  1.
</event>
<event>
 5    1  0.1766627E-003  0.9118800E+02  0.7818608E-02  0.1130116E+00
         25   -1    0    0    0    0  0.00000000000E+00  0.00000000000E+00  0.99999998245E-14  0.12500000000E+03  0.12500000000E+03 0.  0.
        -13    1    3    3    0    0 -0.37239591204E+02 -0.14249505953E+02 -0.37088135265E+02  0.54455270768E+02  0.10566000000E+00 0.  1.
         23    2    1    0    0    0 -0.21789573713E+02 -0.18566516818E+02  0.15906827616E+01  0.96328911060E+02  0.91963187009E+02 0.  0.
         13    1    3    3    0    0  0.15450017490E+02 -0.43170108651E+01  0.38678818027E+02  0.41873640291E+02  0.10566000000E+00 0. -1.
         22    1    1    0    0    0  0.21789573713E+02  0.18566516818E+02 -0.15906827616E+01  0.28671088940E+02  0.00000000000E+00 0.  1.
</event>
<event>
 5    1  0.1766627E-003  0.9118800E+02  0.7818608E-02  0.1130116E+00
         25   -1    0    0    0    0  0.00000000000E+00  0.00000000000E+00  0.99999998245E-14  0.12500000000E+03  0.12500000000E+03 0.  0.
        -13    1    3    3    0    0 -0.24640967718E+01  0.36623363135E+02 -0.40512596275E+01  0.36929207531E+02  0.10566000000E+00 0. -1.
         23    2    1    0    0    0 -0.20516144091E+02 -0.16889732332E+02  0.12289762145E+02  0.95721791719E+02  0.91134230285E+02 0.  0.
         13    1    3    3    0    0 -0.18052047319E+02 -0.53513095467E+02  0.16341021772E+02  0.58792584188E+02  0.10566000000E+00 0.  1.
         22    1    1    0    0    0  0.20516144091E+02  0.16889732332E+02 -0.12289762145E+02  0.29278208281E+02  0.00000000000E+00 0.  1.
</event>
<event>
 4    1  0.1766627E-003  0.9118800E+02  0.7818608E-02  0.1130116E+00
         25   -1    0    0    0    0  0.00000000000E+00  0.00000000000E+00  0.99999998245E-14  0.12500000000E+03  0.12500000000E+03 0.  0.
        -13    1    1    0    0    0 -0.85286992737E+00  0.10394341909E+02  0.17398559924E+02  0.20285235574E+02  0.10566000000E+00 0.  1.
         13    1    1    0    0    0 -0.11878103413E+02 -0.48840474806E+02  0.15432231919E+02  0.52579903633E+02  0.10566000000E+00 0. -1.
         22    1    1    0    0    0  0.12730973340E+02  0.38446132897E+02 -0.32830791843E+02  0.52134860794E+02  0.00000000000E+00 0. -1.
</event>
<event>
 5    1  0.1766627E-003  0.9118800E+02  0.7818608E-02  0.1130116E+00
         25   -1    0    0    0    0  0.00000000000E+00  0.00000000000E+00  0.99999998245E-14  0.12500000000E+03  0.12500000000E+03 0.  0.
        -13    1    3    3    0    0 -0.18972505421E+02  0.39166717699E+02  0.34600432951E+02  0.55598460965E+02  0.10566000000E+00 0.  1.
         23    2    1    0    0    0 -0.23589664262E+02  0.16730043652E+02  0.12565791839E+01  0.96052709766E+02  0.91586993845E+02 0.  0.
         13    1    3    3    0    0 -0.46171588411E+01 -0.22436674046E+02 -0.33343853767E+02  0.40454248802E+02  0.10566000000E+00 0. -1.
         22    1    1    0    0    0  0.23589664262E+02 -0.16730043652E+02 -0.12565791839E+01  0.28947290234E+02  0.00000000000E+00 0.  1.
</event>
<event>
 5    1  0.1766627E-003  0.9118800E+02  0.7818608E-02  0.1130116E+00
         25   -1    0    0    0    0  0.00000000000E+00  0.00000000000E+00  0.99999998245E-14  0.12500000000E+03  0.12500000000E+03 0.  0.
        -13    1    3    3    0    0  0.35779792495E+02  0.90268522407E+01  0.99409576554E+01  0.38216637941E+02  0.10566000000E+00 0.  1.
         23    2    1    0    0    0 -0.64468758512E+01  0.23080092067E+02  0.29639336483E+02  0.86885132491E+02  0.78078698265E+02 0.  0.
         13    1    3    3    0    0 -0.42226668346E+02  0.14053239826E+02  0.19698378828E+02  0.48668494550E+02  0.10566000000E+00 0. -1.
         22    1    1    0    0    0  0.64468758512E+01 -0.23080092067E+02 -0.29639336483E+02  0.38114867509E+02  0.00000000000E+00 0. -1.
</event>
<event>
 5    1  0.1766627E-003  0.9118800E+02  0.7818608E-02  0.1130116E+00
         25   -1    0    0    0    0  0.00000000000E+00  0.00000000000E+00  0.99999998245E-14  0.12500000000E+03  0.12500000000E+03 0.  0.
        -13    1    3    3    0    0 -0.27499743366E+02  0.81044947495E+01 -0.51314362911E+02  0.58780045299E+02  0.10566000000E+00 0.  1.
         23    2    1    0    0    0 -0.12515085506E+02  0.19167220975E+02 -0.24070125933E+02  0.91782825413E+02  0.85561126413E+02 0.  0.
         13    1    3    3    0    0  0.14984657860E+02  0.11062726226E+02  0.27244236978E+02  0.33002780114E+02  0.10566000000E+00 0. -1.
         22    1    1    0    0    0  0.12515085506E+02 -0.19167220975E+02  0.24070125933E+02  0.33217174587E+02  0.00000000000E+00 0.  1.
</event>
<event>
 5    1  0.1766627E-003  0.9118800E+02  0.7818608E-02  0.1130116E+00
         25   -1    0    0    0    0  0.00000000000E+00  0.00000000000E+00  0.99999998245E-14  0.12500000000E+03  0.12500000000E+03 0.  0.
        -13    1    3    3    0    0  0.24777016884E+02 -0.29759524043E+02 -0.20015858515E+01  0.38775602470E+02  0.10566000000E+00 0. -1.
         23    2    1    0    0    0 -0.24649445563E+02 -0.85735067818E+01 -0.16057268013E+02  0.94357936735E+02  0.89243958809E+02 0.  0.
         13    1    3    3    0    0 -0.49426462446E+02  0.21186017261E+02 -0.14055682161E+02  0.55582334266E+02  0.10566000000E+00 0.  1.
         22    1    1    0    0    0  0.24649445563E+02  0.85735067818E+01  0.16057268013E+02  0.30642063265E+02  0.00000000000E+00 0.  1.
</event>
<event>
 5    1  0.1766627E-003  0.9118800E+02  0.7818608E-02  0.1130116E+00
         25   -1    0    0    0    0  0.00000000000E+00  0.00000000000E+00  0.99999998245E-14  0.12500000000E+03  0.12500000000E+03 0.  0.
        -13    1    3    3    0    0  0.35591661637E+02  0.19875117075E+02 -0.21294801380E+02  0.45992025251E+02  0.10566000000E+00 0.  1.
         23    2    1    0    0    0  0.17665288692E+02 -0.23213864110E+02 -0.51312498497E+01  0.95381160784E+02  0.90665816027E+02 0.  0.
         13    1    3    3    0    0 -0.17926372945E+02 -0.43088981185E+02  0.16163551530E+02  0.49389135533E+02  0.10566000000E+00 0. -1.
         22    1    1    0    0    0 -0.17665288692E+02  0.23213864110E+02  0.51312498497E+01  0.29618839216E+02  0.00000000000E+00 0.  1.
</event>
<event>
 5    1  0.1766627E-003  0.9118800E+02  0.7818608E-02  0.1130116E+00
         25   -1    0    0    0    0  0.00000000000E+00  0.00000000000E+00  0.99999998245E-14  0.12500000000E+03  0.12500000000E+03 0.  0.
        -13    1    3    3    0    0 -0.75242107425E+01  0.43404320268E+02 -0.31515513401E+01  0.44164377105E+02  0.10566000000E+00 0. -1.
         23    2    1    0    0    0 -0.14363780703E+02  0.29737546629E+01 -0.28905016856E+02  0.92586092301E+02  0.86726714888E+02 0.  0.
         13    1    3    3    0    0 -0.68395699606E+01 -0.40430565605E+02 -0.25753465516E+02  0.48421715196E+02  0.10566000000E+00 0.  1.
         22    1    1    0    0    0  0.14363780703E+02 -0.29737546629E+01  0.28905016856E+02  0.32413907699E+02  0.00000000000E+00 0. -1.
</event>
<event>
 5    1  0.1766627E-003  0.9118800E+02  0.7818608E-02  0.1130116E+00
         25   -1    0    0    0    0  0.00000000000E+00  0.00000000000E+00  0.99999998245E-14  0.12500000000E+03  0.12500000000E+03 0.  0.
        -13    1    3    3    0    0  0.90712066182E+01 -0.11059628778E+02  0.52044338625E+02  0.53974313569E+02  0.10566000000E+00 0. -1.
         23    2    1    0    0    0 -0.18912281445E+02 -0.62446244755E+01  0.22491525866E+02  0.94957722122E+02  0.90080133939E+02 0.  0.
         13    1    3    3    0    0 -0.27983488063E+02  0.48150043030E+01 -0.29552812759E+02  0.40983408553E+02  0.10566000000E+00 0.  1.
         22    1    1    0    0    0  0.18912281445E+02  0.62446244755E+01 -0.22491525866E+02  0.30042277878E+02  0.00000000000E+00 0. -1.
</event>
<event>
 5    1  0.1766627E-003  0.9118800E+02  0.7818608E-02  0.1130116E+00
         25   -1    0    0    0    0  0.00000000000E+00  0.00000000000E+00  0.99999998245E-14  0.12500000000E+03  0.12500000000E+03 0.  0.
        -13    1    3    3    0    0 -0.13154129438E+02 -0.13522054765E+02 -0.33176548566E+02  0.38165057646E+02  0.10566000000E+00 0. -1.
         23    2    1    0    0    0  0.14073008349E+02 -0.10232765446E+02  0.20299568794E+02  0.98263666184E+02  0.94556419909E+02 0.  0.
         13    1    3    3    0    0  0.27227137787E+02  0.32892893191E+01  0.53476117360E+02  0.60098608538E+02  0.10566000000E+00 0.  1.
         22    1    1    0    0    0 -0.14073008349E+02  0.10232765446E+02 -0.20299568794E+02  0.26736333816E+02  0.00000000000E+00 0.  1.
</event>
<event>
 5    1  0.1766627E-003  0.9118800E+02  0.7818608E-02  0.1130116E+00
         25   -1    0    0    0    0  0.00000000000E+00  0.00000000000E+00  0.99999998245E-14  0.12500000000E+03  0.12500000000E+03 0.  0.
        -13    1    3    3    0    0 -0.18506301959E+02  0.23166250528E+02 -0.48779556816E+02  0.57084277195E+02  0.10566000000E+00 0.  1.
         23    2    1    0    0    0 -0.19615023078E+01  0.26530601348E+02 -0.16000884660E+02  0.93955699249E+02  0.88678773178E+02 0.  0.
         13    1    3    3    0    0  0.16544799651E+02  0.33643508201E+01  0.32778672156E+02  0.36871422054E+02  0.10566000000E+00 0. -1.
         22    1    1    0    0    0  0.19615023078E+01 -0.26530601348E+02  0.16000884660E+02  0.31044300751E+02  0.00000000000E+00 0.  1.
</event>
<event>
 5    1  0.1766627E-003  0.9118800E+02  0.7818608E-02  0.1130116E+00
         25   -1    0    0    0    0  0.00000000000E+00  0.00000000000E+00  0.99999998245E-14  0.12500000000E+03  0.12500000000E+03 0.  0.
        -13    1    3    3    0    0  0.15254086274E+02  0.22198647891E+02  0.38859422438E+02  0.47281423334E+02  0.10566000000E+00 0. -1.
         23    2    1    0    0    0 -0.12996576955E+02 -0.12929402349E+02  0.24110174631E+02  0.94711702286E+02  0.89738094316E+02 0.  0.
         13    1    3    3    0    0 -0.28250663229E+02 -0.35128050240E+02 -0.14749247806E+02  0.47430278952E+02  0.10566000000E+00 0.  1.
         22    1    1    0    0    0  0.12996576955E+02  0.12929402349E+02 -0.24110174631E+02  0.30288297714E+02  0.00000000000E+00 0.  1.
</event>
<event>
 5    1  0.1766627E-003  0.9118800E+02  0.7818608E-02  0.1130116E+00
         25   -1    0    0    0    0  0.00000000000E+00  0.00000000000E+00  0.99999998245E-14  0.12500000000E+03  0.12500000000E+03 0.  0.
        -13    1    3    3    0    0 -0.38374071710E+02 -0.26640947284E+02 -0.12035476129E+02  0.48240784628E+02  0.10566000000E+00 0. -1.
         23    2    1    0    0    0  0.10208213625E+02 -0.22528035603E+02  0.47685632274E+01  0.99811526271E+02  0.96580958619E+02 0.  0.
         13    1    3    3    0    0  0.48582285335E+02  0.41129116814E+01  0.16804039356E+02  0.51570741643E+02  0.10566000000E+00 0.  1.
         22    1    1    0    0    0 -0.10208213625E+02  0.22528035603E+02 -0.47685632274E+01  0.25188473729E+02  0.00000000000E+00 0. -1.
</event>
<event>
 4    1  0.1766627E-003  0.9118800E+02  0.7818608E-02  0.1130116E+00
         25   -1    0    0    0    0  0.00000000000E+00  0.00000000000E+00  0.99999998245E-14  0.12500000000E+03  0.12500000000E+03 0.  0.
        -13    1    1    0    0    0  0.85722400213E+01 -0.66147440054E+01  0.25660160127E+01  0.11128060903E+02  0.10566000000E+00 0. -1.
         13    1    1    0    0    0  0.32006296596E+01  0.34973090769E+02 -0.47730488704E+02  0.59258516891E+02  0.10566000000E+00 0.  1.
         22    1    1    0    0    0 -0.11772869681E+02 -0.28358346763E+02  0.45164472691E+02  0.54613422207E+02  0.00000000000E+00 0.  1.
</event>
<event>
 5    1  0.1766627E-003  0.9118800E+02  0.7818608E-02  0.1130116E+00
         25   -1    0    0    0    0  0.00000000000E+00  0.00000000000E+00  0.99999998245E-14  0.12500000000E+03  0.12500000000E+03 0.  0.
        -13    1    3    3    0    0  0.45185118828E+02  0.19046405821E+02  0.17468662178E+02  0.52054066705E+02  0.10566000000E+00 0.  1.
         23    2    1    0    0    0  0.23633089750E+02  0.27469860695E+02 -0.94495908752E+01  0.87551222377E+02  0.79137889751E+02 0.  0.
         13    1    3    3    0    0 -0.21552029077E+02  0.84234548735E+01 -0.26918253053E+02  0.35497155672E+02  0.10566000000E+00 0. -1.
         22    1    1    0    0    0 -0.23633089750E+02 -0.27469860695E+02  0.94495908752E+01  0.37448777623E+02  0.00000000000E+00 0.  1.
</event>
<event>
 5    1  0.1766627E-003  0.9118800E+02  0.7818608E-02  0.1130116E+00
         25   -1    0    0    0    0  0.00000000000E+00  0.00000000000E+00  0.99999998245E-14  0.12500000000E+03  0.12500000000E+03 0.  0.
        -13    1    3    3    0    0 -0.16723361827E+02 -0.47618812520E+01 -0.30259774346E+02  0.34900020793E+02  0.10566000000E+00 0.  1.
         23    2    1    0    0    0  0.45905139321E+01 -0.37980099476E+01  0.27702281302E+02  0.96664261311E+02  0.92417884241E+02 0.  0.
         13    1    3    3    0    0  0.21313875759E+02  0.96387130445E+00  0.57962055648E+02  0.61764240518E+02  0.10566000000E+00 0. -1.
         22    1    1    0    0    0 -0.45905139321E+01  0.37980099476E+01 -0.27702281302E+02  0.28335738689E+02  0.00000000000E+00 0. -1.
</event>
<event>
 5    1  0.1766627E-003  0.9118800E+02  0.7818608E-02  0.1130116E+00
         25   -1    0    0    0    0  0.00000000000E+00  0.00000000000E+00  0.99999998245E-14  0.12500000000E+03  0.12500000000E+03 0.  0.
        -13    1    3    3    0    0  0.11276081082E+02  0.22283229587E+02 -0.22823849592E+02  0.33832404579E+02  0.10566000000E+00 0.  1.
         23    2    1    0    0    0  0.55959504177E+01 -0.24580148544E+02  0.16160938256E+02  0.95055479819E+02  0.90215685747E+02 0.  0.
         13    1    3    3    0    0 -0.56801306642E+01 -0.46863378131E+02  0.38984787848E+02  0.61223075240E+02  0.10566000000E+00 0. -1.
         22    1    1    0    0    0 -0.55959504177E+01  0.24580148544E+02 -0.16160938256E+02  0.29944520181E+02  0.00000000000E+00 0. -1.
</event>
<event>
 5    1  0.1766627E-003  0.9118800E+02  0.7818608E-02  0.1130116E+00
         25   -1    0    0    0    0  0.00000000000E+00  0.00000000000E+00  0.99999998245E-14  0.12500000000E+03  0.12500000000E+03 0.  0.
        -13    1    3    3    0    0  0.11702830664E+01  0.53456552028E+01  0.55843281722E+02  0.56110862313E+02  0.10566000000E+00 0.  1.
         23    2    1    0    0    0 -0.98404905352E+01  0.18123145913E+02  0.17677078477E+02  0.97838211119E+02  0.93992301705E+02 0.  0.
         13    1    3    3    0    0 -0.11010773602E+02  0.12777490710E+02 -0.38166203245E+02  0.41727348806E+02  0.10566000000E+00 0. -1.
         22    1    1    0    0    0  0.98404905352E+01 -0.18123145913E+02 -0.17677078477E+02  0.27161788881E+02  0.00000000000E+00 0. -1.
</event>
<event>
 5    1  0.1766627E-003  0.9118800E+02  0.7818608E-02  0.1130116E+00
         25   -1    0    0    0    0  0.00000000000E+00  0.00000000000E+00  0.99999998245E-14  0.12500000000E+03  0.12500000000E+03 0.  0.
        -13    1    3    3    0    0 -0.17060449230E+01 -0.29423041266E+02 -0.15496109130E+02  0.33298145727E+02  0.10566000000E+00 0.  1.
         23    2    1    0    0    0  0.30099911961E+01  0.28341129743E+02  0.73045052748E+01  0.95578316169E+02  0.90937225833E+02 0.  0.
         13    1    3    3    0    0  0.47160361191E+01  0.57764171009E+02  0.22800614405E+02  0.62280170443E+02  0.10566000000E+00 0. -1.
         22    1    1    0    0    0 -0.30099911961E+01 -0.28341129743E+02 -0.73045052748E+01  0.29421683831E+02  0.00000000000E+00 0. -1.
</event>
<event>
 5    1  0.1766627E-003  0.9118800E+02  0.7818608E-02  0.1130116E+00
         25   -1    0    0    0    0  0.00000000000E+00  0.00000000000E+00  0.99999998245E-14  0.12500000000E+03  0.12500000000E+03 0.  0.
        -13    1    3    3    0    0 -0.28701330558E+02  0.42136229257E+01  0.35182244851E+02  0.45599588931E+02  0.10566000000E+00 0.  1.
         23    2    1    0    0    0 -0.14689034065E+02  0.25133300037E+02 -0.73041470217E+01  0.94986652033E+02  0.90120269685E+02 0.  0.
         13    1    3    3    0    0  0.14012296493E+02  0.20919677111E+02 -0.42486391872E+02  0.49387063101E+02  0.10566000000E+00 0. -1.
         22    1    1    0    0    0  0.14689034065E+02 -0.25133300037E+02  0.73041470217E+01  0.30013347967E+02  0.00000000000E+00 0.  1.
</event>
<event>
 5    1  0.1766627E-003  0.9118800E+02  0.7818608E-02  0.1130116E+00
         25   -1    0    0    0    0  0.00000000000E+00  0.00000000000E+00  0.99999998245E-14  0.12500000000E+03  0.12500000000E+03 0.  0.
        -13    1    3    3    0    0  0.21503165570E+02 -0.95963489632E+01 -0.27822865382E+02  0.36449952606E+02  0.10566000000E+00 0. -1.
         23    2    1    0    0    0  0.10630999731E+02  0.11043807007E+02  0.25834858474E+02  0.94959631480E+02  0.90082783427E+02 0.  0.
         13    1    3    3    0    0 -0.10872165839E+02  0.20640155970E+02  0.53657723855E+02  0.58509678873E+02  0.10566000000E+00 0.  1.
         22    1    1    0    0    0 -0.10630999731E+02 -0.11043807007E+02 -0.25834858474E+02  0.30040368520E+02  0.00000000000E+00 0.  1.
</event>
<event>
 5    1  0.1766627E-003  0.9118800E+02  0.7818608E-02  0.1130116E+00
         25   -1    0    0    0    0  0.00000000000E+00  0.00000000000E+00  0.99999998245E-14  0.12500000000E+03  0.12500000000E+03 0.  0.
        -13    1    3    3    0    0  0.43320106061E+02  0.12187802824E+02  0.22204899356E+02  0.50182096870E+02  0.10566000000E+00 0. -1.
         23    2    1    0    0    0  0.18278255375E+02 -0.22278675574E+02  0.79645207781E+01  0.95102381431E+02  0.90280647747E+02 0.  0.
         13    1    3    3    0    0 -0.25041850686E+02 -0.34466478398E+02 -0.14240378578E+02  0.44920284560E+02  0.10566000000E+00 0.  1.
         22    1    1    0    0    0 -0.18278255375E+02  0.22278675574E+02 -0.79645207781E+01  0.29897618569E+02  0.00000000000E+00 0. -1.
</event>
<event>
 5    1  0.1766627E-003  0.9118800E+02  0.7818608E-02  0.1130116E+00
         25   -1    0    0    0    0  0.00000000000E+00  0.00000000000E+00  0.99999998245E-14  0.12500000000E+03  0.12500000000E+03 0.  0.
        -13    1    3    3    0    0  0.34711953751E+02  0.50724679156E+02  0.10420521057E+01  0.61473651635E+02  0.10566000000E+00 0. -1.
         23    2    1    0    0    0  0.20381052595E+02  0.20661948857E+02  0.65957184148E+01  0.95237491086E+02  0.90467523297E+02 0.  0.
         13    1    3    3    0    0 -0.14330901156E+02 -0.30062730299E+02  0.55536663092E+01  0.33763839451E+02  0.10566000000E+00 0.  1.
         22    1    1    0    0    0 -0.20381052595E+02 -0.20661948857E+02 -0.65957184148E+01  0.29762508914E+02  0.00000000000E+00 0. -1.
</event>
<event>
 5    1  0.1766627E-003  0.9118800E+02  0.7818608E-02  0.1130116E+00
         25   -1    0    0    0    0  0.00000000000E+00  0.00000000000E+00  0.99999998245E-14  0.12500000000E+03  0.12500000000E+03 0.  0.
        -13    1    3    3    0    0 -0.12259230695E+02 -0.28206944096E+02 -0.34679687433E+02  0.46353126291E+02  0.10566000000E+00 0. -1.
         23    2    1    0    0    0 -0.72641254919E+01 -0.19401838452E+02  0.16494150219E+02  0.98518764267E+02  0.94893050677E+02 0.  0.
         13    1    3    3    0    0  0.49951052030E+01  0.88051056435E+01  0.51173837652E+02  0.52165637976E+02  0.10566000000E+00 0.  1.
         22    1    1    0    0    0  0.72641254919E+01  0.19401838452E+02 -0.16494150219E+02  0.26481235733E+02  0.00000000000E+00 0.  1.
</event>
<event>
 5    1  0.1766627E-003  0.9118800E+02  0.7818608E-02  0.1130116E+00
         25   -1    0    0    0    0  0.00000000000E+00  0.00000000000E+00  0.99999998245E-14  0.12500000000E+03  0.12500000000E+03 0.  0.
        -13    1    3    3    0    0 -0.35719904203E+02  0.35630589403E+02 -0.29154486227E+02  0.58270452964E+02  0.10566000000E+00 0.  1.
         23    2    1    0    0    0 -0.24647570857E+02  0.17452086529E+02  0.52649791271E+00  0.94794780692E+02  0.89853743234E+02 0.  0.
         13    1    3    3    0    0  0.11072333346E+02 -0.18178502874E+02  0.29680984140E+02  0.36524327728E+02  0.10566000000E+00 0. -1.
         22    1    1    0    0    0  0.24647570857E+02 -0.17452086529E+02 -0.52649791271E+00  0.30205219308E+02  0.00000000000E+00 0.  1.
</event>
<event>
 5    1  0.1766627E-003  0.9118800E+02  0.7818608E-02  0.1130116E+00
         25   -1    0    0    0    0  0.00000000000E+00  0.00000000000E+00  0.99999998245E-14  0.12500000000E+03  0.12500000000E+03 0.  0.
        -13    1    3    3    0    0  0.33665129966E+02 -0.48490443566E+02 -0.74395336141E+01  0.59498083308E+02  0.10566000000E+00 0.  1.
         23    2    1    0    0    0  0.23074380405E+02 -0.16450193617E+02  0.63619671483E+01  0.95956747305E+02  0.91455928328E+02 0.  0.
         13    1    3    3    0    0 -0.10590749562E+02  0.32040249950E+02  0.13801500762E+02  0.36458663997E+02  0.10566000000E+00 0. -1.
         22    1    1    0    0    0 -0.23074380405E+02  0.16450193617E+02 -0.63619671483E+01  0.29043252695E+02  0.00000000000E+00 0.  1.
</event>
<event>
 5    1  0.1766627E-003  0.9118800E+02  0.7818608E-02  0.1130116E+00
         25   -1    0    0    0    0  0.00000000000E+00  0.00000000000E+00  0.99999998245E-14  0.12500000000E+03  0.12500000000E+03 0.  0.
        -13    1    3    3    0    0  0.13559387719E+02 -0.19207237774E+02  0.39795492219E+02  0.46221935736E+02  0.10566000000E+00 0. -1.
         23    2    1    0    0    0 -0.24597907866E+02 -0.13771111153E+02  0.94803271663E+01  0.95258157809E+02  0.90496074236E+02 0.  0.
         13    1    3    3    0    0 -0.38157295585E+02  0.54361266214E+01 -0.30315165052E+02  0.49036222073E+02  0.10566000000E+00 0.  1.
         22    1    1    0    0    0  0.24597907866E+02  0.13771111153E+02 -0.94803271663E+01  0.29741842191E+02  0.00000000000E+00 0. -1.
</event>
<event>
 5    1  0.1766627E-003  0.9118800E+02  0.7818608E-02  0.1130116E+00
         25   -1    0    0    0    0  0.00000000000E+00  0.00000000000E+00  0.99999998245E-14  0.12500000000E+03  0.12500000000E+03 0.  0.
        -13    1    3    3    0    0  0.20908779921E+01 -0.38161363621E+02 -0.37614201098E+02  0.53623695624E+02  0.10566000000E+00 0.  1.
         23    2    1    0    0    0  0.20155023512E+01 -0.13261167231E+02 -0.43725627930E+02  0.79263238593E+02  0.64736463051E+02 0.  0.
         13    1    3    3    0    0 -0.75375640894E-01  0.24900196389E+02 -0.61114268327E+01  0.25639542969E+02  0.10566000000E+00 0. -1.
         22    1    1    0    0    0 -0.20155023512E+01  0.13261167231E+02  0.43725627930E+02  0.45736761407E+02  0.00000000000E+00 0.  1.
</event>
<event>
 5    1  0.1766627E-003  0.9118800E+02  0.7818608E-02  0.1130116E+00
         25   -1    0    0    0    0  0.00000000000E+00  0.00000000000E+00  0.99999998245E-14  0.12500000000E+03  0.12500000000E+03 0.  0.
        -13    1    3    3    0    0 -0.20847794419E+02  0.11877861774E+02  0.26003453329E+02  0.35382267897E+02  0.10566000000E+00 0.  1.
         23    2    1    0    0    0  0.12520049819E+02 -0.43512602310E+01 -0.23960706159E+02  0.97617513759E+02  0.93698337445E+02 0.  0.
         13    1    3    3    0    0  0.33367844238E+02 -0.16229122005E+02 -0.49964159488E+02  0.62235245862E+02  0.10566000000E+00 0. -1.
         22    1    1    0    0    0 -0.12520049819E+02  0.43512602310E+01  0.23960706159E+02  0.27382486241E+02  0.00000000000E+00 0. -1.
</event>
<event>
 5    1  0.1766627E-003  0.9118800E+02  0.7818608E-02  0.1130116E+00
         25   -1    0    0    0    0  0.00000000000E+00  0.00000000000E+00  0.99999998245E-14  0.12500000000E+03  0.12500000000E+03 0.  0.
        -13    1    3    3    0    0 -0.11520936353E+02 -0.12962944578E+01 -0.30524504837E+02  0.32652242087E+02  0.10566000000E+00 0.  1.
         23    2    1    0    0    0  0.27347333069E+02 -0.28296773920E+02 -0.90607715520E+01  0.84618300910E+02  0.74361113679E+02 0.  0.
         13    1    3    3    0    0  0.38868269422E+02 -0.27000479462E+02  0.21463733285E+02  0.51966058823E+02  0.10566000000E+00 0. -1.
         22    1    1    0    0    0 -0.27347333069E+02  0.28296773920E+02  0.90607715520E+01  0.40381699090E+02  0.00000000000E+00 0. -1.
</event>
<event>
 5    1  0.1766627E-003  0.9118800E+02  0.7818608E-02  0.1130116E+00
         25   -1    0    0    0    0  0.00000000000E+00  0.00000000000E+00  0.99999998245E-14  0.12500000000E+03  0.12500000000E+03 0.  0.
        -13    1    3    3    0    0  0.38817503887E+02  0.38076916540E+02  0.12597265709E+02  0.55815342412E+02  0.10566000000E+00 0.  1.
         23    2    1    0    0    0  0.10982715187E+01  0.26098328729E+02  0.13895993884E+02  0.95412374060E+02  0.90708839232E+02 0.  0.
         13    1    3    3    0    0 -0.37719232368E+02 -0.11978587811E+02  0.12987281743E+01  0.39597031647E+02  0.10566000000E+00 0. -1.
         22    1    1    0    0    0 -0.10982715187E+01 -0.26098328729E+02 -0.13895993884E+02  0.29587625940E+02  0.00000000000E+00 0.  1.
</event>
<event>
 5    1  0.1766627E-003  0.9118800E+02  0.7818608E-02  0.1130116E+00
         25   -1    0    0    0    0  0.00000000000E+00  0.00000000000E+00  0.99999998245E-14  0.12500000000E+03  0.12500000000E+03 0.  0.
        -13    1    3    3    0    0 -0.24919440331E+02  0.13518100192E+02 -0.51271038195E+02  0.58587098074E+02  0.10566000000E+00 0. -1.
         23    2    1    0    0    0 -0.26487135032E+02  0.22651169673E+01 -0.20375061791E+02  0.91506086821E+02  0.85155867122E+02 0.  0.
         13    1    3    3    0    0 -0.15676947006E+01 -0.11252983225E+02  0.30895976404E+02  0.32918988746E+02  0.10566000000E+00 0.  1.
         22    1    1    0    0    0  0.26487135032E+02 -0.22651169673E+01  0.20375061791E+02  0.33493913179E+02  0.00000000000E+00 0. -1.
</event>
<event>
 5    1  0.1766627E-003  0.9118800E+02  0.7818608E-02  0.1130116E+00
         25   -1    0    0    0    0  0.00000000000E+00  0.00000000000E+00  0.99999998245E-14  0.12500000000E+03  0.12500000000E+03 0.  0.
        -13    1    3    3    0    0  0.80005962879E+01 -0.38483505389E+02  0.23294498095E+02  0.45690639452E+02  0.10566000000E+00 0.  1.
         23    2    1    0    0    0  0.25100843205E+02  0.54126151769E+01 -0.21499068374E+01  0.99232368521E+02  0.95828451569E+02 0.  0.
         13    1    3    3    0    0  0.17100246917E+02  0.43896120565E+02 -0.25444404932E+02  0.53541729069E+02  0.10566000000E+00 0. -1.
         22    1    1    0    0    0 -0.25100843205E+02 -0.54126151769E+01  0.21499068374E+01  0.25767631479E+02  0.00000000000E+00 0. -1.
</event>
<event>
 5    1  0.1766627E-003  0.9118800E+02  0.7818608E-02  0.1130116E+00
         25   -1    0    0    0    0  0.00000000000E+00  0.00000000000E+00  0.99999998245E-14  0.12500000000E+03  0.12500000000E+03 0.  0.
        -13    1    3    3    0    0 -0.41126261517E+02  0.15168870736E+01 -0.15117883584E+02  0.43843265171E+02  0.10566000000E+00 0.  1.
         23    2    1    0    0    0  0.35770612347E+01 -0.23837284578E+02 -0.17375961580E+02  0.95285768663E+02  0.90534204396E+02 0.  0.
         13    1    3    3    0    0  0.44703322752E+02 -0.25354171652E+02 -0.22580779958E+01  0.51442503491E+02  0.10566000000E+00 0. -1.
         22    1    1    0    0    0 -0.35770612347E+01  0.23837284578E+02  0.17375961580E+02  0.29714231337E+02  0.00000000000E+00 0. -1.
</event>
<event>
 5    1  0.1766627E-003  0.9118800E+02  0.7818608E-02  0.1130116E+00
         25   -1    0    0    0    0  0.00000000000E+00  0.00000000000E+00  0.99999998245E-14  0.12500000000E+03  0.12500000000E+03 0.  0.
        -13    1    3    3    0    0  0.54306054175E+02  0.17536110071E+02 -0.28508764924E+01  0.57138440102E+02  0.10566000000E+00 0. -1.
         23    2    1    0    0    0  0.19590192764E+02  0.24896184214E+02  0.32774238598E+01  0.93151339932E+02  0.87537620387E+02 0.  0.
         13    1    3    3    0    0 -0.34715861411E+02  0.73600741434E+01  0.61283003522E+01  0.36012899830E+02  0.10566000000E+00 0.  1.
         22    1    1    0    0    0 -0.19590192764E+02 -0.24896184214E+02 -0.32774238598E+01  0.31848660068E+02  0.00000000000E+00 0. -1.
</event>
<event>
 5    1  0.1766627E-003  0.9118800E+02  0.7818608E-02  0.1130116E+00
         25   -1    0    0    0    0  0.00000000000E+00  0.00000000000E+00  0.99999998245E-14  0.12500000000E+03  0.12500000000E+03 0.  0.
        -13    1    3    3    0    0  0.14518008829E+02 -0.38022209437E+02 -0.16965210924E+02  0.44094109999E+02  0.10566000000E+00 0.  1.
         23    2    1    0    0    0  0.18662919701E+02  0.84014239522E+00  0.19818329027E+02  0.97764424433E+02  0.93894121798E+02 0.  0.
         13    1    3    3    0    0  0.41449108726E+01  0.38862351833E+02  0.36783539951E+02  0.53670314434E+02  0.10566000000E+00 0. -1.
         22    1    1    0    0    0 -0.18662919701E+02 -0.84014239522E+00 -0.19818329027E+02  0.27235575567E+02  0.00000000000E+00 0. -1.
</event>
<event>
 5    1  0.1766627E-003  0.9118800E+02  0.7818608E-02  0.1130116E+00
         25   -1    0    0    0    0  0.00000000000E+00  0.00000000000E+00  0.99999998245E-14  0.12500000000E+03  0.12500000000E+03 0.  0.
        -13    1    3    3    0    0 -0.42938259151E+02 -0.26360349315E+02 -0.33867915202E+01  0.50497956748E+02  0.10566000000E+00 0.  1.
         23    2    1    0    0    0 -0.25047642325E+02  0.14797440887E+02 -0.53546928523E+01  0.95419239727E+02  0.90718299872E+02 0.  0.
         13    1    3    3    0    0  0.17890616826E+02  0.41157790202E+02 -0.19679013321E+01  0.44921282978E+02  0.10566000000E+00 0. -1.
         22    1    1    0    0    0  0.25047642325E+02 -0.14797440887E+02  0.53546928523E+01  0.29580760273E+02  0.00000000000E+00 0.  1.
</event>
<event>
 5    1  0.1766627E-003  0.9118800E+02  0.7818608E-02  0.1130116E+00
         25   -1    0    0    0    0  0.00000000000E+00  0.00000000000E+00  0.99999998245E-14  0.12500000000E+03  0.12500000000E+03 0.  0.
        -13    1    3    3    0    0  0.16900529830E+01  0.46250172629E+02  0.33290484085E+02  0.57010545007E+02  0.10566000000E+00 0. -1.
         23    2    1    0    0    0  0.18242442862E+02  0.20066033849E+02  0.88338588486E+01  0.96478613320E+02  0.92166443622E+02 0.  0.
         13    1    3    3    0    0  0.16552389879E+02 -0.26184138780E+02 -0.24456625237E+02  0.39468068313E+02  0.10566000000E+00 0.  1.
         22    1    1    0    0    0 -0.18242442862E+02 -0.20066033849E+02 -0.88338588486E+01  0.28521386680E+02  0.00000000000E+00 0. -1.
</event>
<event>
 5    1  0.1766627E-003  0.9118800E+02  0.7818608E-02  0.1130116E+00
         25   -1    0    0    0    0  0.00000000000E+00  0.00000000000E+00  0.99999998245E-14  0.12500000000E+03  0.12500000000E+03 0.  0.
        -13    1    3    3    0    0 -0.40631554560E+01  0.46207020921E+02  0.84452262262E+00  0.46393128771E+02  0.10566000000E+00 0.  1.
         23    2    1    0    0    0  0.15878937124E+02  0.39010444633E+01  0.21887251298E+02  0.97679484604E+02  0.93780974355E+02 0.  0.
         13    1    3    3    0    0  0.19942092580E+02 -0.42305976458E+02  0.21042728676E+02  0.51286355833E+02  0.10566000000E+00 0. -1.
         22    1    1    0    0    0 -0.15878937124E+02 -0.39010444633E+01 -0.21887251298E+02  0.27320515396E+02  0.00000000000E+00 0.  1.
</event>
<event>
 5    1  0.1766627E-003  0.9118800E+02  0.7818608E-02  0.1130116E+00
         25   -1    0    0    0    0  0.00000000000E+00  0.00000000000E+00  0.99999998245E-14  0.12500000000E+03  0.12500000000E+03 0.  0.
        -13    1    3    3    0    0 -0.10133260237E+01 -0.41970655454E+01  0.40100204534E+02  0.40332118175E+02  0.10566000000E+00 0. -1.
         23    2    1    0    0    0 -0.17460537542E+02 -0.20548235485E+02 -0.10554076258E+02  0.96043327566E+02  0.91574187910E+02 0.  0.
         13    1    3    3    0    0 -0.16447211518E+02 -0.16351169940E+02 -0.50654280792E+02  0.55711209390E+02  0.10566000000E+00 0.  1.
         22    1    1    0    0    0  0.17460537542E+02  0.20548235485E+02  0.10554076258E+02  0.28956672434E+02  0.00000000000E+00 0.  1.
</event>
<event>
 5    1  0.1766627E-003  0.9118800E+02  0.7818608E-02  0.1130116E+00
         25   -1    0    0    0    0  0.00000000000E+00  0.00000000000E+00  0.99999998245E-14  0.12500000000E+03  0.12500000000E+03 0.  0.
        -13    1    3    3    0    0 -0.12562049205E+02  0.90297073442E+01  0.30719118376E+02  0.34395000985E+02  0.10566000000E+00 0.  1.
         23    2    1    0    0    0  0.60966692912E+01 -0.17289970042E+02 -0.22098458939E+02  0.96286687269E+02  0.91905776844E+02 0.  0.
         13    1    3    3    0    0  0.18658718496E+02 -0.26319677386E+02 -0.52817577315E+02  0.61891686284E+02  0.10566000000E+00 0. -1.
         22    1    1    0    0    0 -0.60966692912E+01  0.17289970042E+02  0.22098458939E+02  0.28713312731E+02  0.00000000000E+00 0. -1.
</event>
<event>
 5    1  0.1766627E-003  0.9118800E+02  0.7818608E-02  0.1130116E+00
         25   -1    0    0    0    0  0.00000000000E+00  0.00000000000E+00  0.99999998245E-14  0.12500000000E+03  0.12500000000E+03 0.  0.
        -13    1    3    3    0    0 -0.25710811786E+02 -0.28678513368E+02 -0.48043209658E+01  0.38814889356E+02  0.10566000000E+00 0.  1.
         23    2    1    0    0    0  0.20621186831E+02 -0.41284167112E+01  0.19237266381E+02  0.96498252884E+02  0.92193075776E+02 0.  0.
         13    1    3    3    0    0  0.46331998617E+02  0.24550096657E+02  0.24041587347E+02  0.57683363528E+02  0.10566000000E+00 0. -1.
         22    1    1    0    0    0 -0.20621186831E+02  0.41284167112E+01 -0.19237266381E+02  0.28501747116E+02  0.00000000000E+00 0. -1.
</event>
<event>
 5    1  0.1766627E-003  0.9118800E+02  0.7818608E-02  0.1130116E+00
         25   -1    0    0    0    0  0.00000000000E+00  0.00000000000E+00  0.99999998245E-14  0.12500000000E+03  0.12500000000E+03 0.  0.
        -13    1    3    3    0    0  0.59778114030E+01 -0.24278570977E+02 -0.56204981666E+02  0.61515805823E+02  0.10566000000E+00 0. -1.
         23    2    1    0    0    0  0.94701058817E+01 -0.14915504486E+02 -0.24254784891E+02  0.94992504776E+02  0.90128387282E+02 0.  0.
         13    1    3    3    0    0  0.34922944787E+01  0.93630664913E+01  0.31950196775E+02  0.33476698954E+02  0.10566000000E+00 0.  1.
         22    1    1    0    0    0 -0.94701058817E+01  0.14915504486E+02  0.24254784891E+02  0.30007495224E+02  0.00000000000E+00 0. -1.
</event>
<event>
 5    1  0.1766627E-003  0.9118800E+02  0.7818608E-02  0.1130116E+00
         25   -1    0    0    0    0  0.00000000000E+00  0.00000000000E+00  0.99999998245E-14  0.12500000000E+03  0.12500000000E+03 0.  0.
        -13    1    3    3    0    0 -0.90469529245E+01 -0.28583950154E+02  0.13679187391E+02  0.32954831138E+02  0.10566000000E+00 0.  1.
         23    2    1    0    0    0  0.12564983707E+02  0.25900321942E+02 -0.74556134140E+01  0.95262958055E+02  0.90502704455E+02 0.  0.
         13    1    3    3    0    0  0.21611936631E+02  0.54484272096E+02 -0.21134800805E+02  0.62308126917E+02  0.10566000000E+00 0. -1.
         22    1    1    0    0    0 -0.12564983707E+02 -0.25900321942E+02  0.74556134140E+01  0.29737041945E+02  0.00000000000E+00 0. -1.
</event>
<event>
 5    1  0.1766627E-003  0.9118800E+02  0.7818608E-02  0.1130116E+00
         25   -1    0    0    0    0  0.00000000000E+00  0.00000000000E+00  0.99999998245E-14  0.12500000000E+03  0.12500000000E+03 0.  0.
        -13    1    3    3    0    0 -0.18418836939E+02 -0.32063037801E+02  0.99776266598E+01  0.38299558026E+02  0.10566000000E+00 0.  1.
         23    2    1    0    0    0  0.21013632120E+02  0.10688589954E+02  0.15598710958E+02  0.96730962634E+02  0.92508057263E+02 0.  0.
         13    1    3    3    0    0  0.39432469058E+02  0.42751627755E+02  0.56210842979E+01  0.58431404608E+02  0.10566000000E+00 0. -1.
         22    1    1    0    0    0 -0.21013632120E+02 -0.10688589954E+02 -0.15598710958E+02  0.28269037366E+02  0.00000000000E+00 0. -1.
</event>
<event>
 5    1  0.1766627E-003  0.9118800E+02  0.7818608E-02  0.1130116E+00
         25   -1    0    0    0    0  0.00000000000E+00  0.00000000000E+00  0.99999998245E-14  0.12500000000E+03  0.12500000000E+03 0.  0.
        -13    1    3    3    0    0  0.51320705876E+02 -0.20741722892E+02  0.11213166391E+02  0.56478138999E+02  0.10566000000E+00 0.  1.
         23    2    1    0    0    0  0.13204043906E+02 -0.22078943940E+02  0.15669079340E+02  0.94877805718E+02  0.89969169328E+02 0.  0.
         13    1    3    3    0    0 -0.38116661971E+02 -0.13372210479E+01  0.44559129492E+01  0.38399666720E+02  0.10566000000E+00 0. -1.
         22    1    1    0    0    0 -0.13204043906E+02  0.22078943940E+02 -0.15669079340E+02  0.30122194282E+02  0.00000000000E+00 0.  1.
</event>
<event>
 5    1  0.1766627E-003  0.9118800E+02  0.7818608E-02  0.1130116E+00
         25   -1    0    0    0    0  0.00000000000E+00  0.00000000000E+00  0.99999998245E-14  0.12500000000E+03  0.12500000000E+03 0.  0.
        -13    1    3    3    0    0  0.29386872414E+02 -0.20131255072E+02  0.18185589700E+02  0.39994781382E+02  0.10566000000E+00 0.  1.
         23    2    1    0    0    0  0.92520680225E+01  0.28379110253E+02  0.14660988842E+01  0.95114817930E+02  0.90297865326E+02 0.  0.
         13    1    3    3    0    0 -0.20134804392E+02  0.48510365325E+02 -0.16719490816E+02  0.55120036547E+02  0.10566000000E+00 0. -1.
         22    1    1    0    0    0 -0.92520680225E+01 -0.28379110253E+02 -0.14660988842E+01  0.29885182070E+02  0.00000000000E+00 0.  1.
</event>
<event>
 5    1  0.1766627E-003  0.9118800E+02  0.7818608E-02  0.1130116E+00
         25   -1    0    0    0    0  0.00000000000E+00  0.00000000000E+00  0.99999998245E-14  0.12500000000E+03  0.12500000000E+03 0.  0.
        -13    1    3    3    0    0 -0.82082446131E+01  0.18088083461E+02  0.30989654112E+02  0.36809290525E+02  0.10566000000E+00 0.  1.
         23    2    1    0    0    0  0.20113492957E+02  0.95152264684E+01 -0.19554169816E+02  0.95378087656E+02  0.90661579040E+02 0.  0.
         13    1    3    3    0    0  0.28321737570E+02 -0.85728569929E+01 -0.50543823929E+02  0.58568797131E+02  0.10566000000E+00 0. -1.
         22    1    1    0    0    0 -0.20113492957E+02 -0.95152264684E+01  0.19554169816E+02  0.29621912344E+02  0.00000000000E+00 0.  1.
</event>
<event>
 5    1  0.1766627E-003  0.9118800E+02  0.7818608E-02  0.1130116E+00
         25   -1    0    0    0    0  0.00000000000E+00  0.00000000000E+00  0.99999998245E-14  0.12500000000E+03  0.12500000000E+03 0.  0.
        -13    1    3    3    0    0  0.21521541182E+02  0.16762767911E+02 -0.55738475427E+02  0.62056070854E+02  0.10566000000E+00 0.  1.
         23    2    1    0    0    0  0.14258547208E+02  0.92398066111E+01 -0.23130776498E+02  0.96299599026E+02  0.91923336299E+02 0.  0.
         13    1    3    3    0    0 -0.72629939743E+01 -0.75229613001E+01  0.32607698929E+02  0.34243528172E+02  0.10566000000E+00 0. -1.
         22    1    1    0    0    0 -0.14258547208E+02 -0.92398066111E+01  0.23130776498E+02  0.28700400974E+02  0.00000000000E+00 0.  1.
</event>
<event>
 5    1  0.1766627E-003  0.9118800E+02  0.7818608E-02  0.1130116E+00
         25   -1    0    0    0    0  0.00000000000E+00  0.00000000000E+00  0.99999998245E-14  0.12500000000E+03  0.12500000000E+03 0.  0.
        -13    1    3    3    0    0 -0.14854645994E+02  0.27438191615E+02  0.11987655674E+02  0.33424989444E+02  0.10566000000E+00 0. -1.
         23    2    1    0    0    0 -0.28747389874E+02 -0.51249239303E+01  0.37797054411E+02  0.77237100255E+02  0.60698229495E+02 0.  0.
         13    1    3    3    0    0 -0.13892743880E+02 -0.32563115545E+02  0.25809398737E+02  0.43812110811E+02  0.10566000000E+00 0.  1.
         22    1    1    0    0    0  0.28747389874E+02  0.51249239303E+01 -0.37797054411E+02  0.47762899745E+02  0.00000000000E+00 0.  1.
</event>
<event>
 5    1  0.1766627E-003  0.9118800E+02  0.7818608E-02  0.1130116E+00
         25   -1    0    0    0    0  0.00000000000E+00  0.00000000000E+00  0.99999998245E-14  0.12500000000E+03  0.12500000000E+03 0.  0.
        -13    1    3    3    0    0 -0.37164796575E+02  0.29391073822E+02  0.39764688657E+02  0.61857084905E+02  0.10566000000E+00 0. -1.
         23    2    1    0    0    0 -0.11244565050E+02  0.15720856395E+02  0.19891300354E+02  0.97264654343E+02  0.93226410344E+02 0.  0.
         13    1    3    3    0    0  0.25920231526E+02 -0.13670217427E+02 -0.19873388303E+02  0.35407569438E+02  0.10566000000E+00 0.  1.
         22    1    1    0    0    0  0.11244565050E+02 -0.15720856395E+02 -0.19891300354E+02  0.27735345657E+02  0.00000000000E+00 0. -1.
</event>
<event>
 5    1  0.1766627E-003  0.9118800E+02  0.7818608E-02  0.1130116E+00
         25   -1    0    0    0    0  0.00000000000E+00  0.00000000000E+00  0.99999998245E-14  0.12500000000E+03  0.12500000000E+03 0.  0.
        -13    1    3    3    0    0  0.11930310098E+02 -0.38311737419E+02 -0.68288200439E+01  0.40703384016E+02  0.10566000000E+00 0.  1.
         23    2    1    0    0    0 -0.78567255025E+01  0.85846767406E+01 -0.27112092046E+02  0.95495926629E+02  0.90823904657E+02 0.  0.
         13    1    3    3    0    0 -0.19787035600E+02  0.46896414160E+02 -0.20283272002E+02  0.54792542613E+02  0.10566000000E+00 0. -1.
         22    1    1    0    0    0  0.78567255025E+01 -0.85846767406E+01  0.27112092046E+02  0.29504073371E+02  0.00000000000E+00 0. -1.
</event>
<event>
 5    1  0.1766627E-003  0.9118800E+02  0.7818608E-02  0.1130116E+00
         25   -1    0    0    0    0  0.00000000000E+00  0.00000000000E+00  0.99999998245E-14  0.12500000000E+03  0.12500000000E+03 0.  0.
        -13    1    3    3    0    0  0.26826489676E+02  0.68055874514E+01  0.43925389800E+02  0.51917507663E+02  0.10566000000E+00 0.  1.
         23    2    1    0    0    0  0.20156632620E+02 -0.19229429078E+02  0.95533422018E+01  0.95549581863E+02  0.90897719804E+02 0.  0.
         13    1    3    3    0    0 -0.66698570558E+01 -0.26035016530E+02 -0.34372047598E+02  0.43632074199E+02  0.10566000000E+00 0. -1.
         22    1    1    0    0    0 -0.20156632620E+02  0.19229429078E+02 -0.95533422018E+01  0.29450418137E+02  0.00000000000E+00 0.  1.
</event>
<event>
 5    1  0.1766627E-003  0.9118800E+02  0.7818608E-02  0.1130116E+00
         25   -1    0    0    0    0  0.00000000000E+00  0.00000000000E+00  0.99999998245E-14  0.12500000000E+03  0.12500000000E+03 0.  0.
        -13    1    3    3    0    0 -0.33183547878E+02  0.30699217032E+01  0.19584647141E+02  0.38654130914E+02  0.10566000000E+00 0.  1.
         23    2    1    0    0    0 -0.40428337197E+01  0.63078759458E+00 -0.29190683456E+02  0.95523935166E+02  0.90862444340E+02 0.  0.
         13    1    3    3    0    0  0.29140714158E+02 -0.24391341086E+01 -0.48775330597E+02  0.56869804252E+02  0.10566000000E+00 0. -1.
         22    1    1    0    0    0  0.40428337197E+01 -0.63078759458E+00  0.29190683456E+02  0.29476064834E+02  0.00000000000E+00 0. -1.
</event>
<event>
 5    1  0.1766627E-003  0.9118800E+02  0.7818608E-02  0.1130116E+00
         25   -1    0    0    0    0  0.00000000000E+00  0.00000000000E+00  0.99999998245E-14  0.12500000000E+03  0.12500000000E+03 0.  0.
        -13    1    3    3    0    0  0.22130912054E+02  0.12790106304E+02 -0.28991650661E+02  0.38650886920E+02  0.10566000000E+00 0. -1.
         23    2    1    0    0    0  0.60243787895E+01 -0.26188521769E+01  0.26102569173E+02  0.98083543250E+02  0.94318003650E+02 0.  0.
         13    1    3    3    0    0 -0.16106533265E+02 -0.15408958481E+02  0.55094219834E+02  0.59432656330E+02  0.10566000000E+00 0.  1.
         22    1    1    0    0    0 -0.60243787895E+01  0.26188521769E+01 -0.26102569173E+02  0.26916456750E+02  0.00000000000E+00 0.  1.
</event>
<event>
 5    1  0.1766627E-003  0.9118800E+02  0.7818608E-02  0.1130116E+00
         25   -1    0    0    0    0  0.00000000000E+00  0.00000000000E+00  0.99999998245E-14  0.12500000000E+03  0.12500000000E+03 0.  0.
        -13    1    3    3    0    0  0.24513599641E+02 -0.22013420822E+02  0.18735690188E+02  0.37901774556E+02  0.10566000000E+00 0.  1.
         23    2    1    0    0    0 -0.14089649890E+02  0.21153770092E+02  0.13942846403E+02  0.96010291672E+02  0.91529082362E+02 0.  0.
         13    1    3    3    0    0 -0.38603249532E+02  0.43167190914E+02 -0.47928437853E+01  0.58108517115E+02  0.10566000000E+00 0. -1.
         22    1    1    0    0    0  0.14089649890E+02 -0.21153770092E+02 -0.13942846403E+02  0.28989708328E+02  0.00000000000E+00 0. -1.
</event>
<event>
 5    1  0.1766627E-003  0.9118800E+02  0.7818608E-02  0.1130116E+00
         25   -1    0    0    0    0  0.00000000000E+00  0.00000000000E+00  0.99999998245E-14  0.12500000000E+03  0.12500000000E+03 0.  0.
        -13    1    3    3    0    0 -0.11184274825E+02 -0.39284875879E+02  0.30125574682E+02  0.50753826359E+02  0.10566000000E+00 0.  1.
         23    2    1    0    0    0  0.13408671206E+01  0.41629654751E+01  0.28673937561E+02  0.95994433268E+02  0.91507422196E+02 0.  0.
         13    1    3    3    0    0  0.12525141946E+02  0.43447841354E+02 -0.14516371205E+01  0.45240606909E+02  0.10566000000E+00 0. -1.
         22    1    1    0    0    0 -0.13408671206E+01 -0.41629654751E+01 -0.28673937561E+02  0.29005566732E+02  0.00000000000E+00 0. -1.
</event>
<event>
 5    1  0.1766627E-003  0.9118800E+02  0.7818608E-02  0.1130116E+00
         25   -1    0    0    0    0  0.00000000000E+00  0.00000000000E+00  0.99999998245E-14  0.12500000000E+03  0.12500000000E+03 0.  0.
        -13    1    3    3    0    0 -0.38076677450E+02  0.42779803568E+00 -0.38390854125E+01  0.38272263032E+02  0.10566000000E+00 0.  1.
         23    2    1    0    0    0  0.95016656555E+01 -0.98857324028E+00  0.27917788702E+02  0.95493020261E+02  0.90819904565E+02 0.  0.
         13    1    3    3    0    0  0.47578343105E+02 -0.14163712760E+01  0.31756874115E+02  0.57220757229E+02  0.10566000000E+00 0. -1.
         22    1    1    0    0    0 -0.95016656555E+01  0.98857324028E+00 -0.27917788702E+02  0.29506979739E+02  0.00000000000E+00 0. -1.
</event>
<event>
 5    1  0.1766627E-003  0.9118800E+02  0.7818608E-02  0.1130116E+00
         25   -1    0    0    0    0  0.00000000000E+00  0.00000000000E+00  0.99999998245E-14  0.12500000000E+03  0.12500000000E+03 0.  0.
        -13    1    3    3    0    0 -0.38817151331E+02 -0.50628560733E+00 -0.27394731452E+02  0.47513261706E+02  0.10566000000E+00 0. -1.
         23    2    1    0    0    0  0.47556003100E+01  0.13550005398E+02 -0.28254783666E+02  0.93305344605E+02  0.87757256972E+02 0.  0.
         13    1    3    3    0    0  0.43572751641E+02  0.14056291006E+02 -0.86005221455E+00  0.45792082899E+02  0.10566000000E+00 0.  1.
         22    1    1    0    0    0 -0.47556003100E+01 -0.13550005398E+02  0.28254783666E+02  0.31694655395E+02  0.00000000000E+00 0. -1.
</event>
<event>
 5    1  0.1766627E-003  0.9118800E+02  0.7818608E-02  0.1130116E+00
         25   -1    0    0    0    0  0.00000000000E+00  0.00000000000E+00  0.99999998245E-14  0.12500000000E+03  0.12500000000E+03 0.  0.
        -13    1    3    3    0    0 -0.29845763395E+02  0.43600785591E+02 -0.10491627388E+02  0.53869133148E+02  0.10566000000E+00 0.  1.
         23    2    1    0    0    0 -0.76786147893E+01  0.20677964237E+02  0.17921755262E+02  0.96579432769E+02  0.92303077914E+02 0.  0.
         13    1    3    3    0    0  0.22167148606E+02 -0.22922821354E+02  0.28413382650E+02  0.42710299622E+02  0.10566000000E+00 0. -1.
         22    1    1    0    0    0  0.76786147893E+01 -0.20677964237E+02 -0.17921755262E+02  0.28420567231E+02  0.00000000000E+00 0. -1.
</event>
<event>
 5    1  0.1766627E-003  0.9118800E+02  0.7818608E-02  0.1130116E+00
         25   -1    0    0    0    0  0.00000000000E+00  0.00000000000E+00  0.99999998245E-14  0.12500000000E+03  0.12500000000E+03 0.  0.
        -13    1    3    3    0    0  0.21965606888E+02 -0.28688120432E+02 -0.41136607841E+01  0.36365223895E+02  0.10566000000E+00 0.  1.
         23    2    1    0    0    0 -0.20397164606E+02 -0.39811480273E+02 -0.26679673078E+01  0.80187988943E+02  0.66498099489E+02 0.  0.
         13    1    3    3    0    0 -0.42362771493E+02 -0.11123359841E+02  0.14456934763E+01  0.43822765048E+02  0.10566000000E+00 0. -1.
         22    1    1    0    0    0  0.20397164606E+02  0.39811480273E+02  0.26679673078E+01  0.44812011057E+02  0.00000000000E+00 0. -1.
</event>
<event>
 5    1  0.1766627E-003  0.9118800E+02  0.7818608E-02  0.1130116E+00
         25   -1    0    0    0    0  0.00000000000E+00  0.00000000000E+00  0.99999998245E-14  0.12500000000E+03  0.12500000000E+03 0.  0.
        -13    1    3    3    0    0  0.27187022557E+02 -0.20248681409E+02  0.32332759845E+02  0.46846150509E+02  0.10566000000E+00 0.  1.
         23    2    1    0    0    0 -0.27970604456E+01 -0.27410242028E+02 -0.67587115029E+01  0.96630560521E+02  0.92372290922E+02 0.  0.
         13    1    3    3    0    0 -0.29984083002E+02 -0.71615606194E+01 -0.39091471348E+02  0.49784410012E+02  0.10566000000E+00 0. -1.
         22    1    1    0    0    0  0.27970604456E+01  0.27410242028E+02  0.67587115029E+01  0.28369439479E+02  0.00000000000E+00 0.  1.
</event>
<event>
 5    1  0.1766627E-003  0.9118800E+02  0.7818608E-02  0.1130116E+00
         25   -1    0    0    0    0  0.00000000000E+00  0.00000000000E+00  0.99999998245E-14  0.12500000000E+03  0.12500000000E+03 0.  0.
        -13    1    3    3    0    0 -0.13136027635E+02  0.48430717773E+02  0.15392979160E+01  0.50204285158E+02  0.10566000000E+00 0.  1.
         23    2    1    0    0    0  0.33796206883E+01  0.15667494195E+02  0.26110547991E+02  0.94362556785E+02  0.89250429670E+02 0.  0.
         13    1    3    3    0    0  0.16515648324E+02 -0.32763223579E+02  0.24571250075E+02  0.44158271627E+02  0.10566000000E+00 0. -1.
         22    1    1    0    0    0 -0.33796206883E+01 -0.15667494195E+02 -0.26110547991E+02  0.30637443215E+02  0.00000000000E+00 0.  1.
</event>
<event>
 5    1  0.1766627E-003  0.9118800E+02  0.7818608E-02  0.1130116E+00
         25   -1    0    0    0    0  0.00000000000E+00  0.00000000000E+00  0.99999998245E-14  0.12500000000E+03  0.12500000000E+03 0.  0.
        -13    1    3    3    0    0 -0.24844424914E+02 -0.43865668590E+02 -0.47099129486E+01  0.50632368838E+02  0.10566000000E+00 0.  1.
         23    2    1    0    0    0 -0.29044290672E+02 -0.16738132543E+01  0.78738993355E+01  0.94860810194E+02  0.89945553244E+02 0.  0.
         13    1    3    3    0    0 -0.41998657578E+01  0.42191855336E+02  0.12583812284E+02  0.44228441355E+02  0.10566000000E+00 0. -1.
         22    1    1    0    0    0  0.29044290672E+02  0.16738132543E+01 -0.78738993355E+01  0.30139189806E+02  0.00000000000E+00 0.  1.
</event>
<event>
 5    1  0.1766627E-003  0.9118800E+02  0.7818608E-02  0.1130116E+00
         25   -1    0    0    0    0  0.00000000000E+00  0.00000000000E+00  0.99999998245E-14  0.12500000000E+03  0.12500000000E+03 0.  0.
        -13    1    3    3    0    0  0.41091700597E+02  0.19226256857E+02 -0.23485168630E+02  0.51085625378E+02  0.10566000000E+00 0. -1.
         23    2    1    0    0    0  0.79086000453E+01 -0.11446193491E+02 -0.25099884214E+02  0.96302169287E+02  0.91926831348E+02 0.  0.
         13    1    3    3    0    0 -0.33183100551E+02 -0.30672450348E+02 -0.16147155833E+01  0.45216543908E+02  0.10566000000E+00 0.  1.
         22    1    1    0    0    0 -0.79086000453E+01  0.11446193491E+02  0.25099884214E+02  0.28697830713E+02  0.00000000000E+00 0. -1.
</event>
<event>
 5    1  0.1766627E-003  0.9118800E+02  0.7818608E-02  0.1130116E+00
         25   -1    0    0    0    0  0.00000000000E+00  0.00000000000E+00  0.99999998245E-14  0.12500000000E+03  0.12500000000E+03 0.  0.
        -13    1    3    3    0    0  0.46734923839E+02  0.17158406657E+02 -0.26270263062E+02  0.56291224099E+02  0.10566000000E+00 0. -1.
         23    2    1    0    0    0  0.20394132668E+02 -0.11884983415E+02 -0.14782323800E+02  0.97148777855E+02  0.93070910943E+02 0.  0.
         13    1    3    3    0    0 -0.26340791171E+02 -0.29043390072E+02  0.11487939262E+02  0.40857553756E+02  0.10566000000E+00 0.  1.
         22    1    1    0    0    0 -0.20394132668E+02  0.11884983415E+02  0.14782323800E+02  0.27851222145E+02  0.00000000000E+00 0. -1.
</event>
<event>
 5    1  0.1766627E-003  0.9118800E+02  0.7818608E-02  0.1130116E+00
         25   -1    0    0    0    0  0.00000000000E+00  0.00000000000E+00  0.99999998245E-14  0.12500000000E+03  0.12500000000E+03 0.  0.
        -13    1    3    3    0    0 -0.16132218436E+02  0.11977596641E+02  0.53925621182E+02  0.57547329016E+02  0.10566000000E+00 0.  1.
         23    2    1    0    0    0 -0.19072130307E+02  0.14957099801E+02  0.15435043588E+02  0.96264976780E+02  0.91876243910E+02 0.  0.
         13    1    3    3    0    0 -0.29399118707E+01  0.29795031600E+01 -0.38490577594E+02  0.38717647765E+02  0.10566000000E+00 0. -1.
         22    1    1    0    0    0  0.19072130307E+02 -0.14957099801E+02 -0.15435043588E+02  0.28735023220E+02  0.00000000000E+00 0.  1.
</event>
<event>
 5    1  0.1766627E-003  0.9118800E+02  0.7818608E-02  0.1130116E+00
         25   -1    0    0    0    0  0.00000000000E+00  0.00000000000E+00  0.99999998245E-14  0.12500000000E+03  0.12500000000E+03 0.  0.
        -13    1    3    3    0    0 -0.26577919973E+02  0.10390583078E+01  0.31133710683E+02  0.40948560136E+02  0.10566000000E+00 0. -1.
         23    2    1    0    0    0  0.76126666623E+01 -0.27783863493E+02 -0.12554667307E+01  0.96164744478E+02  0.91739773923E+02 0.  0.
         13    1    3    3    0    0  0.34190586636E+02 -0.28822921801E+02 -0.32389177414E+02  0.55216184342E+02  0.10566000000E+00 0.  1.
         22    1    1    0    0    0 -0.76126666623E+01  0.27783863493E+02  0.12554667307E+01  0.28835255522E+02  0.00000000000E+00 0.  1.
</event>
<event>
 5    1  0.1766627E-003  0.9118800E+02  0.7818608E-02  0.1130116E+00
         25   -1    0    0    0    0  0.00000000000E+00  0.00000000000E+00  0.99999998245E-14  0.12500000000E+03  0.12500000000E+03 0.  0.
        -13    1    3    3    0    0  0.20496239489E+01  0.49086059952E+02  0.74925816695E+01  0.49697003773E+02  0.10566000000E+00 0. -1.
         23    2    1    0    0    0  0.47390306081E+01  0.15159499533E+02 -0.24102250227E+02  0.96135015968E+02  0.91699258405E+02 0.  0.
         13    1    3    3    0    0  0.26894066593E+01 -0.33926560419E+02 -0.31594831896E+02  0.46438012195E+02  0.10566000000E+00 0.  1.
         22    1    1    0    0    0 -0.47390306081E+01 -0.15159499533E+02  0.24102250227E+02  0.28864984032E+02  0.00000000000E+00 0.  1.
</event>
<event>
 5    1  0.1766627E-003  0.9118800E+02  0.7818608E-02  0.1130116E+00
         25   -1    0    0    0    0  0.00000000000E+00  0.00000000000E+00  0.99999998245E-14  0.12500000000E+03  0.12500000000E+03 0.  0.
        -13    1    3    3    0    0  0.11019260693E+02 -0.33390184015E+01  0.32920393830E+02  0.34876018180E+02  0.10566000000E+00 0.  1.
         23    2    1    0    0    0  0.71197941155E+01  0.19462713501E+02 -0.22185629664E+02  0.94640638204E+02  0.89639051485E+02 0.  0.
         13    1    3    3    0    0 -0.38994665777E+01  0.22801731902E+02 -0.55106023494E+02  0.59764620025E+02  0.10566000000E+00 0. -1.
         22    1    1    0    0    0 -0.71197941155E+01 -0.19462713501E+02  0.22185629664E+02  0.30359361796E+02  0.00000000000E+00 0. -1.
</event>
<event>
 5    1  0.1766627E-003  0.9118800E+02  0.7818608E-02  0.1130116E+00
         25   -1    0    0    0    0  0.00000000000E+00  0.00000000000E+00  0.99999998245E-14  0.12500000000E+03  0.12500000000E+03 0.  0.
        -13    1    3    3    0    0 -0.47779476815E+01  0.35300090219E+02  0.76224679553E+01  0.36428537375E+02  0.10566000000E+00 0.  1.
         23    2    1    0    0    0  0.20559645677E+02  0.43890733603E+01 -0.28012568108E+02  0.89976194277E+02  0.82879723511E+02 0.  0.
         13    1    3    3    0    0  0.25337593358E+02 -0.30911016859E+02 -0.35635036063E+02  0.53547656902E+02  0.10566000000E+00 0. -1.
         22    1    1    0    0    0 -0.20559645677E+02 -0.43890733603E+01  0.28012568108E+02  0.35023805723E+02  0.00000000000E+00 0. -1.
</event>
<event>
 5    1  0.1766627E-003  0.9118800E+02  0.7818608E-02  0.1130116E+00
         25   -1    0    0    0    0  0.00000000000E+00  0.00000000000E+00  0.99999998245E-14  0.12500000000E+03  0.12500000000E+03 0.  0.
        -13    1    3    3    0    0  0.23882673379E+02  0.35972527393E+02 -0.11663087597E+01  0.43194632247E+02  0.10566000000E+00 0. -1.
         23    2    1    0    0    0 -0.23462878657E+02  0.44388187147E+01 -0.62776488597E+01  0.10030954311E+03  0.97223380811E+02 0.  0.
         13    1    3    3    0    0 -0.47345552037E+02 -0.31533708679E+02 -0.51113401001E+01  0.57114910858E+02  0.10566000000E+00 0.  1.
         22    1    1    0    0    0  0.23462878657E+02 -0.44388187147E+01  0.62776488597E+01  0.24690456895E+02  0.00000000000E+00 0.  1.
</event>
<event>
 5    1  0.1766627E-003  0.9118800E+02  0.7818608E-02  0.1130116E+00
         25   -1    0    0    0    0  0.00000000000E+00  0.00000000000E+00  0.99999998245E-14  0.12500000000E+03  0.12500000000E+03 0.  0.
        -13    1    3    3    0    0  0.19478304521E+02  0.44793508604E+02 -0.27979767586E+00  0.48846209790E+02  0.10566000000E+00 0. -1.
         23    2    1    0    0    0 -0.15083141725E+02  0.22079273678E+02  0.16612310274E+02  0.93520413867E+02  0.88063065282E+02 0.  0.
         13    1    3    3    0    0 -0.34561446246E+02 -0.22714234926E+02  0.16892107950E+02  0.44674204077E+02  0.10566000000E+00 0.  1.
         22    1    1    0    0    0  0.15083141725E+02 -0.22079273678E+02 -0.16612310274E+02  0.31479586133E+02  0.00000000000E+00 0. -1.
</event>
<event>
 5    1  0.1766627E-003  0.9118800E+02  0.7818608E-02  0.1130116E+00
         25   -1    0    0    0    0  0.00000000000E+00  0.00000000000E+00  0.99999998245E-14  0.12500000000E+03  0.12500000000E+03 0.  0.
        -13    1    3    3    0    0  0.32958365948E+02  0.17207017077E+02  0.74718500652E+01  0.37923278209E+02  0.10566000000E+00 0. -1.
         23    2    1    0    0    0  0.40110705355E+01 -0.26089766855E+02 -0.14991764620E+02  0.94643491179E+02  0.89643029817E+02 0.  0.
         13    1    3    3    0    0 -0.28947295413E+02 -0.43296783932E+02 -0.22463614685E+02  0.56720212970E+02  0.10566000000E+00 0.  1.
         22    1    1    0    0    0 -0.40110705355E+01  0.26089766855E+02  0.14991764620E+02  0.30356508821E+02  0.00000000000E+00 0.  1.
</event>
<event>
 5    1  0.1766627E-003  0.9118800E+02  0.7818608E-02  0.1130116E+00
         25   -1    0    0    0    0  0.00000000000E+00  0.00000000000E+00  0.99999998245E-14  0.12500000000E+03  0.12500000000E+03 0.  0.
        -13    1    3    3    0    0  0.18276405918E+02  0.20313820759E+02  0.37930122902E+02  0.46748087817E+02  0.10566000000E+00 0.  1.
         23    2    1    0    0    0  0.16416708393E+02  0.25929496150E+02 -0.81822245080E+01  0.93238452762E+02  0.87661925546E+02 0.  0.
         13    1    3    3    0    0 -0.18596975253E+01  0.56156753910E+01 -0.46112347410E+02  0.46490364945E+02  0.10566000000E+00 0. -1.
         22    1    1    0    0    0 -0.16416708393E+02 -0.25929496150E+02  0.81822245080E+01  0.31761547238E+02  0.00000000000E+00 0. -1.
</event>
<event>
 5    1  0.1766627E-003  0.9118800E+02  0.7818608E-02  0.1130116E+00
         25   -1    0    0    0    0  0.00000000000E+00  0.00000000000E+00  0.99999998245E-14  0.12500000000E+03  0.12500000000E+03 0.  0.
        -13    1    3    3    0    0  0.43489755711E+00 -0.45112156135E+02 -0.73799062101E+01  0.45714001648E+02  0.10566000000E+00 0.  1.
         23    2    1    0    0    0 -0.23574023470E+02 -0.31477231223E+01 -0.17950092874E+02  0.95203211958E+02  0.90420147033E+02 0.  0.
         13    1    3    3    0    0 -0.24008921027E+02  0.41964433012E+02 -0.10570186664E+02  0.49489210310E+02  0.10566000000E+00 0. -1.
         22    1    1    0    0    0  0.23574023470E+02  0.31477231223E+01  0.17950092874E+02  0.29796788042E+02  0.00000000000E+00 0. -1.
</event>
<event>
 5    1  0.1766627E-003  0.9118800E+02  0.7818608E-02  0.1130116E+00
         25   -1    0    0    0    0  0.00000000000E+00  0.00000000000E+00  0.99999998245E-14  0.12500000000E+03  0.12500000000E+03 0.  0.
        -13    1    3    3    0    0  0.23124202481E+02  0.13764202264E+02 -0.50294646621E+02  0.57041604528E+02  0.10566000000E+00 0.  1.
         23    2    1    0    0    0 -0.55288476435E+01  0.30991862701E+00 -0.29658758273E+02  0.94828719813E+02  0.89900945230E+02 0.  0.
         13    1    3    3    0    0 -0.28653050124E+02 -0.13454283637E+02  0.20635888348E+02  0.37787115285E+02  0.10566000000E+00 0. -1.
         22    1    1    0    0    0  0.55288476435E+01 -0.30991862701E+00  0.29658758273E+02  0.30171280187E+02  0.00000000000E+00 0.  1.
</event>
<event>
 5    1  0.1766627E-003  0.9118800E+02  0.7818608E-02  0.1130116E+00
         25   -1    0    0    0    0  0.00000000000E+00  0.00000000000E+00  0.99999998245E-14  0.12500000000E+03  0.12500000000E+03 0.  0.
        -13    1    3    3    0    0  0.17604819731E+02  0.19735001183E+02 -0.43460511666E+02  0.50874622238E+02  0.10566000000E+00 0.  1.
         23    2    1    0    0    0  0.28882036511E+02  0.10605524949E+01 -0.41920239595E+01  0.95796064144E+02  0.91236045705E+02 0.  0.
         13    1    3    3    0    0  0.11277216780E+02 -0.18674448688E+02  0.39268487707E+02  0.44921441906E+02  0.10566000000E+00 0. -1.
         22    1    1    0    0    0 -0.28882036511E+02 -0.10605524949E+01  0.41920239595E+01  0.29203935856E+02  0.00000000000E+00 0.  1.
</event>
<event>
 5    1  0.1766627E-003  0.9118800E+02  0.7818608E-02  0.1130116E+00
         25   -1    0    0    0    0  0.00000000000E+00  0.00000000000E+00  0.99999998245E-14  0.12500000000E+03  0.12500000000E+03 0.  0.
        -13    1    3    3    0    0 -0.23763791914E+01  0.87707982414E+01 -0.58944176532E+02  0.59640600189E+02  0.10566000000E+00 0.  1.
         23    2    1    0    0    0  0.11495275551E+02  0.83583082555E+01 -0.26478919699E+02  0.94947781025E+02  0.90066338087E+02 0.  0.
         13    1    3    3    0    0  0.13871654743E+02 -0.41248998589E+00  0.32465256834E+02  0.35307180836E+02  0.10566000000E+00 0. -1.
         22    1    1    0    0    0 -0.11495275551E+02 -0.83583082555E+01  0.26478919699E+02  0.30052218975E+02  0.00000000000E+00 0.  1.
</event>
<event>
 5    1  0.1766627E-003  0.9118800E+02  0.7818608E-02  0.1130116E+00
         25   -1    0    0    0    0  0.00000000000E+00  0.00000000000E+00  0.99999998245E-14  0.12500000000E+03  0.12500000000E+03 0.  0.
        -13    1    3    3    0    0  0.55069868208E+02 -0.82543096148E+01 -0.19885123333E+02  0.59129124006E+02  0.10566000000E+00 0. -1.
         23    2    1    0    0    0  0.21471763940E+02  0.84948419397E+01 -0.16076860581E+02  0.96863468010E+02  0.92686930052E+02 0.  0.
         13    1    3    3    0    0 -0.33598104268E+02  0.16749151555E+02  0.38082627528E+01  0.37734344004E+02  0.10566000000E+00 0.  1.
         22    1    1    0    0    0 -0.21471763940E+02 -0.84948419397E+01  0.16076860581E+02  0.28136531990E+02  0.00000000000E+00 0. -1.
</event>
<event>
 5    1  0.1766627E-003  0.9118800E+02  0.7818608E-02  0.1130116E+00
         25   -1    0    0    0    0  0.00000000000E+00  0.00000000000E+00  0.99999998245E-14  0.12500000000E+03  0.12500000000E+03 0.  0.
        -13    1    3    3    0    0 -0.36884472638E+02  0.16294534937E+02  0.86702784461E+01  0.41245134052E+02  0.10566000000E+00 0.  1.
         23    2    1    0    0    0 -0.86333036002E+01 -0.20575512820E+02 -0.19327430259E+02  0.95479918373E+02  0.90801869987E+02 0.  0.
         13    1    3    3    0    0  0.28251169037E+02 -0.36870047757E+02 -0.27997708705E+02  0.54234784321E+02  0.10566000000E+00 0. -1.
         22    1    1    0    0    0  0.86333036002E+01  0.20575512820E+02  0.19327430259E+02  0.29520081627E+02  0.00000000000E+00 0. -1.
</event>
<event>
 5    1  0.1766627E-003  0.9118800E+02  0.7818608E-02  0.1130116E+00
         25   -1    0    0    0    0  0.00000000000E+00  0.00000000000E+00  0.99999998245E-14  0.12500000000E+03  0.12500000000E+03 0.  0.
        -13    1    3    3    0    0 -0.14410754966E+02  0.55536618657E+01  0.30621493721E+02  0.34295773217E+02  0.10566000000E+00 0. -1.
         23    2    1    0    0    0  0.37979374007E+00  0.22963416766E+01 -0.29048778362E+02  0.95858123727E+02  0.91321032254E+02 0.  0.
         13    1    3    3    0    0  0.14790548706E+02 -0.32573201891E+01 -0.59670272083E+02  0.61562350510E+02  0.10566000000E+00 0.  1.
         22    1    1    0    0    0 -0.37979374007E+00 -0.22963416766E+01  0.29048778362E+02  0.29141876273E+02  0.00000000000E+00 0.  1.
</event>
<event>
 5    1  0.1766627E-003  0.9118800E+02  0.7818608E-02  0.1130116E+00
         25   -1    0    0    0    0  0.00000000000E+00  0.00000000000E+00  0.99999998245E-14  0.12500000000E+03  0.12500000000E+03 0.  0.
        -13    1    3    3    0    0  0.40109471403E+02 -0.12423257722E+02  0.25401604943E+02  0.49075041787E+02  0.10566000000E+00 0. -1.
         23    2    1    0    0    0 -0.16689757082E+01 -0.26401009993E+02  0.15876242786E+02  0.94147870518E+02  0.88949241872E+02 0.  0.
         13    1    3    3    0    0 -0.41778447111E+02 -0.13977752271E+02 -0.95253621568E+01  0.45072828731E+02  0.10566000000E+00 0.  1.
         22    1    1    0    0    0  0.16689757082E+01  0.26401009993E+02 -0.15876242786E+02  0.30852129482E+02  0.00000000000E+00 0. -1.
</event>
<event>
 5    1  0.1766627E-003  0.9118800E+02  0.7818608E-02  0.1130116E+00
         25   -1    0    0    0    0  0.00000000000E+00  0.00000000000E+00  0.99999998245E-14  0.12500000000E+03  0.12500000000E+03 0.  0.
        -13    1    3    3    0    0 -0.23277424897E+02 -0.20313726703E+02 -0.49175422847E+02  0.58075118412E+02  0.10566000000E+00 0. -1.
         23    2    1    0    0    0 -0.82748382083E+01  0.24203693938E+01 -0.35335560294E+02  0.88627854659E+02  0.80820564616E+02 0.  0.
         13    1    3    3    0    0  0.15002586688E+02  0.22734096096E+02  0.13839862553E+02  0.30552736247E+02  0.10566000000E+00 0.  1.
         22    1    1    0    0    0  0.82748382083E+01 -0.24203693938E+01  0.35335560294E+02  0.36372145341E+02  0.00000000000E+00 0. -1.
</event>
<event>
 5    1  0.1766627E-003  0.9118800E+02  0.7818608E-02  0.1130116E+00
         25   -1    0    0    0    0  0.00000000000E+00  0.00000000000E+00  0.99999998245E-14  0.12500000000E+03  0.12500000000E+03 0.  0.
        -13    1    3    3    0    0  0.32928004822E+02 -0.48388898048E+02  0.72905162294E+01  0.58982215513E+02  0.10566000000E+00 0. -1.
         23    2    1    0    0    0  0.25721882536E+02 -0.13768687727E+02 -0.26208537806E+01  0.95707323826E+02  0.91114383916E+02 0.  0.
         13    1    3    3    0    0 -0.72061222860E+01  0.34620210321E+02 -0.99113700100E+01  0.36725108313E+02  0.10566000000E+00 0.  1.
         22    1    1    0    0    0 -0.25721882536E+02  0.13768687727E+02  0.26208537806E+01  0.29292676174E+02  0.00000000000E+00 0. -1.
</event>
<event>
 5    1  0.1766627E-003  0.9118800E+02  0.7818608E-02  0.1130116E+00
         25   -1    0    0    0    0  0.00000000000E+00  0.00000000000E+00  0.99999998245E-14  0.12500000000E+03  0.12500000000E+03 0.  0.
        -13    1    3    3    0    0  0.38106237833E+02 -0.12170171035E+02 -0.45917303898E+02  0.60898344691E+02  0.10566000000E+00 0.  1.
         23    2    1    0    0    0  0.23999381509E+02 -0.69111113131E+01 -0.13572241269E+02  0.96575723308E+02  0.92298054297E+02 0.  0.
         13    1    3    3    0    0 -0.14106856325E+02  0.52590597223E+01  0.32345062629E+02  0.35677378617E+02  0.10566000000E+00 0. -1.
         22    1    1    0    0    0 -0.23999381509E+02  0.69111113131E+01  0.13572241269E+02  0.28424276692E+02  0.00000000000E+00 0.  1.
</event>
<event>
 5    1  0.1766627E-003  0.9118800E+02  0.7818608E-02  0.1130116E+00
         25   -1    0    0    0    0  0.00000000000E+00  0.00000000000E+00  0.99999998245E-14  0.12500000000E+03  0.12500000000E+03 0.  0.
        -13    1    3    3    0    0 -0.39696408096E+02  0.37130022215E+02 -0.23319487610E+01  0.54404894214E+02  0.10566000000E+00 0. -1.
         23    2    1    0    0    0 -0.33536547422E+02  0.50953154105E+01 -0.12919248037E+02  0.88701663648E+02  0.80934639753E+02 0.  0.
         13    1    3    3    0    0  0.61598606741E+01 -0.32034706805E+02 -0.10587299276E+02  0.34296769433E+02  0.10566000000E+00 0.  1.
         22    1    1    0    0    0  0.33536547422E+02 -0.50953154105E+01  0.12919248037E+02  0.36298336352E+02  0.00000000000E+00 0. -1.
</event>
<event>
 5    1  0.1766627E-003  0.9118800E+02  0.7818608E-02  0.1130116E+00
         25   -1    0    0    0    0  0.00000000000E+00  0.00000000000E+00  0.99999998245E-14  0.12500000000E+03  0.12500000000E+03 0.  0.
        -13    1    3    3    0    0 -0.51932810454E+02 -0.12067812851E+02  0.66565652298E+01  0.53730530737E+02  0.10566000000E+00 0. -1.
         23    2    1    0    0    0 -0.14805036570E+02 -0.57692152054E+01  0.24811525096E+02  0.95536722356E+02  0.90880034051E+02 0.  0.
         13    1    3    3    0    0  0.37127773884E+02  0.62985976453E+01  0.18154959866E+02  0.41806191619E+02  0.10566000000E+00 0.  1.
         22    1    1    0    0    0  0.14805036570E+02  0.57692152054E+01 -0.24811525096E+02  0.29463277644E+02  0.00000000000E+00 0. -1.
</event>
<event>
 5    1  0.1766627E-003  0.9118800E+02  0.7818608E-02  0.1130116E+00
         25   -1    0    0    0    0  0.00000000000E+00  0.00000000000E+00  0.99999998245E-14  0.12500000000E+03  0.12500000000E+03 0.  0.
        -13    1    3    3    0    0 -0.16236165721E+01  0.39670984428E+02 -0.17063760426E+02  0.43215809841E+02  0.10566000000E+00 0. -1.
         23    2    1    0    0    0 -0.15538360465E+02  0.10540411813E+02  0.23411691555E+02  0.94989198135E+02  0.90123801151E+02 0.  0.
         13    1    3    3    0    0 -0.13914743892E+02 -0.29130572615E+02  0.40475451980E+02  0.51773388295E+02  0.10566000000E+00 0.  1.
         22    1    1    0    0    0  0.15538360465E+02 -0.10540411813E+02 -0.23411691555E+02  0.30010801865E+02  0.00000000000E+00 0.  1.
</event>
<event>
 5    1  0.1766627E-003  0.9118800E+02  0.7818608E-02  0.1130116E+00
         25   -1    0    0    0    0  0.00000000000E+00  0.00000000000E+00  0.99999998245E-14  0.12500000000E+03  0.12500000000E+03 0.  0.
        -13    1    3    3    0    0  0.16982615142E+02  0.58812036914E+02  0.38977480317E-01  0.61215011119E+02  0.10566000000E+00 0.  1.
         23    2    1    0    0    0  0.49715322219E+01  0.28011048875E+02 -0.84031485230E+01  0.95336084264E+02  0.90603648194E+02 0.  0.
         13    1    3    3    0    0 -0.12011082920E+02 -0.30800988039E+02 -0.84421260033E+01  0.34121073145E+02  0.10566000000E+00 0. -1.
         22    1    1    0    0    0 -0.49715322219E+01 -0.28011048875E+02  0.84031485230E+01  0.29663915736E+02  0.00000000000E+00 0.  1.
</event>
<event>
 5    1  0.1766627E-003  0.9118800E+02  0.7818608E-02  0.1130116E+00
         25   -1    0    0    0    0  0.00000000000E+00  0.00000000000E+00  0.99999998245E-14  0.12500000000E+03  0.12500000000E+03 0.  0.
        -13    1    3    3    0    0 -0.17369915558E+02  0.11607012787E+02  0.28588259117E+02  0.35408140811E+02  0.10566000000E+00 0.  1.
         23    2    1    0    0    0  0.11079030278E+02 -0.20710809256E+02 -0.15362447489E+02  0.96934232154E+02  0.92782315333E+02 0.  0.
         13    1    3    3    0    0  0.28448945836E+02 -0.32317822043E+02 -0.43950706605E+02  0.61526091343E+02  0.10566000000E+00 0. -1.
         22    1    1    0    0    0 -0.11079030278E+02  0.20710809256E+02  0.15362447489E+02  0.28065767846E+02  0.00000000000E+00 0. -1.
</event>
<event>
 5    1  0.1766627E-003  0.9118800E+02  0.7818608E-02  0.1130116E+00
         25   -1    0    0    0    0  0.00000000000E+00  0.00000000000E+00  0.99999998245E-14  0.12500000000E+03  0.12500000000E+03 0.  0.
        -13    1    3    3    0    0 -0.25973756311E+02 -0.20121279542E+02  0.52425584377E+02  0.61870469278E+02  0.10566000000E+00 0. -1.
         23    2    1    0    0    0 -0.14196061703E+02 -0.14844350263E+02  0.22096084317E+02  0.94831807400E+02  0.89905238168E+02 0.  0.
         13    1    3    3    0    0  0.11777694608E+02  0.52769292792E+01 -0.30329500060E+02  0.32961338123E+02  0.10566000000E+00 0.  1.
         22    1    1    0    0    0  0.14196061703E+02  0.14844350263E+02 -0.22096084317E+02  0.30168192600E+02  0.00000000000E+00 0. -1.
</event>
<event>
 5    1  0.1766627E-003  0.9118800E+02  0.7818608E-02  0.1130116E+00
         25   -1    0    0    0    0  0.00000000000E+00  0.00000000000E+00  0.99999998245E-14  0.12500000000E+03  0.12500000000E+03 0.  0.
        -13    1    3    3    0    0 -0.38666523423E+02 -0.13850339017E+02  0.14104663792E+02  0.43426773185E+02  0.10566000000E+00 0.  1.
         23    2    1    0    0    0  0.81650505819E+01 -0.27380048428E+02 -0.53849411182E+01  0.95925394349E+02  0.91413065735E+02 0.  0.
         13    1    3    3    0    0  0.46831574005E+02 -0.13529709411E+02 -0.19489604910E+02  0.52498621164E+02  0.10566000000E+00 0. -1.
         22    1    1    0    0    0 -0.81650505819E+01  0.27380048428E+02  0.53849411182E+01  0.29074605651E+02  0.00000000000E+00 0. -1.
</event>
<event>
 5    1  0.1766627E-003  0.9118800E+02  0.7818608E-02  0.1130116E+00
         25   -1    0    0    0    0  0.00000000000E+00  0.00000000000E+00  0.99999998245E-14  0.12500000000E+03  0.12500000000E+03 0.  0.
        -13    1    3    3    0    0 -0.29279863320E+02 -0.26426941351E+02  0.19372369596E+01  0.39489969312E+02  0.10566000000E+00 0. -1.
         23    2    1    0    0    0  0.80089026987E+00  0.13047517328E+02  0.26935670040E+02  0.95059902235E+02  0.90221813099E+02 0.  0.
         13    1    3    3    0    0  0.30080753590E+02  0.39474458679E+02  0.24998433081E+02  0.55569932923E+02  0.10566000000E+00 0.  1.
         22    1    1    0    0    0 -0.80089026987E+00 -0.13047517328E+02 -0.26935670040E+02  0.29940097765E+02  0.00000000000E+00 0. -1.
</event>
<event>
 5    1  0.1766627E-003  0.9118800E+02  0.7818608E-02  0.1130116E+00
         25   -1    0    0    0    0  0.00000000000E+00  0.00000000000E+00  0.99999998245E-14  0.12500000000E+03  0.12500000000E+03 0.  0.
        -13    1    3    3    0    0  0.48304425260E+01  0.31316265760E+02  0.41698145980E+02  0.52371635628E+02  0.10566000000E+00 0.  1.
         23    2    1    0    0    0  0.14942705664E+02  0.37375936167E+02  0.14155732884E+02  0.82331160897E+02  0.70411577346E+02 0.  0.
         13    1    3    3    0    0  0.10112263138E+02  0.60596704071E+01 -0.27542413096E+02  0.29959525270E+02  0.10566000000E+00 0. -1.
         22    1    1    0    0    0 -0.14942705664E+02 -0.37375936167E+02 -0.14155732884E+02  0.42668839103E+02  0.00000000000E+00 0.  1.
</event>
<event>
 5    1  0.1766627E-003  0.9118800E+02  0.7818608E-02  0.1130116E+00
         25   -1    0    0    0    0  0.00000000000E+00  0.00000000000E+00  0.99999998245E-14  0.12500000000E+03  0.12500000000E+03 0.  0.
        -13    1    3    3    0    0 -0.36346145193E+02  0.76509464335E+01 -0.22220319584E+02  0.43282017261E+02  0.10566000000E+00 0.  1.
         23    2    1    0    0    0  0.11604705210E+02  0.25037058572E+02 -0.65977090113E+01  0.96626539705E+02  0.92366849715E+02 0.  0.
         13    1    3    3    0    0  0.47950850403E+02  0.17386112138E+02  0.15622610572E+02  0.53344522444E+02  0.10566000000E+00 0. -1.
         22    1    1    0    0    0 -0.11604705210E+02 -0.25037058572E+02  0.65977090113E+01  0.28373460295E+02  0.00000000000E+00 0. -1.
</event>
<event>
 5    1  0.1766627E-003  0.9118800E+02  0.7818608E-02  0.1130116E+00
         25   -1    0    0    0    0  0.00000000000E+00  0.00000000000E+00  0.99999998245E-14  0.12500000000E+03  0.12500000000E+03 0.  0.
        -13    1    3    3    0    0 -0.38256006973E+02  0.10001742557E+02 -0.12555302018E+02  0.41487392018E+02  0.10566000000E+00 0. -1.
         23    2    1    0    0    0 -0.10578820946E+01 -0.28669466689E+02 -0.15035738274E+01  0.96271648689E+02  0.91885320766E+02 0.  0.
         13    1    3    3    0    0  0.37198124878E+02 -0.38671209246E+02  0.11051728190E+02  0.54784256671E+02  0.10566000000E+00 0.  1.
         22    1    1    0    0    0  0.10578820946E+01  0.28669466689E+02  0.15035738274E+01  0.28728351311E+02  0.00000000000E+00 0.  1.
</event>
<event>
 5    1  0.1766627E-003  0.9118800E+02  0.7818608E-02  0.1130116E+00
         25   -1    0    0    0    0  0.00000000000E+00  0.00000000000E+00  0.99999998245E-14  0.12500000000E+03  0.12500000000E+03 0.  0.
        -13    1    3    3    0    0 -0.16863454628E+02  0.16039292517E+02 -0.57803356239E+02  0.62312712691E+02  0.10566000000E+00 0.  1.
         23    2    1    0    0    0 -0.72453307235E+01  0.39716003426E+01 -0.26976556003E+02  0.96786474869E+02  0.92583036876E+02 0.  0.
         13    1    3    3    0    0  0.96181239047E+01 -0.12067692174E+02  0.30826800236E+02  0.34473762178E+02  0.10566000000E+00 0. -1.
         22    1    1    0    0    0  0.72453307235E+01 -0.39716003426E+01  0.26976556003E+02  0.28213525131E+02  0.00000000000E+00 0.  1.
</event>
<event>
 5    1  0.1766627E-003  0.9118800E+02  0.7818608E-02  0.1130116E+00
         25   -1    0    0    0    0  0.00000000000E+00  0.00000000000E+00  0.99999998245E-14  0.12500000000E+03  0.12500000000E+03 0.  0.
        -13    1    3    3    0    0 -0.26655874093E+02  0.46326381096E+02 -0.80426414177E+01  0.54049648048E+02  0.10566000000E+00 0. -1.
         23    2    1    0    0    0 -0.28134998025E+02  0.48285544901E+01  0.52598963617E+00  0.96448822836E+02  0.92126031658E+02 0.  0.
         13    1    3    3    0    0 -0.14791239320E+01 -0.41497826606E+02  0.85686310538E+01  0.42399174789E+02  0.10566000000E+00 0.  1.
         22    1    1    0    0    0  0.28134998025E+02 -0.48285544901E+01 -0.52598963617E+00  0.28551177164E+02  0.00000000000E+00 0. -1.
</event>
<event>
 5    1  0.1766627E-003  0.9118800E+02  0.7818608E-02  0.1130116E+00
         25   -1    0    0    0    0  0.00000000000E+00  0.00000000000E+00  0.99999998245E-14  0.12500000000E+03  0.12500000000E+03 0.  0.
        -13    1    3    3    0    0  0.37139207883E+02  0.60693264093E+01  0.28087982477E+02  0.46958528607E+02  0.10566000000E+00 0. -1.
         23    2    1    0    0    0  0.28227068446E+02 -0.32496764473E+01 -0.15652639914E+02  0.92560318646E+02  0.86689559127E+02 0.  0.
         13    1    3    3    0    0 -0.89121394373E+01 -0.93190028567E+01 -0.43740622392E+02  0.45601790040E+02  0.10566000000E+00 0.  1.
         22    1    1    0    0    0 -0.28227068446E+02  0.32496764473E+01  0.15652639914E+02  0.32439681354E+02  0.00000000000E+00 0.  1.
</event>
<event>
 5    1  0.1766627E-003  0.9118800E+02  0.7818608E-02  0.1130116E+00
         25   -1    0    0    0    0  0.00000000000E+00  0.00000000000E+00  0.99999998245E-14  0.12500000000E+03  0.12500000000E+03 0.  0.
        -13    1    3    3    0    0 -0.19174009385E+02  0.47063250312E+02 -0.43768564526E+00  0.50821205206E+02  0.10566000000E+00 0.  1.
         23    2    1    0    0    0  0.16835385711E+02  0.20335040335E+02 -0.10168081205E+02  0.96709825860E+02  0.92479492133E+02 0.  0.
         13    1    3    3    0    0  0.36009395096E+02 -0.26728209977E+02 -0.97303955595E+01  0.45888620654E+02  0.10566000000E+00 0. -1.
         22    1    1    0    0    0 -0.16835385711E+02 -0.20335040335E+02  0.10168081205E+02  0.28290174140E+02  0.00000000000E+00 0.  1.
</event>
<event>
 5    1  0.1766627E-003  0.9118800E+02  0.7818608E-02  0.1130116E+00
         25   -1    0    0    0    0  0.00000000000E+00  0.00000000000E+00  0.99999998245E-14  0.12500000000E+03  0.12500000000E+03 0.  0.
        -13    1    3    3    0    0 -0.29432925965E+02  0.28189739216E+02  0.32939472059E+02  0.52402084992E+02  0.10566000000E+00 0.  1.
         23    2    1    0    0    0  0.54194647416E+01  0.28705505220E+02  0.10028414844E+02  0.94113988080E+02  0.88901614272E+02 0.  0.
         13    1    3    3    0    0  0.34852390706E+02  0.51576600392E+00 -0.22911057215E+02  0.41711903089E+02  0.10566000000E+00 0. -1.
         22    1    1    0    0    0 -0.54194647416E+01 -0.28705505220E+02 -0.10028414844E+02  0.30886011920E+02  0.00000000000E+00 0.  1.
</event>
<event>
 5    1  0.1766627E-003  0.9118800E+02  0.7818608E-02  0.1130116E+00
         25   -1    0    0    0    0  0.00000000000E+00  0.00000000000E+00  0.99999998245E-14  0.12500000000E+03  0.12500000000E+03 0.  0.
        -13    1    3    3    0    0  0.12044934030E+02  0.29527534162E+02  0.38121351053E+01  0.32116961992E+02  0.10566000000E+00 0. -1.
         23    2    1    0    0    0  0.13491856978E+02 -0.30186990936E+02  0.78262492290E+00  0.91925884317E+02  0.85769872795E+02 0.  0.
         13    1    3    3    0    0  0.14469229477E+01 -0.59714525098E+02 -0.30295101824E+01  0.59808922325E+02  0.10566000000E+00 0.  1.
         22    1    1    0    0    0 -0.13491856978E+02  0.30186990936E+02 -0.78262492290E+00  0.33074115683E+02  0.00000000000E+00 0.  1.
</event>
<event>
 5    1  0.1766627E-003  0.9118800E+02  0.7818608E-02  0.1130116E+00
         25   -1    0    0    0    0  0.00000000000E+00  0.00000000000E+00  0.99999998245E-14  0.12500000000E+03  0.12500000000E+03 0.  0.
        -13    1    3    3    0    0  0.45778939819E+02 -0.11983632460E+02  0.27903068671E+02  0.54935518412E+02  0.10566000000E+00 0.  1.
         23    2    1    0    0    0  0.15305050825E+02  0.14674697510E+02  0.19299801849E+02  0.96328172727E+02  0.91962183433E+02 0.  0.
         13    1    3    3    0    0 -0.30473888994E+02  0.26658329970E+02 -0.86032668220E+01  0.41392654315E+02  0.10566000000E+00 0. -1.
         22    1    1    0    0    0 -0.15305050825E+02 -0.14674697510E+02 -0.19299801849E+02  0.28671827273E+02  0.00000000000E+00 0.  1.
</event>
<event>
 5    1  0.1766627E-003  0.9118800E+02  0.7818608E-02  0.1130116E+00
         25   -1    0    0    0    0  0.00000000000E+00  0.00000000000E+00  0.99999998245E-14  0.12500000000E+03  0.12500000000E+03 0.  0.
        -13    1    3    3    0    0  0.20874133328E+01  0.46521197424E+02 -0.10811306154E+02  0.47806637709E+02  0.10566000000E+00 0.  1.
         23    2    1    0    0    0  0.53408847574E+01 -0.34195096716E+01 -0.24500742297E+02  0.99691810229E+02  0.96425891530E+02 0.  0.
         13    1    3    3    0    0  0.32534714246E+01 -0.49940707096E+02 -0.13689436143E+02  0.51885172521E+02  0.10566000000E+00 0. -1.
         22    1    1    0    0    0 -0.53408847574E+01  0.34195096716E+01  0.24500742297E+02  0.25308189771E+02  0.00000000000E+00 0. -1.
</event>
<event>
 5    1  0.1766627E-003  0.9118800E+02  0.7818608E-02  0.1130116E+00
         25   -1    0    0    0    0  0.00000000000E+00  0.00000000000E+00  0.99999998245E-14  0.12500000000E+03  0.12500000000E+03 0.  0.
        -13    1    3    3    0    0  0.37140827702E+02  0.13261445945E+02 -0.17376864135E+02  0.43096097296E+02  0.10566000000E+00 0. -1.
         23    2    1    0    0    0 -0.11071052354E+02  0.27547410850E+02 -0.48427177675E+01  0.94918777283E+02  0.90026075782E+02 0.  0.
         13    1    3    3    0    0 -0.48211880056E+02  0.14285964905E+02  0.12534146367E+02  0.51822679987E+02  0.10566000000E+00 0.  1.
         22    1    1    0    0    0  0.11071052354E+02 -0.27547410850E+02  0.48427177675E+01  0.30081222717E+02  0.00000000000E+00 0.  1.
</event>
<event>
 5    1  0.1766627E-003  0.9118800E+02  0.7818608E-02  0.1130116E+00
         25   -1    0    0    0    0  0.00000000000E+00  0.00000000000E+00  0.99999998245E-14  0.12500000000E+03  0.12500000000E+03 0.  0.
        -13    1    3    3    0    0 -0.51220551331E+02  0.27281082283E+02  0.10558890722E+02  0.58985622540E+02  0.10566000000E+00 0. -1.
         23    2    1    0    0    0 -0.28705419081E+02 -0.75556996448E+00  0.87156570660E+01  0.94991090511E+02  0.90126425802E+02 0.  0.
         13    1    3    3    0    0  0.22515132249E+02 -0.28036652248E+02 -0.18432336557E+01  0.36005467971E+02  0.10566000000E+00 0.  1.
         22    1    1    0    0    0  0.28705419081E+02  0.75556996448E+00 -0.87156570660E+01  0.30008909489E+02  0.00000000000E+00 0.  1.
</event>
<event>
 5    1  0.1766627E-003  0.9118800E+02  0.7818608E-02  0.1130116E+00
         25   -1    0    0    0    0  0.00000000000E+00  0.00000000000E+00  0.99999998245E-14  0.12500000000E+03  0.12500000000E+03 0.  0.
        -13    1    3    3    0    0  0.47959882945E+02 -0.12030006410E+02  0.11109621326E+01  0.49458233160E+02  0.10566000000E+00 0.  1.
         23    2    1    0    0    0  0.93790742920E+01 -0.66897037095E+01  0.26604350334E+02  0.96008438694E+02  0.91526551740E+02 0.  0.
         13    1    3    3    0    0 -0.38580808654E+02  0.53403027003E+01  0.25493388201E+02  0.46550205534E+02  0.10566000000E+00 0. -1.
         22    1    1    0    0    0 -0.93790742920E+01  0.66897037095E+01 -0.26604350334E+02  0.28991561306E+02  0.00000000000E+00 0.  1.
</event>
<event>
 5    1  0.1766627E-003  0.9118800E+02  0.7818608E-02  0.1130116E+00
         25   -1    0    0    0    0  0.00000000000E+00  0.00000000000E+00  0.99999998245E-14  0.12500000000E+03  0.12500000000E+03 0.  0.
        -13    1    3    3    0    0 -0.49024547215E+02  0.19841900600E+02 -0.14243768951E+02  0.54772286487E+02  0.10566000000E+00 0. -1.
         23    2    1    0    0    0 -0.22681352507E+02  0.52523779137E+01  0.15445903251E+02  0.97060652253E+02  0.92952477445E+02 0.  0.
         13    1    3    3    0    0  0.26343194708E+02 -0.14589522686E+02  0.29689672202E+02  0.42288365766E+02  0.10566000000E+00 0.  1.
         22    1    1    0    0    0  0.22681352507E+02 -0.52523779137E+01 -0.15445903251E+02  0.27939347747E+02  0.00000000000E+00 0. -1.
</event>
<event>
 5    1  0.1766627E-003  0.9118800E+02  0.7818608E-02  0.1130116E+00
         25   -1    0    0    0    0  0.00000000000E+00  0.00000000000E+00  0.99999998245E-14  0.12500000000E+03  0.12500000000E+03 0.  0.
        -13    1    3    3    0    0  0.11020365464E+02  0.91877735506E+01  0.49194956939E+02  0.51244693286E+02  0.10566000000E+00 0. -1.
         23    2    1    0    0    0  0.79717297403E+00  0.28023088082E+02  0.11312320516E+02  0.94769261573E+02  0.89818235305E+02 0.  0.
         13    1    3    3    0    0 -0.10223192490E+02  0.18835314531E+02 -0.37882636423E+02  0.43524568287E+02  0.10566000000E+00 0.  1.
         22    1    1    0    0    0 -0.79717297403E+00 -0.28023088082E+02 -0.11312320516E+02  0.30230738427E+02  0.00000000000E+00 0. -1.
</event>
<event>
 5    1  0.1766627E-003  0.9118800E+02  0.7818608E-02  0.1130116E+00
         25   -1    0    0    0    0  0.00000000000E+00  0.00000000000E+00  0.99999998245E-14  0.12500000000E+03  0.12500000000E+03 0.  0.
        -13    1    3    3    0    0 -0.21477905780E+01  0.37586657381E+02  0.74718245541E+01  0.38382406694E+02  0.10566000000E+00 0.  1.
         23    2    1    0    0    0 -0.32999287010E+02  0.30215772562E+01 -0.13473779749E+02  0.89228144960E+02  0.81743722939E+02 0.  0.
         13    1    3    3    0    0 -0.30851496432E+02 -0.34565080125E+02 -0.20945604303E+02  0.50845738266E+02  0.10566000000E+00 0. -1.
         22    1    1    0    0    0  0.32999287010E+02 -0.30215772562E+01  0.13473779749E+02  0.35771855040E+02  0.00000000000E+00 0. -1.
</event>
<event>
 5    1  0.1766627E-003  0.9118800E+02  0.7818608E-02  0.1130116E+00
         25   -1    0    0    0    0  0.00000000000E+00  0.00000000000E+00  0.99999998245E-14  0.12500000000E+03  0.12500000000E+03 0.  0.
        -13    1    3    3    0    0 -0.10727875087E+02 -0.19870186609E+02  0.41344681777E+02  0.47109505358E+02  0.10566000000E+00 0. -1.
         23    2    1    0    0    0 -0.22655612831E+02  0.15600305886E+02  0.10675174191E+02  0.95493972133E+02  0.90821214665E+02 0.  0.
         13    1    3    3    0    0 -0.11927737744E+02  0.35470492494E+02 -0.30669507586E+02  0.48384466775E+02  0.10566000000E+00 0.  1.
         22    1    1    0    0    0  0.22655612831E+02 -0.15600305886E+02 -0.10675174191E+02  0.29506027867E+02  0.00000000000E+00 0.  1.
</event>
<event>
 5    1  0.1766627E-003  0.9118800E+02  0.7818608E-02  0.1130116E+00
         25   -1    0    0    0    0  0.00000000000E+00  0.00000000000E+00  0.99999998245E-14  0.12500000000E+03  0.12500000000E+03 0.  0.
        -13    1    3    3    0    0  0.33252696594E+02 -0.27374168126E+02  0.31277771937E+02  0.53229663654E+02  0.10566000000E+00 0.  1.
         23    2    1    0    0    0  0.22807896209E+02 -0.19689522186E+02 -0.73580101869E+01  0.93983589387E+02  0.88718077903E+02 0.  0.
         13    1    3    3    0    0 -0.10444800385E+02  0.76846459406E+01 -0.38635782124E+02  0.40753925733E+02  0.10566000000E+00 0. -1.
         22    1    1    0    0    0 -0.22807896209E+02  0.19689522186E+02  0.73580101869E+01  0.31016410613E+02  0.00000000000E+00 0.  1.
</event>
<event>
 5    1  0.1766627E-003  0.9118800E+02  0.7818608E-02  0.1130116E+00
         25   -1    0    0    0    0  0.00000000000E+00  0.00000000000E+00  0.99999998245E-14  0.12500000000E+03  0.12500000000E+03 0.  0.
        -13    1    3    3    0    0 -0.13967245403E+02 -0.27094990253E+02 -0.39462292442E+02  0.49864878720E+02  0.10566000000E+00 0.  1.
         23    2    1    0    0    0  0.57445339072E+01  0.11569212582E+02 -0.27081977466E+02  0.94995336145E+02  0.90132314052E+02 0.  0.
         13    1    3    3    0    0  0.19711779310E+02  0.38664202835E+02  0.12380314976E+02  0.45130457425E+02  0.10566000000E+00 0. -1.
         22    1    1    0    0    0 -0.57445339072E+01 -0.11569212582E+02  0.27081977466E+02  0.30004663855E+02  0.00000000000E+00 0.  1.
</event>
<event>
 5    1  0.1766627E-003  0.9118800E+02  0.7818608E-02  0.1130116E+00
         25   -1    0    0    0    0  0.00000000000E+00  0.00000000000E+00  0.99999998245E-14  0.12500000000E+03  0.12500000000E+03 0.  0.
        -13    1    3    3    0    0 -0.10236531879E+02  0.35815961172E+02 -0.23483419013E+02  0.44034665801E+02  0.10566000000E+00 0. -1.
         23    2    1    0    0    0  0.21748223214E+02  0.15011443582E+02  0.11851022005E+02  0.96038381020E+02  0.91567435560E+02 0.  0.
         13    1    3    3    0    0  0.31984755093E+02 -0.20804517590E+02  0.35334441018E+02  0.52003715219E+02  0.10566000000E+00 0.  1.
         22    1    1    0    0    0 -0.21748223214E+02 -0.15011443582E+02 -0.11851022005E+02  0.28961618980E+02  0.00000000000E+00 0. -1.
</event>
<event>
 5    1  0.1766627E-003  0.9118800E+02  0.7818608E-02  0.1130116E+00
         25   -1    0    0    0    0  0.00000000000E+00  0.00000000000E+00  0.99999998245E-14  0.12500000000E+03  0.12500000000E+03 0.  0.
        -13    1    3    3    0    0 -0.49582650251E+00  0.37630070365E+02 -0.29008299917E+01  0.37745119131E+02  0.10566000000E+00 0.  1.
         23    2    1    0    0    0  0.20625284292E+02 -0.14324394501E+02  0.13908873388E+02  0.96293774389E+02  0.91915415449E+02 0.  0.
         13    1    3    3    0    0  0.21121110794E+02 -0.51954464866E+02  0.16809703380E+02  0.58548655257E+02  0.10566000000E+00 0. -1.
         22    1    1    0    0    0 -0.20625284292E+02  0.14324394501E+02 -0.13908873388E+02  0.28706225611E+02  0.00000000000E+00 0. -1.
</event>
<event>
 5    1  0.1766627E-003  0.9118800E+02  0.7818608E-02  0.1130116E+00
         25   -1    0    0    0    0  0.00000000000E+00  0.00000000000E+00  0.99999998245E-14  0.12500000000E+03  0.12500000000E+03 0.  0.
        -13    1    3    3    0    0 -0.49724826987E+02  0.16038260685E+02  0.25882910257E+01  0.52311515359E+02  0.10566000000E+00 0.  1.
         23    2    1    0    0    0 -0.17592430400E+02  0.24527885599E+02 -0.16460831742E+02  0.90618758588E+02  0.83843244493E+02 0.  0.
         13    1    3    3    0    0  0.32132396587E+02  0.84896249147E+01 -0.19049122768E+02  0.38307243229E+02  0.10566000000E+00 0. -1.
         22    1    1    0    0    0  0.17592430400E+02 -0.24527885599E+02  0.16460831742E+02  0.34381241412E+02  0.00000000000E+00 0.  1.
</event>
<event>
 5    1  0.1766627E-003  0.9118800E+02  0.7818608E-02  0.1130116E+00
         25   -1    0    0    0    0  0.00000000000E+00  0.00000000000E+00  0.99999998245E-14  0.12500000000E+03  0.12500000000E+03 0.  0.
        -13    1    3    3    0    0  0.10590421145E+02  0.30871611384E+02 -0.37412719488E+02  0.49648123358E+02  0.10566000000E+00 0.  1.
         23    2    1    0    0    0 -0.21327714344E+02  0.19034040375E+02 -0.63844530244E+01  0.95709603407E+02  0.91117511225E+02 0.  0.
         13    1    3    3    0    0 -0.31918135489E+02 -0.11837571009E+02  0.31028266464E+02  0.46061480049E+02  0.10566000000E+00 0. -1.
         22    1    1    0    0    0  0.21327714344E+02 -0.19034040375E+02  0.63844530244E+01  0.29290396593E+02  0.00000000000E+00 0.  1.
</event>
<event>
 5    1  0.1766627E-003  0.9118800E+02  0.7818608E-02  0.1130116E+00
         25   -1    0    0    0    0  0.00000000000E+00  0.00000000000E+00  0.99999998245E-14  0.12500000000E+03  0.12500000000E+03 0.  0.
        -13    1    3    3    0    0 -0.14977542755E+02  0.29468027717E+02 -0.30815231132E+02  0.45191604068E+02  0.10566000000E+00 0. -1.
         23    2    1    0    0    0 -0.26678621964E+02 -0.40121410336E+01  0.70936908158E+01  0.97104362438E+02  0.93011239157E+02 0.  0.
         13    1    3    3    0    0 -0.11701079210E+02 -0.33480168751E+02  0.37908921948E+02  0.51912758370E+02  0.10566000000E+00 0.  1.
         22    1    1    0    0    0  0.26678621964E+02  0.40121410336E+01 -0.70936908158E+01  0.27895637562E+02  0.00000000000E+00 0.  1.
</event>
<event>
 5    1  0.1766627E-003  0.9118800E+02  0.7818608E-02  0.1130116E+00
         25   -1    0    0    0    0  0.00000000000E+00  0.00000000000E+00  0.99999998245E-14  0.12500000000E+03  0.12500000000E+03 0.  0.
        -13    1    3    3    0    0  0.22074317738E+02  0.23196544000E+02 -0.23987538359E+02  0.40009602819E+02  0.10566000000E+00 0. -1.
         23    2    1    0    0    0  0.69076841371E+01 -0.27490984912E+02 -0.50292279109E+01  0.96211747449E+02  0.91803795468E+02 0.  0.
         13    1    3    3    0    0 -0.15166633601E+02 -0.50687528912E+02  0.18958310448E+02  0.56202144630E+02  0.10566000000E+00 0.  1.
         22    1    1    0    0    0 -0.69076841371E+01  0.27490984912E+02  0.50292279109E+01  0.28788252551E+02  0.00000000000E+00 0.  1.
</event>
<event>
 5    1  0.1766627E-003  0.9118800E+02  0.7818608E-02  0.1130116E+00
         25   -1    0    0    0    0  0.00000000000E+00  0.00000000000E+00  0.99999998245E-14  0.12500000000E+03  0.12500000000E+03 0.  0.
        -13    1    3    3    0    0 -0.25106575422E+02 -0.11171878502E+02 -0.30114738343E+02  0.40768365532E+02  0.10566000000E+00 0.  1.
         23    2    1    0    0    0 -0.20150351431E+02  0.57968053064E+01  0.21284335809E+02  0.95122540848E+02  0.90308555585E+02 0.  0.
         13    1    3    3    0    0  0.49562239907E+01  0.16968683808E+02  0.51399074152E+02  0.54354175315E+02  0.10566000000E+00 0. -1.
         22    1    1    0    0    0  0.20150351431E+02 -0.57968053064E+01 -0.21284335809E+02  0.29877459152E+02  0.00000000000E+00 0. -1.
</event>
<event>
 5    1  0.1766627E-003  0.9118800E+02  0.7818608E-02  0.1130116E+00
         25   -1    0    0    0    0  0.00000000000E+00  0.00000000000E+00  0.99999998245E-14  0.12500000000E+03  0.12500000000E+03 0.  0.
        -13    1    3    3    0    0 -0.20252560277E+02  0.18909087362E+02 -0.23997018355E+02  0.36654983790E+02  0.10566000000E+00 0.  1.
         23    2    1    0    0    0 -0.11295613646E+02 -0.19036163525E+02  0.19806899998E+02  0.95296806621E+02  0.90549443153E+02 0.  0.
         13    1    3    3    0    0  0.89569466312E+01 -0.37945250887E+02  0.43803918354E+02  0.58641822831E+02  0.10566000000E+00 0. -1.
         22    1    1    0    0    0  0.11295613646E+02  0.19036163525E+02 -0.19806899998E+02  0.29703193379E+02  0.00000000000E+00 0. -1.
</event>
<event>
 5    1  0.1766627E-003  0.9118800E+02  0.7818608E-02  0.1130116E+00
         25   -1    0    0    0    0  0.00000000000E+00  0.00000000000E+00  0.99999998245E-14  0.12500000000E+03  0.12500000000E+03 0.  0.
        -13    1    3    3    0    0 -0.23350815568E+02 -0.10727638605E+02 -0.27686040513E+02  0.37773943679E+02  0.10566000000E+00 0. -1.
         23    2    1    0    0    0  0.28640320534E+02  0.28445212693E+01 -0.67814975503E+01  0.95430624448E+02  0.90733985429E+02 0.  0.
         13    1    3    3    0    0  0.51991136102E+02  0.13572159875E+02  0.20904542962E+02  0.57656680769E+02  0.10566000000E+00 0.  1.
         22    1    1    0    0    0 -0.28640320534E+02 -0.28445212693E+01  0.67814975503E+01  0.29569375552E+02  0.00000000000E+00 0.  1.
</event>
<event>
 5    1  0.1766627E-003  0.9118800E+02  0.7818608E-02  0.1130116E+00
         25   -1    0    0    0    0  0.00000000000E+00  0.00000000000E+00  0.99999998245E-14  0.12500000000E+03  0.12500000000E+03 0.  0.
        -13    1    3    3    0    0 -0.48208999845E+02  0.24127909723E+02  0.24917713187E+01  0.53967432605E+02  0.10566000000E+00 0. -1.
         23    2    1    0    0    0 -0.99615639520E+01  0.15308424531E+02  0.20834704706E+02  0.97293222162E+02  0.93264706832E+02 0.  0.
         13    1    3    3    0    0  0.38247435893E+02 -0.88194851917E+01  0.18342933388E+02  0.43325789557E+02  0.10566000000E+00 0.  1.
         22    1    1    0    0    0  0.99615639520E+01 -0.15308424531E+02 -0.20834704706E+02  0.27706777838E+02  0.00000000000E+00 0.  1.
</event>
<event>
 5    1  0.1766627E-003  0.9118800E+02  0.7818608E-02  0.1130116E+00
         25   -1    0    0    0    0  0.00000000000E+00  0.00000000000E+00  0.99999998245E-14  0.12500000000E+03  0.12500000000E+03 0.  0.
        -13    1    3    3    0    0 -0.14305649600E+02 -0.16933466227E+02 -0.54830323961E+02  0.59141943481E+02  0.10566000000E+00 0. -1.
         23    2    1    0    0    0 -0.54472424938E+01  0.78436611123E+00 -0.41769873487E+02  0.82869132313E+02  0.71360234572E+02 0.  0.
         13    1    3    3    0    0  0.88584071062E+01  0.17717832338E+02  0.13060450474E+02  0.23727188832E+02  0.10566000000E+00 0.  1.
         22    1    1    0    0    0  0.54472424938E+01 -0.78436611123E+00  0.41769873487E+02  0.42130867687E+02  0.00000000000E+00 0. -1.
</event>
<event>
 5    1  0.1766627E-003  0.9118800E+02  0.7818608E-02  0.1130116E+00
         25   -1    0    0    0    0  0.00000000000E+00  0.00000000000E+00  0.99999998245E-14  0.12500000000E+03  0.12500000000E+03 0.  0.
        -13    1    3    3    0    0  0.16760839232E+01  0.28553298285E+02  0.39298893460E+02  0.48605702253E+02  0.10566000000E+00 0. -1.
         23    2    1    0    0    0  0.66859322795E+01 -0.16187368029E+02  0.22105295831E+02  0.96797576737E+02  0.92598024732E+02 0.  0.
         13    1    3    3    0    0  0.50098483562E+01 -0.44740666314E+02 -0.17193597629E+02  0.48191874484E+02  0.10566000000E+00 0.  1.
         22    1    1    0    0    0 -0.66859322795E+01  0.16187368029E+02 -0.22105295831E+02  0.28202423263E+02  0.00000000000E+00 0. -1.
</event>
<event>
 5    1  0.1766627E-003  0.9118800E+02  0.7818608E-02  0.1130116E+00
         25   -1    0    0    0    0  0.00000000000E+00  0.00000000000E+00  0.99999998245E-14  0.12500000000E+03  0.12500000000E+03 0.  0.
        -13    1    3    3    0    0  0.19958244015E+02  0.23235082183E+02  0.45622741086E+02  0.54951307686E+02  0.10566000000E+00 0.  1.
         23    2    1    0    0    0  0.17893655401E+02 -0.95350658165E+01  0.18801485138E+02  0.97348666811E+02  0.93338988117E+02 0.  0.
         13    1    3    3    0    0 -0.20645886138E+01 -0.32770148000E+02 -0.26821255948E+02  0.42397359125E+02  0.10566000000E+00 0. -1.
         22    1    1    0    0    0 -0.17893655401E+02  0.95350658165E+01 -0.18801485138E+02  0.27651333189E+02  0.00000000000E+00 0.  1.
</event>
<event>
 5    1  0.1766627E-003  0.9118800E+02  0.7818608E-02  0.1130116E+00
         25   -1    0    0    0    0  0.00000000000E+00  0.00000000000E+00  0.99999998245E-14  0.12500000000E+03  0.12500000000E+03 0.  0.
        -13    1    3    3    0    0  0.10959281903E+01  0.23703872044E+02 -0.22623906621E+02  0.32786078194E+02  0.10566000000E+00 0. -1.
         23    2    1    0    0    0 -0.23015918600E+02 -0.22553197546E+02  0.59012521549E+01  0.92240207486E+02  0.86226746846E+02 0.  0.
         13    1    3    3    0    0 -0.24111846791E+02 -0.46257069590E+02  0.28525158776E+02  0.59454129293E+02  0.10566000000E+00 0.  1.
         22    1    1    0    0    0  0.23015918600E+02  0.22553197546E+02 -0.59012521549E+01  0.32759792514E+02  0.00000000000E+00 0.  1.
</event>
<event>
 5    1  0.1766627E-003  0.9118800E+02  0.7818608E-02  0.1130116E+00
         25   -1    0    0    0    0  0.00000000000E+00  0.00000000000E+00  0.99999998245E-14  0.12500000000E+03  0.12500000000E+03 0.  0.
        -13    1    3    3    0    0  0.20687885807E+02  0.27771251797E+02  0.28882308729E+02  0.45093569021E+02  0.10566000000E+00 0. -1.
         23    2    1    0    0    0 -0.10721796110E+02 -0.68034564882E+01  0.30634325800E+02  0.91838186883E+02  0.85641968220E+02 0.  0.
         13    1    3    3    0    0 -0.31409681917E+02 -0.34574708285E+02  0.17520170712E+01  0.46744617862E+02  0.10566000000E+00 0.  1.
         22    1    1    0    0    0  0.10721796110E+02  0.68034564882E+01 -0.30634325800E+02  0.33161813117E+02  0.00000000000E+00 0.  1.
</event>
<event>
 5    1  0.1766627E-003  0.9118800E+02  0.7818608E-02  0.1130116E+00
         25   -1    0    0    0    0  0.00000000000E+00  0.00000000000E+00  0.99999998245E-14  0.12500000000E+03  0.12500000000E+03 0.  0.
        -13    1    3    3    0    0 -0.29900715927E+02  0.21092541606E+02 -0.22364074153E+02  0.42884858646E+02  0.10566000000E+00 0.  1.
         23    2    1    0    0    0  0.14472164960E+02 -0.74156687982E+01 -0.24413705565E+02  0.95666321032E+02  0.91058114730E+02 0.  0.
         13    1    3    3    0    0  0.44372880887E+02 -0.28508210405E+02 -0.20496314124E+01  0.52781462386E+02  0.10566000000E+00 0. -1.
         22    1    1    0    0    0 -0.14472164960E+02  0.74156687982E+01  0.24413705565E+02  0.29333678968E+02  0.00000000000E+00 0. -1.
</event>
<event>
 5    1  0.1766627E-003  0.9118800E+02  0.7818608E-02  0.1130116E+00
         25   -1    0    0    0    0  0.00000000000E+00  0.00000000000E+00  0.99999998245E-14  0.12500000000E+03  0.12500000000E+03 0.  0.
        -13    1    3    3    0    0 -0.50462740738E+02 -0.27123759164E+02  0.15995107368E+02  0.59481435236E+02  0.10566000000E+00 0.  1.
         23    2    1    0    0    0 -0.29122342780E+02 -0.12760136708E+02 -0.51620492382E+01  0.92788531698E+02  0.87018003451E+02 0.  0.
         13    1    3    3    0    0  0.21340397958E+02  0.14363622456E+02 -0.21157156606E+02  0.33307096462E+02  0.10566000000E+00 0. -1.
         22    1    1    0    0    0  0.29122342780E+02  0.12760136708E+02  0.51620492382E+01  0.32211468302E+02  0.00000000000E+00 0.  1.
</event>
<event>
 5    1  0.1766627E-003  0.9118800E+02  0.7818608E-02  0.1130116E+00
         25   -1    0    0    0    0  0.00000000000E+00  0.00000000000E+00  0.99999998245E-14  0.12500000000E+03  0.12500000000E+03 0.  0.
        -13    1    3    3    0    0  0.27158385390E+02 -0.31860284440E+02  0.71704604949E+01  0.42474489865E+02  0.10566000000E+00 0. -1.
         23    2    1    0    0    0  0.13278660151E+02  0.21274512850E+02  0.11188189038E+02  0.97539058895E+02  0.93593614760E+02 0.  0.
         13    1    3    3    0    0 -0.13879725238E+02  0.53134797290E+02  0.40177285427E+01  0.55064569030E+02  0.10566000000E+00 0.  1.
         22    1    1    0    0    0 -0.13278660151E+02 -0.21274512850E+02 -0.11188189038E+02  0.27460941105E+02  0.00000000000E+00 0.  1.
</event>
<event>
 5    1  0.1766627E-003  0.9118800E+02  0.7818608E-02  0.1130116E+00
         25   -1    0    0    0    0  0.00000000000E+00  0.00000000000E+00  0.99999998245E-14  0.12500000000E+03  0.12500000000E+03 0.  0.
        -13    1    3    3    0    0  0.34513858768E+02 -0.31109289713E+02 -0.92076447426E+01  0.47368620829E+02  0.10566000000E+00 0. -1.
         23    2    1    0    0    0 -0.22651911106E-03 -0.19183432789E+02  0.22289296751E+02  0.95592231583E+02  0.90956351596E+02 0.  0.
         13    1    3    3    0    0 -0.34514085287E+02  0.11925856924E+02  0.31496941494E+02  0.48223610754E+02  0.10566000000E+00 0.  1.
         22    1    1    0    0    0  0.22651911106E-03  0.19183432789E+02 -0.22289296751E+02  0.29407768417E+02  0.00000000000E+00 0. -1.
</event>
<event>
 5    1  0.1766627E-003  0.9118800E+02  0.7818608E-02  0.1130116E+00
         25   -1    0    0    0    0  0.00000000000E+00  0.00000000000E+00  0.99999998245E-14  0.12500000000E+03  0.12500000000E+03 0.  0.
        -13    1    3    3    0    0 -0.22126060346E+02  0.23551440816E+02 -0.40128125665E+02  0.51521942358E+02  0.10566000000E+00 0.  1.
         23    2    1    0    0    0 -0.11682763820E+02  0.27251868393E+02  0.21921121876E+01  0.95268591402E+02  0.90510484754E+02 0.  0.
         13    1    3    3    0    0  0.10443296526E+02  0.37004275774E+01  0.42320237853E+02  0.43746649044E+02  0.10566000000E+00 0. -1.
         22    1    1    0    0    0  0.11682763820E+02 -0.27251868393E+02 -0.21921121876E+01  0.29731408598E+02  0.00000000000E+00 0.  1.
</event>
<event>
 5    1  0.1766627E-003  0.9118800E+02  0.7818608E-02  0.1130116E+00
         25   -1    0    0    0    0  0.00000000000E+00  0.00000000000E+00  0.99999998245E-14  0.12500000000E+03  0.12500000000E+03 0.  0.
        -13    1    3    3    0    0 -0.20683231462E+02  0.22719215132E+02 -0.11721431273E+02  0.32884067800E+02  0.10566000000E+00 0. -1.
         23    2    1    0    0    0  0.19882014141E+02 -0.20406547131E+02  0.82011621923E+01  0.95352391101E+02  0.90626142890E+02 0.  0.
         13    1    3    3    0    0  0.40565245603E+02 -0.43125762263E+02  0.19922593465E+02  0.62468323301E+02  0.10566000000E+00 0.  1.
         22    1    1    0    0    0 -0.19882014141E+02  0.20406547131E+02 -0.82011621923E+01  0.29647608899E+02  0.00000000000E+00 0.  1.
</event>
<event>
 5    1  0.1766627E-003  0.9118800E+02  0.7818608E-02  0.1130116E+00
         25   -1    0    0    0    0  0.00000000000E+00  0.00000000000E+00  0.99999998245E-14  0.12500000000E+03  0.12500000000E+03 0.  0.
        -13    1    3    3    0    0  0.20685634588E+02  0.45272130527E+02 -0.76488433421E+01  0.50358487361E+02  0.10566000000E+00 0.  1.
         23    2    1    0    0    0  0.23863767914E+02  0.81415840170E+01  0.16592865276E+02  0.94815765913E+02  0.89882932075E+02 0.  0.
         13    1    3    3    0    0  0.31781333260E+01 -0.37130546510E+02  0.24241708618E+02  0.44457278553E+02  0.10566000000E+00 0. -1.
         22    1    1    0    0    0 -0.23863767914E+02 -0.81415840170E+01 -0.16592865276E+02  0.30184234087E+02  0.00000000000E+00 0. -1.
</event>
<event>
 5    1  0.1766627E-003  0.9118800E+02  0.7818608E-02  0.1130116E+00
         25   -1    0    0    0    0  0.00000000000E+00  0.00000000000E+00  0.99999998245E-14  0.12500000000E+03  0.12500000000E+03 0.  0.
        -13    1    3    3    0    0  0.28917861155E+02 -0.21802349921E+02 -0.24650450838E+02  0.43809143411E+02  0.10566000000E+00 0.  1.
         23    2    1    0    0    0 -0.18366696932E+02 -0.18537430860E+02  0.30814680154E+01  0.98723254687E+02  0.95162039027E+02 0.  0.
         13    1    3    3    0    0 -0.47284558087E+02  0.32649190603E+01  0.27731918853E+02  0.54914111276E+02  0.10566000000E+00 0. -1.
         22    1    1    0    0    0  0.18366696932E+02  0.18537430860E+02 -0.30814680154E+01  0.26276745313E+02  0.00000000000E+00 0. -1.
</event>
<event>
 5    1  0.1766627E-003  0.9118800E+02  0.7818608E-02  0.1130116E+00
         25   -1    0    0    0    0  0.00000000000E+00  0.00000000000E+00  0.99999998245E-14  0.12500000000E+03  0.12500000000E+03 0.  0.
        -13    1    3    3    0    0  0.12777381910E+02  0.74076915229E+01 -0.47296160629E+02  0.49548696818E+02  0.10566000000E+00 0.  1.
         23    2    1    0    0    0  0.18368647536E+02 -0.19750655506E+02 -0.95451614549E+01  0.96388713548E+02  0.92044437024E+02 0.  0.
         13    1    3    3    0    0  0.55912656261E+01 -0.27158347029E+02  0.37750999174E+02  0.46840016730E+02  0.10566000000E+00 0. -1.
         22    1    1    0    0    0 -0.18368647536E+02  0.19750655506E+02  0.95451614549E+01  0.28611286452E+02  0.00000000000E+00 0.  1.
</event>
<event>
 5    1  0.1766627E-003  0.9118800E+02  0.7818608E-02  0.1130116E+00
         25   -1    0    0    0    0  0.00000000000E+00  0.00000000000E+00  0.99999998245E-14  0.12500000000E+03  0.12500000000E+03 0.  0.
        -13    1    3    3    0    0  0.45811324891E+00  0.25578224205E+02  0.42324031857E+02  0.49454931584E+02  0.10566000000E+00 0.  1.
         23    2    1    0    0    0 -0.24401933603E+02  0.97173606533E+01  0.30640944561E+01  0.98556283611E+02  0.94942461010E+02 0.  0.
         13    1    3    3    0    0 -0.24860046852E+02 -0.15860863552E+02 -0.39259937401E+02  0.49101352027E+02  0.10566000000E+00 0. -1.
         22    1    1    0    0    0  0.24401933603E+02 -0.97173606533E+01 -0.30640944561E+01  0.26443716389E+02  0.00000000000E+00 0. -1.
</event>
<event>
 5    1  0.1766627E-003  0.9118800E+02  0.7818608E-02  0.1130116E+00
         25   -1    0    0    0    0  0.00000000000E+00  0.00000000000E+00  0.99999998245E-14  0.12500000000E+03  0.12500000000E+03 0.  0.
        -13    1    3    3    0    0 -0.42293076529E+02  0.10843364281E+02 -0.12357517490E+02  0.45376230273E+02  0.10566000000E+00 0.  1.
         23    2    1    0    0    0  0.71540459384E+01  0.46038614539E+01 -0.26487443840E+02  0.97179852719E+02  0.93112637057E+02 0.  0.
         13    1    3    3    0    0  0.49447122467E+02 -0.62395028270E+01 -0.14129926350E+02  0.51803622446E+02  0.10566000000E+00 0. -1.
         22    1    1    0    0    0 -0.71540459384E+01 -0.46038614539E+01  0.26487443840E+02  0.27820147281E+02  0.00000000000E+00 0.  1.
</event>
<event>
 5    1  0.1766627E-003  0.9118800E+02  0.7818608E-02  0.1130116E+00
         25   -1    0    0    0    0  0.00000000000E+00  0.00000000000E+00  0.99999998245E-14  0.12500000000E+03  0.12500000000E+03 0.  0.
        -13    1    3    3    0    0 -0.30349042409E+02 -0.34181981764E+01 -0.25415272809E+02  0.39732803952E+02  0.10566000000E+00 0.  1.
         23    2    1    0    0    0  0.10341915615E+02 -0.28917060522E+02  0.47011790871E+00  0.94285628466E+02  0.89142622334E+02 0.  0.
         13    1    3    3    0    0  0.40690958024E+02 -0.25498862346E+02  0.25885390718E+02  0.54552824514E+02  0.10566000000E+00 0. -1.
         22    1    1    0    0    0 -0.10341915615E+02  0.28917060522E+02 -0.47011790871E+00  0.30714371534E+02  0.00000000000E+00 0. -1.
</event>
<event>
 5    1  0.1766627E-003  0.9118800E+02  0.7818608E-02  0.1130116E+00
         25   -1    0    0    0    0  0.00000000000E+00  0.00000000000E+00  0.99999998245E-14  0.12500000000E+03  0.12500000000E+03 0.  0.
        -13    1    3    3    0    0 -0.11900039541E+02  0.31614856921E+02  0.16058621577E+01  0.33818635048E+02  0.10566000000E+00 0. -1.
         23    2    1    0    0    0 -0.23185801939E+01 -0.27418185630E+02 -0.11721681539E+02  0.95091296660E+02  0.90265298787E+02 0.  0.
         13    1    3    3    0    0  0.95814593472E+01 -0.59033042551E+02 -0.13327543697E+02  0.61272661612E+02  0.10566000000E+00 0.  1.
         22    1    1    0    0    0  0.23185801939E+01  0.27418185630E+02  0.11721681539E+02  0.29908703340E+02  0.00000000000E+00 0.  1.
</event>
<event>
 5    1  0.1766627E-003  0.9118800E+02  0.7818608E-02  0.1130116E+00
         25   -1    0    0    0    0  0.00000000000E+00  0.00000000000E+00  0.99999998245E-14  0.12500000000E+03  0.12500000000E+03 0.  0.
        -13    1    3    3    0    0 -0.40374789819E+02 -0.12607257497E+02  0.37032566549E+01  0.42459296608E+02  0.10566000000E+00 0. -1.
         23    2    1    0    0    0  0.42580416387E+01 -0.19649476501E+02 -0.22606753992E+02  0.94746104856E+02  0.89786002327E+02 0.  0.
         13    1    3    3    0    0  0.44632831458E+02 -0.70422190038E+01 -0.26310010647E+02  0.52286808248E+02  0.10566000000E+00 0.  1.
         22    1    1    0    0    0 -0.42580416387E+01  0.19649476501E+02  0.22606753992E+02  0.30253895144E+02  0.00000000000E+00 0.  1.
</event>
<event>
 5    1  0.1766627E-003  0.9118800E+02  0.7818608E-02  0.1130116E+00
         25   -1    0    0    0    0  0.00000000000E+00  0.00000000000E+00  0.99999998245E-14  0.12500000000E+03  0.12500000000E+03 0.  0.
        -13    1    3    3    0    0 -0.69117599771E+01 -0.11557109814E+01 -0.30027513779E+02  0.30834572182E+02  0.10566000000E+00 0.  1.
         23    2    1    0    0    0 -0.52147586642E+01 -0.89716191967E+01  0.30961455490E+02  0.92345821325E+02  0.86379715970E+02 0.  0.
         13    1    3    3    0    0  0.16970013130E+01 -0.78159082153E+01  0.60988969268E+02  0.61511249143E+02  0.10566000000E+00 0. -1.
         22    1    1    0    0    0  0.52147586642E+01  0.89716191967E+01 -0.30961455490E+02  0.32654178675E+02  0.00000000000E+00 0. -1.
</event>
<event>
 5    1  0.1766627E-003  0.9118800E+02  0.7818608E-02  0.1130116E+00
         25   -1    0    0    0    0  0.00000000000E+00  0.00000000000E+00  0.99999998245E-14  0.12500000000E+03  0.12500000000E+03 0.  0.
        -13    1    3    3    0    0 -0.41595896268E+02 -0.40237172930E+01  0.40315128070E+02  0.58066596271E+02  0.10566000000E+00 0.  1.
         23    2    1    0    0    0 -0.10254481535E+02  0.10988148949E+02  0.24522653035E+02  0.96237970851E+02  0.91839494297E+02 0.  0.
         13    1    3    3    0    0  0.31341414733E+02  0.15011866242E+02 -0.15792475034E+02  0.38171374579E+02  0.10566000000E+00 0. -1.
         22    1    1    0    0    0  0.10254481535E+02 -0.10988148949E+02 -0.24522653035E+02  0.28762029149E+02  0.00000000000E+00 0.  1.
</event>
<event>
 5    1  0.1766627E-003  0.9118800E+02  0.7818608E-02  0.1130116E+00
         25   -1    0    0    0    0  0.00000000000E+00  0.00000000000E+00  0.99999998245E-14  0.12500000000E+03  0.12500000000E+03 0.  0.
        -13    1    3    3    0    0  0.92941209100E+01  0.37535811938E+02 -0.63865047395E+01  0.39193321729E+02  0.10566000000E+00 0. -1.
         23    2    1    0    0    0 -0.28569281982E+02 -0.31098457931E+01  0.48168733157E+01  0.95861069300E+02  0.91325064057E+02 0.  0.
         13    1    3    3    0    0 -0.37863402892E+02 -0.40645657731E+02  0.11203378055E+02  0.56667747571E+02  0.10566000000E+00 0.  1.
         22    1    1    0    0    0  0.28569281982E+02  0.31098457931E+01 -0.48168733157E+01  0.29138930700E+02  0.00000000000E+00 0.  1.
</event>
<event>
 5    1  0.1766627E-003  0.9118800E+02  0.7818608E-02  0.1130116E+00
         25   -1    0    0    0    0  0.00000000000E+00  0.00000000000E+00  0.99999998245E-14  0.12500000000E+03  0.12500000000E+03 0.  0.
        -13    1    3    3    0    0  0.17091398051E+02  0.52698272744E+02 -0.17282228955E+02  0.58033700892E+02  0.10566000000E+00 0.  1.
         23    2    1    0    0    0  0.12623378297E+02  0.22354455096E+02  0.83483874383E+01  0.98004316732E+02  0.94212945942E+02 0.  0.
         13    1    3    3    0    0 -0.44680197547E+01 -0.30343817647E+02  0.25630616393E+02  0.39970615841E+02  0.10566000000E+00 0. -1.
         22    1    1    0    0    0 -0.12623378297E+02 -0.22354455096E+02 -0.83483874383E+01  0.26995683268E+02  0.00000000000E+00 0.  1.
</event>
<event>
 5    1  0.1766627E-003  0.9118800E+02  0.7818608E-02  0.1130116E+00
         25   -1    0    0    0    0  0.00000000000E+00  0.00000000000E+00  0.99999998245E-14  0.12500000000E+03  0.12500000000E+03 0.  0.
        -13    1    3    3    0    0  0.22697357589E+02  0.21073568165E+02  0.35367776880E+02  0.47012297563E+02  0.10566000000E+00 0. -1.
         23    2    1    0    0    0  0.15239591244E+02  0.21766190900E+02 -0.12622286455E+02  0.95583434548E+02  0.90944261155E+02 0.  0.
         13    1    3    3    0    0 -0.74577663452E+01  0.69262273568E+00 -0.47990063335E+02  0.48571136985E+02  0.10566000000E+00 0.  1.
         22    1    1    0    0    0 -0.15239591244E+02 -0.21766190900E+02  0.12622286455E+02  0.29416565452E+02  0.00000000000E+00 0.  1.
</event>
<event>
 5    1  0.1766627E-003  0.9118800E+02  0.7818608E-02  0.1130116E+00
         25   -1    0    0    0    0  0.00000000000E+00  0.00000000000E+00  0.99999998245E-14  0.12500000000E+03  0.12500000000E+03 0.  0.
        -13    1    3    3    0    0  0.35943738771E+02 -0.14759267685E+02 -0.15882064054E+01  0.38888583197E+02  0.10566000000E+00 0.  1.
         23    2    1    0    0    0 -0.98715194967E+01  0.74714831337E+01 -0.26627190444E+02  0.95635442651E+02  0.91015716570E+02 0.  0.
         13    1    3    3    0    0 -0.45815258268E+02  0.22230750818E+02 -0.25038984038E+02  0.56746859454E+02  0.10566000000E+00 0. -1.
         22    1    1    0    0    0  0.98715194967E+01 -0.74714831337E+01  0.26627190444E+02  0.29364557349E+02  0.00000000000E+00 0. -1.
</event>
<event>
 5    1  0.1766627E-003  0.9118800E+02  0.7818608E-02  0.1130116E+00
         25   -1    0    0    0    0  0.00000000000E+00  0.00000000000E+00  0.99999998245E-14  0.12500000000E+03  0.12500000000E+03 0.  0.
        -13    1    3    3    0    0 -0.30786895617E+02 -0.22120261388E+02 -0.37932639821E+02  0.53628679207E+02  0.10566000000E+00 0.  1.
         23    2    1    0    0    0 -0.27785904607E+02  0.40212255170E+01 -0.38883970137E+01  0.96656634271E+02  0.92407567698E+02 0.  0.
         13    1    3    3    0    0  0.30009910103E+01  0.26141486905E+02  0.34044242807E+02  0.43027955064E+02  0.10566000000E+00 0. -1.
         22    1    1    0    0    0  0.27785904607E+02 -0.40212255170E+01  0.38883970137E+01  0.28343365729E+02  0.00000000000E+00 0.  1.
</event>
<event>
 5    1  0.1766627E-003  0.9118800E+02  0.7818608E-02  0.1130116E+00
         25   -1    0    0    0    0  0.00000000000E+00  0.00000000000E+00  0.99999998245E-14  0.12500000000E+03  0.12500000000E+03 0.  0.
        -13    1    3    3    0    0 -0.42485322919E+02  0.32073735750E+02  0.18210459545E+02  0.56261524947E+02  0.10566000000E+00 0.  1.
         23    2    1    0    0    0 -0.21182429652E+02  0.16393532033E+02 -0.11332630426E+02  0.95916125931E+02  0.91400391043E+02 0.  0.
         13    1    3    3    0    0  0.21302893267E+02 -0.15680203716E+02 -0.29543089971E+02  0.39654600984E+02  0.10566000000E+00 0. -1.
         22    1    1    0    0    0  0.21182429652E+02 -0.16393532033E+02  0.11332630426E+02  0.29083874069E+02  0.00000000000E+00 0.  1.
</event>
<event>
 5    1  0.1766627E-003  0.9118800E+02  0.7818608E-02  0.1130116E+00
         25   -1    0    0    0    0  0.00000000000E+00  0.00000000000E+00  0.99999998245E-14  0.12500000000E+03  0.12500000000E+03 0.  0.
        -13    1    3    3    0    0 -0.16951050384E+02 -0.10369105481E+02 -0.28460439362E+02  0.34711154264E+02  0.10566000000E+00 0. -1.
         23    2    1    0    0    0  0.20928275196E+02  0.11559042989E+02  0.15309350267E+02  0.96610206357E+02  0.92344743159E+02 0.  0.
         13    1    3    3    0    0  0.37879325580E+02  0.21928148470E+02  0.43769789629E+02  0.61899052093E+02  0.10566000000E+00 0.  1.
         22    1    1    0    0    0 -0.20928275196E+02 -0.11559042989E+02 -0.15309350267E+02  0.28389793643E+02  0.00000000000E+00 0.  1.
</event>
<event>
 5    1  0.1766627E-003  0.9118800E+02  0.7818608E-02  0.1130116E+00
         25   -1    0    0    0    0  0.00000000000E+00  0.00000000000E+00  0.99999998245E-14  0.12500000000E+03  0.12500000000E+03 0.  0.
        -13    1    3    3    0    0  0.55640262159E+02  0.10277392443E+02 -0.16238079019E+02  0.58865524230E+02  0.10566000000E+00 0. -1.
         23    2    1    0    0    0  0.27425304816E+02  0.15202339633E+01  0.72319571860E+01  0.96596485072E+02  0.92326167840E+02 0.  0.
         13    1    3    3    0    0 -0.28214957344E+02 -0.87571584796E+01  0.23470036205E+02  0.37730960842E+02  0.10566000000E+00 0.  1.
         22    1    1    0    0    0 -0.27425304816E+02 -0.15202339633E+01 -0.72319571860E+01  0.28403514928E+02  0.00000000000E+00 0. -1.
</event>
<event>
 5    1  0.1766627E-003  0.9118800E+02  0.7818608E-02  0.1130116E+00
         25   -1    0    0    0    0  0.00000000000E+00  0.00000000000E+00  0.99999998245E-14  0.12500000000E+03  0.12500000000E+03 0.  0.
        -13    1    3    3    0    0 -0.36623976110E+02  0.95191567743E+01  0.35609030665E+02  0.51960987296E+02  0.10566000000E+00 0. -1.
         23    2    1    0    0    0 -0.38130608011E+02 -0.13637085158E+02  0.20987768016E+02  0.79388600491E+02  0.64978074169E+02 0.  0.
         13    1    3    3    0    0 -0.15066319004E+01 -0.23156241932E+02 -0.14621262649E+02  0.27427613195E+02  0.10566000000E+00 0.  1.
         22    1    1    0    0    0  0.38130608011E+02  0.13637085158E+02 -0.20987768016E+02  0.45611399509E+02  0.00000000000E+00 0. -1.
</event>
<event>
 5    1  0.1766627E-003  0.9118800E+02  0.7818608E-02  0.1130116E+00
         25   -1    0    0    0    0  0.00000000000E+00  0.00000000000E+00  0.99999998245E-14  0.12500000000E+03  0.12500000000E+03 0.  0.
        -13    1    3    3    0    0  0.26967774383E+01  0.84524661401E+01  0.40397286893E+02  0.41360231440E+02  0.10566000000E+00 0. -1.
         23    2    1    0    0    0  0.99479069422E+01  0.27819735894E+02 -0.83374379681E+01  0.94301279675E+02  0.89164566497E+02 0.  0.
         13    1    3    3    0    0  0.72511295038E+01  0.19367269754E+02 -0.48734724862E+02  0.52941048234E+02  0.10566000000E+00 0.  1.
         22    1    1    0    0    0 -0.99479069422E+01 -0.27819735894E+02  0.83374379681E+01  0.30698720325E+02  0.00000000000E+00 0.  1.
</event>
<event>
 5    1  0.1766627E-003  0.9118800E+02  0.7818608E-02  0.1130116E+00
         25   -1    0    0    0    0  0.00000000000E+00  0.00000000000E+00  0.99999998245E-14  0.12500000000E+03  0.12500000000E+03 0.  0.
        -13    1    3    3    0    0 -0.40794025415E+02  0.48338167157E+01  0.59855607740E+01  0.41513327925E+02  0.10566000000E+00 0.  1.
         23    2    1    0    0    0 -0.16641894004E+02 -0.33466285596E+02 -0.23367208036E+01  0.87551299465E+02  0.79138011513E+02 0.  0.
         13    1    3    3    0    0  0.24152131411E+02 -0.38300102312E+02 -0.83222815775E+01  0.46037971540E+02  0.10566000000E+00 0. -1.
         22    1    1    0    0    0  0.16641894004E+02  0.33466285596E+02  0.23367208036E+01  0.37448700535E+02  0.00000000000E+00 0. -1.
</event>
<event>
 5    1  0.1766627E-003  0.9118800E+02  0.7818608E-02  0.1130116E+00
         25   -1    0    0    0    0  0.00000000000E+00  0.00000000000E+00  0.99999998245E-14  0.12500000000E+03  0.12500000000E+03 0.  0.
        -13    1    3    3    0    0  0.17288771074E+02  0.36604943162E+02 -0.10351993838E+02  0.41785145801E+02  0.10566000000E+00 0.  1.
         23    2    1    0    0    0  0.16440504387E+02 -0.71147970867E+01  0.22326739967E+02  0.96374943849E+02  0.92025735326E+02 0.  0.
         13    1    3    3    0    0 -0.84826668689E+00 -0.43719740249E+02  0.32678733805E+02  0.54589798048E+02  0.10566000000E+00 0. -1.
         22    1    1    0    0    0 -0.16440504387E+02  0.71147970867E+01 -0.22326739967E+02  0.28625056151E+02  0.00000000000E+00 0. -1.
</event>
<event>
 5    1  0.1766627E-003  0.9118800E+02  0.7818608E-02  0.1130116E+00
         25   -1    0    0    0    0  0.00000000000E+00  0.00000000000E+00  0.99999998245E-14  0.12500000000E+03  0.12500000000E+03 0.  0.
        -13    1    3    3    0    0 -0.70224962589E+01  0.30178788514E+02 -0.34324147678E+02  0.46241031647E+02  0.10566000000E+00 0. -1.
         23    2    1    0    0    0 -0.26002460683E+02 -0.84642945927E+01 -0.88878782578E+01  0.96246450229E+02  0.91851034601E+02 0.  0.
         13    1    3    3    0    0 -0.18979964424E+02 -0.38643083107E+02  0.25436269420E+02  0.50005418582E+02  0.10566000000E+00 0.  1.
         22    1    1    0    0    0  0.26002460683E+02  0.84642945927E+01  0.88878782578E+01  0.28753549771E+02  0.00000000000E+00 0. -1.
</event>
<event>
 5    1  0.1766627E-003  0.9118800E+02  0.7818608E-02  0.1130116E+00
         25   -1    0    0    0    0  0.00000000000E+00  0.00000000000E+00  0.99999998245E-14  0.12500000000E+03  0.12500000000E+03 0.  0.
        -13    1    3    3    0    0  0.56050714973E+00 -0.77741349016E+01 -0.38213076632E+02  0.39000022198E+02  0.10566000000E+00 0.  1.
         23    2    1    0    0    0  0.51744290827E+01 -0.26510720042E+02  0.13936782300E+02  0.94605479205E+02  0.89590009495E+02 0.  0.
         13    1    3    3    0    0  0.46139219330E+01 -0.18736585140E+02  0.52149858932E+02  0.55605457007E+02  0.10566000000E+00 0. -1.
         22    1    1    0    0    0 -0.51744290827E+01  0.26510720042E+02 -0.13936782300E+02  0.30394520795E+02  0.00000000000E+00 0. -1.
</event>
<event>
 5    1  0.1766627E-003  0.9118800E+02  0.7818608E-02  0.1130116E+00
         25   -1    0    0    0    0  0.00000000000E+00  0.00000000000E+00  0.99999998245E-14  0.12500000000E+03  0.12500000000E+03 0.  0.
        -13    1    3    3    0    0 -0.16310434759E+02 -0.37060224559E+02  0.12012335073E+00  0.40490938740E+02  0.10566000000E+00 0. -1.
         23    2    1    0    0    0 -0.24764197535E+02  0.15014570621E+02 -0.10291948067E+02  0.94265215057E+02  0.89113993088E+02 0.  0.
         13    1    3    3    0    0 -0.84537627759E+01  0.52074795180E+02 -0.10412071418E+02  0.53774276316E+02  0.10566000000E+00 0.  1.
         22    1    1    0    0    0  0.24764197535E+02 -0.15014570621E+02  0.10291948067E+02  0.30734784943E+02  0.00000000000E+00 0.  1.
</event>
<event>
 5    1  0.1766627E-003  0.9118800E+02  0.7818608E-02  0.1130116E+00
         25   -1    0    0    0    0  0.00000000000E+00  0.00000000000E+00  0.99999998245E-14  0.12500000000E+03  0.12500000000E+03 0.  0.
        -13    1    3    3    0    0  0.22340160247E+02  0.37200064262E+01 -0.37557494542E+02  0.43857699073E+02  0.10566000000E+00 0. -1.
         23    2    1    0    0    0 -0.13306776846E+02  0.24546317455E+02 -0.45607019584E+01  0.96708799725E+02  0.92478105145E+02 0.  0.
         13    1    3    3    0    0 -0.35646937093E+02  0.20826311029E+02  0.32996792584E+02  0.52851100652E+02  0.10566000000E+00 0.  1.
         22    1    1    0    0    0  0.13306776846E+02 -0.24546317455E+02  0.45607019584E+01  0.28291200275E+02  0.00000000000E+00 0.  1.
</event>
<event>
 5    1  0.1766627E-003  0.9118800E+02  0.7818608E-02  0.1130116E+00
         25   -1    0    0    0    0  0.00000000000E+00  0.00000000000E+00  0.99999998245E-14  0.12500000000E+03  0.12500000000E+03 0.  0.
        -13    1    3    3    0    0  0.62970523504E+00  0.19915499828E+02  0.54851006733E+02  0.58358099401E+02  0.10566000000E+00 0. -1.
         23    2    1    0    0    0 -0.15521136075E+02  0.69590921713E+01  0.27533287529E+02  0.92636184542E+02  0.86798883261E+02 0.  0.
         13    1    3    3    0    0 -0.16150841310E+02 -0.12956407656E+02 -0.27317719204E+02  0.34278085141E+02  0.10566000000E+00 0.  1.
         22    1    1    0    0    0  0.15521136075E+02 -0.69590921713E+01 -0.27533287529E+02  0.32363815458E+02  0.00000000000E+00 0. -1.
</event>
<event>
 5    1  0.1766627E-003  0.9118800E+02  0.7818608E-02  0.1130116E+00
         25   -1    0    0    0    0  0.00000000000E+00  0.00000000000E+00  0.99999998245E-14  0.12500000000E+03  0.12500000000E+03 0.  0.
        -13    1    3    3    0    0 -0.42261597261E+01 -0.20468446612E+02  0.33092684279E+02  0.39140192253E+02  0.10566000000E+00 0. -1.
         23    2    1    0    0    0 -0.21288397646E+02  0.10916973183E+02 -0.13248372191E+02  0.97652321058E+02  0.93744761264E+02 0.  0.
         13    1    3    3    0    0 -0.17062237920E+02  0.31385419795E+02 -0.46341056470E+02  0.58512128805E+02  0.10566000000E+00 0.  1.
         22    1    1    0    0    0  0.21288397646E+02 -0.10916973183E+02  0.13248372191E+02  0.27347678942E+02  0.00000000000E+00 0.  1.
</event>
<event>
 5    1  0.1766627E-003  0.9118800E+02  0.7818608E-02  0.1130116E+00
         25   -1    0    0    0    0  0.00000000000E+00  0.00000000000E+00  0.99999998245E-14  0.12500000000E+03  0.12500000000E+03 0.  0.
        -13    1    3    3    0    0  0.44629930207E+02 -0.32316908865E+02 -0.19326640648E+02  0.58393008756E+02  0.10566000000E+00 0.  1.
         23    2    1    0    0    0  0.14740996826E+02 -0.25287684791E+02  0.18166628272E+01  0.95673147913E+02  0.91067485846E+02 0.  0.
         13    1    3    3    0    0 -0.29888933380E+02  0.70292240741E+01  0.21143303475E+02  0.37280139157E+02  0.10566000000E+00 0. -1.
         22    1    1    0    0    0 -0.14740996826E+02  0.25287684791E+02 -0.18166628272E+01  0.29326852087E+02  0.00000000000E+00 0.  1.
</event>
<event>
 5    1  0.1766627E-003  0.9118800E+02  0.7818608E-02  0.1130116E+00
         25   -1    0    0    0    0  0.00000000000E+00  0.00000000000E+00  0.99999998245E-14  0.12500000000E+03  0.12500000000E+03 0.  0.
        -13    1    3    3    0    0  0.50094382974E+01 -0.14501486974E+02  0.31275169378E+02  0.34835828972E+02  0.10566000000E+00 0. -1.
         23    2    1    0    0    0 -0.19408003075E+02  0.39239449307E+00 -0.22218665321E+02  0.95495870706E+02  0.90823827691E+02 0.  0.
         13    1    3    3    0    0 -0.24417441372E+02  0.14893881467E+02 -0.53493834699E+02  0.60660041734E+02  0.10566000000E+00 0.  1.
         22    1    1    0    0    0  0.19408003075E+02 -0.39239449307E+00  0.22218665321E+02  0.29504129294E+02  0.00000000000E+00 0.  1.
</event>
<event>
 5    1  0.1766627E-003  0.9118800E+02  0.7818608E-02  0.1130116E+00
         25   -1    0    0    0    0  0.00000000000E+00  0.00000000000E+00  0.99999998245E-14  0.12500000000E+03  0.12500000000E+03 0.  0.
        -13    1    3    3    0    0  0.25544749464E+02  0.35049372219E+02  0.43481823260E+02  0.61413946593E+02  0.10566000000E+00 0. -1.
         23    2    1    0    0    0  0.58997670046E+01  0.21784915582E+02  0.18911956781E+02  0.95554254859E+02  0.90904145751E+02 0.  0.
         13    1    3    3    0    0 -0.19644982459E+02 -0.13264456637E+02 -0.24569866479E+02  0.34140308266E+02  0.10566000000E+00 0.  1.
         22    1    1    0    0    0 -0.58997670046E+01 -0.21784915582E+02 -0.18911956781E+02  0.29445745141E+02  0.00000000000E+00 0. -1.
</event>
<event>
 5    1  0.1766627E-003  0.9118800E+02  0.7818608E-02  0.1130116E+00
         25   -1    0    0    0    0  0.00000000000E+00  0.00000000000E+00  0.99999998245E-14  0.12500000000E+03  0.12500000000E+03 0.  0.
        -13    1    3    3    0    0  0.41785183775E+02  0.13138358349E+02 -0.41529584788E+02  0.60360049867E+02  0.10566000000E+00 0. -1.
         23    2    1    0    0    0  0.20780202583E+02 -0.54505092495E+01 -0.18262382002E+02  0.96803555776E+02  0.92606095609E+02 0.  0.
         13    1    3    3    0    0 -0.21004981191E+02 -0.18588867599E+02  0.23267202786E+02  0.36443505909E+02  0.10566000000E+00 0.  1.
         22    1    1    0    0    0 -0.20780202583E+02  0.54505092495E+01  0.18262382002E+02  0.28196444224E+02  0.00000000000E+00 0. -1.
</event>
<event>
 5    1  0.1766627E-003  0.9118800E+02  0.7818608E-02  0.1130116E+00
         25   -1    0    0    0    0  0.00000000000E+00  0.00000000000E+00  0.99999998245E-14  0.12500000000E+03  0.12500000000E+03 0.  0.
        -13    1    3    3    0    0 -0.31912065094E+02  0.16132691232E+02  0.95694005430E+01  0.37016593789E+02  0.10566000000E+00 0.  1.
         23    2    1    0    0    0  0.14246408666E+02  0.98793178529E+01 -0.24684485267E+02  0.94835701665E+02  0.89910652408E+02 0.  0.
         13    1    3    3    0    0  0.46158473760E+02 -0.62533733786E+01 -0.34253885810E+02  0.57819107876E+02  0.10566000000E+00 0. -1.
         22    1    1    0    0    0 -0.14246408666E+02 -0.98793178529E+01  0.24684485267E+02  0.30164298335E+02  0.00000000000E+00 0. -1.
</event>
<event>
 5    1  0.1766627E-003  0.9118800E+02  0.7818608E-02  0.1130116E+00
         25   -1    0    0    0    0  0.00000000000E+00  0.00000000000E+00  0.99999998245E-14  0.12500000000E+03  0.12500000000E+03 0.  0.
        -13    1    3    3    0    0 -0.21965435074E+02  0.34140447840E+02 -0.15178248598E+02  0.43340984198E+02  0.10566000000E+00 0. -1.
         23    2    1    0    0    0 -0.39840098265E+01 -0.87845452674E+00  0.25046578447E+02  0.99623335354E+02  0.96337084441E+02 0.  0.
         13    1    3    3    0    0  0.17981425247E+02 -0.35018902366E+02  0.40224827045E+02  0.56282351157E+02  0.10566000000E+00 0.  1.
         22    1    1    0    0    0  0.39840098265E+01  0.87845452674E+00 -0.25046578447E+02  0.25376664646E+02  0.00000000000E+00 0.  1.
</event>
<event>
 5    1  0.1766627E-003  0.9118800E+02  0.7818608E-02  0.1130116E+00
         25   -1    0    0    0    0  0.00000000000E+00  0.00000000000E+00  0.99999998245E-14  0.12500000000E+03  0.12500000000E+03 0.  0.
        -13    1    3    3    0    0 -0.31482952593E+01 -0.39719150935E+02  0.19141658638E+01  0.39889822124E+02  0.10566000000E+00 0. -1.
         23    2    1    0    0    0  0.19843931954E+02  0.25539075747E+01 -0.23358634351E+02  0.94244026954E+02  0.89084267626E+02 0.  0.
         13    1    3    3    0    0  0.22992227213E+02  0.42273058510E+02 -0.25272800214E+02  0.54354204830E+02  0.10566000000E+00 0.  1.
         22    1    1    0    0    0 -0.19843931954E+02 -0.25539075747E+01  0.23358634351E+02  0.30755973046E+02  0.00000000000E+00 0.  1.
</event>
<event>
 5    1  0.1766627E-003  0.9118800E+02  0.7818608E-02  0.1130116E+00
         25   -1    0    0    0    0  0.00000000000E+00  0.00000000000E+00  0.99999998245E-14  0.12500000000E+03  0.12500000000E+03 0.  0.
        -13    1    3    3    0    0  0.22538965594E+02 -0.62339907490E+01  0.47073613189E+02  0.52562380401E+02  0.10566000000E+00 0.  1.
         23    2    1    0    0    0  0.28382319108E+02  0.24148178032E+01  0.47901910873E+01  0.96115171567E+02  0.91672203485E+02 0.  0.
         13    1    3    3    0    0  0.58433535136E+01  0.86488085522E+01 -0.42283422102E+02  0.43552791166E+02  0.10566000000E+00 0. -1.
         22    1    1    0    0    0 -0.28382319108E+02 -0.24148178032E+01 -0.47901910873E+01  0.28884828433E+02  0.00000000000E+00 0. -1.
</event>
<event>
 5    1  0.1766627E-003  0.9118800E+02  0.7818608E-02  0.1130116E+00
         25   -1    0    0    0    0  0.00000000000E+00  0.00000000000E+00  0.99999998245E-14  0.12500000000E+03  0.12500000000E+03 0.  0.
        -13    1    3    3    0    0 -0.14677247726E+02 -0.11223665156E+02 -0.34891428307E+02  0.39481833718E+02  0.10566000000E+00 0.  1.
         23    2    1    0    0    0  0.80240087318E+01  0.28428720283E+02 -0.27760788477E+01  0.95330428603E+02  0.90595845108E+02 0.  0.
         13    1    3    3    0    0  0.22701256458E+02  0.39652385439E+02  0.32115349460E+02  0.55848594886E+02  0.10566000000E+00 0. -1.
         22    1    1    0    0    0 -0.80240087318E+01 -0.28428720283E+02  0.27760788477E+01  0.29669571397E+02  0.00000000000E+00 0. -1.
</event>
<event>
 5    1  0.1766627E-003  0.9118800E+02  0.7818608E-02  0.1130116E+00
         25   -1    0    0    0    0  0.00000000000E+00  0.00000000000E+00  0.99999998245E-14  0.12500000000E+03  0.12500000000E+03 0.  0.
        -13    1    3    3    0    0 -0.38113181085E+02 -0.60086219086E+01 -0.19917313865E+02  0.43421523065E+02  0.10566000000E+00 0. -1.
         23    2    1    0    0    0  0.44137243402E+00 -0.29548088843E+02  0.50275209387E+01  0.95024004092E+02  0.90172063428E+02 0.  0.
         13    1    3    3    0    0  0.38554553519E+02 -0.23539466934E+02  0.24944834804E+02  0.51602481026E+02  0.10566000000E+00 0.  1.
         22    1    1    0    0    0 -0.44137243402E+00  0.29548088843E+02 -0.50275209387E+01  0.29975995908E+02  0.00000000000E+00 0. -1.
</event>
<event>
 5    1  0.1766627E-003  0.9118800E+02  0.7818608E-02  0.1130116E+00
         25   -1    0    0    0    0  0.00000000000E+00  0.00000000000E+00  0.99999998245E-14  0.12500000000E+03  0.12500000000E+03 0.  0.
        -13    1    3    3    0    0 -0.95222262317E+01  0.48173350322E+02 -0.36886058607E+02  0.61416096891E+02  0.10566000000E+00 0.  1.
         23    2    1    0    0    0 -0.10204502452E+02  0.24743294604E+02 -0.11799312888E+02  0.95749593460E+02  0.91172355267E+02 0.  0.
         13    1    3    3    0    0 -0.68227622039E+00 -0.23430055719E+02  0.25086745720E+02  0.34333496569E+02  0.10566000000E+00 0. -1.
         22    1    1    0    0    0  0.10204502452E+02 -0.24743294604E+02  0.11799312888E+02  0.29250406540E+02  0.00000000000E+00 0.  1.
</event>
<event>
 5    1  0.1766627E-003  0.9118800E+02  0.7818608E-02  0.1130116E+00
         25   -1    0    0    0    0  0.00000000000E+00  0.00000000000E+00  0.99999998245E-14  0.12500000000E+03  0.12500000000E+03 0.  0.
        -13    1    3    3    0    0  0.52859915769E+01  0.39739174294E+02 -0.34464251766E+02  0.52867187313E+02  0.10566000000E+00 0. -1.
         23    2    1    0    0    0 -0.13928962351E+02  0.23745008600E+00 -0.22739687804E+02  0.98332308384E+02  0.94647118793E+02 0.  0.
         13    1    3    3    0    0 -0.19214953928E+02 -0.39501724208E+02  0.11724563962E+02  0.45465121071E+02  0.10566000000E+00 0.  1.
         22    1    1    0    0    0  0.13928962351E+02 -0.23745008600E+00  0.22739687804E+02  0.26667691616E+02  0.00000000000E+00 0. -1.
</event>
<event>
 5    1  0.1766627E-003  0.9118800E+02  0.7818608E-02  0.1130116E+00
         25   -1    0    0    0    0  0.00000000000E+00  0.00000000000E+00  0.99999998245E-14  0.12500000000E+03  0.12500000000E+03 0.  0.
        -13    1    3    3    0    0  0.46399936313E+02 -0.98060711988E+01 -0.23285771562E+02  0.52833241841E+02  0.10566000000E+00 0.  1.
         23    2    1    0    0    0  0.13886003474E+02 -0.27171949176E+02 -0.46639096170E+01  0.94131116518E+02  0.88925694428E+02 0.  0.
         13    1    3    3    0    0 -0.32513932838E+02 -0.17365877977E+02  0.18621861945E+02  0.41297874677E+02  0.10566000000E+00 0. -1.
         22    1    1    0    0    0 -0.13886003474E+02  0.27171949176E+02  0.46639096170E+01  0.30868883482E+02  0.00000000000E+00 0.  1.
</event>
<event>
 5    1  0.1766627E-003  0.9118800E+02  0.7818608E-02  0.1130116E+00
         25   -1    0    0    0    0  0.00000000000E+00  0.00000000000E+00  0.99999998245E-14  0.12500000000E+03  0.12500000000E+03 0.  0.
        -13    1    3    3    0    0  0.28919271492E+02 -0.49582627546E+02 -0.13175696585E+02  0.58892880406E+02  0.10566000000E+00 0. -1.
         23    2    1    0    0    0  0.95813944095E+00 -0.26734375994E+02 -0.13568295453E+02  0.95004274764E+02  0.90144709723E+02 0.  0.
         13    1    3    3    0    0 -0.27961132051E+02  0.22848251552E+02 -0.39259886804E+00  0.36111394358E+02  0.10566000000E+00 0.  1.
         22    1    1    0    0    0 -0.95813944095E+00  0.26734375994E+02  0.13568295453E+02  0.29995725236E+02  0.00000000000E+00 0. -1.
</event>
<event>
 5    1  0.1766627E-003  0.9118800E+02  0.7818608E-02  0.1130116E+00
         25   -1    0    0    0    0  0.00000000000E+00  0.00000000000E+00  0.99999998245E-14  0.12500000000E+03  0.12500000000E+03 0.  0.
        -13    1    3    3    0    0 -0.32556188824E+02  0.40446715684E+02  0.96966944098E+01  0.52819307899E+02  0.10566000000E+00 0. -1.
         23    2    1    0    0    0 -0.22610612479E+02  0.96978441008E+00  0.19982563018E+02  0.94809221553E+02  0.89873830386E+02 0.  0.
         13    1    3    3    0    0  0.99455763448E+01 -0.39476931274E+02  0.10285868608E+02  0.41989913654E+02  0.10566000000E+00 0.  1.
         22    1    1    0    0    0  0.22610612479E+02 -0.96978441008E+00 -0.19982563018E+02  0.30190778447E+02  0.00000000000E+00 0. -1.
</event>
<event>
 5    1  0.1766627E-003  0.9118800E+02  0.7818608E-02  0.1130116E+00
         25   -1    0    0    0    0  0.00000000000E+00  0.00000000000E+00  0.99999998245E-14  0.12500000000E+03  0.12500000000E+03 0.  0.
        -13    1    3    3    0    0 -0.19950606783E+02 -0.19462963983E+02 -0.54318123950E+02  0.61051645608E+02  0.10566000000E+00 0.  1.
         23    2    1    0    0    0 -0.10968517260E+02 -0.17081032841E+02 -0.20395404995E+02  0.96224270666E+02  0.91820845490E+02 0.  0.
         13    1    3    3    0    0  0.89820895231E+01  0.23819311425E+01  0.33922718955E+02  0.35172625058E+02  0.10566000000E+00 0. -1.
         22    1    1    0    0    0  0.10968517260E+02  0.17081032841E+02  0.20395404995E+02  0.28775729334E+02  0.00000000000E+00 0.  1.
</event>
<event>
 5    1  0.1766627E-003  0.9118800E+02  0.7818608E-02  0.1130116E+00
         25   -1    0    0    0    0  0.00000000000E+00  0.00000000000E+00  0.99999998245E-14  0.12500000000E+03  0.12500000000E+03 0.  0.
        -13    1    3    3    0    0 -0.15299822091E+02 -0.58228116810E+02  0.11072723664E+01  0.60214909776E+02  0.10566000000E+00 0. -1.
         23    2    1    0    0    0 -0.18856982845E+02 -0.24805293709E+02  0.92656901992E+00  0.93827144370E+02  0.88497379015E+02 0.  0.
         13    1    3    3    0    0 -0.35571607536E+01  0.33422823101E+02 -0.18070334650E+00  0.33612234594E+02  0.10566000000E+00 0.  1.
         22    1    1    0    0    0  0.18856982845E+02  0.24805293709E+02 -0.92656901992E+00  0.31172855630E+02  0.00000000000E+00 0. -1.
</event>
<event>
 5    1  0.1766627E-003  0.9118800E+02  0.7818608E-02  0.1130116E+00
         25   -1    0    0    0    0  0.00000000000E+00  0.00000000000E+00  0.99999998245E-14  0.12500000000E+03  0.12500000000E+03 0.  0.
        -13    1    3    3    0    0 -0.35739602029E+02  0.11362626280E+02 -0.48710239703E+02  0.61474604880E+02  0.10566000000E+00 0.  1.
         23    2    1    0    0    0 -0.21846087459E+02  0.10747073221E+02 -0.19571026979E+02  0.93762583060E+02  0.88406140991E+02 0.  0.
         13    1    3    3    0    0  0.13893514570E+02 -0.61555305842E+00  0.29139212725E+02  0.32287978180E+02  0.10566000000E+00 0. -1.
         22    1    1    0    0    0  0.21846087459E+02 -0.10747073221E+02  0.19571026979E+02  0.31237416940E+02  0.00000000000E+00 0.  1.
</event>
<event>
 5    1  0.1766627E-003  0.9118800E+02  0.7818608E-02  0.1130116E+00
         25   -1    0    0    0    0  0.00000000000E+00  0.00000000000E+00  0.99999998245E-14  0.12500000000E+03  0.12500000000E+03 0.  0.
        -13    1    3    3    0    0  0.11629410931E+02 -0.24423279706E+02  0.55404437588E+02  0.61655516044E+02  0.10566000000E+00 0.  1.
         23    2    1    0    0    0  0.10934674207E+02 -0.14460497549E+02  0.22153965351E+02  0.96373591386E+02  0.92023898236E+02 0.  0.
         13    1    3    3    0    0 -0.69473672455E+00  0.99627821575E+01 -0.33250472237E+02  0.34718075342E+02  0.10566000000E+00 0. -1.
         22    1    1    0    0    0 -0.10934674207E+02  0.14460497549E+02 -0.22153965351E+02  0.28626408614E+02  0.00000000000E+00 0.  1.
</event>
<event>
 5    1  0.1766627E-003  0.9118800E+02  0.7818608E-02  0.1130116E+00
         25   -1    0    0    0    0  0.00000000000E+00  0.00000000000E+00  0.99999998245E-14  0.12500000000E+03  0.12500000000E+03 0.  0.
        -13    1    3    3    0    0  0.42175687349E+02  0.91798336923E+01  0.50433915316E+01  0.43456931692E+02  0.10566000000E+00 0.  1.
         23    2    1    0    0    0  0.62562964484E+00 -0.13881433131E+02  0.26098024526E+02  0.95433253775E+02  0.90737607659E+02 0.  0.
         13    1    3    3    0    0 -0.41550057704E+02 -0.23061266823E+02  0.21054632994E+02  0.51976322082E+02  0.10566000000E+00 0. -1.
         22    1    1    0    0    0 -0.62562964484E+00  0.13881433131E+02 -0.26098024526E+02  0.29566746225E+02  0.00000000000E+00 0. -1.
</event>
<event>
 5    1  0.1766627E-003  0.9118800E+02  0.7818608E-02  0.1130116E+00
         25   -1    0    0    0    0  0.00000000000E+00  0.00000000000E+00  0.99999998245E-14  0.12500000000E+03  0.12500000000E+03 0.  0.
        -13    1    3    3    0    0 -0.19605783334E+01 -0.33270233361E+02 -0.15761299962E+02  0.36867086077E+02  0.10566000000E+00 0.  1.
         23    2    1    0    0    0  0.24102820241E+02  0.11547582838E+02  0.12029575447E+02  0.95691241950E+02  0.91092318488E+02 0.  0.
         13    1    3    3    0    0  0.26063398574E+02  0.44817816199E+02  0.27790875409E+02  0.58824155873E+02  0.10566000000E+00 0. -1.
         22    1    1    0    0    0 -0.24102820241E+02 -0.11547582838E+02 -0.12029575447E+02  0.29308758050E+02  0.00000000000E+00 0. -1.
</event>
<event>
 5    1  0.1766627E-003  0.9118800E+02  0.7818608E-02  0.1130116E+00
         25   -1    0    0    0    0  0.00000000000E+00  0.00000000000E+00  0.99999998245E-14  0.12500000000E+03  0.12500000000E+03 0.  0.
        -13    1    3    3    0    0  0.10053343176E+02  0.22826982156E+02 -0.40691629389E+02  0.47727986441E+02  0.10566000000E+00 0.  1.
         23    2    1    0    0    0 -0.18341838177E+02 -0.11306973550E+01  0.43507394533E+01  0.10611533855E+03  0.10442142806E+03 0.  0.
         13    1    3    3    0    0 -0.28395181353E+02 -0.23957679511E+02  0.45042368842E+02  0.58387352111E+02  0.10566000000E+00 0. -1.
         22    1    1    0    0    0  0.18341838177E+02  0.11306973550E+01 -0.43507394533E+01  0.18884661448E+02  0.00000000000E+00 0.  1.
</event>
<event>
 5    1  0.1766627E-003  0.9118800E+02  0.7818608E-02  0.1130116E+00
         25   -1    0    0    0    0  0.00000000000E+00  0.00000000000E+00  0.99999998245E-14  0.12500000000E+03  0.12500000000E+03 0.  0.
        -13    1    3    3    0    0 -0.30011304233E+02 -0.22752468698E+02 -0.25282714402E+02  0.45360555830E+02  0.10566000000E+00 0.  1.
         23    2    1    0    0    0  0.17475234129E+02 -0.42904823253E+01 -0.22228218595E+02  0.96401298135E+02  0.92061525806E+02 0.  0.
         13    1    3    3    0    0  0.47486538362E+02  0.18461986372E+02  0.30544958069E+01  0.51040742305E+02  0.10566000000E+00 0. -1.
         22    1    1    0    0    0 -0.17475234129E+02  0.42904823253E+01  0.22228218595E+02  0.28598701865E+02  0.00000000000E+00 0. -1.
</event>
<event>
 5    1  0.1766627E-003  0.9118800E+02  0.7818608E-02  0.1130116E+00
         25   -1    0    0    0    0  0.00000000000E+00  0.00000000000E+00  0.99999998245E-14  0.12500000000E+03  0.12500000000E+03 0.  0.
        -13    1    3    3    0    0 -0.34653741701E+02  0.14523889977E+02 -0.27362627077E+02  0.46481713808E+02  0.10566000000E+00 0.  1.
         23    2    1    0    0    0 -0.20352369692E+02 -0.20552183455E+02  0.41806235354E+01  0.95775202140E+02  0.91207458768E+02 0.  0.
         13    1    3    3    0    0  0.14301372009E+02 -0.35076073432E+02  0.31543250612E+02  0.49293488332E+02  0.10566000000E+00 0. -1.
         22    1    1    0    0    0  0.20352369692E+02  0.20552183455E+02 -0.41806235354E+01  0.29224797860E+02  0.00000000000E+00 0.  1.
</event>
<event>
 5    1  0.1766627E-003  0.9118800E+02  0.7818608E-02  0.1130116E+00
         25   -1    0    0    0    0  0.00000000000E+00  0.00000000000E+00  0.99999998245E-14  0.12500000000E+03  0.12500000000E+03 0.  0.
        -13    1    3    3    0    0  0.23460538714E+02 -0.18987027889E+02 -0.52140837007E+02  0.60246013583E+02  0.10566000000E+00 0. -1.
         23    2    1    0    0    0  0.20638265167E+02 -0.10088613667E+02 -0.17503708619E+02  0.96119246370E+02  0.91677759530E+02 0.  0.
         13    1    3    3    0    0 -0.28222735470E+01  0.88984142216E+01  0.34637128388E+02  0.35873232788E+02  0.10566000000E+00 0.  1.
         22    1    1    0    0    0 -0.20638265167E+02  0.10088613667E+02  0.17503708619E+02  0.28880753630E+02  0.00000000000E+00 0. -1.
</event>
<event>
 5    1  0.1766627E-003  0.9118800E+02  0.7818608E-02  0.1130116E+00
         25   -1    0    0    0    0  0.00000000000E+00  0.00000000000E+00  0.99999998245E-14  0.12500000000E+03  0.12500000000E+03 0.  0.
        -13    1    3    3    0    0  0.16605604652E+02  0.27320618838E+02  0.98583372055E+01  0.33456842290E+02  0.10566000000E+00 0. -1.
         23    2    1    0    0    0  0.74742519420E+01 -0.29908918518E+02 -0.61134700129E+01  0.93570994852E+02  0.88134832574E+02 0.  0.
         13    1    3    3    0    0 -0.91313527100E+01 -0.57229537356E+02 -0.15971807218E+02  0.60114152561E+02  0.10566000000E+00 0.  1.
         22    1    1    0    0    0 -0.74742519420E+01  0.29908918518E+02  0.61134700129E+01  0.31429005148E+02  0.00000000000E+00 0.  1.
</event>
<event>
 5    1  0.1766627E-003  0.9118800E+02  0.7818608E-02  0.1130116E+00
         25   -1    0    0    0    0  0.00000000000E+00  0.00000000000E+00  0.99999998245E-14  0.12500000000E+03  0.12500000000E+03 0.  0.
        -13    1    3    3    0    0  0.34542648271E+02  0.26142505505E+02 -0.33228070857E+02  0.54596162874E+02  0.10566000000E+00 0.  1.
         23    2    1    0    0    0  0.14318663391E+02 -0.12140277282E+02 -0.99858408447E+01  0.10373671072E+03  0.10153412076E+03 0.  0.
         13    1    3    3    0    0 -0.20223984880E+02 -0.38282782787E+02  0.23242230012E+02  0.49140547843E+02  0.10566000000E+00 0. -1.
         22    1    1    0    0    0 -0.14318663391E+02  0.12140277282E+02  0.99858408447E+01  0.21263289284E+02  0.00000000000E+00 0.  1.
</event>
<event>
 5    1  0.1766627E-003  0.9118800E+02  0.7818608E-02  0.1130116E+00
         25   -1    0    0    0    0  0.00000000000E+00  0.00000000000E+00  0.99999998245E-14  0.12500000000E+03  0.12500000000E+03 0.  0.
        -13    1    3    3    0    0  0.14839137881E+01 -0.30391830014E+02  0.16247837834E+02  0.34494473906E+02  0.10566000000E+00 0.  1.
         23    2    1    0    0    0 -0.13586565164E+02  0.20088547378E+02 -0.15703091725E+02  0.96108278375E+02  0.91662803764E+02 0.  0.
         13    1    3    3    0    0 -0.15070478952E+02  0.50480377391E+02 -0.31950929560E+02  0.61613804469E+02  0.10566000000E+00 0. -1.
         22    1    1    0    0    0  0.13586565164E+02 -0.20088547378E+02  0.15703091725E+02  0.28891721625E+02  0.00000000000E+00 0. -1.
</event>
<event>
 5    1  0.1766627E-003  0.9118800E+02  0.7818608E-02  0.1130116E+00
         25   -1    0    0    0    0  0.00000000000E+00  0.00000000000E+00  0.99999998245E-14  0.12500000000E+03  0.12500000000E+03 0.  0.
        -13    1    3    3    0    0  0.16523378045E+02 -0.52826857100E+02  0.13520128644E+02  0.56978100141E+02  0.10566000000E+00 0.  1.
         23    2    1    0    0    0 -0.86912204463E+01 -0.26846545986E+02 -0.27056157524E+01  0.96652254044E+02  0.92401642360E+02 0.  0.
         13    1    3    3    0    0 -0.25214598491E+02  0.25980311114E+02 -0.16225744396E+02  0.39674153903E+02  0.10566000000E+00 0. -1.
         22    1    1    0    0    0  0.86912204463E+01  0.26846545986E+02  0.27056157524E+01  0.28347745956E+02  0.00000000000E+00 0.  1.
</event>
<event>
 5    1  0.1766627E-003  0.9118800E+02  0.7818608E-02  0.1130116E+00
         25   -1    0    0    0    0  0.00000000000E+00  0.00000000000E+00  0.99999998245E-14  0.12500000000E+03  0.12500000000E+03 0.  0.
        -13    1    3    3    0    0  0.44448751256E+02 -0.31894600824E+02 -0.25256198435E+02  0.60256483247E+02  0.10566000000E+00 0. -1.
         23    2    1    0    0    0  0.72170704999E+01 -0.87080093636E+01 -0.16519778261E+02  0.10497954527E+03  0.10305283265E+03 0.  0.
         13    1    3    3    0    0 -0.37231680756E+02  0.23186591460E+02  0.87364201732E+01  0.44723062026E+02  0.10566000000E+00 0.  1.
         22    1    1    0    0    0 -0.72170704999E+01  0.87080093636E+01  0.16519778261E+02  0.20020454727E+02  0.00000000000E+00 0. -1.
</event>
<event>
 5    1  0.1766627E-003  0.9118800E+02  0.7818608E-02  0.1130116E+00
         25   -1    0    0    0    0  0.00000000000E+00  0.00000000000E+00  0.99999998245E-14  0.12500000000E+03  0.12500000000E+03 0.  0.
        -13    1    3    3    0    0 -0.21511538768E+02 -0.29329426132E+01  0.41106547904E+02  0.46487717702E+02  0.10566000000E+00 0. -1.
         23    2    1    0    0    0  0.32704446771E+01 -0.27111307871E+02  0.37261770262E+01  0.97439099832E+02  0.93460017965E+02 0.  0.
         13    1    3    3    0    0  0.24781983445E+02 -0.24178365257E+02 -0.37380370877E+02  0.50951382130E+02  0.10566000000E+00 0.  1.
         22    1    1    0    0    0 -0.32704446771E+01  0.27111307871E+02 -0.37261770262E+01  0.27560900168E+02  0.00000000000E+00 0.  1.
</event>
<event>
 5    1  0.1766627E-003  0.9118800E+02  0.7818608E-02  0.1130116E+00
         25   -1    0    0    0    0  0.00000000000E+00  0.00000000000E+00  0.99999998245E-14  0.12500000000E+03  0.12500000000E+03 0.  0.
        -13    1    3    3    0    0 -0.30044952817E+02 -0.35544865306E+01 -0.14813659926E+02  0.33686633087E+02  0.10566000000E+00 0.  1.
         23    2    1    0    0    0 -0.41768796868E+01  0.39561352464E+02 -0.79262684119E+01  0.84436806541E+02  0.74055395720E+02 0.  0.
         13    1    3    3    0    0  0.25868073131E+02  0.43115838994E+02  0.68873915146E+01  0.50750173454E+02  0.10566000000E+00 0. -1.
         22    1    1    0    0    0  0.41768796868E+01 -0.39561352464E+02  0.79262684119E+01  0.40563193459E+02  0.00000000000E+00 0.  1.
</event>
<event>
 5    1  0.1766627E-003  0.9118800E+02  0.7818608E-02  0.1130116E+00
         25   -1    0    0    0    0  0.00000000000E+00  0.00000000000E+00  0.99999998245E-14  0.12500000000E+03  0.12500000000E+03 0.  0.
        -13    1    3    3    0    0  0.79051342284E+01  0.47551021786E+02 -0.38247854053E+02  0.61534545775E+02  0.10566000000E+00 0. -1.
         23    2    1    0    0    0  0.68357236171E+01  0.17236934963E+02 -0.22913677052E+02  0.95523303435E+02  0.90861575261E+02 0.  0.
         13    1    3    3    0    0 -0.10694106113E+01 -0.30314086823E+02  0.15334177000E+02  0.33988757660E+02  0.10566000000E+00 0.  1.
         22    1    1    0    0    0 -0.68357236171E+01 -0.17236934963E+02  0.22913677052E+02  0.29476696565E+02  0.00000000000E+00 0. -1.
</event>
<event>
 5    1  0.1766627E-003  0.9118800E+02  0.7818608E-02  0.1130116E+00
         25   -1    0    0    0    0  0.00000000000E+00  0.00000000000E+00  0.99999998245E-14  0.12500000000E+03  0.12500000000E+03 0.  0.
        -13    1    3    3    0    0  0.37406517512E+02 -0.27717429529E+02 -0.10072254903E+01  0.46567468466E+02  0.10566000000E+00 0.  1.
         23    2    1    0    0    0  0.28490819437E+02  0.16427621135E+02  0.39503469854E+01  0.91876009152E+02  0.85697154492E+02 0.  0.
         13    1    3    3    0    0 -0.89156980752E+01  0.44145050664E+02  0.49575724757E+01  0.45308540687E+02  0.10566000000E+00 0. -1.
         22    1    1    0    0    0 -0.28490819437E+02 -0.16427621135E+02 -0.39503469854E+01  0.33123990848E+02  0.00000000000E+00 0. -1.
</event>
<event>
 5    1  0.1766627E-003  0.9118800E+02  0.7818608E-02  0.1130116E+00
         25   -1    0    0    0    0  0.00000000000E+00  0.00000000000E+00  0.99999998245E-14  0.12500000000E+03  0.12500000000E+03 0.  0.
        -13    1    3    3    0    0 -0.31120895917E+02  0.26873467638E+02  0.43653062076E+02  0.59969112202E+02  0.10566000000E+00 0.  1.
         23    2    1    0    0    0 -0.17032336147E+02  0.14618700690E+01  0.25731403700E+02  0.94107562817E+02  0.88892579579E+02 0.  0.
         13    1    3    3    0    0  0.14088559770E+02 -0.25411597569E+02 -0.17921658376E+02  0.34138450615E+02  0.10566000000E+00 0. -1.
         22    1    1    0    0    0  0.17032336147E+02 -0.14618700690E+01 -0.25731403700E+02  0.30892437183E+02  0.00000000000E+00 0.  1.
</event>
<event>
 5    1  0.1766627E-003  0.9118800E+02  0.7818608E-02  0.1130116E+00
         25   -1    0    0    0    0  0.00000000000E+00  0.00000000000E+00  0.99999998245E-14  0.12500000000E+03  0.12500000000E+03 0.  0.
        -13    1    3    3    0    0  0.18432048992E+02  0.81231711818E+01 -0.20711685716E+02  0.28891372923E+02  0.10566000000E+00 0.  1.
         23    2    1    0    0    0  0.72077768909E+01  0.24642028876E+02  0.31248044967E+02  0.84557176792E+02  0.74258293799E+02 0.  0.
         13    1    3    3    0    0 -0.11224272102E+02  0.16518857694E+02  0.51959730683E+02  0.55665803869E+02  0.10566000000E+00 0. -1.
         22    1    1    0    0    0 -0.72077768909E+01 -0.24642028876E+02 -0.31248044967E+02  0.40442823208E+02  0.00000000000E+00 0. -1.
</event>
<event>
 5    1  0.1766627E-003  0.9118800E+02  0.7818608E-02  0.1130116E+00
         25   -1    0    0    0    0  0.00000000000E+00  0.00000000000E+00  0.99999998245E-14  0.12500000000E+03  0.12500000000E+03 0.  0.
        -13    1    3    3    0    0  0.37089121229E+01 -0.67447636352E+00 -0.18854150727E+02  0.19227613246E+02  0.10566000000E+00 0.  1.
         23    2    1    0    0    0 -0.19143360260E+02  0.42125194073E+02  0.12592956715E+02  0.77046034819E+02  0.60303471746E+02 0.  0.
         13    1    3    3    0    0 -0.22852272383E+02  0.42799670437E+02  0.31447107442E+02  0.57818421572E+02  0.10566000000E+00 0. -1.
         22    1    1    0    0    0  0.19143360260E+02 -0.42125194073E+02 -0.12592956715E+02  0.47953965181E+02  0.00000000000E+00 0. -1.
</event>
<event>
 5    1  0.1766627E-003  0.9118800E+02  0.7818608E-02  0.1130116E+00
         25   -1    0    0    0    0  0.00000000000E+00  0.00000000000E+00  0.99999998245E-14  0.12500000000E+03  0.12500000000E+03 0.  0.
        -13    1    3    3    0    0  0.20587273507E+01 -0.47632353211E+02 -0.16201655135E+02  0.50354584934E+02  0.10566000000E+00 0. -1.
         23    2    1    0    0    0 -0.16877714050E+02 -0.18600466577E+02  0.13927242408E+02  0.96280622055E+02  0.91897527245E+02 0.  0.
         13    1    3    3    0    0 -0.18936441400E+02  0.29031886634E+02  0.30128897544E+02  0.45926037121E+02  0.10566000000E+00 0.  1.
         22    1    1    0    0    0  0.16877714050E+02  0.18600466577E+02 -0.13927242408E+02  0.28719377945E+02  0.00000000000E+00 0. -1.
</event>
<event>
 5    1  0.1766627E-003  0.9118800E+02  0.7818608E-02  0.1130116E+00
         25   -1    0    0    0    0  0.00000000000E+00  0.00000000000E+00  0.99999998245E-14  0.12500000000E+03  0.12500000000E+03 0.  0.
        -13    1    3    3    0    0 -0.40497534767E+02 -0.93988867559E+01  0.40715543027E+02  0.58190686562E+02  0.10566000000E+00 0. -1.
         23    2    1    0    0    0 -0.17931505290E+02  0.12167619954E+02  0.18550702829E+02  0.96474249654E+02  0.92160525246E+02 0.  0.
         13    1    3    3    0    0  0.22566029477E+02  0.21566506710E+02 -0.22164840198E+02  0.38283563093E+02  0.10566000000E+00 0.  1.
         22    1    1    0    0    0  0.17931505290E+02 -0.12167619954E+02 -0.18550702829E+02  0.28525750346E+02  0.00000000000E+00 0. -1.
</event>
<event>
 5    1  0.1766627E-003  0.9118800E+02  0.7818608E-02  0.1130116E+00
         25   -1    0    0    0    0  0.00000000000E+00  0.00000000000E+00  0.99999998245E-14  0.12500000000E+03  0.12500000000E+03 0.  0.
        -13    1    3    3    0    0  0.36785981601E+02 -0.27357133133E+01  0.46444508128E+02  0.59311011364E+02  0.10566000000E+00 0.  1.
         23    2    1    0    0    0  0.18319613918E+02 -0.15025506332E+02  0.18805594431E+02  0.94750628493E+02  0.89792299911E+02 0.  0.
         13    1    3    3    0    0 -0.18466367683E+02 -0.12289793019E+02 -0.27638913697E+02  0.35439617130E+02  0.10566000000E+00 0. -1.
         22    1    1    0    0    0 -0.18319613918E+02  0.15025506332E+02 -0.18805594431E+02  0.30249371507E+02  0.00000000000E+00 0.  1.
</event>
<event>
 5    1  0.1766627E-003  0.9118800E+02  0.7818608E-02  0.1130116E+00
         25   -1    0    0    0    0  0.00000000000E+00  0.00000000000E+00  0.99999998245E-14  0.12500000000E+03  0.12500000000E+03 0.  0.
        -13    1    3    3    0    0  0.50863687573E+02  0.90156740894E+00 -0.68119998232E+01  0.51325841863E+02  0.10566000000E+00 0.  1.
         23    2    1    0    0    0  0.13223378927E+02  0.23641353317E+02 -0.11541367642E+02  0.95555569220E+02  0.90905953078E+02 0.  0.
         13    1    3    3    0    0 -0.37640308646E+02  0.22739785908E+02 -0.47293678183E+01  0.44229727357E+02  0.10566000000E+00 0. -1.
         22    1    1    0    0    0 -0.13223378927E+02 -0.23641353317E+02  0.11541367642E+02  0.29444430780E+02  0.00000000000E+00 0. -1.
</event>
<event>
 5    1  0.1766627E-003  0.9118800E+02  0.7818608E-02  0.1130116E+00
         25   -1    0    0    0    0  0.00000000000E+00  0.00000000000E+00  0.99999998245E-14  0.12500000000E+03  0.12500000000E+03 0.  0.
        -13    1    3    3    0    0 -0.16000364885E+02  0.41505916402E+02 -0.31944046983E+02  0.54764825157E+02  0.10566000000E+00 0.  1.
         23    2    1    0    0    0 -0.24206121970E+02  0.17298340399E+02 -0.55727088883E+00  0.95242992889E+02  0.90475124881E+02 0.  0.
         13    1    3    3    0    0 -0.82057570840E+01 -0.24207576003E+02  0.31386776095E+02  0.40478167732E+02  0.10566000000E+00 0. -1.
         22    1    1    0    0    0  0.24206121970E+02 -0.17298340399E+02  0.55727088883E+00  0.29757007111E+02  0.00000000000E+00 0.  1.
</event>
<event>
 5    1  0.1766627E-003  0.9118800E+02  0.7818608E-02  0.1130116E+00
         25   -1    0    0    0    0  0.00000000000E+00  0.00000000000E+00  0.99999998245E-14  0.12500000000E+03  0.12500000000E+03 0.  0.
        -13    1    3    3    0    0 -0.77649311571E+01 -0.45136996989E+02  0.53085891006E+01  0.46106777542E+02  0.10566000000E+00 0.  1.
         23    2    1    0    0    0  0.22572039140E+02 -0.68261326023E+01 -0.12735032764E+02  0.98199363875E+02  0.94471376452E+02 0.  0.
         13    1    3    3    0    0  0.30336970297E+02  0.38310864386E+02 -0.18043621865E+02  0.52092586333E+02  0.10566000000E+00 0. -1.
         22    1    1    0    0    0 -0.22572039140E+02  0.68261326023E+01  0.12735032764E+02  0.26800636125E+02  0.00000000000E+00 0.  1.
</event>
<event>
 5    1  0.1766627E-003  0.9118800E+02  0.7818608E-02  0.1130116E+00
         25   -1    0    0    0    0  0.00000000000E+00  0.00000000000E+00  0.99999998245E-14  0.12500000000E+03  0.12500000000E+03 0.  0.
        -13    1    3    3    0    0 -0.24973099795E+02  0.19907413961E+02  0.23250745434E+02  0.39504039936E+02  0.10566000000E+00 0.  1.
         23    2    1    0    0    0 -0.13308544054E+02 -0.50509912250E+01 -0.25669161330E+02  0.95648071604E+02  0.91033059385E+02 0.  0.
         13    1    3    3    0    0  0.11664555740E+02 -0.24958405186E+02 -0.48919906764E+02  0.56144031668E+02  0.10566000000E+00 0. -1.
         22    1    1    0    0    0  0.13308544054E+02  0.50509912250E+01  0.25669161330E+02  0.29351928396E+02  0.00000000000E+00 0. -1.
</event>
<event>
 5    1  0.1766627E-003  0.9118800E+02  0.7818608E-02  0.1130116E+00
         25   -1    0    0    0    0  0.00000000000E+00  0.00000000000E+00  0.99999998245E-14  0.12500000000E+03  0.12500000000E+03 0.  0.
        -13    1    3    3    0    0 -0.29389241378E+01  0.12946168318E+02  0.38476347743E+02  0.40702346970E+02  0.10566000000E+00 0.  1.
         23    2    1    0    0    0  0.26640842279E+02  0.39289904838E+01 -0.83393193832E+01  0.96809297786E+02  0.92613845868E+02 0.  0.
         13    1    3    3    0    0  0.29579766417E+02 -0.90171778345E+01 -0.46815667126E+02  0.56106950816E+02  0.10566000000E+00 0. -1.
         22    1    1    0    0    0 -0.26640842279E+02 -0.39289904838E+01  0.83393193832E+01  0.28190702214E+02  0.00000000000E+00 0. -1.
</event>
<event>
 5    1  0.1766627E-003  0.9118800E+02  0.7818608E-02  0.1130116E+00
         25   -1    0    0    0    0  0.00000000000E+00  0.00000000000E+00  0.99999998245E-14  0.12500000000E+03  0.12500000000E+03 0.  0.
        -13    1    3    3    0    0 -0.32959249916E+02 -0.38541947321E+01  0.21864923156E+02  0.39739816315E+02  0.10566000000E+00 0. -1.
         23    2    1    0    0    0  0.19464230928E+02 -0.19640842475E+02  0.67715484855E+01  0.96531195184E+02  0.92237729785E+02 0.  0.
         13    1    3    3    0    0  0.52423480845E+02 -0.15786647743E+02 -0.15093374671E+02  0.56791378869E+02  0.10566000000E+00 0.  1.
         22    1    1    0    0    0 -0.19464230928E+02  0.19640842475E+02 -0.67715484855E+01  0.28468804816E+02  0.00000000000E+00 0.  1.
</event>
<event>
 5    1  0.1766627E-003  0.9118800E+02  0.7818608E-02  0.1130116E+00
         25   -1    0    0    0    0  0.00000000000E+00  0.00000000000E+00  0.99999998245E-14  0.12500000000E+03  0.12500000000E+03 0.  0.
        -13    1    3    3    0    0  0.30041791995E+01  0.40475079470E+02 -0.19060446112E+02  0.44839367979E+02  0.10566000000E+00 0.  1.
         23    2    1    0    0    0  0.87232245986E+01 -0.11123630554E+02 -0.24164450989E+02  0.97004455789E+02  0.92876875201E+02 0.  0.
         13    1    3    3    0    0  0.57190453991E+01 -0.51598710024E+02 -0.51040048767E+01  0.52165087810E+02  0.10566000000E+00 0. -1.
         22    1    1    0    0    0 -0.87232245986E+01  0.11123630554E+02  0.24164450989E+02  0.27995544211E+02  0.00000000000E+00 0.  1.
</event>
<event>
 5    1  0.1766627E-003  0.9118800E+02  0.7818608E-02  0.1130116E+00
         25   -1    0    0    0    0  0.00000000000E+00  0.00000000000E+00  0.99999998245E-14  0.12500000000E+03  0.12500000000E+03 0.  0.
        -13    1    3    3    0    0 -0.23263514976E+01  0.65578049784E+01 -0.60397464401E+02  0.60797052458E+02  0.10566000000E+00 0.  1.
         23    2    1    0    0    0  0.83041828409E+01  0.72248340784E+01 -0.27377292116E+02  0.95492817761E+02  0.90819625853E+02 0.  0.
         13    1    3    3    0    0  0.10630534338E+02  0.66702910006E+00  0.33020172285E+02  0.34695765303E+02  0.10566000000E+00 0. -1.
         22    1    1    0    0    0 -0.83041828409E+01 -0.72248340784E+01  0.27377292116E+02  0.29507182239E+02  0.00000000000E+00 0.  1.
</event>
<event>
 5    1  0.1766627E-003  0.9118800E+02  0.7818608E-02  0.1130116E+00
         25   -1    0    0    0    0  0.00000000000E+00  0.00000000000E+00  0.99999998245E-14  0.12500000000E+03  0.12500000000E+03 0.  0.
        -13    1    3    3    0    0 -0.42090917545E+02  0.30852002582E+02  0.27956062908E+02  0.59203412237E+02  0.10566000000E+00 0.  1.
         23    2    1    0    0    0 -0.17408648289E+02  0.27777615064E+02  0.75898456643E+01  0.91350888703E+02  0.84927746795E+02 0.  0.
         13    1    3    3    0    0  0.24682269257E+02 -0.30743875182E+01 -0.20366217243E+02  0.32147476466E+02  0.10566000000E+00 0. -1.
         22    1    1    0    0    0  0.17408648289E+02 -0.27777615064E+02 -0.75898456643E+01  0.33649111297E+02  0.00000000000E+00 0.  1.
</event>
<event>
 5    1  0.1766627E-003  0.9118800E+02  0.7818608E-02  0.1130116E+00
         25   -1    0    0    0    0  0.00000000000E+00  0.00000000000E+00  0.99999998245E-14  0.12500000000E+03  0.12500000000E+03 0.  0.
        -13    1    3    3    0    0  0.17038645442E+02  0.43985651481E+02  0.16870951963E+02  0.50096837813E+02  0.10566000000E+00 0.  1.
         23    2    1    0    0    0 -0.17320708102E+02  0.22693456149E+02 -0.49396253292E+01  0.96027603144E+02  0.91552721347E+02 0.  0.
         13    1    3    3    0    0 -0.34359353545E+02 -0.21292195331E+02 -0.21810577292E+02  0.45930765331E+02  0.10566000000E+00 0. -1.
         22    1    1    0    0    0  0.17320708102E+02 -0.22693456149E+02  0.49396253292E+01  0.28972396856E+02  0.00000000000E+00 0.  1.
</event>
<event>
 5    1  0.1766627E-003  0.9118800E+02  0.7818608E-02  0.1130116E+00
         25   -1    0    0    0    0  0.00000000000E+00  0.00000000000E+00  0.99999998245E-14  0.12500000000E+03  0.12500000000E+03 0.  0.
        -13    1    3    3    0    0 -0.22401387954E+02 -0.52720867881E+01  0.35810764594E+02  0.42568052648E+02  0.10566000000E+00 0.  1.
         23    2    1    0    0    0  0.22827059548E+02  0.11783797150E+02  0.15480471346E+02  0.95007042226E+02  0.90148547169E+02 0.  0.
         13    1    3    3    0    0  0.45228447503E+02  0.17055883939E+02 -0.20330293248E+02  0.52438989578E+02  0.10566000000E+00 0. -1.
         22    1    1    0    0    0 -0.22827059548E+02 -0.11783797150E+02 -0.15480471346E+02  0.29992957774E+02  0.00000000000E+00 0. -1.
</event>
<event>
 5    1  0.1766627E-003  0.9118800E+02  0.7818608E-02  0.1130116E+00
         25   -1    0    0    0    0  0.00000000000E+00  0.00000000000E+00  0.99999998245E-14  0.12500000000E+03  0.12500000000E+03 0.  0.
        -13    1    3    3    0    0 -0.13174618259E+02  0.25555941505E+02 -0.17580501927E+02  0.33701067112E+02  0.10566000000E+00 0.  1.
         23    2    1    0    0    0 -0.12546044696E+02 -0.22025326957E+02  0.18667480548E+02  0.93519957194E+02  0.88062417060E+02 0.  0.
         13    1    3    3    0    0  0.62857356230E+00 -0.47581268461E+02  0.36247982475E+02  0.59818890082E+02  0.10566000000E+00 0. -1.
         22    1    1    0    0    0  0.12546044696E+02  0.22025326957E+02 -0.18667480548E+02  0.31480042806E+02  0.00000000000E+00 0. -1.
</event>
<event>
 5    1  0.1766627E-003  0.9118800E+02  0.7818608E-02  0.1130116E+00
         25   -1    0    0    0    0  0.00000000000E+00  0.00000000000E+00  0.99999998245E-14  0.12500000000E+03  0.12500000000E+03 0.  0.
        -13    1    3    3    0    0  0.54714177174E+02 -0.22255951514E+02  0.92244732725E+01  0.59783531451E+02  0.10566000000E+00 0.  1.
         23    2    1    0    0    0  0.22658332479E+02 -0.17686894183E+02 -0.61140751357E+01  0.95612788984E+02  0.90984598949E+02 0.  0.
         13    1    3    3    0    0 -0.32055844695E+02  0.45690573315E+01 -0.15338548408E+02  0.35829257532E+02  0.10566000000E+00 0. -1.
         22    1    1    0    0    0 -0.22658332479E+02  0.17686894183E+02  0.61140751357E+01  0.29387211016E+02  0.00000000000E+00 0.  1.
</event>
<event>
 5    1  0.1766627E-003  0.9118800E+02  0.7818608E-02  0.1130116E+00
         25   -1    0    0    0    0  0.00000000000E+00  0.00000000000E+00  0.99999998245E-14  0.12500000000E+03  0.12500000000E+03 0.  0.
        -13    1    3    3    0    0 -0.26204596010E+02 -0.26030373736E+02  0.16984819106E+02  0.40654107455E+02  0.10566000000E+00 0. -1.
         23    2    1    0    0    0  0.13136037157E+02  0.15017338565E+02  0.18865483123E+02  0.97541260348E+02  0.93596554889E+02 0.  0.
         13    1    3    3    0    0  0.39340633167E+02  0.41047712301E+02  0.18806640177E+01  0.56887152893E+02  0.10566000000E+00 0.  1.
         22    1    1    0    0    0 -0.13136037157E+02 -0.15017338565E+02 -0.18865483123E+02  0.27458739652E+02  0.00000000000E+00 0.  1.
</event>
<event>
 5    1  0.1766627E-003  0.9118800E+02  0.7818608E-02  0.1130116E+00
         25   -1    0    0    0    0  0.00000000000E+00  0.00000000000E+00  0.99999998245E-14  0.12500000000E+03  0.12500000000E+03 0.  0.
        -13    1    3    3    0    0  0.11254326849E+02 -0.23071606410E+02 -0.23158213097E+02  0.34572718913E+02  0.10566000000E+00 0. -1.
         23    2    1    0    0    0 -0.11871192095E+02  0.48665982435E+01  0.26202592035E+02  0.95824928285E+02  0.91275583106E+02 0.  0.
         13    1    3    3    0    0 -0.23125518944E+02  0.27938204654E+02  0.49360805132E+02  0.61252209372E+02  0.10566000000E+00 0.  1.
         22    1    1    0    0    0  0.11871192095E+02 -0.48665982435E+01 -0.26202592035E+02  0.29175071715E+02  0.00000000000E+00 0.  1.
</event>
<event>
 5    1  0.1766627E-003  0.9118800E+02  0.7818608E-02  0.1130116E+00
         25   -1    0    0    0    0  0.00000000000E+00  0.00000000000E+00  0.99999998245E-14  0.12500000000E+03  0.12500000000E+03 0.  0.
        -13    1    3    3    0    0 -0.85822257377E+00  0.26523916605E+02 -0.21692230569E+02  0.34275628794E+02  0.10566000000E+00 0.  1.
         23    2    1    0    0    0  0.37787427360E+01 -0.30515159077E+02 -0.53581750382E+01  0.93788401676E+02  0.88442639146E+02 0.  0.
         13    1    3    3    0    0  0.46369653098E+01 -0.57039075683E+02  0.16334055531E+02  0.59512772883E+02  0.10566000000E+00 0. -1.
         22    1    1    0    0    0 -0.37787427360E+01  0.30515159077E+02  0.53581750382E+01  0.31211598324E+02  0.00000000000E+00 0. -1.
</event>
<event>
 5    1  0.1766627E-003  0.9118800E+02  0.7818608E-02  0.1130116E+00
         25   -1    0    0    0    0  0.00000000000E+00  0.00000000000E+00  0.99999998245E-14  0.12500000000E+03  0.12500000000E+03 0.  0.
        -13    1    3    3    0    0  0.20428072281E+02  0.51660803412E+02  0.11704612006E+02  0.56772826709E+02  0.10566000000E+00 0.  1.
         23    2    1    0    0    0  0.12688749054E+02  0.24010061480E+02 -0.13221035638E+02  0.94795973974E+02  0.89855403252E+02 0.  0.
         13    1    3    3    0    0 -0.77393232273E+01 -0.27650741932E+02 -0.24925647644E+02  0.38023147265E+02  0.10566000000E+00 0. -1.
         22    1    1    0    0    0 -0.12688749054E+02 -0.24010061480E+02  0.13221035638E+02  0.30204026026E+02  0.00000000000E+00 0.  1.
</event>
<event>
 5    1  0.1766627E-003  0.9118800E+02  0.7818608E-02  0.1130116E+00
         25   -1    0    0    0    0  0.00000000000E+00  0.00000000000E+00  0.99999998245E-14  0.12500000000E+03  0.12500000000E+03 0.  0.
        -13    1    3    3    0    0  0.22805185779E+02  0.20613198407E+02 -0.82467453840E+01  0.31827667531E+02  0.10566000000E+00 0.  1.
         23    2    1    0    0    0 -0.30161389239E+02 -0.28302330996E+01  0.10856607387E+02  0.92819485023E+02  0.87062456064E+02 0.  0.
         13    1    3    3    0    0 -0.52966575018E+02 -0.23443431507E+02  0.19103352771E+02  0.60991817493E+02  0.10566000000E+00 0. -1.
         22    1    1    0    0    0  0.30161389239E+02  0.28302330996E+01 -0.10856607387E+02  0.32180514977E+02  0.00000000000E+00 0. -1.
</event>
<event>
 5    1  0.1766627E-003  0.9118800E+02  0.7818608E-02  0.1130116E+00
         25   -1    0    0    0    0  0.00000000000E+00  0.00000000000E+00  0.99999998245E-14  0.12500000000E+03  0.12500000000E+03 0.  0.
        -13    1    3    3    0    0  0.50676247348E+02 -0.11542695394E+02 -0.82115116280E+01  0.52618969483E+02  0.10566000000E+00 0.  1.
         23    2    1    0    0    0  0.55375359144E+01 -0.24318235203E+02 -0.42721384446E+01  0.99696007543E+02  0.96431332489E+02 0.  0.
         13    1    3    3    0    0 -0.45138711434E+02 -0.12775539809E+02  0.39393731834E+01  0.47077038059E+02  0.10566000000E+00 0. -1.
         22    1    1    0    0    0 -0.55375359144E+01  0.24318235203E+02  0.42721384446E+01  0.25303992457E+02  0.00000000000E+00 0. -1.
</event>
<event>
 5    1  0.1766627E-003  0.9118800E+02  0.7818608E-02  0.1130116E+00
         25   -1    0    0    0    0  0.00000000000E+00  0.00000000000E+00  0.99999998245E-14  0.12500000000E+03  0.12500000000E+03 0.  0.
        -13    1    3    3    0    0 -0.14151803606E+02  0.30244621984E+02 -0.40448391104E+02  0.52450874265E+02  0.10566000000E+00 0.  1.
         23    2    1    0    0    0 -0.26348080501E+02  0.99149775990E+01 -0.31141931362E+01  0.96676399845E+02  0.92434300783E+02 0.  0.
         13    1    3    3    0    0 -0.12196276894E+02 -0.20329644385E+02  0.37334197967E+02  0.44225525580E+02  0.10566000000E+00 0. -1.
         22    1    1    0    0    0  0.26348080501E+02 -0.99149775990E+01  0.31141931362E+01  0.28323600155E+02  0.00000000000E+00 0.  1.
</event>
<event>
 5    1  0.1766627E-003  0.9118800E+02  0.7818608E-02  0.1130116E+00
         25   -1    0    0    0    0  0.00000000000E+00  0.00000000000E+00  0.99999998245E-14  0.12500000000E+03  0.12500000000E+03 0.  0.
        -13    1    3    3    0    0 -0.26107156105E+02 -0.49593049394E+02 -0.26287358914E+02  0.61903881548E+02  0.10566000000E+00 0.  1.
         23    2    1    0    0    0 -0.92466130363E+01 -0.27540691642E+02 -0.90865391457E+01  0.94560638272E+02  0.89527423553E+02 0.  0.
         13    1    3    3    0    0  0.16860543068E+02  0.22052357752E+02  0.17200819768E+02  0.32656756724E+02  0.10566000000E+00 0. -1.
         22    1    1    0    0    0  0.92466130363E+01  0.27540691642E+02  0.90865391457E+01  0.30439361728E+02  0.00000000000E+00 0.  1.
</event>
<event>
 5    1  0.1766627E-003  0.9118800E+02  0.7818608E-02  0.1130116E+00
         25   -1    0    0    0    0  0.00000000000E+00  0.00000000000E+00  0.99999998245E-14  0.12500000000E+03  0.12500000000E+03 0.  0.
        -13    1    3    3    0    0 -0.16338799966E+02  0.11619985157E+01  0.44340902792E+02  0.47269794259E+02  0.10566000000E+00 0. -1.
         23    2    1    0    0    0  0.14509982823E+02 -0.20713599901E+02  0.12106325001E+02  0.96961527727E+02  0.92819081722E+02 0.  0.
         13    1    3    3    0    0  0.30848782789E+02 -0.21875598416E+02 -0.32234577791E+02  0.49691733468E+02  0.10566000000E+00 0.  1.
         22    1    1    0    0    0 -0.14509982823E+02  0.20713599901E+02 -0.12106325001E+02  0.28038472273E+02  0.00000000000E+00 0.  1.
</event>
<event>
 5    1  0.1766627E-003  0.9118800E+02  0.7818608E-02  0.1130116E+00
         25   -1    0    0    0    0  0.00000000000E+00  0.00000000000E+00  0.99999998245E-14  0.12500000000E+03  0.12500000000E+03 0.  0.
        -13    1    3    3    0    0 -0.22693532287E+02  0.25014664920E+02 -0.19237418883E+02  0.38869259294E+02  0.10566000000E+00 0.  1.
         23    2    1    0    0    0  0.26812647365E+02 -0.25578734519E+01 -0.99201572308E+01  0.96296859147E+02  0.91919610458E+02 0.  0.
         13    1    3    3    0    0  0.49506179653E+02 -0.27572538372E+02  0.93172616524E+01  0.57427599853E+02  0.10566000000E+00 0. -1.
         22    1    1    0    0    0 -0.26812647365E+02  0.25578734519E+01  0.99201572308E+01  0.28703140853E+02  0.00000000000E+00 0. -1.
</event>
<event>
 5    1  0.1766627E-003  0.9118800E+02  0.7818608E-02  0.1130116E+00
         25   -1    0    0    0    0  0.00000000000E+00  0.00000000000E+00  0.99999998245E-14  0.12500000000E+03  0.12500000000E+03 0.  0.
        -13    1    3    3    0    0  0.46487131664E+02  0.59219422801E+01  0.27330365051E+02  0.54250187360E+02  0.10566000000E+00 0.  1.
         23    2    1    0    0    0  0.77879304836E+01 -0.94192970237E+01  0.26420721886E+02  0.95889356541E+02  0.91363773648E+02 0.  0.
         13    1    3    3    0    0 -0.38699201180E+02 -0.15341239304E+02 -0.90964316482E+00  0.41639169181E+02  0.10566000000E+00 0. -1.
         22    1    1    0    0    0 -0.77879304836E+01  0.94192970237E+01 -0.26420721886E+02  0.29110643459E+02  0.00000000000E+00 0.  1.
</event>
<event>
 5    1  0.1766627E-003  0.9118800E+02  0.7818608E-02  0.1130116E+00
         25   -1    0    0    0    0  0.00000000000E+00  0.00000000000E+00  0.99999998245E-14  0.12500000000E+03  0.12500000000E+03 0.  0.
        -13    1    3    3    0    0  0.49768035868E+01 -0.32408016009E+02 -0.12250649556E+02  0.35001966432E+02  0.10566000000E+00 0.  1.
         23    2    1    0    0    0  0.17029167325E+01  0.28072467221E+02 -0.81930044411E+01  0.95706849554E+02  0.91113733259E+02 0.  0.
         13    1    3    3    0    0 -0.32738868542E+01  0.60480483230E+02  0.40576451144E+01  0.60704883121E+02  0.10566000000E+00 0. -1.
         22    1    1    0    0    0 -0.17029167325E+01 -0.28072467221E+02  0.81930044411E+01  0.29293150446E+02  0.00000000000E+00 0. -1.
</event>
<event>
 5    1  0.1766627E-003  0.9118800E+02  0.7818608E-02  0.1130116E+00
         25   -1    0    0    0    0  0.00000000000E+00  0.00000000000E+00  0.99999998245E-14  0.12500000000E+03  0.12500000000E+03 0.  0.
        -13    1    3    3    0    0  0.19989887057E+02  0.22739167907E+02  0.15429678904E+02  0.33981634698E+02  0.10566000000E+00 0. -1.
         23    2    1    0    0    0 -0.26943374563E+02 -0.34747215663E+01 -0.13098914969E+02  0.94840412865E+02  0.89917202004E+02 0.  0.
         13    1    3    3    0    0 -0.46933261619E+02 -0.26213889473E+02 -0.28528593873E+02  0.60858778167E+02  0.10566000000E+00 0.  1.
         22    1    1    0    0    0  0.26943374563E+02  0.34747215663E+01  0.13098914969E+02  0.30159587135E+02  0.00000000000E+00 0.  1.
</event>
<event>
 5    1  0.1766627E-003  0.9118800E+02  0.7818608E-02  0.1130116E+00
         25   -1    0    0    0    0  0.00000000000E+00  0.00000000000E+00  0.99999998245E-14  0.12500000000E+03  0.12500000000E+03 0.  0.
        -13    1    3    3    0    0  0.14092983925E+02  0.35238828657E+02  0.30944145400E+02  0.48968750644E+02  0.10566000000E+00 0. -1.
         23    2    1    0    0    0  0.62237102064E+01  0.24353426587E+02 -0.14242277197E+02  0.96109406116E+02  0.91664341643E+02 0.  0.
         13    1    3    3    0    0 -0.78692737184E+01 -0.10885402071E+02 -0.45186422597E+02  0.47140655471E+02  0.10566000000E+00 0.  1.
         22    1    1    0    0    0 -0.62237102064E+01 -0.24353426587E+02  0.14242277197E+02  0.28890593884E+02  0.00000000000E+00 0. -1.
</event>
<event>
 5    1  0.1766627E-003  0.9118800E+02  0.7818608E-02  0.1130116E+00
         25   -1    0    0    0    0  0.00000000000E+00  0.00000000000E+00  0.99999998245E-14  0.12500000000E+03  0.12500000000E+03 0.  0.
        -13    1    3    3    0    0  0.11560400121E+02 -0.32455088682E+02 -0.12508758996E+02  0.36653183326E+02  0.10566000000E+00 0. -1.
         23    2    1    0    0    0  0.68186573165E+01  0.13689833282E+02  0.24583420217E+02  0.96047449638E+02  0.91579814421E+02 0.  0.
         13    1    3    3    0    0 -0.47417428045E+01  0.46144921964E+02  0.37092179213E+02  0.59394266312E+02  0.10566000000E+00 0.  1.
         22    1    1    0    0    0 -0.68186573165E+01 -0.13689833282E+02 -0.24583420217E+02  0.28952550362E+02  0.00000000000E+00 0.  1.
</event>
<event>
 5    1  0.1766627E-003  0.9118800E+02  0.7818608E-02  0.1130116E+00
         25   -1    0    0    0    0  0.00000000000E+00  0.00000000000E+00  0.99999998245E-14  0.12500000000E+03  0.12500000000E+03 0.  0.
        -13    1    3    3    0    0  0.13258453893E+02 -0.40724383536E+02  0.24935758379E+02  0.49558704826E+02  0.10566000000E+00 0. -1.
         23    2    1    0    0    0  0.37423200978E+01  0.29767271527E+01  0.30046757688E+02  0.94575116897E+02  0.89547636620E+02 0.  0.
         13    1    3    3    0    0 -0.95161337948E+01  0.43701110689E+02  0.51109993088E+01  0.45016412071E+02  0.10566000000E+00 0.  1.
         22    1    1    0    0    0 -0.37423200978E+01 -0.29767271527E+01 -0.30046757688E+02  0.30424883103E+02  0.00000000000E+00 0.  1.
</event>
<event>
 5    1  0.1766627E-003  0.9118800E+02  0.7818608E-02  0.1130116E+00
         25   -1    0    0    0    0  0.00000000000E+00  0.00000000000E+00  0.99999998245E-14  0.12500000000E+03  0.12500000000E+03 0.  0.
        -13    1    3    3    0    0  0.24944671114E+02  0.71585437800E+01  0.42388028532E+02  0.49701483810E+02  0.10566000000E+00 0.  1.
         23    2    1    0    0    0 -0.37384186738E+01  0.26174250315E+02  0.10717809501E+02  0.96470390920E+02  0.92155291383E+02 0.  0.
         13    1    3    3    0    0 -0.28683089788E+02  0.19015706535E+02 -0.31670219030E+02  0.46768907110E+02  0.10566000000E+00 0. -1.
         22    1    1    0    0    0  0.37384186738E+01 -0.26174250315E+02 -0.10717809501E+02  0.28529609080E+02  0.00000000000E+00 0.  1.
</event>
<event>
 5    1  0.1766627E-003  0.9118800E+02  0.7818608E-02  0.1130116E+00
         25   -1    0    0    0    0  0.00000000000E+00  0.00000000000E+00  0.99999998245E-14  0.12500000000E+03  0.12500000000E+03 0.  0.
        -13    1    3    3    0    0  0.46346746369E+02  0.22648373032E+01  0.24510500249E+02  0.52477863652E+02  0.10566000000E+00 0. -1.
         23    2    1    0    0    0  0.15652544211E+02  0.24596805988E+02  0.41532684116E+01  0.95550812514E+02  0.90899412146E+02 0.  0.
         13    1    3    3    0    0 -0.30694202158E+02  0.22331968685E+02 -0.20357231837E+02  0.43072948861E+02  0.10566000000E+00 0.  1.
         22    1    1    0    0    0 -0.15652544211E+02 -0.24596805988E+02 -0.41532684116E+01  0.29449187486E+02  0.00000000000E+00 0.  1.
</event>
<event>
 5    1  0.1766627E-003  0.9118800E+02  0.7818608E-02  0.1130116E+00
         25   -1    0    0    0    0  0.00000000000E+00  0.00000000000E+00  0.99999998245E-14  0.12500000000E+03  0.12500000000E+03 0.  0.
        -13    1    3    3    0    0  0.28686170906E+02  0.18699597180E+02 -0.85765906554E+01  0.35300713976E+02  0.10566000000E+00 0. -1.
         23    2    1    0    0    0 -0.39481339012E+01 -0.21946523443E+02  0.20260402682E+02  0.94871582030E+02  0.89960521939E+02 0.  0.
         13    1    3    3    0    0 -0.32634304807E+02 -0.40646120623E+02  0.28836993337E+02  0.59570868054E+02  0.10566000000E+00 0.  1.
         22    1    1    0    0    0  0.39481339012E+01  0.21946523443E+02 -0.20260402682E+02  0.30128417970E+02  0.00000000000E+00 0.  1.
</event>
<event>
 5    1  0.1766627E-003  0.9118800E+02  0.7818608E-02  0.1130116E+00
         25   -1    0    0    0    0  0.00000000000E+00  0.00000000000E+00  0.99999998245E-14  0.12500000000E+03  0.12500000000E+03 0.  0.
        -13    1    3    3    0    0 -0.47962399177E+02 -0.48413839773E+01  0.53592695592E+01  0.48503233581E+02  0.10566000000E+00 0. -1.
         23    2    1    0    0    0 -0.11626268022E+02 -0.70412613160E+01 -0.25419958820E+02  0.96174251520E+02  0.91752726825E+02 0.  0.
         13    1    3    3    0    0  0.36336131155E+02 -0.21998773386E+01 -0.30779228379E+02  0.47671017938E+02  0.10566000000E+00 0.  1.
         22    1    1    0    0    0  0.11626268022E+02  0.70412613160E+01  0.25419958820E+02  0.28825748480E+02  0.00000000000E+00 0.  1.
</event>
<event>
 5    1  0.1766627E-003  0.9118800E+02  0.7818608E-02  0.1130116E+00
         25   -1    0    0    0    0  0.00000000000E+00  0.00000000000E+00  0.99999998245E-14  0.12500000000E+03  0.12500000000E+03 0.  0.
        -13    1    3    3    0    0  0.56059287891E+02 -0.89883461189E+01 -0.11935562948E+02  0.58016402437E+02  0.10566000000E+00 0.  1.
         23    2    1    0    0    0  0.16892617003E+02 -0.17566074686E+02 -0.11350530631E+02  0.98115766057E+02  0.94360698992E+02 0.  0.
         13    1    3    3    0    0 -0.39166670888E+02 -0.85777285675E+01  0.58503231735E+00  0.40099363620E+02  0.10566000000E+00 0. -1.
         22    1    1    0    0    0 -0.16892617003E+02  0.17566074686E+02  0.11350530631E+02  0.26884233943E+02  0.00000000000E+00 0.  1.
</event>
<event>
 5    1  0.1766627E-003  0.9118800E+02  0.7818608E-02  0.1130116E+00
         25   -1    0    0    0    0  0.00000000000E+00  0.00000000000E+00  0.99999998245E-14  0.12500000000E+03  0.12500000000E+03 0.  0.
        -13    1    3    3    0    0 -0.25231842226E+02  0.18416415232E+02  0.39117747318E+02  0.50060159123E+02  0.10566000000E+00 0.  1.
         23    2    1    0    0    0 -0.19342640185E+02 -0.18024535699E+02  0.11468878930E+02  0.96180617627E+02  0.91761399328E+02 0.  0.
         13    1    3    3    0    0  0.58892020409E+01 -0.36440950931E+02 -0.27648868389E+02  0.46120458504E+02  0.10566000000E+00 0. -1.
         22    1    1    0    0    0  0.19342640185E+02  0.18024535699E+02 -0.11468878930E+02  0.28819382373E+02  0.00000000000E+00 0.  1.
</event>
<event>
 5    1  0.1766627E-003  0.9118800E+02  0.7818608E-02  0.1130116E+00
         25   -1    0    0    0    0  0.00000000000E+00  0.00000000000E+00  0.99999998245E-14  0.12500000000E+03  0.12500000000E+03 0.  0.
        -13    1    3    3    0    0  0.16030144480E+02 -0.33923366874E+02 -0.22891403277E+02  0.43952108711E+02  0.10566000000E+00 0. -1.
         23    2    1    0    0    0  0.79945192373E+01 -0.12462301874E+02  0.24374778494E+02  0.96480688429E+02  0.92169257930E+02 0.  0.
         13    1    3    3    0    0 -0.80356252432E+01  0.21461065000E+02  0.47266181771E+02  0.52528579718E+02  0.10566000000E+00 0.  1.
         22    1    1    0    0    0 -0.79945192373E+01  0.12462301874E+02 -0.24374778494E+02  0.28519311571E+02  0.00000000000E+00 0.  1.
</event>
<event>
 5    1  0.1766627E-003  0.9118800E+02  0.7818608E-02  0.1130116E+00
         25   -1    0    0    0    0  0.00000000000E+00  0.00000000000E+00  0.99999998245E-14  0.12500000000E+03  0.12500000000E+03 0.  0.
        -13    1    3    3    0    0  0.35834410015E+02  0.18255815355E+02  0.40958737365E+02  0.57402169523E+02  0.10566000000E+00 0. -1.
         23    2    1    0    0    0  0.16578120212E+01  0.18374497254E+02  0.21265755068E+02  0.96846797187E+02  0.92664444620E+02 0.  0.
         13    1    3    3    0    0 -0.34176597993E+02  0.11868189929E+00 -0.19692982297E+02  0.39444627664E+02  0.10566000000E+00 0.  1.
         22    1    1    0    0    0 -0.16578120212E+01 -0.18374497254E+02 -0.21265755068E+02  0.28153202813E+02  0.00000000000E+00 0. -1.
</event>
<event>
 5    1  0.1766627E-003  0.9118800E+02  0.7818608E-02  0.1130116E+00
         25   -1    0    0    0    0  0.00000000000E+00  0.00000000000E+00  0.99999998245E-14  0.12500000000E+03  0.12500000000E+03 0.  0.
        -13    1    3    3    0    0 -0.14483573568E+02 -0.29696472239E+02 -0.28906569335E+01  0.33166570945E+02  0.10566000000E+00 0.  1.
         23    2    1    0    0    0  0.12918612226E+00  0.23351355889E+02  0.21411290223E+02  0.93318051513E+02  0.87775354617E+02 0.  0.
         13    1    3    3    0    0  0.14612759690E+02  0.53047828128E+02  0.24301947157E+02  0.60151480568E+02  0.10566000000E+00 0. -1.
         22    1    1    0    0    0 -0.12918612226E+00 -0.23351355889E+02 -0.21411290223E+02  0.31681948487E+02  0.00000000000E+00 0. -1.
</event>
<event>
 5    1  0.1766627E-003  0.9118800E+02  0.7818608E-02  0.1130116E+00
         25   -1    0    0    0    0  0.00000000000E+00  0.00000000000E+00  0.99999998245E-14  0.12500000000E+03  0.12500000000E+03 0.  0.
        -13    1    3    3    0    0 -0.27980931694E+02  0.45128638630E+01  0.18236060025E+02  0.33702574501E+02  0.10566000000E+00 0.  1.
         23    2    1    0    0    0  0.18604565285E+02 -0.12390018402E+02 -0.18978533324E+02  0.95677190916E+02  0.91073035137E+02 0.  0.
         13    1    3    3    0    0  0.46585496979E+02 -0.16902882265E+02 -0.37214593349E+02  0.61974616415E+02  0.10566000000E+00 0. -1.
         22    1    1    0    0    0 -0.18604565285E+02  0.12390018402E+02  0.18978533324E+02  0.29322809084E+02  0.00000000000E+00 0. -1.
</event>
<event>
 5    1  0.1766627E-003  0.9118800E+02  0.7818608E-02  0.1130116E+00
         25   -1    0    0    0    0  0.00000000000E+00  0.00000000000E+00  0.99999998245E-14  0.12500000000E+03  0.12500000000E+03 0.  0.
        -13    1    3    3    0    0  0.33659224954E+02 -0.16211794242E+02 -0.12969911265E+01  0.37382603535E+02  0.10566000000E+00 0.  1.
         23    2    1    0    0    0 -0.21919452167E+02 -0.16698570806E+02  0.12639281499E+02  0.94684062161E+02  0.89699584950E+02 0.  0.
         13    1    3    3    0    0 -0.55578677121E+02 -0.48677656456E+00  0.13936272626E+02  0.57301458626E+02  0.10566000000E+00 0. -1.
         22    1    1    0    0    0  0.21919452167E+02  0.16698570806E+02 -0.12639281499E+02  0.30315937839E+02  0.00000000000E+00 0.  1.
</event>
<event>
 5    1  0.1766627E-003  0.9118800E+02  0.7818608E-02  0.1130116E+00
         25   -1    0    0    0    0  0.00000000000E+00  0.00000000000E+00  0.99999998245E-14  0.12500000000E+03  0.12500000000E+03 0.  0.
        -13    1    3    3    0    0 -0.17602806268E+02  0.29724065350E+02 -0.27472361941E+01  0.34654542562E+02  0.10566000000E+00 0.  1.
         23    2    1    0    0    0  0.16111249508E+02 -0.17404353863E+02 -0.18746794334E+02  0.94768787787E+02  0.89817575935E+02 0.  0.
         13    1    3    3    0    0  0.33714055776E+02 -0.47128419212E+02 -0.15999558139E+02  0.60114245225E+02  0.10566000000E+00 0. -1.
         22    1    1    0    0    0 -0.16111249508E+02  0.17404353863E+02  0.18746794334E+02  0.30231212213E+02  0.00000000000E+00 0. -1.
</event>
<event>
 5    1  0.1766627E-003  0.9118800E+02  0.7818608E-02  0.1130116E+00
         25   -1    0    0    0    0  0.00000000000E+00  0.00000000000E+00  0.99999998245E-14  0.12500000000E+03  0.12500000000E+03 0.  0.
        -13    1    3    3    0    0 -0.29281416947E+02 -0.82523566633E+01  0.31235911524E+02  0.43602707504E+02  0.10566000000E+00 0.  1.
         23    2    1    0    0    0  0.20906945999E+02 -0.10080795261E+02  0.18243965078E+02  0.95477718823E+02  0.90798841985E+02 0.  0.
         13    1    3    3    0    0  0.50188362946E+02 -0.18284385977E+01 -0.12991946446E+02  0.51875011319E+02  0.10566000000E+00 0. -1.
         22    1    1    0    0    0 -0.20906945999E+02  0.10080795261E+02 -0.18243965078E+02  0.29522281177E+02  0.00000000000E+00 0. -1.
</event>
<event>
 5    1  0.1766627E-003  0.9118800E+02  0.7818608E-02  0.1130116E+00
         25   -1    0    0    0    0  0.00000000000E+00  0.00000000000E+00  0.99999998245E-14  0.12500000000E+03  0.12500000000E+03 0.  0.
        -13    1    3    3    0    0  0.34183695891E+02 -0.13064676920E+02  0.52549094733E+01  0.36970746347E+02  0.10566000000E+00 0. -1.
         23    2    1    0    0    0 -0.18069998169E+02  0.43502552046E+01 -0.20115556554E+02  0.97612317190E+02  0.93691404609E+02 0.  0.
         13    1    3    3    0    0 -0.52253694061E+02  0.17414932125E+02 -0.25370466028E+02  0.60641570844E+02  0.10566000000E+00 0.  1.
         22    1    1    0    0    0  0.18069998169E+02 -0.43502552046E+01  0.20115556554E+02  0.27387682810E+02  0.00000000000E+00 0.  1.
</event>
<event>
 5    1  0.1766627E-003  0.9118800E+02  0.7818608E-02  0.1130116E+00
         25   -1    0    0    0    0  0.00000000000E+00  0.00000000000E+00  0.99999998245E-14  0.12500000000E+03  0.12500000000E+03 0.  0.
        -13    1    3    3    0    0 -0.15025853578E+02 -0.30736314920E+02  0.21695519209E+02  0.40511776663E+02  0.10566000000E+00 0.  1.
         23    2    1    0    0    0  0.25577426252E+02 -0.10884320914E+02 -0.97181252389E+01  0.95553181265E+02  0.90902669467E+02 0.  0.
         13    1    3    3    0    0  0.40603279830E+02  0.19851994006E+02 -0.31413644448E+02  0.55041404602E+02  0.10566000000E+00 0. -1.
         22    1    1    0    0    0 -0.25577426252E+02  0.10884320914E+02  0.97181252389E+01  0.29446818735E+02  0.00000000000E+00 0. -1.
</event>
<event>
 5    1  0.1766627E-003  0.9118800E+02  0.7818608E-02  0.1130116E+00
         25   -1    0    0    0    0  0.00000000000E+00  0.00000000000E+00  0.99999998245E-14  0.12500000000E+03  0.12500000000E+03 0.  0.
        -13    1    3    3    0    0  0.11690939975E+02  0.55413112221E+02 -0.20038417272E+01  0.56668488856E+02  0.10566000000E+00 0.  1.
         23    2    1    0    0    0  0.20307304599E+02  0.19424599382E+02  0.93613034991E+01  0.95380147123E+02  0.90664418494E+02 0.  0.
         13    1    3    3    0    0  0.86163646242E+01 -0.35988512840E+02  0.11365145226E+02  0.38711658267E+02  0.10566000000E+00 0. -1.
         22    1    1    0    0    0 -0.20307304599E+02 -0.19424599382E+02 -0.93613034991E+01  0.29619852877E+02  0.00000000000E+00 0.  1.
</event>
<event>
 5    1  0.1766627E-003  0.9118800E+02  0.7818608E-02  0.1130116E+00
         25   -1    0    0    0    0  0.00000000000E+00  0.00000000000E+00  0.99999998245E-14  0.12500000000E+03  0.12500000000E+03 0.  0.
        -13    1    3    3    0    0 -0.51974836034E+02 -0.24348265692E+02  0.74357940589E+00  0.57400223844E+02  0.10566000000E+00 0. -1.
         23    2    1    0    0    0 -0.17509813286E+02 -0.16512750673E+02 -0.15577071833E+02  0.96331033102E+02  0.91966071328E+02 0.  0.
         13    1    3    3    0    0  0.34465022748E+02  0.78355150189E+01 -0.16320651239E+02  0.38930809258E+02  0.10566000000E+00 0.  1.
         22    1    1    0    0    0  0.17509813286E+02  0.16512750673E+02  0.15577071833E+02  0.28668966898E+02  0.00000000000E+00 0. -1.
</event>
<event>
 5    1  0.1766627E-003  0.9118800E+02  0.7818608E-02  0.1130116E+00
         25   -1    0    0    0    0  0.00000000000E+00  0.00000000000E+00  0.99999998245E-14  0.12500000000E+03  0.12500000000E+03 0.  0.
        -13    1    3    3    0    0 -0.80439427072E+01  0.10583568234E+02 -0.40590803732E+02  0.42712310198E+02  0.10566000000E+00 0. -1.
         23    2    1    0    0    0  0.24821432852E+02 -0.12399094185E+02 -0.40634060489E+01  0.96958025495E+02  0.92814365126E+02 0.  0.
         13    1    3    3    0    0  0.32865375559E+02 -0.22982662418E+02  0.36527397683E+02  0.54245715296E+02  0.10566000000E+00 0.  1.
         22    1    1    0    0    0 -0.24821432852E+02  0.12399094185E+02  0.40634060489E+01  0.28041974505E+02  0.00000000000E+00 0.  1.
</event>
<event>
 5    1  0.1766627E-003  0.9118800E+02  0.7818608E-02  0.1130116E+00
         25   -1    0    0    0    0  0.00000000000E+00  0.00000000000E+00  0.99999998245E-14  0.12500000000E+03  0.12500000000E+03 0.  0.
        -13    1    3    3    0    0 -0.26796083515E+02 -0.18866822339E+02  0.49967024703E+01  0.33150645190E+02  0.10566000000E+00 0.  1.
         23    2    1    0    0    0  0.23435002595E+02  0.17503068285E+02 -0.26233120734E+01  0.95632696545E+02  0.91011945019E+02 0.  0.
         13    1    3    3    0    0  0.50231086110E+02  0.36369890624E+02 -0.76200145437E+01  0.62482051354E+02  0.10566000000E+00 0. -1.
         22    1    1    0    0    0 -0.23435002595E+02 -0.17503068285E+02  0.26233120734E+01  0.29367303455E+02  0.00000000000E+00 0. -1.
</event>
<event>
 5    1  0.1766627E-003  0.9118800E+02  0.7818608E-02  0.1130116E+00
         25   -1    0    0    0    0  0.00000000000E+00  0.00000000000E+00  0.99999998245E-14  0.12500000000E+03  0.12500000000E+03 0.  0.
        -13    1    3    3    0    0 -0.13839484957E+02 -0.41348818746E+02  0.18221019995E+02  0.47257516749E+02  0.10566000000E+00 0. -1.
         23    2    1    0    0    0 -0.18246829150E+02 -0.57994275874E+01 -0.18371679963E+02  0.98465140682E+02  0.94822387496E+02 0.  0.
         13    1    3    3    0    0 -0.44073441932E+01  0.35549391158E+02 -0.36592699958E+02  0.51207623933E+02  0.10566000000E+00 0.  1.
         22    1    1    0    0    0  0.18246829150E+02  0.57994275874E+01  0.18371679963E+02  0.26534859318E+02  0.00000000000E+00 0.  1.
</event>
<event>
 5    1  0.1766627E-003  0.9118800E+02  0.7818608E-02  0.1130116E+00
         25   -1    0    0    0    0  0.00000000000E+00  0.00000000000E+00  0.99999998245E-14  0.12500000000E+03  0.12500000000E+03 0.  0.
        -13    1    3    3    0    0 -0.47853238681E+01 -0.19361619813E+02 -0.56883861236E+02  0.60278988706E+02  0.10566000000E+00 0.  1.
         23    2    1    0    0    0  0.95690110287E+01 -0.90690662235E+01 -0.25581735588E+02  0.96220855990E+02  0.91816196815E+02 0.  0.
         13    1    3    3    0    0  0.14354334897E+02  0.10292553589E+02  0.31302125648E+02  0.35941867284E+02  0.10566000000E+00 0. -1.
         22    1    1    0    0    0 -0.95690110287E+01  0.90690662235E+01  0.25581735588E+02  0.28779144010E+02  0.00000000000E+00 0.  1.
</event>
<event>
 5    1  0.1766627E-003  0.9118800E+02  0.7818608E-02  0.1130116E+00
         25   -1    0    0    0    0  0.00000000000E+00  0.00000000000E+00  0.99999998245E-14  0.12500000000E+03  0.12500000000E+03 0.  0.
        -13    1    3    3    0    0  0.32117430761E+02 -0.75152113353E+01  0.47023240936E+02  0.57438698734E+02  0.10566000000E+00 0.  1.
         23    2    1    0    0    0  0.21257197803E+02  0.12011670101E+02  0.15493650246E+02  0.96082844625E+02  0.91628113351E+02 0.  0.
         13    1    3    3    0    0 -0.10860232959E+02  0.19526881437E+02 -0.31529590690E+02  0.38644145891E+02  0.10566000000E+00 0. -1.
         22    1    1    0    0    0 -0.21257197803E+02 -0.12011670101E+02 -0.15493650246E+02  0.28917155375E+02  0.00000000000E+00 0.  1.
</event>
<event>
 5    1  0.1766627E-003  0.9118800E+02  0.7818608E-02  0.1130116E+00
         25   -1    0    0    0    0  0.00000000000E+00  0.00000000000E+00  0.99999998245E-14  0.12500000000E+03  0.12500000000E+03 0.  0.
        -13    1    3    3    0    0  0.18164937926E+02 -0.20354936678E+02 -0.36938911465E+02  0.45921484746E+02  0.10566000000E+00 0. -1.
         23    2    1    0    0    0 -0.79727404090E+01  0.18884406396E+02 -0.20907156928E+02  0.95720406332E+02  0.91132330065E+02 0.  0.
         13    1    3    3    0    0 -0.26137678335E+02  0.39239343074E+02  0.16031754538E+02  0.49798921586E+02  0.10566000000E+00 0.  1.
         22    1    1    0    0    0  0.79727404090E+01 -0.18884406396E+02  0.20907156928E+02  0.29279593668E+02  0.00000000000E+00 0.  1.
</event>
<event>
 5    1  0.1766627E-003  0.9118800E+02  0.7818608E-02  0.1130116E+00
         25   -1    0    0    0    0  0.00000000000E+00  0.00000000000E+00  0.99999998245E-14  0.12500000000E+03  0.12500000000E+03 0.  0.
        -13    1    3    3    0    0 -0.23247939131E+01 -0.19293391144E+02  0.25822404779E+02  0.32317910841E+02  0.10566000000E+00 0. -1.
         23    2    1    0    0    0 -0.20287416294E+02  0.69502062072E+01 -0.24870412045E+02  0.92160663504E+02  0.86111357416E+02 0.  0.
         13    1    3    3    0    0 -0.17962622380E+02  0.26243597351E+02 -0.50692816824E+02  0.59842752663E+02  0.10566000000E+00 0.  1.
         22    1    1    0    0    0  0.20287416294E+02 -0.69502062072E+01  0.24870412045E+02  0.32839336496E+02  0.00000000000E+00 0.  1.
</event>
<event>
 5    1  0.1766627E-003  0.9118800E+02  0.7818608E-02  0.1130116E+00
         25   -1    0    0    0    0  0.00000000000E+00  0.00000000000E+00  0.99999998245E-14  0.12500000000E+03  0.12500000000E+03 0.  0.
        -13    1    3    3    0    0 -0.37509633104E+02  0.28076152886E+02  0.33029399802E+02  0.57325346504E+02  0.10566000000E+00 0.  1.
         23    2    1    0    0    0 -0.54588276086E+01  0.26028093526E+02  0.11285151753E+02  0.96110294194E+02  0.91665552682E+02 0.  0.
         13    1    3    3    0    0  0.32050805496E+02 -0.20480593593E+01 -0.21744248049E+02  0.38784947690E+02  0.10566000000E+00 0. -1.
         22    1    1    0    0    0  0.54588276086E+01 -0.26028093526E+02 -0.11285151753E+02  0.28889705806E+02  0.00000000000E+00 0.  1.
</event>
<event>
 5    1  0.1766627E-003  0.9118800E+02  0.7818608E-02  0.1130116E+00
         25   -1    0    0    0    0  0.00000000000E+00  0.00000000000E+00  0.99999998245E-14  0.12500000000E+03  0.12500000000E+03 0.  0.
        -13    1    3    3    0    0  0.28116064741E+02  0.17712580500E+02  0.20638164624E+02  0.39117689190E+02  0.10566000000E+00 0. -1.
         23    2    1    0    0    0 -0.20772353043E+02  0.20873224802E+02 -0.60955168350E+01  0.94927795391E+02  0.90038596433E+02 0.  0.
         13    1    3    3    0    0 -0.48888417783E+02  0.31606443020E+01 -0.26733681459E+02  0.55810106201E+02  0.10566000000E+00 0.  1.
         22    1    1    0    0    0  0.20772353043E+02 -0.20873224802E+02  0.60955168350E+01  0.30072204609E+02  0.00000000000E+00 0.  1.
</event>
<event>
 5    1  0.1766627E-003  0.9118800E+02  0.7818608E-02  0.1130116E+00
         25   -1    0    0    0    0  0.00000000000E+00  0.00000000000E+00  0.99999998245E-14  0.12500000000E+03  0.12500000000E+03 0.  0.
        -13    1    3    3    0    0 -0.44833638737E+02  0.31403771767E+02  0.18362564981E+01  0.54768924086E+02  0.10566000000E+00 0.  1.
         23    2    1    0    0    0 -0.70799320655E+01  0.25371418717E+02 -0.12808145225E+02  0.95710361733E+02  0.91118551531E+02 0.  0.
         13    1    3    3    0    0  0.37753706671E+02 -0.60323530500E+01 -0.14644401723E+02  0.40941437647E+02  0.10566000000E+00 0. -1.
         22    1    1    0    0    0  0.70799320655E+01 -0.25371418717E+02  0.12808145225E+02  0.29289638267E+02  0.00000000000E+00 0. -1.
</event>
<event>
 5    1  0.1766627E-003  0.9118800E+02  0.7818608E-02  0.1130116E+00
         25   -1    0    0    0    0  0.00000000000E+00  0.00000000000E+00  0.99999998245E-14  0.12500000000E+03  0.12500000000E+03 0.  0.
        -13    1    3    3    0    0  0.35364604089E+02  0.46063525411E+02  0.40021195323E+01  0.58211096197E+02  0.10566000000E+00 0. -1.
         23    2    1    0    0    0  0.26117078051E+02  0.10501174330E+02  0.93395147923E+01  0.95341898834E+02  0.90611669824E+02 0.  0.
         13    1    3    3    0    0 -0.92475260373E+01 -0.35562351081E+02  0.53373952600E+01  0.37130802637E+02  0.10566000000E+00 0.  1.
         22    1    1    0    0    0 -0.26117078051E+02 -0.10501174330E+02 -0.93395147923E+01  0.29658101166E+02  0.00000000000E+00 0. -1.
</event>
<event>
 5    1  0.1766627E-003  0.9118800E+02  0.7818608E-02  0.1130116E+00
         25   -1    0    0    0    0  0.00000000000E+00  0.00000000000E+00  0.99999998245E-14  0.12500000000E+03  0.12500000000E+03 0.  0.
        -13    1    3    3    0    0  0.28240288377E+02  0.17024648406E+02  0.81528240760E+01  0.33968106297E+02  0.10566000000E+00 0. -1.
         23    2    1    0    0    0 -0.75888143019E+01 -0.30130962415E+02 -0.10938817112E+01  0.93908818360E+02  0.88612666081E+02 0.  0.
         13    1    3    3    0    0 -0.35829102679E+02 -0.47155610821E+02 -0.92467057872E+01  0.59940712063E+02  0.10566000000E+00 0.  1.
         22    1    1    0    0    0  0.75888143019E+01  0.30130962415E+02  0.10938817112E+01  0.31091181640E+02  0.00000000000E+00 0.  1.
</event>
<event>
 5    1  0.1766627E-003  0.9118800E+02  0.7818608E-02  0.1130116E+00
         25   -1    0    0    0    0  0.00000000000E+00  0.00000000000E+00  0.99999998245E-14  0.12500000000E+03  0.12500000000E+03 0.  0.
        -13    1    3    3    0    0  0.47351952956E+02 -0.53097294706E+01  0.19470032305E+02  0.51473235742E+02  0.10566000000E+00 0.  1.
         23    2    1    0    0    0  0.11704500498E+02 -0.26733858800E+02  0.58602336367E+01  0.95233628428E+02  0.90462186062E+02 0.  0.
         13    1    3    3    0    0 -0.35647452457E+02 -0.21424129329E+02 -0.13609798668E+02  0.43760392686E+02  0.10566000000E+00 0. -1.
         22    1    1    0    0    0 -0.11704500498E+02  0.26733858800E+02 -0.58602336367E+01  0.29766371572E+02  0.00000000000E+00 0. -1.
</event>
<event>
 5    1  0.1766627E-003  0.9118800E+02  0.7818608E-02  0.1130116E+00
         25   -1    0    0    0    0  0.00000000000E+00  0.00000000000E+00  0.99999998245E-14  0.12500000000E+03  0.12500000000E+03 0.  0.
        -13    1    3    3    0    0  0.59217267802E+02  0.39709648576E+01  0.33913352397E+01  0.59447167187E+02  0.10566000000E+00 0.  1.
         23    2    1    0    0    0  0.25884985346E+02 -0.45115173848E+01 -0.10717191096E+02  0.96623170712E+02  0.92362290346E+02 0.  0.
         13    1    3    3    0    0 -0.33332282456E+02 -0.84824822424E+01 -0.14108526335E+02  0.37176003525E+02  0.10566000000E+00 0. -1.
         22    1    1    0    0    0 -0.25884985346E+02  0.45115173848E+01  0.10717191096E+02  0.28376829288E+02  0.00000000000E+00 0.  1.
</event>
<event>
 5    1  0.1766627E-003  0.9118800E+02  0.7818608E-02  0.1130116E+00
         25   -1    0    0    0    0  0.00000000000E+00  0.00000000000E+00  0.99999998245E-14  0.12500000000E+03  0.12500000000E+03 0.  0.
        -13    1    3    3    0    0 -0.10283128969E+02  0.26506365572E+02  0.13019850470E+02  0.31270718372E+02  0.10566000000E+00 0.  1.
         23    2    1    0    0    0 -0.14638235725E+02 -0.26716542466E+02  0.24517699962E+02  0.85895406946E+02  0.76477785903E+02 0.  0.
         13    1    3    3    0    0 -0.43551067560E+01 -0.53222908038E+02  0.11497849492E+02  0.54624688574E+02  0.10566000000E+00 0. -1.
         22    1    1    0    0    0  0.14638235725E+02  0.26716542466E+02 -0.24517699962E+02  0.39104593054E+02  0.00000000000E+00 0. -1.
</event>
<event>
 5    1  0.1766627E-003  0.9118800E+02  0.7818608E-02  0.1130116E+00
         25   -1    0    0    0    0  0.00000000000E+00  0.00000000000E+00  0.99999998245E-14  0.12500000000E+03  0.12500000000E+03 0.  0.
        -13    1    3    3    0    0  0.30023694894E+02 -0.38789528920E+02 -0.12498027567E+02  0.50618787678E+02  0.10566000000E+00 0.  1.
         23    2    1    0    0    0  0.12186127676E+02 -0.15341277173E+02  0.21704211486E+02  0.95760826119E+02  0.91187754275E+02 0.  0.
         13    1    3    3    0    0 -0.17837567219E+02  0.23448251746E+02  0.34202239053E+02  0.45142038440E+02  0.10566000000E+00 0. -1.
         22    1    1    0    0    0 -0.12186127676E+02  0.15341277173E+02 -0.21704211486E+02  0.29239173881E+02  0.00000000000E+00 0.  1.
</event>
<event>
 5    1  0.1766627E-003  0.9118800E+02  0.7818608E-02  0.1130116E+00
         25   -1    0    0    0    0  0.00000000000E+00  0.00000000000E+00  0.99999998245E-14  0.12500000000E+03  0.12500000000E+03 0.  0.
        -13    1    3    3    0    0 -0.49259331940E+02 -0.43028925854E+01 -0.35932674514E+02  0.61124176310E+02  0.10566000000E+00 0. -1.
         23    2    1    0    0    0 -0.21381219676E+02 -0.11111449619E+02 -0.17205878921E+02  0.95391502286E+02  0.90680072626E+02 0.  0.
         13    1    3    3    0    0  0.27878112265E+02 -0.68085570338E+01  0.18726795593E+02  0.34267325976E+02  0.10566000000E+00 0.  1.
         22    1    1    0    0    0  0.21381219676E+02  0.11111449619E+02  0.17205878921E+02  0.29608497714E+02  0.00000000000E+00 0. -1.
</event>
<event>
 5    1  0.1766627E-003  0.9118800E+02  0.7818608E-02  0.1130116E+00
         25   -1    0    0    0    0  0.00000000000E+00  0.00000000000E+00  0.99999998245E-14  0.12500000000E+03  0.12500000000E+03 0.  0.
        -13    1    3    3    0    0 -0.53858402547E+01  0.40655377851E+02  0.34468892886E+02  0.53572220080E+02  0.10566000000E+00 0. -1.
         23    2    1    0    0    0  0.19346150581E+02  0.66240622001E+01  0.12519739658E+02  0.10102301888E+03  0.98136408743E+02 0.  0.
         13    1    3    3    0    0  0.24731990836E+02 -0.34031315651E+02 -0.21949153228E+02  0.47450798804E+02  0.10566000000E+00 0.  1.
         22    1    1    0    0    0 -0.19346150581E+02 -0.66240622001E+01 -0.12519739658E+02  0.23976981116E+02  0.00000000000E+00 0. -1.
</event>
<event>
 5    1  0.1766627E-003  0.9118800E+02  0.7818608E-02  0.1130116E+00
         25   -1    0    0    0    0  0.00000000000E+00  0.00000000000E+00  0.99999998245E-14  0.12500000000E+03  0.12500000000E+03 0.  0.
        -13    1    3    3    0    0 -0.56338246573E+00  0.35902331216E+02 -0.43094244815E+02  0.56092957550E+02  0.10566000000E+00 0. -1.
         23    2    1    0    0    0 -0.41486031969E+01 -0.12774322780E+01 -0.28461708792E+02  0.96209174915E+02  0.91800292640E+02 0.  0.
         13    1    3    3    0    0 -0.35852207311E+01 -0.37179763494E+02  0.14632536023E+02  0.40116217364E+02  0.10566000000E+00 0.  1.
         22    1    1    0    0    0  0.41486031969E+01  0.12774322780E+01  0.28461708792E+02  0.28790825085E+02  0.00000000000E+00 0. -1.
</event>
<event>
 5    1  0.1766627E-003  0.9118800E+02  0.7818608E-02  0.1130116E+00
         25   -1    0    0    0    0  0.00000000000E+00  0.00000000000E+00  0.99999998245E-14  0.12500000000E+03  0.12500000000E+03 0.  0.
        -13    1    3    3    0    0 -0.44820229163E+02  0.22590691861E+02  0.34516715562E+02  0.60914752878E+02  0.10566000000E+00 0. -1.
         23    2    1    0    0    0 -0.19113858194E+02  0.18329979328E+02  0.10000889552E+02  0.96691953281E+02  0.92455331486E+02 0.  0.
         13    1    3    3    0    0  0.25706370969E+02 -0.42607125330E+01 -0.24515826009E+02  0.35777200403E+02  0.10566000000E+00 0.  1.
         22    1    1    0    0    0  0.19113858194E+02 -0.18329979328E+02 -0.10000889552E+02  0.28308046719E+02  0.00000000000E+00 0. -1.
</event>
<event>
 5    1  0.1766627E-003  0.9118800E+02  0.7818608E-02  0.1130116E+00
         25   -1    0    0    0    0  0.00000000000E+00  0.00000000000E+00  0.99999998245E-14  0.12500000000E+03  0.12500000000E+03 0.  0.
        -13    1    3    3    0    0  0.13680402816E+02  0.17115494471E+02  0.37115328273E+02  0.43100491053E+02  0.10566000000E+00 0. -1.
         23    2    1    0    0    0  0.21017963282E+02 -0.17749577726E+02 -0.36584715656E+01  0.97247762177E+02  0.93203758209E+02 0.  0.
         13    1    3    3    0    0  0.73375604661E+01 -0.34865072197E+02 -0.40773799839E+02  0.54147271124E+02  0.10566000000E+00 0.  1.
         22    1    1    0    0    0 -0.21017963282E+02  0.17749577726E+02  0.36584715656E+01  0.27752237823E+02  0.00000000000E+00 0.  1.
</event>
<event>
 5    1  0.1766627E-003  0.9118800E+02  0.7818608E-02  0.1130116E+00
         25   -1    0    0    0    0  0.00000000000E+00  0.00000000000E+00  0.99999998245E-14  0.12500000000E+03  0.12500000000E+03 0.  0.
        -13    1    3    3    0    0 -0.53732122932E+02  0.17054311222E+02  0.29791364632E+01  0.56452431163E+02  0.10566000000E+00 0. -1.
         23    2    1    0    0    0 -0.20982239267E+02  0.60531115575E+01  0.20374785175E+02  0.95133189070E+02  0.90323293050E+02 0.  0.
         13    1    3    3    0    0  0.32749883665E+02 -0.11001199665E+02  0.17395648712E+02  0.38680757907E+02  0.10566000000E+00 0.  1.
         22    1    1    0    0    0  0.20982239267E+02 -0.60531115575E+01 -0.20374785175E+02  0.29866810930E+02  0.00000000000E+00 0. -1.
</event>
<event>
 5    1  0.1766627E-003  0.9118800E+02  0.7818608E-02  0.1130116E+00
         25   -1    0    0    0    0  0.00000000000E+00  0.00000000000E+00  0.99999998245E-14  0.12500000000E+03  0.12500000000E+03 0.  0.
        -13    1    3    3    0    0  0.23793035045E+02  0.43078610137E+02 -0.76789315377E+01  0.49808155172E+02  0.10566000000E+00 0. -1.
         23    2    1    0    0    0  0.23358160600E+01  0.86337924860E+01 -0.28294158829E+02  0.95325805264E+02  0.90589465812E+02 0.  0.
         13    1    3    3    0    0 -0.21457218985E+02 -0.34444817651E+02 -0.20615227291E+02  0.45517650092E+02  0.10566000000E+00 0.  1.
         22    1    1    0    0    0 -0.23358160600E+01 -0.86337924860E+01  0.28294158829E+02  0.29674194736E+02  0.00000000000E+00 0. -1.
</event>
<event>
 5    1  0.1766627E-003  0.9118800E+02  0.7818608E-02  0.1130116E+00
         25   -1    0    0    0    0  0.00000000000E+00  0.00000000000E+00  0.99999998245E-14  0.12500000000E+03  0.12500000000E+03 0.  0.
        -13    1    3    3    0    0 -0.12594557576E+02  0.14174748287E+02 -0.33043043583E+02  0.38097247444E+02  0.10566000000E+00 0.  1.
         23    2    1    0    0    0  0.27524454022E+02 -0.94506700248E+01  0.11700260623E+01  0.95874758472E+02  0.91343799012E+02 0.  0.
         13    1    3    3    0    0  0.40119011598E+02 -0.23625418312E+02  0.34213069645E+02  0.57777511028E+02  0.10566000000E+00 0. -1.
         22    1    1    0    0    0 -0.27524454022E+02  0.94506700248E+01 -0.11700260623E+01  0.29125241528E+02  0.00000000000E+00 0. -1.
</event>
<event>
 5    1  0.1766627E-003  0.9118800E+02  0.7818608E-02  0.1130116E+00
         25   -1    0    0    0    0  0.00000000000E+00  0.00000000000E+00  0.99999998245E-14  0.12500000000E+03  0.12500000000E+03 0.  0.
        -13    1    3    3    0    0 -0.48796624513E+02 -0.18036202882E+02 -0.14672543542E+02  0.54052843369E+02  0.10566000000E+00 0.  1.
         23    2    1    0    0    0 -0.20229454475E+02 -0.70729580735E+01  0.16665793650E+02  0.97852141111E+02  0.94010825322E+02 0.  0.
         13    1    3    3    0    0  0.28567170037E+02  0.10963244808E+02  0.31338337192E+02  0.43799297742E+02  0.10566000000E+00 0. -1.
         22    1    1    0    0    0  0.20229454475E+02  0.70729580735E+01 -0.16665793650E+02  0.27147858889E+02  0.00000000000E+00 0.  1.
</event>
<event>
 5    1  0.1766627E-003  0.9118800E+02  0.7818608E-02  0.1130116E+00
         25   -1    0    0    0    0  0.00000000000E+00  0.00000000000E+00  0.99999998245E-14  0.12500000000E+03  0.12500000000E+03 0.  0.
        -13    1    3    3    0    0 -0.29187132084E+02 -0.27298706441E+02 -0.14094906544E+02  0.42376710669E+02  0.10566000000E+00 0. -1.
         23    2    1    0    0    0 -0.20185712407E+02  0.61483380793E+00  0.26015373906E+02  0.92066116453E+02  0.85974002543E+02 0.  0.
         13    1    3    3    0    0  0.90014196769E+01  0.27913540249E+02  0.40110280450E+02  0.49689405784E+02  0.10566000000E+00 0.  1.
         22    1    1    0    0    0  0.20185712407E+02 -0.61483380793E+00 -0.26015373906E+02  0.32933883547E+02  0.00000000000E+00 0. -1.
</event>
<event>
 5    1  0.1766627E-003  0.9118800E+02  0.7818608E-02  0.1130116E+00
         25   -1    0    0    0    0  0.00000000000E+00  0.00000000000E+00  0.99999998245E-14  0.12500000000E+03  0.12500000000E+03 0.  0.
        -13    1    3    3    0    0  0.33090649740E+02 -0.81211168375E+01  0.10126599425E+02  0.35545784825E+02  0.10566000000E+00 0. -1.
         23    2    1    0    0    0 -0.13361464537E+02  0.12121350936E+02 -0.22762900569E+02  0.95955111889E+02  0.91453693048E+02 0.  0.
         13    1    3    3    0    0 -0.46452114277E+02  0.20242467773E+02 -0.32889499994E+02  0.60409327063E+02  0.10566000000E+00 0.  1.
         22    1    1    0    0    0  0.13361464537E+02 -0.12121350936E+02  0.22762900569E+02  0.29044888111E+02  0.00000000000E+00 0.  1.
</event>
<event>
 5    1  0.1766627E-003  0.9118800E+02  0.7818608E-02  0.1130116E+00
         25   -1    0    0    0    0  0.00000000000E+00  0.00000000000E+00  0.99999998245E-14  0.12500000000E+03  0.12500000000E+03 0.  0.
        -13    1    3    3    0    0 -0.28357217681E+02  0.11753233006E+02 -0.23176453377E+02  0.38463351854E+02  0.10566000000E+00 0.  1.
         23    2    1    0    0    0 -0.56503041803E+01 -0.21500370579E+02  0.18252165658E+02  0.96236595759E+02  0.91837622681E+02 0.  0.
         13    1    3    3    0    0  0.22706913500E+02 -0.33253603585E+02  0.41428619035E+02  0.57773243905E+02  0.10566000000E+00 0. -1.
         22    1    1    0    0    0  0.56503041803E+01  0.21500370579E+02 -0.18252165658E+02  0.28763404241E+02  0.00000000000E+00 0. -1.
</event>
<event>
 5    1  0.1766627E-003  0.9118800E+02  0.7818608E-02  0.1130116E+00
         25   -1    0    0    0    0  0.00000000000E+00  0.00000000000E+00  0.99999998245E-14  0.12500000000E+03  0.12500000000E+03 0.  0.
        -13    1    3    3    0    0 -0.35129523448E+02  0.30616439079E+01 -0.45492419820E+02  0.57558913352E+02  0.10566000000E+00 0.  1.
         23    2    1    0    0    0  0.10921000659E+01  0.93620134547E+01 -0.21672917892E+02  0.10136622441E+03  0.98572593066E+02 0.  0.
         13    1    3    3    0    0  0.36221623514E+02  0.63003695467E+01  0.23819501929E+02  0.43807311063E+02  0.10566000000E+00 0. -1.
         22    1    1    0    0    0 -0.10921000659E+01 -0.93620134547E+01  0.21672917892E+02  0.23633775585E+02  0.00000000000E+00 0.  1.
</event>
<event>
 5    1  0.1766627E-003  0.9118800E+02  0.7818608E-02  0.1130116E+00
         25   -1    0    0    0    0  0.00000000000E+00  0.00000000000E+00  0.99999998245E-14  0.12500000000E+03  0.12500000000E+03 0.  0.
        -13    1    3    3    0    0  0.27066311165E+02  0.38537995929E+02  0.58491134337E+01  0.47455090584E+02  0.10566000000E+00 0.  1.
         23    2    1    0    0    0  0.17685531592E+02  0.35695439255E+01  0.29299349276E+02  0.90591112492E+02  0.83802017417E+02 0.  0.
         13    1    3    3    0    0 -0.93807795736E+01 -0.34968452004E+02  0.23450235842E+02  0.43136021908E+02  0.10566000000E+00 0. -1.
         22    1    1    0    0    0 -0.17685531592E+02 -0.35695439255E+01 -0.29299349276E+02  0.34408887508E+02  0.00000000000E+00 0.  1.
</event>
<event>
 5    1  0.1766627E-003  0.9118800E+02  0.7818608E-02  0.1130116E+00
         25   -1    0    0    0    0  0.00000000000E+00  0.00000000000E+00  0.99999998245E-14  0.12500000000E+03  0.12500000000E+03 0.  0.
        -13    1    3    3    0    0 -0.43481772656E+02  0.41637443419E+01  0.19197152440E+02  0.47713133895E+02  0.10566000000E+00 0.  1.
         23    2    1    0    0    0 -0.11687023107E+02  0.17963182286E+02 -0.16863485385E+02  0.97730244477E+02  0.93848607444E+02 0.  0.
         13    1    3    3    0    0  0.31794749550E+02  0.13799437945E+02 -0.36060637825E+02  0.50017110581E+02  0.10566000000E+00 0. -1.
         22    1    1    0    0    0  0.11687023107E+02 -0.17963182286E+02  0.16863485385E+02  0.27269755523E+02  0.00000000000E+00 0. -1.
</event>
<event>
 5    1  0.1766627E-003  0.9118800E+02  0.7818608E-02  0.1130116E+00
         25   -1    0    0    0    0  0.00000000000E+00  0.00000000000E+00  0.99999998245E-14  0.12500000000E+03  0.12500000000E+03 0.  0.
        -13    1    3    3    0    0 -0.41793490799E+02  0.30896574845E+02  0.10655757618E+02  0.53055165109E+02  0.10566000000E+00 0.  1.
         23    2    1    0    0    0 -0.19407608430E+02 -0.29594734632E+01  0.22309158888E+02  0.95282794236E+02  0.90530097531E+02 0.  0.
         13    1    3    3    0    0  0.22385882369E+02 -0.33856048308E+02  0.11653401269E+02  0.42227629127E+02  0.10566000000E+00 0. -1.
         22    1    1    0    0    0  0.19407608430E+02  0.29594734632E+01 -0.22309158888E+02  0.29717205764E+02  0.00000000000E+00 0.  1.
</event>
<event>
 5    1  0.1766627E-003  0.9118800E+02  0.7818608E-02  0.1130116E+00
         25   -1    0    0    0    0  0.00000000000E+00  0.00000000000E+00  0.99999998245E-14  0.12500000000E+03  0.12500000000E+03 0.  0.
        -13    1    3    3    0    0 -0.24812189166E+02 -0.12239258766E+02 -0.34128475313E+02  0.43934134538E+02  0.10566000000E+00 0.  1.
         23    2    1    0    0    0 -0.22518427674E+02  0.11782664477E+02  0.12680624200E+02  0.96597376931E+02  0.92327375316E+02 0.  0.
         13    1    3    3    0    0  0.22937614919E+01  0.24021923243E+02  0.46809099514E+02  0.52663242393E+02  0.10566000000E+00 0. -1.
         22    1    1    0    0    0  0.22518427674E+02 -0.11782664477E+02 -0.12680624200E+02  0.28402623069E+02  0.00000000000E+00 0. -1.
</event>
<event>
 5    1  0.1766627E-003  0.9118800E+02  0.7818608E-02  0.1130116E+00
         25   -1    0    0    0    0  0.00000000000E+00  0.00000000000E+00  0.99999998245E-14  0.12500000000E+03  0.12500000000E+03 0.  0.
        -13    1    3    3    0    0  0.16660331064E+02  0.79416315880E+01  0.36565000010E+02  0.40959083647E+02  0.10566000000E+00 0. -1.
         23    2    1    0    0    0  0.12590218283E+02  0.19189510660E+02 -0.17377723840E+02  0.96212221315E+02  0.91804440680E+02 0.  0.
         13    1    3    3    0    0 -0.40701127816E+01  0.11247879072E+02 -0.53942723850E+02  0.55253137667E+02  0.10566000000E+00 0.  1.
         22    1    1    0    0    0 -0.12590218283E+02 -0.19189510660E+02  0.17377723840E+02  0.28787778685E+02  0.00000000000E+00 0.  1.
</event>
<event>
 5    1  0.1766627E-003  0.9118800E+02  0.7818608E-02  0.1130116E+00
         25   -1    0    0    0    0  0.00000000000E+00  0.00000000000E+00  0.99999998245E-14  0.12500000000E+03  0.12500000000E+03 0.  0.
        -13    1    3    3    0    0  0.16376374768E+02 -0.58728448006E+01  0.29744976505E+02  0.34459407248E+02  0.10566000000E+00 0. -1.
         23    2    1    0    0    0 -0.93040453939E+01 -0.14049688509E+02 -0.24635846281E+02  0.95152321198E+02  0.90349766460E+02 0.  0.
         13    1    3    3    0    0 -0.25680420162E+02 -0.81768437082E+01 -0.54380822786E+02  0.60692913949E+02  0.10566000000E+00 0.  1.
         22    1    1    0    0    0  0.93040453939E+01  0.14049688509E+02  0.24635846281E+02  0.29847678802E+02  0.00000000000E+00 0.  1.
</event>
<event>
 5    1  0.1766627E-003  0.9118800E+02  0.7818608E-02  0.1130116E+00
         25   -1    0    0    0    0  0.00000000000E+00  0.00000000000E+00  0.99999998245E-14  0.12500000000E+03  0.12500000000E+03 0.  0.
        -13    1    3    3    0    0 -0.27025301792E+02  0.33757521385E+02  0.90583731881E+01  0.44181472088E+02  0.10566000000E+00 0.  1.
         23    2    1    0    0    0  0.11993107883E+02  0.16904512871E+02 -0.20418331454E+02  0.95905233264E+02  0.91385492918E+02 0.  0.
         13    1    3    3    0    0  0.39018409675E+02 -0.16853008515E+02 -0.29476704642E+02  0.51723761175E+02  0.10566000000E+00 0. -1.
         22    1    1    0    0    0 -0.11993107883E+02 -0.16904512871E+02  0.20418331454E+02  0.29094766736E+02  0.00000000000E+00 0. -1.
</event>
<event>
 5    1  0.1766627E-003  0.9118800E+02  0.7818608E-02  0.1130116E+00
         25   -1    0    0    0    0  0.00000000000E+00  0.00000000000E+00  0.99999998245E-14  0.12500000000E+03  0.12500000000E+03 0.  0.
        -13    1    3    3    0    0  0.18329570425E+02 -0.12330193135E+02 -0.32793674933E+02  0.39540398258E+02  0.10566000000E+00 0. -1.
         23    2    1    0    0    0 -0.28722242262E+02  0.85156926380E+00 -0.47628107684E+01  0.95873092557E+02  0.91341519252E+02 0.  0.
         13    1    3    3    0    0 -0.47051812688E+02  0.13181762399E+02  0.28030864165E+02  0.56332694299E+02  0.10566000000E+00 0.  1.
         22    1    1    0    0    0  0.28722242262E+02 -0.85156926380E+00  0.47628107684E+01  0.29126907443E+02  0.00000000000E+00 0.  1.
</event>
<event>
 5    1  0.1766627E-003  0.9118800E+02  0.7818608E-02  0.1130116E+00
         25   -1    0    0    0    0  0.00000000000E+00  0.00000000000E+00  0.99999998245E-14  0.12500000000E+03  0.12500000000E+03 0.  0.
        -13    1    3    3    0    0 -0.44992955955E+02  0.21447555578E+02  0.36678567983E+02  0.61884507263E+02  0.10566000000E+00 0.  1.
         23    2    1    0    0    0 -0.17850295438E+02  0.15346088495E+02  0.16438627938E+02  0.96288260802E+02  0.91907916963E+02 0.  0.
         13    1    3    3    0    0  0.27142660517E+02 -0.61014670824E+01 -0.20239940045E+02  0.34403753539E+02  0.10566000000E+00 0. -1.
         22    1    1    0    0    0  0.17850295438E+02 -0.15346088495E+02 -0.16438627938E+02  0.28711739198E+02  0.00000000000E+00 0.  1.
</event>
<event>
 5    1  0.1766627E-003  0.9118800E+02  0.7818608E-02  0.1130116E+00
         25   -1    0    0    0    0  0.00000000000E+00  0.00000000000E+00  0.99999998245E-14  0.12500000000E+03  0.12500000000E+03 0.  0.
        -13    1    3    3    0    0  0.37484232272E+02 -0.56949645384E+01  0.49046627140E+02  0.61992605107E+02  0.10566000000E+00 0. -1.
         23    2    1    0    0    0  0.19519716519E+02  0.22808580547E+01  0.21029409071E+02  0.96217059005E+02  0.91811027395E+02 0.  0.
         13    1    3    3    0    0 -0.17964515753E+02  0.79758225931E+01 -0.28017218069E+02  0.34224453898E+02  0.10566000000E+00 0.  1.
         22    1    1    0    0    0 -0.19519716519E+02 -0.22808580547E+01 -0.21029409071E+02  0.28782940995E+02  0.00000000000E+00 0. -1.
</event>
<event>
 5    1  0.1766627E-003  0.9118800E+02  0.7818608E-02  0.1130116E+00
         25   -1    0    0    0    0  0.00000000000E+00  0.00000000000E+00  0.99999998245E-14  0.12500000000E+03  0.12500000000E+03 0.  0.
        -13    1    3    3    0    0 -0.53016792019E+02  0.67187355170E+01 -0.16291596536E+02  0.55869033683E+02  0.10566000000E+00 0. -1.
         23    2    1    0    0    0 -0.21694393204E+02  0.19939174079E+02  0.36898736970E+01  0.95304334873E+02  0.90559835016E+02 0.  0.
         13    1    3    3    0    0  0.31322398814E+02  0.13220438562E+02  0.19981470233E+02  0.39435301190E+02  0.10566000000E+00 0.  1.
         22    1    1    0    0    0  0.21694393204E+02 -0.19939174079E+02 -0.36898736970E+01  0.29695665127E+02  0.00000000000E+00 0. -1.
</event>
<event>
 5    1  0.1766627E-003  0.9118800E+02  0.7818608E-02  0.1130116E+00
         25   -1    0    0    0    0  0.00000000000E+00  0.00000000000E+00  0.99999998245E-14  0.12500000000E+03  0.12500000000E+03 0.  0.
        -13    1    3    3    0    0 -0.41330161148E+02 -0.11757468074E+02 -0.34556697756E+02  0.55141606794E+02  0.10566000000E+00 0.  1.
         23    2    1    0    0    0 -0.27001406390E+02 -0.76089801756E+01  0.41668777359E+01  0.96639192600E+02  0.92383971283E+02 0.  0.
         13    1    3    3    0    0  0.14328754759E+02  0.41484878988E+01  0.38723575492E+02  0.41497585805E+02  0.10566000000E+00 0. -1.
         22    1    1    0    0    0  0.27001406390E+02  0.76089801756E+01 -0.41668777359E+01  0.28360807400E+02  0.00000000000E+00 0.  1.
</event>
<event>
 5    1  0.1766627E-003  0.9118800E+02  0.7818608E-02  0.1130116E+00
         25   -1    0    0    0    0  0.00000000000E+00  0.00000000000E+00  0.99999998245E-14  0.12500000000E+03  0.12500000000E+03 0.  0.
        -13    1    3    3    0    0 -0.33503872666E+02  0.45739774582E+02 -0.11744178179E+02  0.57901410583E+02  0.10566000000E+00 0.  1.
         23    2    1    0    0    0 -0.86900250290E+00  0.28974761872E+02 -0.15965272835E+01  0.95968277862E+02  0.91471686688E+02 0.  0.
         13    1    3    3    0    0  0.32634870163E+02 -0.16765012709E+02  0.10147650895E+02  0.38066867279E+02  0.10566000000E+00 0. -1.
         22    1    1    0    0    0  0.86900250290E+00 -0.28974761872E+02  0.15965272835E+01  0.29031722138E+02  0.00000000000E+00 0.  1.
</event>
<event>
 5    1  0.1766627E-003  0.9118800E+02  0.7818608E-02  0.1130116E+00
         25   -1    0    0    0    0  0.00000000000E+00  0.00000000000E+00  0.99999998245E-14  0.12500000000E+03  0.12500000000E+03 0.  0.
        -13    1    3    3    0    0  0.19375594514E+02  0.28447335786E+02 -0.28929682992E+02  0.44962231908E+02  0.10566000000E+00 0. -1.
         23    2    1    0    0    0  0.26607933629E+02 -0.56388050553E+01  0.88881773760E+01  0.96385703722E+02  0.92040349469E+02 0.  0.
         13    1    3    3    0    0  0.72323391149E+01 -0.34086140842E+02  0.37817860368E+02  0.51423471814E+02  0.10566000000E+00 0.  1.
         22    1    1    0    0    0 -0.26607933629E+02  0.56388050553E+01 -0.88881773760E+01  0.28614296278E+02  0.00000000000E+00 0.  1.
</event>
<event>
 5    1  0.1766627E-003  0.9118800E+02  0.7818608E-02  0.1130116E+00
         25   -1    0    0    0    0  0.00000000000E+00  0.00000000000E+00  0.99999998245E-14  0.12500000000E+03  0.12500000000E+03 0.  0.
        -13    1    3    3    0    0  0.17421967882E+01  0.50868759320E+02  0.18045141368E+02  0.54002816736E+02  0.10566000000E+00 0. -1.
         23    2    1    0    0    0 -0.22045087250E+02  0.21659726568E+02  0.63198767636E+01  0.93455262417E+02  0.87970538275E+02 0.  0.
         13    1    3    3    0    0 -0.23787284038E+02 -0.29209032751E+02 -0.11725264605E+02  0.39452445681E+02  0.10566000000E+00 0.  1.
         22    1    1    0    0    0  0.22045087250E+02 -0.21659726568E+02 -0.63198767636E+01  0.31544737583E+02  0.00000000000E+00 0. -1.
</event>
<event>
 5    1  0.1766627E-003  0.9118800E+02  0.7818608E-02  0.1130116E+00
         25   -1    0    0    0    0  0.00000000000E+00  0.00000000000E+00  0.99999998245E-14  0.12500000000E+03  0.12500000000E+03 0.  0.
        -13    1    3    3    0    0 -0.24036334334E+02 -0.32413688934E+01 -0.22513629002E+02  0.33092695499E+02  0.10566000000E+00 0.  1.
         23    2    1    0    0    0  0.24619840121E+02 -0.85412153400E+01  0.15155349101E+02  0.94854129745E+02  0.89936268748E+02 0.  0.
         13    1    3    3    0    0  0.48656174455E+02 -0.52998464466E+01  0.37668978102E+02  0.61761434247E+02  0.10566000000E+00 0. -1.
         22    1    1    0    0    0 -0.24619840121E+02  0.85412153400E+01 -0.15155349101E+02  0.30145870255E+02  0.00000000000E+00 0. -1.
</event>
<event>
 5    1  0.1766627E-003  0.9118800E+02  0.7818608E-02  0.1130116E+00
         25   -1    0    0    0    0  0.00000000000E+00  0.00000000000E+00  0.99999998245E-14  0.12500000000E+03  0.12500000000E+03 0.  0.
        -13    1    3    3    0    0 -0.51476661098E+02 -0.14247143471E+02 -0.20102451653E+02  0.57069671993E+02  0.10566000000E+00 0.  1.
         23    2    1    0    0    0 -0.21433176609E+02 -0.19611906528E+02  0.36193398953E+01  0.95723600657E+02  0.91136711397E+02 0.  0.
         13    1    3    3    0    0  0.30043484489E+02 -0.53647630570E+01  0.23721791548E+02  0.38653928664E+02  0.10566000000E+00 0. -1.
         22    1    1    0    0    0  0.21433176609E+02  0.19611906528E+02 -0.36193398953E+01  0.29276399343E+02  0.00000000000E+00 0.  1.
</event>
<event>
 5    1  0.1766627E-003  0.9118800E+02  0.7818608E-02  0.1130116E+00
         25   -1    0    0    0    0  0.00000000000E+00  0.00000000000E+00  0.99999998245E-14  0.12500000000E+03  0.12500000000E+03 0.  0.
        -13    1    3    3    0    0  0.76423282816E+01 -0.26270881944E+02  0.27489487055E+02  0.38784629459E+02  0.10566000000E+00 0.  1.
         23    2    1    0    0    0 -0.22893714626E+02 -0.96974291709E+01 -0.16738671918E+02  0.95027588694E+02  0.90177032406E+02 0.  0.
         13    1    3    3    0    0 -0.30536042908E+02  0.16573452773E+02 -0.44228158974E+02  0.56242959235E+02  0.10566000000E+00 0. -1.
         22    1    1    0    0    0  0.22893714626E+02  0.96974291709E+01  0.16738671918E+02  0.29972411306E+02  0.00000000000E+00 0. -1.
</event>
<event>
 5    1  0.1766627E-003  0.9118800E+02  0.7818608E-02  0.1130116E+00
         25   -1    0    0    0    0  0.00000000000E+00  0.00000000000E+00  0.99999998245E-14  0.12500000000E+03  0.12500000000E+03 0.  0.
        -13    1    3    3    0    0  0.60587160014E+02  0.10421986940E+01  0.47926747966E+01  0.60785450829E+02  0.10566000000E+00 0.  1.
         23    2    1    0    0    0  0.25438575920E+02  0.92598178750E+01 -0.31509309218E+01  0.97745757438E+02  0.93869267386E+02 0.  0.
         13    1    3    3    0    0 -0.35148584094E+02  0.82176191810E+01 -0.79436057184E+01  0.36960306610E+02  0.10566000000E+00 0. -1.
         22    1    1    0    0    0 -0.25438575920E+02 -0.92598178750E+01  0.31509309218E+01  0.27254242562E+02  0.00000000000E+00 0.  1.
</event>
<event>
 5    1  0.1766627E-003  0.9118800E+02  0.7818608E-02  0.1130116E+00
         25   -1    0    0    0    0  0.00000000000E+00  0.00000000000E+00  0.99999998245E-14  0.12500000000E+03  0.12500000000E+03 0.  0.
        -13    1    3    3    0    0 -0.29131963025E+02 -0.17873179776E+02  0.24110286110E+02  0.41826294186E+02  0.10566000000E+00 0.  1.
         23    2    1    0    0    0 -0.72567696993E+01  0.27922578216E+02  0.86602539661E+01  0.94878063152E+02  0.89969526997E+02 0.  0.
         13    1    3    3    0    0  0.21875193326E+02  0.45795757992E+02 -0.15450032144E+02  0.53051768966E+02  0.10566000000E+00 0. -1.
         22    1    1    0    0    0  0.72567696993E+01 -0.27922578216E+02 -0.86602539661E+01  0.30121936848E+02  0.00000000000E+00 0. -1.
</event>
<event>
 5    1  0.1766627E-003  0.9118800E+02  0.7818608E-02  0.1130116E+00
         25   -1    0    0    0    0  0.00000000000E+00  0.00000000000E+00  0.99999998245E-14  0.12500000000E+03  0.12500000000E+03 0.  0.
        -13    1    3    3    0    0  0.37520777674E+02  0.38711388349E+01  0.32376139768E+02  0.49709355894E+02  0.10566000000E+00 0. -1.
         23    2    1    0    0    0  0.18137799937E+02  0.21599906679E+02 -0.59505216956E+01  0.96173892674E+02  0.91752237949E+02 0.  0.
         13    1    3    3    0    0 -0.19382977737E+02  0.17728767844E+02 -0.38326661463E+02  0.46464536780E+02  0.10566000000E+00 0.  1.
         22    1    1    0    0    0 -0.18137799937E+02 -0.21599906679E+02  0.59505216956E+01  0.28826107326E+02  0.00000000000E+00 0.  1.
</event>
<event>
 5    1  0.1766627E-003  0.9118800E+02  0.7818608E-02  0.1130116E+00
         25   -1    0    0    0    0  0.00000000000E+00  0.00000000000E+00  0.99999998245E-14  0.12500000000E+03  0.12500000000E+03 0.  0.
        -13    1    3    3    0    0 -0.33958482450E+02  0.27188940624E+02 -0.31575926549E+02  0.53753765673E+02  0.10566000000E+00 0. -1.
         23    2    1    0    0    0 -0.16365349948E+02  0.24146325572E+02  0.58764058825E+01  0.95244296956E+02  0.90476926556E+02 0.  0.
         13    1    3    3    0    0  0.17593132502E+02 -0.30426150526E+01  0.37452332431E+02  0.41490531283E+02  0.10566000000E+00 0.  1.
         22    1    1    0    0    0  0.16365349948E+02 -0.24146325572E+02 -0.58764058825E+01  0.29755703044E+02  0.00000000000E+00 0. -1.
</event>
<event>
 5    1  0.1766627E-003  0.9118800E+02  0.7818608E-02  0.1130116E+00
         25   -1    0    0    0    0  0.00000000000E+00  0.00000000000E+00  0.99999998245E-14  0.12500000000E+03  0.12500000000E+03 0.  0.
        -13    1    3    3    0    0 -0.41452708807E+01  0.74399352484E+01  0.48660940386E+02  0.49400750910E+02  0.10566000000E+00 0.  1.
         23    2    1    0    0    0  0.15118184421E+02  0.26657359198E+02  0.25704355226E+02  0.85001397810E+02  0.75002329647E+02 0.  0.
         13    1    3    3    0    0  0.19263455302E+02  0.19217423950E+02 -0.22956585160E+02  0.35600646900E+02  0.10566000000E+00 0. -1.
         22    1    1    0    0    0 -0.15118184421E+02 -0.26657359198E+02 -0.25704355226E+02  0.39998602190E+02  0.00000000000E+00 0. -1.
</event>
<event>
 5    1  0.1766627E-003  0.9118800E+02  0.7818608E-02  0.1130116E+00
         25   -1    0    0    0    0  0.00000000000E+00  0.00000000000E+00  0.99999998245E-14  0.12500000000E+03  0.12500000000E+03 0.  0.
        -13    1    3    3    0    0 -0.26454003454E+02 -0.65663120710E+01 -0.30555721585E+02  0.40946233509E+02  0.10566000000E+00 0. -1.
         23    2    1    0    0    0  0.25364618812E+02  0.26889748195E+01 -0.12494876352E+02  0.96597246469E+02  0.92327198687E+02 0.  0.
         13    1    3    3    0    0  0.51818622266E+02  0.92552868905E+01  0.18060845233E+02  0.55651012961E+02  0.10566000000E+00 0.  1.
         22    1    1    0    0    0 -0.25364618812E+02 -0.26889748195E+01  0.12494876352E+02  0.28402753531E+02  0.00000000000E+00 0.  1.
</event>
<event>
 5    1  0.1766627E-003  0.9118800E+02  0.7818608E-02  0.1130116E+00
         25   -1    0    0    0    0  0.00000000000E+00  0.00000000000E+00  0.99999998245E-14  0.12500000000E+03  0.12500000000E+03 0.  0.
        -13    1    3    3    0    0  0.39868764006E+01 -0.43508840545E+02 -0.77733679075E+01  0.44377368125E+02  0.10566000000E+00 0. -1.
         23    2    1    0    0    0 -0.97727323413E+01 -0.47161153580E+01  0.25488543514E+02  0.97297763774E+02  0.93270793625E+02 0.  0.
         13    1    3    3    0    0 -0.13759608742E+02  0.38792725187E+02  0.33261911421E+02  0.52920395649E+02  0.10566000000E+00 0.  1.
         22    1    1    0    0    0  0.97727323413E+01  0.47161153580E+01 -0.25488543514E+02  0.27702236226E+02  0.00000000000E+00 0.  1.
</event>
<event>
 5    1  0.1766627E-003  0.9118800E+02  0.7818608E-02  0.1130116E+00
         25   -1    0    0    0    0  0.00000000000E+00  0.00000000000E+00  0.99999998245E-14  0.12500000000E+03  0.12500000000E+03 0.  0.
        -13    1    3    3    0    0  0.25020110190E+02  0.25563775436E+02 -0.27459745622E+00  0.35771484401E+02  0.10566000000E+00 0.  1.
         23    2    1    0    0    0 -0.18625209037E+02 -0.80644867320E+01  0.21879243697E+02  0.95156480391E+02  0.90355520571E+02 0.  0.
         13    1    3    3    0    0 -0.43645319227E+02 -0.33628262168E+02  0.22153841153E+02  0.59384995990E+02  0.10566000000E+00 0. -1.
         22    1    1    0    0    0  0.18625209037E+02  0.80644867320E+01 -0.21879243697E+02  0.29843519609E+02  0.00000000000E+00 0. -1.
</event>
<event>
 5    1  0.1766627E-003  0.9118800E+02  0.7818608E-02  0.1130116E+00
         25   -1    0    0    0    0  0.00000000000E+00  0.00000000000E+00  0.99999998245E-14  0.12500000000E+03  0.12500000000E+03 0.  0.
        -13    1    3    3    0    0  0.39671999476E+02 -0.79526624076E+01 -0.44012140476E+02  0.59784546959E+02  0.10566000000E+00 0. -1.
         23    2    1    0    0    0  0.20385001000E+02 -0.14772746892E+02 -0.13744357048E+02  0.96317432696E+02  0.91947583839E+02 0.  0.
         13    1    3    3    0    0 -0.19286998476E+02 -0.68200844847E+01  0.30267783427E+02  0.36532885737E+02  0.10566000000E+00 0.  1.
         22    1    1    0    0    0 -0.20385001000E+02  0.14772746892E+02  0.13744357048E+02  0.28682567304E+02  0.00000000000E+00 0. -1.
</event>
<event>
 5    1  0.1766627E-003  0.9118800E+02  0.7818608E-02  0.1130116E+00
         25   -1    0    0    0    0  0.00000000000E+00  0.00000000000E+00  0.99999998245E-14  0.12500000000E+03  0.12500000000E+03 0.  0.
        -13    1    3    3    0    0 -0.22641450466E+02 -0.17773220915E+02 -0.40299636690E+01  0.29065003563E+02  0.10566000000E+00 0. -1.
         23    2    1    0    0    0  0.15251601783E+01  0.33242198868E+02 -0.17928007772E+02  0.87200749190E+02  0.78582359963E+02 0.  0.
         13    1    3    3    0    0  0.24166610644E+02  0.51015419783E+02 -0.13898044103E+02  0.58135745627E+02  0.10566000000E+00 0.  1.
         22    1    1    0    0    0 -0.15251601783E+01 -0.33242198868E+02  0.17928007772E+02  0.37799250810E+02  0.00000000000E+00 0.  1.
</event>
<event>
 5    1  0.1766627E-003  0.9118800E+02  0.7818608E-02  0.1130116E+00
         25   -1    0    0    0    0  0.00000000000E+00  0.00000000000E+00  0.99999998245E-14  0.12500000000E+03  0.12500000000E+03 0.  0.
        -13    1    3    3    0    0  0.29992585117E+02  0.38247591727E+02 -0.14632038220E+02  0.50759640872E+02  0.10566000000E+00 0.  1.
         23    2    1    0    0    0  0.31487068277E+01  0.12422455968E+02 -0.31006505000E+02  0.91449513874E+02  0.85072783360E+02 0.  0.
         13    1    3    3    0    0 -0.26843878289E+02 -0.25825135760E+02 -0.16374466779E+02  0.40689873002E+02  0.10566000000E+00 0. -1.
         22    1    1    0    0    0 -0.31487068277E+01 -0.12422455968E+02  0.31006505000E+02  0.33550486126E+02  0.00000000000E+00 0. -1.
</event>
<event>
 5    1  0.1766627E-003  0.9118800E+02  0.7818608E-02  0.1130116E+00
         25   -1    0    0    0    0  0.00000000000E+00  0.00000000000E+00  0.99999998245E-14  0.12500000000E+03  0.12500000000E+03 0.  0.
        -13    1    3    3    0    0 -0.18777168536E+02  0.37973718763E+02  0.89601427349E+01  0.43299892572E+02  0.10566000000E+00 0.  1.
         23    2    1    0    0    0  0.23739536977E+02  0.14473515027E+02 -0.10006525906E+02  0.95450400784E+02  0.90761226280E+02 0.  0.
         13    1    3    3    0    0  0.42516705513E+02 -0.23500203736E+02 -0.18966668641E+02  0.52150508211E+02  0.10566000000E+00 0. -1.
         22    1    1    0    0    0 -0.23739536977E+02 -0.14473515027E+02  0.10006525906E+02  0.29549599216E+02  0.00000000000E+00 0. -1.
</event>
<event>
 5    1  0.1766627E-003  0.9118800E+02  0.7818608E-02  0.1130116E+00
         25   -1    0    0    0    0  0.00000000000E+00  0.00000000000E+00  0.99999998245E-14  0.12500000000E+03  0.12500000000E+03 0.  0.
        -13    1    3    3    0    0 -0.86697856658E-01  0.29815490287E+02 -0.18185924281E+02  0.34924346573E+02  0.10566000000E+00 0. -1.
         23    2    1    0    0    0 -0.25251236289E+02 -0.49632776634E+01  0.20022737004E+02  0.92393726732E+02  0.86449012041E+02 0.  0.
         13    1    3    3    0    0 -0.25164538433E+02 -0.34778767950E+02  0.38208661285E+02  0.57469380159E+02  0.10566000000E+00 0.  1.
         22    1    1    0    0    0  0.25251236289E+02  0.49632776634E+01 -0.20022737004E+02  0.32606273268E+02  0.00000000000E+00 0.  1.
</event>
<event>
 5    1  0.1766627E-003  0.9118800E+02  0.7818608E-02  0.1130116E+00
         25   -1    0    0    0    0  0.00000000000E+00  0.00000000000E+00  0.99999998245E-14  0.12500000000E+03  0.12500000000E+03 0.  0.
        -13    1    3    3    0    0 -0.38334013376E+02 -0.20144087288E+02 -0.36402444800E+02  0.56572342939E+02  0.10566000000E+00 0. -1.
         23    2    1    0    0    0 -0.11840551750E+01 -0.16511926324E+02 -0.23878141044E+02  0.95944685214E+02  0.91439440635E+02 0.  0.
         13    1    3    3    0    0  0.37149958201E+02  0.36321609639E+01  0.12524303756E+02  0.39372342275E+02  0.10566000000E+00 0.  1.
         22    1    1    0    0    0  0.11840551750E+01  0.16511926324E+02  0.23878141044E+02  0.29055314786E+02  0.00000000000E+00 0. -1.
</event>
<event>
 5    1  0.1766627E-003  0.9118800E+02  0.7818608E-02  0.1130116E+00
         25   -1    0    0    0    0  0.00000000000E+00  0.00000000000E+00  0.99999998245E-14  0.12500000000E+03  0.12500000000E+03 0.  0.
        -13    1    3    3    0    0  0.62236997738E+01 -0.45577664290E+02 -0.47441577726E+00  0.46003197230E+02  0.10566000000E+00 0.  1.
         23    2    1    0    0    0 -0.14129113826E+02 -0.73650825185E+01  0.24342556584E+02  0.95906420656E+02  0.91387117057E+02 0.  0.
         13    1    3    3    0    0 -0.20352813599E+02  0.38212581772E+02  0.24816972361E+02  0.49903223426E+02  0.10566000000E+00 0. -1.
         22    1    1    0    0    0  0.14129113826E+02  0.73650825185E+01 -0.24342556584E+02  0.29093579344E+02  0.00000000000E+00 0. -1.
</event>
<event>
 5    1  0.1766627E-003  0.9118800E+02  0.7818608E-02  0.1130116E+00
         25   -1    0    0    0    0  0.00000000000E+00  0.00000000000E+00  0.99999998245E-14  0.12500000000E+03  0.12500000000E+03 0.  0.
        -13    1    3    3    0    0 -0.38178219315E+02  0.16531302611E+02 -0.17197071921E+02  0.45017894695E+02  0.10566000000E+00 0. -1.
         23    2    1    0    0    0  0.19301651976E+01  0.27725277095E+02  0.10785893054E+02  0.95188055806E+02  0.90399192205E+02 0.  0.
         13    1    3    3    0    0  0.40108384513E+02  0.11193974484E+02  0.27982964975E+02  0.50170161110E+02  0.10566000000E+00 0.  1.
         22    1    1    0    0    0 -0.19301651976E+01 -0.27725277095E+02 -0.10785893054E+02  0.29811944194E+02  0.00000000000E+00 0.  1.
</event>
<event>
 5    1  0.1766627E-003  0.9118800E+02  0.7818608E-02  0.1130116E+00
         25   -1    0    0    0    0  0.00000000000E+00  0.00000000000E+00  0.99999998245E-14  0.12500000000E+03  0.12500000000E+03 0.  0.
        -13    1    3    3    0    0  0.17142388748E+02  0.56233101609E+02 -0.81302236722E+01  0.59347577117E+02  0.10566000000E+00 0. -1.
         23    2    1    0    0    0  0.74455845702E+01  0.27138008639E+02  0.10189500873E+02  0.95071181605E+02  0.90237439023E+02 0.  0.
         13    1    3    3    0    0 -0.96968041780E+01 -0.29095092971E+02  0.18319724545E+02  0.35723604489E+02  0.10566000000E+00 0.  1.
         22    1    1    0    0    0 -0.74455845702E+01 -0.27138008639E+02 -0.10189500873E+02  0.29928818395E+02  0.00000000000E+00 0. -1.
</event>
<event>
 5    1  0.1766627E-003  0.9118800E+02  0.7818608E-02  0.1130116E+00
         25   -1    0    0    0    0  0.00000000000E+00  0.00000000000E+00  0.99999998245E-14  0.12500000000E+03  0.12500000000E+03 0.  0.
        -13    1    3    3    0    0 -0.31041569035E+02 -0.62650183218E+00  0.29298534489E+02  0.42689422577E+02  0.10566000000E+00 0. -1.
         23    2    1    0    0    0  0.21309066634E+02 -0.82772404667E+01  0.15546511055E+02  0.97354330600E+02  0.93346572782E+02 0.  0.
         13    1    3    3    0    0  0.52350635669E+02 -0.76507386345E+01 -0.13752023434E+02  0.54664908023E+02  0.10566000000E+00 0.  1.
         22    1    1    0    0    0 -0.21309066634E+02  0.82772404667E+01 -0.15546511055E+02  0.27645669400E+02  0.00000000000E+00 0.  1.
</event>
<event>
 5    1  0.1766627E-003  0.9118800E+02  0.7818608E-02  0.1130116E+00
         25   -1    0    0    0    0  0.00000000000E+00  0.00000000000E+00  0.99999998245E-14  0.12500000000E+03  0.12500000000E+03 0.  0.
        -13    1    3    3    0    0  0.56489686310E+02 -0.55515985499E+01 -0.91551713547E+01  0.57495506193E+02  0.10566000000E+00 0. -1.
         23    2    1    0    0    0  0.19352704121E+02 -0.14732236716E+02 -0.15335865345E+02  0.96246657214E+02  0.91851316287E+02 0.  0.
         13    1    3    3    0    0 -0.37136982189E+02 -0.91806381664E+01 -0.61806939907E+01  0.38751151021E+02  0.10566000000E+00 0.  1.
         22    1    1    0    0    0 -0.19352704121E+02  0.14732236716E+02  0.15335865345E+02  0.28753342786E+02  0.00000000000E+00 0. -1.
</event>
<event>
 5    1  0.1766627E-003  0.9118800E+02  0.7818608E-02  0.1130116E+00
         25   -1    0    0    0    0  0.00000000000E+00  0.00000000000E+00  0.99999998245E-14  0.12500000000E+03  0.12500000000E+03 0.  0.
        -13    1    3    3    0    0 -0.77721036463E+01 -0.87976503829E+01 -0.55580888746E+02  0.56807135161E+02  0.10566000000E+00 0.  1.
         23    2    1    0    0    0 -0.21505717416E+02 -0.32690462989E+01 -0.19581607466E+02  0.95731896265E+02  0.91148088659E+02 0.  0.
         13    1    3    3    0    0 -0.13733613770E+02  0.55286040840E+01  0.35999281280E+02  0.38924761104E+02  0.10566000000E+00 0. -1.
         22    1    1    0    0    0  0.21505717416E+02  0.32690462989E+01  0.19581607466E+02  0.29268103735E+02  0.00000000000E+00 0.  1.
</event>
<event>
 5    1  0.1766627E-003  0.9118800E+02  0.7818608E-02  0.1130116E+00
         25   -1    0    0    0    0  0.00000000000E+00  0.00000000000E+00  0.99999998245E-14  0.12500000000E+03  0.12500000000E+03 0.  0.
        -13    1    3    3    0    0  0.14797748926E+02 -0.36039401403E+02 -0.34919448836E+02  0.52318169863E+02  0.10566000000E+00 0.  1.
         23    2    1    0    0    0  0.66030316978E+01 -0.28325566578E+02  0.64645204090E+01  0.95205239157E+02  0.90422949461E+02 0.  0.
         13    1    3    3    0    0 -0.81947172277E+01  0.77138348246E+01  0.41383969245E+02  0.42887069294E+02  0.10566000000E+00 0. -1.
         22    1    1    0    0    0 -0.66030316978E+01  0.28325566578E+02 -0.64645204090E+01  0.29794760843E+02  0.00000000000E+00 0.  1.
</event>
<event>
 5    1  0.1766627E-003  0.9118800E+02  0.7818608E-02  0.1130116E+00
         25   -1    0    0    0    0  0.00000000000E+00  0.00000000000E+00  0.99999998245E-14  0.12500000000E+03  0.12500000000E+03 0.  0.
        -13    1    3    3    0    0  0.12841853640E+02 -0.32527268517E+02 -0.85415238868E+01  0.35998683259E+02  0.10566000000E+00 0.  1.
         23    2    1    0    0    0 -0.17128589246E+02  0.20326322545E+02 -0.95182875087E+01  0.96766230240E+02  0.92555699771E+02 0.  0.
         13    1    3    3    0    0 -0.29970442886E+02  0.52853591061E+02 -0.97676362187E+00  0.60767546981E+02  0.10566000000E+00 0. -1.
         22    1    1    0    0    0  0.17128589246E+02 -0.20326322545E+02  0.95182875087E+01  0.28233769760E+02  0.00000000000E+00 0. -1.
</event>
<event>
 5    1  0.1766627E-003  0.9118800E+02  0.7818608E-02  0.1130116E+00
         25   -1    0    0    0    0  0.00000000000E+00  0.00000000000E+00  0.99999998245E-14  0.12500000000E+03  0.12500000000E+03 0.  0.
        -13    1    3    3    0    0 -0.14426051518E+02 -0.50517413990E+02  0.14151422362E+02  0.54409502824E+02  0.10566000000E+00 0. -1.
         23    2    1    0    0    0  0.11707906192E+02 -0.20932824027E+02  0.19294776496E+02  0.94217755293E+02  0.89047396499E+02 0.  0.
         13    1    3    3    0    0  0.26133957711E+02  0.29584589962E+02  0.51433541343E+01  0.39808252469E+02  0.10566000000E+00 0.  1.
         22    1    1    0    0    0 -0.11707906192E+02  0.20932824027E+02 -0.19294776496E+02  0.30782244707E+02  0.00000000000E+00 0. -1.
</event>
<event>
 5    1  0.1766627E-003  0.9118800E+02  0.7818608E-02  0.1130116E+00
         25   -1    0    0    0    0  0.00000000000E+00  0.00000000000E+00  0.99999998245E-14  0.12500000000E+03  0.12500000000E+03 0.  0.
        -13    1    3    3    0    0  0.23739730827E+02 -0.39491405750E+02  0.41605856930E+02  0.62082239351E+02  0.10566000000E+00 0. -1.
         23    2    1    0    0    0  0.11287519734E+02 -0.20557274094E+02  0.14443476485E+02  0.97456876849E+02  0.93483791174E+02 0.  0.
         13    1    3    3    0    0 -0.12452211093E+02  0.18934131655E+02 -0.27162380445E+02  0.35374637498E+02  0.10566000000E+00 0.  1.
         22    1    1    0    0    0 -0.11287519734E+02  0.20557274094E+02 -0.14443476485E+02  0.27543123151E+02  0.00000000000E+00 0. -1.
</event>
<event>
 5    1  0.1766627E-003  0.9118800E+02  0.7818608E-02  0.1130116E+00
         25   -1    0    0    0    0  0.00000000000E+00  0.00000000000E+00  0.99999998245E-14  0.12500000000E+03  0.12500000000E+03 0.  0.
        -13    1    3    3    0    0  0.33150718553E+02 -0.49844791719E+01  0.17832440433E+02  0.37971334834E+02  0.10566000000E+00 0.  1.
         23    2    1    0    0    0 -0.18715891682E+02  0.20146633876E+02  0.71453114693E+01  0.96588260631E+02  0.92315032133E+02 0.  0.
         13    1    3    3    0    0 -0.51866610236E+02  0.25131113048E+02 -0.10687128964E+02  0.58616925797E+02  0.10566000000E+00 0. -1.
         22    1    1    0    0    0  0.18715891682E+02 -0.20146633876E+02 -0.71453114693E+01  0.28411739369E+02  0.00000000000E+00 0. -1.
</event>
<event>
 5    1  0.1766627E-003  0.9118800E+02  0.7818608E-02  0.1130116E+00
         25   -1    0    0    0    0  0.00000000000E+00  0.00000000000E+00  0.99999998245E-14  0.12500000000E+03  0.12500000000E+03 0.  0.
        -13    1    3    3    0    0  0.31694350424E+02 -0.20239490916E+02 -0.11559689393E+02  0.39342171067E+02  0.10566000000E+00 0.  1.
         23    2    1    0    0    0  0.23404954643E+01  0.26959912830E+01 -0.39143033519E+02  0.85694486887E+02  0.76148681681E+02 0.  0.
         13    1    3    3    0    0 -0.29353854960E+02  0.22935482199E+02 -0.27583344125E+02  0.46352315820E+02  0.10566000000E+00 0. -1.
         22    1    1    0    0    0 -0.23404954643E+01 -0.26959912830E+01  0.39143033519E+02  0.39305513113E+02  0.00000000000E+00 0. -1.
</event>
<event>
 5    1  0.1766627E-003  0.9118800E+02  0.7818608E-02  0.1130116E+00
         25   -1    0    0    0    0  0.00000000000E+00  0.00000000000E+00  0.99999998245E-14  0.12500000000E+03  0.12500000000E+03 0.  0.
        -13    1    3    3    0    0  0.12745894499E+02  0.47824167119E+02  0.30322322782E+02  0.58043631952E+02  0.10566000000E+00 0. -1.
         23    2    1    0    0    0 -0.29341847278E+01  0.13129028808E+02  0.25164285221E+02  0.96465422938E+02  0.92148552535E+02 0.  0.
         13    1    3    3    0    0 -0.15680079227E+02 -0.34695138311E+02 -0.51580375616E+01  0.38421790985E+02  0.10566000000E+00 0.  1.
         22    1    1    0    0    0  0.29341847278E+01 -0.13129028808E+02 -0.25164285221E+02  0.28534577062E+02  0.00000000000E+00 0. -1.
</event>
<event>
 5    1  0.1766627E-003  0.9118800E+02  0.7818608E-02  0.1130116E+00
         25   -1    0    0    0    0  0.00000000000E+00  0.00000000000E+00  0.99999998245E-14  0.12500000000E+03  0.12500000000E+03 0.  0.
        -13    1    3    3    0    0  0.32309866162E+02  0.12997396459E+02 -0.10760301116E+02  0.36450720298E+02  0.10566000000E+00 0. -1.
         23    2    1    0    0    0 -0.11242751123E+02  0.29774989088E+01  0.27410865960E+02  0.95223826215E+02  0.90448640420E+02 0.  0.
         13    1    3    3    0    0 -0.43552617284E+02 -0.10019897551E+02  0.38171167076E+02  0.58773105918E+02  0.10566000000E+00 0.  1.
         22    1    1    0    0    0  0.11242751123E+02 -0.29774989088E+01 -0.27410865960E+02  0.29776173785E+02  0.00000000000E+00 0.  1.
</event>
<event>
 5    1  0.1766627E-003  0.9118800E+02  0.7818608E-02  0.1130116E+00
         25   -1    0    0    0    0  0.00000000000E+00  0.00000000000E+00  0.99999998245E-14  0.12500000000E+03  0.12500000000E+03 0.  0.
        -13    1    3    3    0    0  0.81163717866E+01 -0.37604152097E+02 -0.70502617890E+01  0.39110933270E+02  0.10566000000E+00 0.  1.
         23    2    1    0    0    0  0.21306402603E+02  0.11550676368E+02  0.16995020488E+02  0.95399127753E+02  0.90690583514E+02 0.  0.
         13    1    3    3    0    0  0.13190030816E+02  0.49154828465E+02  0.24045282277E+02  0.56288194483E+02  0.10566000000E+00 0. -1.
         22    1    1    0    0    0 -0.21306402603E+02 -0.11550676368E+02 -0.16995020488E+02  0.29600872247E+02  0.00000000000E+00 0. -1.
</event>
<event>
 5    1  0.1766627E-003  0.9118800E+02  0.7818608E-02  0.1130116E+00
         25   -1    0    0    0    0  0.00000000000E+00  0.00000000000E+00  0.99999998245E-14  0.12500000000E+03  0.12500000000E+03 0.  0.
        -13    1    3    3    0    0  0.12917952112E+02  0.28148016384E+02  0.22670342832E+02  0.38381504937E+02  0.10566000000E+00 0.  1.
         23    2    1    0    0    0  0.19666575966E+02  0.94632267388E+01 -0.26061312779E+02  0.91007075820E+02  0.84420192815E+02 0.  0.
         13    1    3    3    0    0  0.67486238543E+01 -0.18684789645E+02 -0.48731655611E+02  0.52625570882E+02  0.10566000000E+00 0. -1.
         22    1    1    0    0    0 -0.19666575966E+02 -0.94632267388E+01  0.26061312779E+02  0.33992924180E+02  0.00000000000E+00 0. -1.
</event>
<event>
 5    1  0.1766627E-003  0.9118800E+02  0.7818608E-02  0.1130116E+00
         25   -1    0    0    0    0  0.00000000000E+00  0.00000000000E+00  0.99999998245E-14  0.12500000000E+03  0.12500000000E+03 0.  0.
        -13    1    3    3    0    0 -0.40288622823E+02  0.34310676209E+02  0.11724843217E+02  0.54202202385E+02  0.10566000000E+00 0. -1.
         23    2    1    0    0    0 -0.25715658055E+02  0.50333011971E+01 -0.13517983639E+02  0.95515002598E+02  0.90850154923E+02 0.  0.
         13    1    3    3    0    0  0.14572964768E+02 -0.29277375012E+02 -0.25242826856E+02  0.41312800213E+02  0.10566000000E+00 0.  1.
         22    1    1    0    0    0  0.25715658055E+02 -0.50333011971E+01  0.13517983639E+02  0.29484997402E+02  0.00000000000E+00 0. -1.
</event>
<event>
 5    1  0.1766627E-003  0.9118800E+02  0.7818608E-02  0.1130116E+00
         25   -1    0    0    0    0  0.00000000000E+00  0.00000000000E+00  0.99999998245E-14  0.12500000000E+03  0.12500000000E+03 0.  0.
        -13    1    3    3    0    0  0.56000489425E+02  0.18419520859E+02 -0.69458971031E+01  0.59359836718E+02  0.10566000000E+00 0.  1.
         23    2    1    0    0    0  0.31787210408E+02 -0.30981381137E+01  0.21031637698E+01  0.92992992906E+02  0.87311214781E+02 0.  0.
         13    1    3    3    0    0 -0.24213279018E+02 -0.21517658973E+02  0.90490608728E+01  0.33633156188E+02  0.10566000000E+00 0. -1.
         22    1    1    0    0    0 -0.31787210408E+02  0.30981381137E+01 -0.21031637698E+01  0.32007007094E+02  0.00000000000E+00 0.  1.
</event>
<event>
 5    1  0.1766627E-003  0.9118800E+02  0.7818608E-02  0.1130116E+00
         25   -1    0    0    0    0  0.00000000000E+00  0.00000000000E+00  0.99999998245E-14  0.12500000000E+03  0.12500000000E+03 0.  0.
        -13    1    3    3    0    0  0.29378957563E+02 -0.14749555776E+02 -0.28025392789E+02  0.43198453075E+02  0.10566000000E+00 0. -1.
         23    2    1    0    0    0  0.14487752475E+02  0.27485820999E+02 -0.50836772696E+01  0.93516526520E+02  0.88057547263E+02 0.  0.
         13    1    3    3    0    0 -0.14891205087E+02  0.42235376775E+02  0.22941715519E+02  0.50318073445E+02  0.10566000000E+00 0.  1.
         22    1    1    0    0    0 -0.14487752475E+02 -0.27485820999E+02  0.50836772696E+01  0.31483473480E+02  0.00000000000E+00 0. -1.
</event>
<event>
 5    1  0.1766627E-003  0.9118800E+02  0.7818608E-02  0.1130116E+00
         25   -1    0    0    0    0  0.00000000000E+00  0.00000000000E+00  0.99999998245E-14  0.12500000000E+03  0.12500000000E+03 0.  0.
        -13    1    3    3    0    0  0.41686307895E+02  0.41704446396E+02 -0.61547574668E+01  0.59286603197E+02  0.10566000000E+00 0.  1.
         23    2    1    0    0    0  0.82543449323E+01  0.27141678304E+02  0.16661903960E+01  0.96582028540E+02  0.92306593129E+02 0.  0.
         13    1    3    3    0    0 -0.33431962963E+02 -0.14562768092E+02  0.78209478629E+01  0.37295425343E+02  0.10566000000E+00 0. -1.
         22    1    1    0    0    0 -0.82543449323E+01 -0.27141678304E+02 -0.16661903960E+01  0.28417971460E+02  0.00000000000E+00 0.  1.
</event>
<event>
 5    1  0.1766627E-003  0.9118800E+02  0.7818608E-02  0.1130116E+00
         25   -1    0    0    0    0  0.00000000000E+00  0.00000000000E+00  0.99999998245E-14  0.12500000000E+03  0.12500000000E+03 0.  0.
        -13    1    3    3    0    0  0.43743542497E+02  0.56300972215E+00 -0.36959948518E+02  0.57270092095E+02  0.10566000000E+00 0.  1.
         23    2    1    0    0    0  0.28955969812E+02  0.38705566711E+01 -0.15971055534E+01  0.95742861677E+02  0.91163125326E+02 0.  0.
         13    1    3    3    0    0 -0.14787572684E+02  0.33075469490E+01  0.35362842964E+02  0.38472769581E+02  0.10566000000E+00 0. -1.
         22    1    1    0    0    0 -0.28955969812E+02 -0.38705566711E+01  0.15971055534E+01  0.29257138323E+02  0.00000000000E+00 0.  1.
</event>
<event>
 5    1  0.1766627E-003  0.9118800E+02  0.7818608E-02  0.1130116E+00
         25   -1    0    0    0    0  0.00000000000E+00  0.00000000000E+00  0.99999998245E-14  0.12500000000E+03  0.12500000000E+03 0.  0.
        -13    1    3    3    0    0  0.40524237859E+01  0.32565583866E+02  0.16106729776E+02  0.36556494624E+02  0.10566000000E+00 0.  1.
         23    2    1    0    0    0 -0.18235399034E+02 -0.11507240869E+02 -0.18276037073E+02  0.96734121251E+02  0.92512325194E+02 0.  0.
         13    1    3    3    0    0 -0.22287822820E+02 -0.44072824735E+02 -0.34382766850E+02  0.60177626627E+02  0.10566000000E+00 0. -1.
         22    1    1    0    0    0  0.18235399034E+02  0.11507240869E+02  0.18276037073E+02  0.28265878749E+02  0.00000000000E+00 0. -1.
</event>
<event>
 5    1  0.1766627E-003  0.9118800E+02  0.7818608E-02  0.1130116E+00
         25   -1    0    0    0    0  0.00000000000E+00  0.00000000000E+00  0.99999998245E-14  0.12500000000E+03  0.12500000000E+03 0.  0.
        -13    1    3    3    0    0  0.32796546929E+02  0.18274341289E+01  0.32545133763E+02  0.46240133019E+02  0.10566000000E+00 0.  1.
         23    2    1    0    0    0 -0.85704172057E+01  0.23275394727E+02  0.14897705493E+02  0.96066668361E+02  0.91606042870E+02 0.  0.
         13    1    3    3    0    0 -0.41366964135E+02  0.21447960598E+02 -0.17647428270E+02  0.49826535342E+02  0.10566000000E+00 0. -1.
         22    1    1    0    0    0  0.85704172057E+01 -0.23275394727E+02 -0.14897705493E+02  0.28933331639E+02  0.00000000000E+00 0. -1.
</event>
<event>
 5    1  0.1766627E-003  0.9118800E+02  0.7818608E-02  0.1130116E+00
         25   -1    0    0    0    0  0.00000000000E+00  0.00000000000E+00  0.99999998245E-14  0.12500000000E+03  0.12500000000E+03 0.  0.
        -13    1    3    3    0    0  0.52729643128E+02  0.13929846462E+02 -0.10653255779E+02  0.55569406237E+02  0.10566000000E+00 0. -1.
         23    2    1    0    0    0  0.17662488647E+02  0.23252155450E+02  0.54982791796E+01  0.95287085094E+02  0.90536021967E+02 0.  0.
         13    1    3    3    0    0 -0.35067154481E+02  0.93223089877E+01  0.16151534959E+02  0.39717678857E+02  0.10566000000E+00 0.  1.
         22    1    1    0    0    0 -0.17662488647E+02 -0.23252155450E+02 -0.54982791796E+01  0.29712914906E+02  0.00000000000E+00 0. -1.
</event>
<event>
 5    1  0.1766627E-003  0.9118800E+02  0.7818608E-02  0.1130116E+00
         25   -1    0    0    0    0  0.00000000000E+00  0.00000000000E+00  0.99999998245E-14  0.12500000000E+03  0.12500000000E+03 0.  0.
        -13    1    3    3    0    0  0.33306357502E+02 -0.16399653285E+02 -0.65689341566E+01  0.37701778975E+02  0.10566000000E+00 0. -1.
         23    2    1    0    0    0 -0.12256566110E+01  0.16612659436E+02  0.24996640596E+02  0.94961445961E+02  0.90085301189E+02 0.  0.
         13    1    3    3    0    0 -0.34532014113E+02  0.33012312721E+02  0.31565574752E+02  0.57259666986E+02  0.10566000000E+00 0.  1.
         22    1    1    0    0    0  0.12256566110E+01 -0.16612659436E+02 -0.24996640596E+02  0.30038554039E+02  0.00000000000E+00 0.  1.
</event>
<event>
 5    1  0.1766627E-003  0.9118800E+02  0.7818608E-02  0.1130116E+00
         25   -1    0    0    0    0  0.00000000000E+00  0.00000000000E+00  0.99999998245E-14  0.12500000000E+03  0.12500000000E+03 0.  0.
        -13    1    3    3    0    0 -0.21361166747E+02  0.65533001717E+01 -0.21643069520E+02  0.31107536229E+02  0.10566000000E+00 0.  1.
         23    2    1    0    0    0 -0.97665709677E+01  0.31133610555E+02  0.24182470946E+02  0.84386215201E+02  0.73969952009E+02 0.  0.
         13    1    3    3    0    0  0.11594595780E+02  0.24580310384E+02  0.45825540467E+02  0.53278678971E+02  0.10566000000E+00 0. -1.
         22    1    1    0    0    0  0.97665709677E+01 -0.31133610555E+02 -0.24182470946E+02  0.40613784799E+02  0.00000000000E+00 0. -1.
</event>
<event>
 5    1  0.1766627E-003  0.9118800E+02  0.7818608E-02  0.1130116E+00
         25   -1    0    0    0    0  0.00000000000E+00  0.00000000000E+00  0.99999998245E-14  0.12500000000E+03  0.12500000000E+03 0.  0.
        -13    1    3    3    0    0 -0.39492042717E+02 -0.24239835285E+02  0.17352566945E+02  0.49480438521E+02  0.10566000000E+00 0.  1.
         23    2    1    0    0    0  0.19632718634E+01 -0.28667270548E+02 -0.34249018573E+01  0.96062190998E+02  0.91599933130E+02 0.  0.
         13    1    3    3    0    0  0.41455314580E+02 -0.44274352635E+01 -0.20777468803E+02  0.46581752477E+02  0.10566000000E+00 0. -1.
         22    1    1    0    0    0 -0.19632718634E+01  0.28667270548E+02  0.34249018573E+01  0.28937809002E+02  0.00000000000E+00 0.  1.
</event>
<event>
 5    1  0.1766627E-003  0.9118800E+02  0.7818608E-02  0.1130116E+00
         25   -1    0    0    0    0  0.00000000000E+00  0.00000000000E+00  0.99999998245E-14  0.12500000000E+03  0.12500000000E+03 0.  0.
        -13    1    3    3    0    0  0.29063087104E+02  0.30810005661E+02 -0.38478033359E+02  0.57223156991E+02  0.10566000000E+00 0.  1.
         23    2    1    0    0    0  0.27539799048E+02  0.73676522141E+01 -0.86159115557E+01  0.95218180669E+02  0.90440837940E+02 0.  0.
         13    1    3    3    0    0 -0.15232880558E+01 -0.23442353447E+02  0.29862121804E+02  0.37995023678E+02  0.10566000000E+00 0. -1.
         22    1    1    0    0    0 -0.27539799048E+02 -0.73676522141E+01  0.86159115557E+01  0.29781819331E+02  0.00000000000E+00 0.  1.
</event>
<event>
 5    1  0.1766627E-003  0.9118800E+02  0.7818608E-02  0.1130116E+00
         25   -1    0    0    0    0  0.00000000000E+00  0.00000000000E+00  0.99999998245E-14  0.12500000000E+03  0.12500000000E+03 0.  0.
        -13    1    3    3    0    0  0.50966512992E+02 -0.22297976057E+02  0.26374087320E+02  0.61566133782E+02  0.10566000000E+00 0.  1.
         23    2    1    0    0    0  0.24154293091E+02 -0.14422664772E+02  0.57802435165E+01  0.96279722338E+02  0.91896303432E+02 0.  0.
         13    1    3    3    0    0 -0.26812219901E+02  0.78753112852E+01 -0.20593843803E+02  0.34713588557E+02  0.10566000000E+00 0. -1.
         22    1    1    0    0    0 -0.24154293091E+02  0.14422664772E+02 -0.57802435165E+01  0.28720277662E+02  0.00000000000E+00 0.  1.
</event>
<event>
 5    1  0.1766627E-003  0.9118800E+02  0.7818608E-02  0.1130116E+00
         25   -1    0    0    0    0  0.00000000000E+00  0.00000000000E+00  0.99999998245E-14  0.12500000000E+03  0.12500000000E+03 0.  0.
        -13    1    3    3    0    0  0.33205601832E+01 -0.26995719785E+02  0.27404665286E+02  0.38611162248E+02  0.10566000000E+00 0. -1.
         23    2    1    0    0    0 -0.13007841874E+02  0.24556680956E+02  0.77281360139E+01  0.96156307170E+02  0.91728276952E+02 0.  0.
         13    1    3    3    0    0 -0.16328402057E+02  0.51552400741E+02 -0.19676529272E+02  0.57545144923E+02  0.10566000000E+00 0.  1.
         22    1    1    0    0    0  0.13007841874E+02 -0.24556680956E+02 -0.77281360139E+01  0.28843692830E+02  0.00000000000E+00 0.  1.
</event>
<event>
 5    1  0.1766627E-003  0.9118800E+02  0.7818608E-02  0.1130116E+00
         25   -1    0    0    0    0  0.00000000000E+00  0.00000000000E+00  0.99999998245E-14  0.12500000000E+03  0.12500000000E+03 0.  0.
        -13    1    3    3    0    0  0.65125466114E+01 -0.40485925447E+02  0.31371657440E+02  0.51630567276E+02  0.10566000000E+00 0.  1.
         23    2    1    0    0    0 -0.22455357199E+02 -0.18680236395E+02  0.81964058355E+01  0.94662311108E+02  0.89669268855E+02 0.  0.
         13    1    3    3    0    0 -0.28967903811E+02  0.21805689052E+02 -0.23175251605E+02  0.43031743832E+02  0.10566000000E+00 0. -1.
         22    1    1    0    0    0  0.22455357199E+02  0.18680236395E+02 -0.81964058355E+01  0.30337688892E+02  0.00000000000E+00 0.  1.
</event>
<event>
 5    1  0.1766627E-003  0.9118800E+02  0.7818608E-02  0.1130116E+00
         25   -1    0    0    0    0  0.00000000000E+00  0.00000000000E+00  0.99999998245E-14  0.12500000000E+03  0.12500000000E+03 0.  0.
        -13    1    3    3    0    0 -0.25029821452E+02  0.21797395294E+02 -0.42946382860E+02  0.54277263825E+02  0.10566000000E+00 0.  1.
         23    2    1    0    0    0  0.58075571574E+01  0.23890364545E+02 -0.24597629052E+02  0.90221837409E+02  0.83249380492E+02 0.  0.
         13    1    3    3    0    0  0.30837378609E+02  0.20929692508E+01  0.18348753809E+02  0.35944573584E+02  0.10566000000E+00 0. -1.
         22    1    1    0    0    0 -0.58075571574E+01 -0.23890364545E+02  0.24597629052E+02  0.34778162591E+02  0.00000000000E+00 0.  1.
</event>
<event>
 5    1  0.1766627E-003  0.9118800E+02  0.7818608E-02  0.1130116E+00
         25   -1    0    0    0    0  0.00000000000E+00  0.00000000000E+00  0.99999998245E-14  0.12500000000E+03  0.12500000000E+03 0.  0.
        -13    1    3    3    0    0  0.22170832050E+02  0.22205664351E+02  0.13928149791E+02  0.34331353654E+02  0.10566000000E+00 0.  1.
         23    2    1    0    0    0 -0.13438411269E+02  0.19449047932E+00 -0.28223975436E+02  0.93739457564E+02  0.88373437135E+02 0.  0.
         13    1    3    3    0    0 -0.35609243320E+02 -0.22011173872E+02 -0.42152125227E+02  0.59408103910E+02  0.10566000000E+00 0. -1.
         22    1    1    0    0    0  0.13438411269E+02 -0.19449047932E+00  0.28223975436E+02  0.31260542436E+02  0.00000000000E+00 0. -1.
</event>
<event>
 5    1  0.1766627E-003  0.9118800E+02  0.7818608E-02  0.1130116E+00
         25   -1    0    0    0    0  0.00000000000E+00  0.00000000000E+00  0.99999998245E-14  0.12500000000E+03  0.12500000000E+03 0.  0.
        -13    1    3    3    0    0  0.31192340534E+02  0.33603045595E+02 -0.13772797814E+02  0.47873039436E+02  0.10566000000E+00 0. -1.
         23    2    1    0    0    0  0.34245721721E+02 -0.41644095158E+01  0.49696365956E+01  0.90145889042E+02  0.83135264843E+02 0.  0.
         13    1    3    3    0    0  0.30533811868E+01 -0.37767455110E+02  0.18742434409E+02  0.42272849606E+02  0.10566000000E+00 0.  1.
         22    1    1    0    0    0 -0.34245721721E+02  0.41644095158E+01 -0.49696365956E+01  0.34854110958E+02  0.00000000000E+00 0.  1.
</event>
<event>
 5    1  0.1766627E-003  0.9118800E+02  0.7818608E-02  0.1130116E+00
         25   -1    0    0    0    0  0.00000000000E+00  0.00000000000E+00  0.99999998245E-14  0.12500000000E+03  0.12500000000E+03 0.  0.
        -13    1    3    3    0    0 -0.33268272724E+02 -0.99970279138E+00 -0.14857400430E+02  0.36449017645E+02  0.10566000000E+00 0.  1.
         23    2    1    0    0    0  0.10482741945E+02 -0.18773646970E+02  0.20382896549E+02  0.95372307364E+02  0.90653609090E+02 0.  0.
         13    1    3    3    0    0  0.43751014668E+02 -0.17773944178E+02  0.35240296979E+02  0.58923289719E+02  0.10566000000E+00 0. -1.
         22    1    1    0    0    0 -0.10482741945E+02  0.18773646970E+02 -0.20382896549E+02  0.29627692636E+02  0.00000000000E+00 0. -1.
</event>
<event>
 5    1  0.1766627E-003  0.9118800E+02  0.7818608E-02  0.1130116E+00
         25   -1    0    0    0    0  0.00000000000E+00  0.00000000000E+00  0.99999998245E-14  0.12500000000E+03  0.12500000000E+03 0.  0.
        -13    1    3    3    0    0  0.32014993334E+01  0.59488543245E+02  0.85925739900E+01  0.60191194266E+02  0.10566000000E+00 0. -1.
         23    2    1    0    0    0  0.11909822692E+02  0.26909197084E+02 -0.19072573855E+01  0.95511249687E+02  0.90844991176E+02 0.  0.
         13    1    3    3    0    0  0.87083233586E+01 -0.32579346161E+02 -0.10499831376E+02  0.35320055421E+02  0.10566000000E+00 0.  1.
         22    1    1    0    0    0 -0.11909822692E+02 -0.26909197084E+02  0.19072573855E+01  0.29488750313E+02  0.00000000000E+00 0. -1.
</event>
<event>
 5    1  0.1766627E-003  0.9118800E+02  0.7818608E-02  0.1130116E+00
         25   -1    0    0    0    0  0.00000000000E+00  0.00000000000E+00  0.99999998245E-14  0.12500000000E+03  0.12500000000E+03 0.  0.
        -13    1    3    3    0    0  0.87312169032E+01 -0.50221929900E+02 -0.22394378477E+02  0.55677605399E+02  0.10566000000E+00 0.  1.
         23    2    1    0    0    0 -0.29404036263E+01 -0.11128911214E+02 -0.25931054804E+02  0.96628918921E+02  0.92370069451E+02 0.  0.
         13    1    3    3    0    0 -0.11671620530E+02  0.39093018686E+02 -0.35366763273E+01  0.40951313523E+02  0.10566000000E+00 0. -1.
         22    1    1    0    0    0  0.29404036263E+01  0.11128911214E+02  0.25931054804E+02  0.28371081079E+02  0.00000000000E+00 0.  1.
</event>
<event>
 5    1  0.1766627E-003  0.9118800E+02  0.7818608E-02  0.1130116E+00
         25   -1    0    0    0    0  0.00000000000E+00  0.00000000000E+00  0.99999998245E-14  0.12500000000E+03  0.12500000000E+03 0.  0.
        -13    1    3    3    0    0  0.84859967595E+01  0.46014485065E+02 -0.18603157274E+02  0.50353089293E+02  0.10566000000E+00 0. -1.
         23    2    1    0    0    0  0.94661150186E+01  0.17269454588E+01 -0.27787461992E+02  0.95593661940E+02  0.90958317294E+02 0.  0.
         13    1    3    3    0    0  0.98011825910E+00 -0.44287539606E+02 -0.91843047184E+01  0.45240572646E+02  0.10566000000E+00 0.  1.
         22    1    1    0    0    0 -0.94661150186E+01 -0.17269454588E+01  0.27787461992E+02  0.29406338060E+02  0.00000000000E+00 0.  1.
</event>
<event>
 5    1  0.1766627E-003  0.9118800E+02  0.7818608E-02  0.1130116E+00
         25   -1    0    0    0    0  0.00000000000E+00  0.00000000000E+00  0.99999998245E-14  0.12500000000E+03  0.12500000000E+03 0.  0.
        -13    1    3    3    0    0 -0.60751988403E+02  0.70637993786E+01  0.12562351814E+02  0.62438171047E+02  0.10566000000E+00 0.  1.
         23    2    1    0    0    0 -0.26536126608E+02  0.31742655834E+01  0.74806259083E+01  0.97247491261E+02  0.93203394869E+02 0.  0.
         13    1    3    3    0    0  0.34215861795E+02 -0.38895337952E+01 -0.50817259056E+01  0.34809320214E+02  0.10566000000E+00 0. -1.
         22    1    1    0    0    0  0.26536126608E+02 -0.31742655834E+01 -0.74806259083E+01  0.27752508739E+02  0.00000000000E+00 0.  1.
</event>
<event>
 5    1  0.1766627E-003  0.9118800E+02  0.7818608E-02  0.1130116E+00
         25   -1    0    0    0    0  0.00000000000E+00  0.00000000000E+00  0.99999998245E-14  0.12500000000E+03  0.12500000000E+03 0.  0.
        -13    1    3    3    0    0 -0.18046256599E+02 -0.52868708818E+02 -0.23317226041E+02  0.60534882040E+02  0.10566000000E+00 0.  1.
         23    2    1    0    0    0  0.22568527751E+01 -0.24636880202E+02 -0.53043192534E+01  0.99697726322E+02  0.96433560446E+02 0.  0.
         13    1    3    3    0    0  0.20303109375E+02  0.28231828615E+02  0.18012906787E+02  0.39162844282E+02  0.10566000000E+00 0. -1.
         22    1    1    0    0    0 -0.22568527751E+01  0.24636880202E+02  0.53043192534E+01  0.25302273678E+02  0.00000000000E+00 0.  1.
</event>
<event>
 5    1  0.1766627E-003  0.9118800E+02  0.7818608E-02  0.1130116E+00
         25   -1    0    0    0    0  0.00000000000E+00  0.00000000000E+00  0.99999998245E-14  0.12500000000E+03  0.12500000000E+03 0.  0.
        -13    1    3    3    0    0 -0.57729164976E+02 -0.14301599148E+02 -0.18461862917E+02  0.62273941367E+02  0.10566000000E+00 0.  1.
         23    2    1    0    0    0 -0.27473890777E+02 -0.82379800278E+01 -0.12549508755E+02  0.93692346633E+02  0.88306775835E+02 0.  0.
         13    1    3    3    0    0  0.30255274199E+02  0.60636191203E+01  0.59123541620E+01  0.31418405266E+02  0.10566000000E+00 0. -1.
         22    1    1    0    0    0  0.27473890777E+02  0.82379800278E+01  0.12549508755E+02  0.31307653367E+02  0.00000000000E+00 0.  1.
</event>
<event>
 5    1  0.1766627E-003  0.9118800E+02  0.7818608E-02  0.1130116E+00
         25   -1    0    0    0    0  0.00000000000E+00  0.00000000000E+00  0.99999998245E-14  0.12500000000E+03  0.12500000000E+03 0.  0.
        -13    1    3    3    0    0  0.35368529351E+02 -0.50870288853E+01  0.17628400100E+02  0.39844477478E+02  0.10566000000E+00 0.  1.
         23    2    1    0    0    0 -0.90567375382E+01 -0.28509298343E+02 -0.45452339515E+01  0.94743368685E+02  0.89782192952E+02 0.  0.
         13    1    3    3    0    0 -0.44425266889E+02 -0.23422269458E+02 -0.22173634052E+02  0.54898891208E+02  0.10566000000E+00 0. -1.
         22    1    1    0    0    0  0.90567375382E+01  0.28509298343E+02  0.45452339515E+01  0.30256631315E+02  0.00000000000E+00 0. -1.
</event>
<event>
 5    1  0.1766627E-003  0.9118800E+02  0.7818608E-02  0.1130116E+00
         25   -1    0    0    0    0  0.00000000000E+00  0.00000000000E+00  0.99999998245E-14  0.12500000000E+03  0.12500000000E+03 0.  0.
        -13    1    3    3    0    0  0.22301622183E+02  0.31890547665E+02  0.24633884068E+02  0.46056582490E+02  0.10566000000E+00 0. -1.
         23    2    1    0    0    0  0.26480496902E+02 -0.13269078318E+02  0.86448308793E+01  0.94145206911E+02  0.88945498637E+02 0.  0.
         13    1    3    3    0    0  0.41788747197E+01 -0.45159625983E+02 -0.15989053188E+02  0.48088624421E+02  0.10566000000E+00 0.  1.
         22    1    1    0    0    0 -0.26480496902E+02  0.13269078318E+02 -0.86448308793E+01  0.30854793089E+02  0.00000000000E+00 0.  1.
</event>
<event>
 5    1  0.1766627E-003  0.9118800E+02  0.7818608E-02  0.1130116E+00
         25   -1    0    0    0    0  0.00000000000E+00  0.00000000000E+00  0.99999998245E-14  0.12500000000E+03  0.12500000000E+03 0.  0.
        -13    1    3    3    0    0 -0.22914546693E+02 -0.23854773425E+02  0.21229017752E+02  0.39304058621E+02  0.10566000000E+00 0. -1.
         23    2    1    0    0    0  0.46433158201E+01  0.24888072647E+02  0.14820907202E+02  0.95663404557E+02  0.91054111051E+02 0.  0.
         13    1    3    3    0    0  0.27557862513E+02  0.48742846073E+02 -0.64081105501E+01  0.56359345937E+02  0.10566000000E+00 0.  1.
         22    1    1    0    0    0 -0.46433158201E+01 -0.24888072647E+02 -0.14820907202E+02  0.29336595443E+02  0.00000000000E+00 0.  1.
</event>
<event>
 5    1  0.1766627E-003  0.9118800E+02  0.7818608E-02  0.1130116E+00
         25   -1    0    0    0    0  0.00000000000E+00  0.00000000000E+00  0.99999998245E-14  0.12500000000E+03  0.12500000000E+03 0.  0.
        -13    1    3    3    0    0  0.71616849953E+01 -0.34264466118E+02 -0.46003795119E+02  0.57807470968E+02  0.10566000000E+00 0. -1.
         23    2    1    0    0    0  0.21907839146E+01  0.20730510905E+00 -0.27812526804E+02  0.97100552751E+02  0.93006119088E+02 0.  0.
         13    1    3    3    0    0 -0.49709010807E+01  0.34471771227E+02  0.18191268315E+02  0.39293081783E+02  0.10566000000E+00 0.  1.
         22    1    1    0    0    0 -0.21907839146E+01 -0.20730510905E+00  0.27812526804E+02  0.27899447249E+02  0.00000000000E+00 0. -1.
</event>
<event>
 5    1  0.1766627E-003  0.9118800E+02  0.7818608E-02  0.1130116E+00
         25   -1    0    0    0    0  0.00000000000E+00  0.00000000000E+00  0.99999998245E-14  0.12500000000E+03  0.12500000000E+03 0.  0.
        -13    1    3    3    0    0  0.44977762416E+01  0.16148109621E+02 -0.28978089358E+02  0.33477339535E+02  0.10566000000E+00 0.  1.
         23    2    1    0    0    0  0.20638370840E+01 -0.15938475418E+02  0.24386932439E+02  0.95793547015E+02  0.91232596991E+02 0.  0.
         13    1    3    3    0    0 -0.24339391575E+01 -0.32086585039E+02  0.53365021797E+02  0.62316207480E+02  0.10566000000E+00 0. -1.
         22    1    1    0    0    0 -0.20638370840E+01  0.15938475418E+02 -0.24386932439E+02  0.29206452985E+02  0.00000000000E+00 0. -1.
</event>
<event>
 5    1  0.1766627E-003  0.9118800E+02  0.7818608E-02  0.1130116E+00
         25   -1    0    0    0    0  0.00000000000E+00  0.00000000000E+00  0.99999998245E-14  0.12500000000E+03  0.12500000000E+03 0.  0.
        -13    1    3    3    0    0  0.40516297367E+02 -0.35214874418E+02  0.17127998262E+02  0.56347468631E+02  0.10566000000E+00 0.  1.
         23    2    1    0    0    0  0.29322834114E+02 -0.35364712097E+01 -0.26691717844E+01  0.95344314085E+02  0.90615001635E+02 0.  0.
         13    1    3    3    0    0 -0.11193463254E+02  0.31678403208E+02 -0.19797170047E+02  0.38996845454E+02  0.10566000000E+00 0. -1.
         22    1    1    0    0    0 -0.29322834114E+02  0.35364712097E+01  0.26691717844E+01  0.29655685915E+02  0.00000000000E+00 0.  1.
</event>
<event>
 5    1  0.1766627E-003  0.9118800E+02  0.7818608E-02  0.1130116E+00
         25   -1    0    0    0    0  0.00000000000E+00  0.00000000000E+00  0.99999998245E-14  0.12500000000E+03  0.12500000000E+03 0.  0.
        -13    1    3    3    0    0  0.43282516909E+02 -0.11941525687E+02 -0.40388262462E+02  0.60392045954E+02  0.10566000000E+00 0. -1.
         23    2    1    0    0    0  0.13814412094E+02  0.11254484351E+01 -0.25666816442E+02  0.95829979741E+02  0.91282500706E+02 0.  0.
         13    1    3    3    0    0 -0.29468104815E+02  0.13066974123E+02  0.14721446021E+02  0.35437933787E+02  0.10566000000E+00 0.  1.
         22    1    1    0    0    0 -0.13814412094E+02 -0.11254484351E+01  0.25666816442E+02  0.29170020259E+02  0.00000000000E+00 0. -1.
</event>
<event>
 5    1  0.1766627E-003  0.9118800E+02  0.7818608E-02  0.1130116E+00
         25   -1    0    0    0    0  0.00000000000E+00  0.00000000000E+00  0.99999998245E-14  0.12500000000E+03  0.12500000000E+03 0.  0.
        -13    1    3    3    0    0  0.46005427626E+01  0.80658975582E+01 -0.44473503234E+02  0.45432668324E+02  0.10566000000E+00 0.  1.
         23    2    1    0    0    0 -0.29582112263E+02 -0.11861086106E+01 -0.13575434885E+02  0.92430065215E+02  0.86501539314E+02 0.  0.
         13    1    3    3    0    0 -0.34182655026E+02 -0.92520061688E+01  0.30898068349E+02  0.46997396891E+02  0.10566000000E+00 0. -1.
         22    1    1    0    0    0  0.29582112263E+02  0.11861086106E+01  0.13575434885E+02  0.32569934785E+02  0.00000000000E+00 0. -1.
</event>
<event>
 5    1  0.1766627E-003  0.9118800E+02  0.7818608E-02  0.1130116E+00
         25   -1    0    0    0    0  0.00000000000E+00  0.00000000000E+00  0.99999998245E-14  0.12500000000E+03  0.12500000000E+03 0.  0.
        -13    1    3    3    0    0  0.17685575949E+02  0.42652543442E+02  0.38339571610E+02  0.60016272577E+02  0.10566000000E+00 0.  1.
         23    2    1    0    0    0  0.40319198956E+01  0.26977306751E+02  0.84118646991E+01  0.96455457171E+02  0.92135032929E+02 0.  0.
         13    1    3    3    0    0 -0.13653656053E+02 -0.15675236691E+02 -0.29927706911E+02  0.36439184595E+02  0.10566000000E+00 0. -1.
         22    1    1    0    0    0 -0.40319198956E+01 -0.26977306751E+02 -0.84118646991E+01  0.28544542829E+02  0.00000000000E+00 0.  1.
</event>
<event>
 5    1  0.1766627E-003  0.9118800E+02  0.7818608E-02  0.1130116E+00
         25   -1    0    0    0    0  0.00000000000E+00  0.00000000000E+00  0.99999998245E-14  0.12500000000E+03  0.12500000000E+03 0.  0.
        -13    1    3    3    0    0  0.16217330157E+02  0.22427578730E+02 -0.24423826805E+02  0.36912498763E+02  0.10566000000E+00 0.  1.
         23    2    1    0    0    0 -0.61497990569E+01 -0.28216493376E+02 -0.43897046835E+01  0.95789384907E+02  0.91226894208E+02 0.  0.
         13    1    3    3    0    0 -0.22367129214E+02 -0.50644072106E+02  0.20034122121E+02  0.58876886144E+02  0.10566000000E+00 0. -1.
         22    1    1    0    0    0  0.61497990569E+01  0.28216493376E+02  0.43897046835E+01  0.29210615093E+02  0.00000000000E+00 0. -1.
</event>
<event>
 5    1  0.1766627E-003  0.9118800E+02  0.7818608E-02  0.1130116E+00
         25   -1    0    0    0    0  0.00000000000E+00  0.00000000000E+00  0.99999998245E-14  0.12500000000E+03  0.12500000000E+03 0.  0.
        -13    1    3    3    0    0  0.11184743066E+02  0.53142530848E+02  0.11265781101E+02  0.55463105306E+02  0.10566000000E+00 0.  1.
         23    2    1    0    0    0  0.24648717913E+02  0.16935434751E+02  0.32252601113E+01  0.94920595954E+02  0.90028600947E+02 0.  0.
         13    1    3    3    0    0  0.13463974847E+02 -0.36207096097E+02 -0.80405209894E+01  0.39457490648E+02  0.10566000000E+00 0. -1.
         22    1    1    0    0    0 -0.24648717913E+02 -0.16935434751E+02 -0.32252601113E+01  0.30079404046E+02  0.00000000000E+00 0.  1.
</event>
<event>
 5    1  0.1766627E-003  0.9118800E+02  0.7818608E-02  0.1130116E+00
         25   -1    0    0    0    0  0.00000000000E+00  0.00000000000E+00  0.99999998245E-14  0.12500000000E+03  0.12500000000E+03 0.  0.
        -13    1    3    3    0    0 -0.40864188095E+02 -0.37196156402E+02 -0.50635433776E+01  0.55489517527E+02  0.10566000000E+00 0.  1.
         23    2    1    0    0    0 -0.11353741241E+02 -0.16324420372E+02 -0.21947741476E+02  0.95384168144E+02  0.90669962149E+02 0.  0.
         13    1    3    3    0    0  0.29510446855E+02  0.20871736030E+02 -0.16884198098E+02  0.39894650618E+02  0.10566000000E+00 0. -1.
         22    1    1    0    0    0  0.11353741241E+02  0.16324420372E+02  0.21947741476E+02  0.29615831856E+02  0.00000000000E+00 0.  1.
</event>
<event>
 5    1  0.1766627E-003  0.9118800E+02  0.7818608E-02  0.1130116E+00
         25   -1    0    0    0    0  0.00000000000E+00  0.00000000000E+00  0.99999998245E-14  0.12500000000E+03  0.12500000000E+03 0.  0.
        -13    1    3    3    0    0 -0.32364518010E+02  0.37923857724E+02  0.20125628319E+02  0.53765538126E+02  0.10566000000E+00 0.  1.
         23    2    1    0    0    0 -0.23721799657E+02 -0.27537891539E+01  0.17422380033E+02  0.95439105905E+02  0.90745669187E+02 0.  0.
         13    1    3    3    0    0  0.86427183525E+01 -0.40677646878E+02 -0.27032482859E+01  0.41673567779E+02  0.10566000000E+00 0. -1.
         22    1    1    0    0    0  0.23721799657E+02  0.27537891539E+01 -0.17422380033E+02  0.29560894095E+02  0.00000000000E+00 0.  1.
</event>
<event>
 5    1  0.1766627E-003  0.9118800E+02  0.7818608E-02  0.1130116E+00
         25   -1    0    0    0    0  0.00000000000E+00  0.00000000000E+00  0.99999998245E-14  0.12500000000E+03  0.12500000000E+03 0.  0.
        -13    1    3    3    0    0 -0.15507680133E+02 -0.25397228952E+02  0.17953079889E+02  0.34753872059E+02  0.10566000000E+00 0.  1.
         23    2    1    0    0    0  0.61580320727E+01 -0.59186859174E+01 -0.31615768507E+02  0.92250816495E+02  0.86242124995E+02 0.  0.
         13    1    3    3    0    0  0.21665712205E+02  0.19478543035E+02 -0.49568848396E+02  0.57496944436E+02  0.10566000000E+00 0. -1.
         22    1    1    0    0    0 -0.61580320727E+01  0.59186859174E+01  0.31615768507E+02  0.32749183505E+02  0.00000000000E+00 0. -1.
</event>
<event>
 5    1  0.1766627E-003  0.9118800E+02  0.7818608E-02  0.1130116E+00
         25   -1    0    0    0    0  0.00000000000E+00  0.00000000000E+00  0.99999998245E-14  0.12500000000E+03  0.12500000000E+03 0.  0.
        -13    1    3    3    0    0 -0.94851341596E+00 -0.32617774480E+02  0.50119535202E+01  0.33014386741E+02  0.10566000000E+00 0. -1.
         23    2    1    0    0    0  0.96839193545E+01  0.27797428140E+02 -0.49161263512E+01  0.95156347349E+02  0.90355336518E+02 0.  0.
         13    1    3    3    0    0  0.10632432770E+02  0.60415202620E+02 -0.99280798713E+01  0.62141960608E+02  0.10566000000E+00 0.  1.
         22    1    1    0    0    0 -0.96839193545E+01 -0.27797428140E+02  0.49161263512E+01  0.29843652651E+02  0.00000000000E+00 0.  1.
</event>
<event>
 5    1  0.1766627E-003  0.9118800E+02  0.7818608E-02  0.1130116E+00
         25   -1    0    0    0    0  0.00000000000E+00  0.00000000000E+00  0.99999998245E-14  0.12500000000E+03  0.12500000000E+03 0.  0.
        -13    1    3    3    0    0 -0.24135221932E+02 -0.71026109539E+01  0.49047401321E+02  0.55123631597E+02  0.10566000000E+00 0. -1.
         23    2    1    0    0    0 -0.11168725495E+02  0.18168518909E+02  0.19662336355E+02  0.95992363428E+02  0.91504594732E+02 0.  0.
         13    1    3    3    0    0  0.12966496437E+02  0.25271129863E+02 -0.29385064965E+02  0.40868731831E+02  0.10566000000E+00 0.  1.
         22    1    1    0    0    0  0.11168725495E+02 -0.18168518909E+02 -0.19662336355E+02  0.29007636572E+02  0.00000000000E+00 0. -1.
</event>
<event>
 5    1  0.1766627E-003  0.9118800E+02  0.7818608E-02  0.1130116E+00
         25   -1    0    0    0    0  0.00000000000E+00  0.00000000000E+00  0.99999998245E-14  0.12500000000E+03  0.12500000000E+03 0.  0.
        -13    1    3    3    0    0  0.48335037442E+02 -0.10540849294E+02 -0.26922380801E+01  0.49544370602E+02  0.10566000000E+00 0.  1.
         23    2    1    0    0    0  0.13892539575E+02  0.22935438392E+02  0.34412730549E+01  0.97965219617E+02  0.94161058322E+02 0.  0.
         13    1    3    3    0    0 -0.34442497867E+02  0.33476287686E+02  0.61335111350E+01  0.48420849016E+02  0.10566000000E+00 0. -1.
         22    1    1    0    0    0 -0.13892539575E+02 -0.22935438392E+02 -0.34412730549E+01  0.27034780383E+02  0.00000000000E+00 0. -1.
</event>
<event>
 5    1  0.1766627E-003  0.9118800E+02  0.7818608E-02  0.1130116E+00
         25   -1    0    0    0    0  0.00000000000E+00  0.00000000000E+00  0.99999998245E-14  0.12500000000E+03  0.12500000000E+03 0.  0.
        -13    1    3    3    0    0 -0.40898663762E+02  0.10477010942E+02  0.12001827165E+02  0.43892180114E+02  0.10566000000E+00 0. -1.
         23    2    1    0    0    0  0.80757604229E+00 -0.20110363827E+02 -0.12692474400E+02  0.10120550865E+03  0.98368578123E+02 0.  0.
         13    1    3    3    0    0  0.41706239804E+02 -0.30587374769E+02 -0.24694301565E+02  0.57313328534E+02  0.10566000000E+00 0.  1.
         22    1    1    0    0    0 -0.80757604229E+00  0.20110363827E+02  0.12692474400E+02  0.23794491352E+02  0.00000000000E+00 0.  1.
</event>
<event>
 5    1  0.1766627E-003  0.9118800E+02  0.7818608E-02  0.1130116E+00
         25   -1    0    0    0    0  0.00000000000E+00  0.00000000000E+00  0.99999998245E-14  0.12500000000E+03  0.12500000000E+03 0.  0.
        -13    1    3    3    0    0 -0.29076406360E+02  0.35514112402E+02 -0.81388373729E+01  0.46614819793E+02  0.10566000000E+00 0.  1.
         23    2    1    0    0    0  0.60980856312E+01  0.63050293675E+01 -0.27402024445E+02  0.96228295369E+02  0.91826324342E+02 0.  0.
         13    1    3    3    0    0  0.35174491991E+02 -0.29209083034E+02 -0.19263187072E+02  0.49613475576E+02  0.10566000000E+00 0. -1.
         22    1    1    0    0    0 -0.60980856312E+01 -0.63050293675E+01  0.27402024445E+02  0.28771704631E+02  0.00000000000E+00 0.  1.
</event>
<event>
 5    1  0.1766627E-003  0.9118800E+02  0.7818608E-02  0.1130116E+00
         25   -1    0    0    0    0  0.00000000000E+00  0.00000000000E+00  0.99999998245E-14  0.12500000000E+03  0.12500000000E+03 0.  0.
        -13    1    3    3    0    0  0.24017831185E+02 -0.69143112249E+01 -0.40840792173E+02  0.47881576665E+02  0.10566000000E+00 0.  1.
         23    2    1    0    0    0  0.22935735417E+02 -0.20613528424E+02  0.31811514574E+01  0.93998625227E+02  0.88739260234E+02 0.  0.
         13    1    3    3    0    0 -0.10820957687E+01 -0.13699217199E+02  0.44021943630E+02  0.46117048563E+02  0.10566000000E+00 0. -1.
         22    1    1    0    0    0 -0.22935735417E+02  0.20613528424E+02 -0.31811514574E+01  0.31001374773E+02  0.00000000000E+00 0.  1.
</event>
<event>
 5    1  0.1766627E-003  0.9118800E+02  0.7818608E-02  0.1130116E+00
         25   -1    0    0    0    0  0.00000000000E+00  0.00000000000E+00  0.99999998245E-14  0.12500000000E+03  0.12500000000E+03 0.  0.
        -13    1    3    3    0    0  0.18774946829E+02  0.39289566875E+02 -0.30658212780E+02  0.53255101808E+02  0.10566000000E+00 0. -1.
         23    2    1    0    0    0 -0.13099045944E+02  0.13234560371E+02 -0.23460450879E+02  0.95047849021E+02  0.90205112134E+02 0.  0.
         13    1    3    3    0    0 -0.31873992773E+02 -0.26055006504E+02  0.71977619008E+01  0.41792747213E+02  0.10566000000E+00 0.  1.
         22    1    1    0    0    0  0.13099045944E+02 -0.13234560371E+02  0.23460450879E+02  0.29952150979E+02  0.00000000000E+00 0. -1.
</event>
<event>
 5    1  0.1766627E-003  0.9118800E+02  0.7818608E-02  0.1130116E+00
         25   -1    0    0    0    0  0.00000000000E+00  0.00000000000E+00  0.99999998245E-14  0.12500000000E+03  0.12500000000E+03 0.  0.
        -13    1    3    3    0    0 -0.33163452259E+02 -0.36365730498E+02  0.12547302110E+02  0.50791011751E+02  0.10566000000E+00 0. -1.
         23    2    1    0    0    0 -0.26389990259E+02  0.82220261355E+01  0.10213345946E+01  0.97339985105E+02  0.93327360812E+02 0.  0.
         13    1    3    3    0    0  0.67734619998E+01  0.44587756634E+02 -0.11525967515E+02  0.46548973354E+02  0.10566000000E+00 0.  1.
         22    1    1    0    0    0  0.26389990259E+02 -0.82220261355E+01 -0.10213345946E+01  0.27660014895E+02  0.00000000000E+00 0. -1.
</event>
<event>
 5    1  0.1766627E-003  0.9118800E+02  0.7818608E-02  0.1130116E+00
         25   -1    0    0    0    0  0.00000000000E+00  0.00000000000E+00  0.99999998245E-14  0.12500000000E+03  0.12500000000E+03 0.  0.
        -13    1    3    3    0    0  0.10776730557E+02 -0.51368139494E+01 -0.31899076254E+02  0.34060050043E+02  0.10566000000E+00 0.  1.
         23    2    1    0    0    0 -0.22955831695E+01  0.15143183933E+02  0.24897164518E+02  0.95768945918E+02  0.91198884201E+02 0.  0.
         13    1    3    3    0    0 -0.13072313727E+02  0.20279997882E+02  0.56796240772E+02  0.61708895875E+02  0.10566000000E+00 0. -1.
         22    1    1    0    0    0  0.22955831695E+01 -0.15143183933E+02 -0.24897164518E+02  0.29231054082E+02  0.00000000000E+00 0. -1.
</event>
<event>
 5    1  0.1766627E-003  0.9118800E+02  0.7818608E-02  0.1130116E+00
         25   -1    0    0    0    0  0.00000000000E+00  0.00000000000E+00  0.99999998245E-14  0.12500000000E+03  0.12500000000E+03 0.  0.
        -13    1    3    3    0    0 -0.42384407786E+02 -0.70030595419E+01 -0.19167293253E+02  0.47041228311E+02  0.10566000000E+00 0.  1.
         23    2    1    0    0    0 -0.17759777639E+02  0.13703608490E+02  0.18028371562E+02  0.96221174996E+02  0.91816631114E+02 0.  0.
         13    1    3    3    0    0  0.24624630147E+02  0.20706668032E+02  0.37195664815E+02  0.49179946685E+02  0.10566000000E+00 0. -1.
         22    1    1    0    0    0  0.17759777639E+02 -0.13703608490E+02 -0.18028371562E+02  0.28778825004E+02  0.00000000000E+00 0. -1.
</event>
<event>
 5    1  0.1766627E-003  0.9118800E+02  0.7818608E-02  0.1130116E+00
         25   -1    0    0    0    0  0.00000000000E+00  0.00000000000E+00  0.99999998245E-14  0.12500000000E+03  0.12500000000E+03 0.  0.
        -13    1    3    3    0    0  0.42322721785E+02  0.42629513015E+02 -0.60819284072E+01  0.60377886485E+02  0.10566000000E+00 0. -1.
         23    2    1    0    0    0  0.19906024099E+02  0.17693846999E+02 -0.14115492189E+02  0.94857519399E+02  0.89940979813E+02 0.  0.
         13    1    3    3    0    0 -0.22416697686E+02 -0.24935666016E+02 -0.80335637817E+01  0.34479632914E+02  0.10566000000E+00 0.  1.
         22    1    1    0    0    0 -0.19906024099E+02 -0.17693846999E+02  0.14115492189E+02  0.30142480601E+02  0.00000000000E+00 0. -1.
</event>
<event>
 5    1  0.1766627E-003  0.9118800E+02  0.7818608E-02  0.1130116E+00
         25   -1    0    0    0    0  0.00000000000E+00  0.00000000000E+00  0.99999998245E-14  0.12500000000E+03  0.12500000000E+03 0.  0.
        -13    1    3    3    0    0  0.13352816085E+02  0.13483376214E+02  0.41033610167E+02  0.45209152380E+02  0.10566000000E+00 0.  1.
         23    2    1    0    0    0  0.17274379172E+02 -0.16940407386E+02 -0.47735505618E+01  0.10033893021E+03  0.97261156443E+02 0.  0.
         13    1    3    3    0    0  0.39215630868E+01 -0.30423783601E+02 -0.45807160728E+02  0.55129777831E+02  0.10566000000E+00 0. -1.
         22    1    1    0    0    0 -0.17274379172E+02  0.16940407386E+02  0.47735505618E+01  0.24661069789E+02  0.00000000000E+00 0. -1.
</event>
<event>
 5    1  0.1766627E-003  0.9118800E+02  0.7818608E-02  0.1130116E+00
         25   -1    0    0    0    0  0.00000000000E+00  0.00000000000E+00  0.99999998245E-14  0.12500000000E+03  0.12500000000E+03 0.  0.
        -13    1    3    3    0    0  0.20294107114E+02  0.34971046157E+02 -0.25039530154E+02  0.47558533274E+02  0.10566000000E+00 0.  1.
         23    2    1    0    0    0 -0.21702969396E+02  0.17143008875E+02 -0.93607478468E+01  0.95801965235E+02  0.91244130270E+02 0.  0.
         13    1    3    3    0    0 -0.41997076510E+02 -0.17828037282E+02  0.15678782307E+02  0.48243431961E+02  0.10566000000E+00 0. -1.
         22    1    1    0    0    0  0.21702969396E+02 -0.17143008875E+02  0.93607478468E+01  0.29198034765E+02  0.00000000000E+00 0.  1.
</event>
<event>
 5    1  0.1766627E-003  0.9118800E+02  0.7818608E-02  0.1130116E+00
         25   -1    0    0    0    0  0.00000000000E+00  0.00000000000E+00  0.99999998245E-14  0.12500000000E+03  0.12500000000E+03 0.  0.
        -13    1    3    3    0    0  0.19820897408E+02  0.88271314163E+01 -0.32191151853E+02  0.38820969137E+02  0.10566000000E+00 0.  1.
         23    2    1    0    0    0 -0.44045060981E+01  0.35312880610E+02  0.32523607081E+01  0.89265184188E+02  0.81800342585E+02 0.  0.
         13    1    3    3    0    0 -0.24225403506E+02  0.26485749194E+02  0.35443512561E+02  0.50444215051E+02  0.10566000000E+00 0. -1.
         22    1    1    0    0    0  0.44045060981E+01 -0.35312880610E+02 -0.32523607081E+01  0.35734815812E+02  0.00000000000E+00 0. -1.
</event>
<event>
 5    1  0.1766627E-003  0.9118800E+02  0.7818608E-02  0.1130116E+00
         25   -1    0    0    0    0  0.00000000000E+00  0.00000000000E+00  0.99999998245E-14  0.12500000000E+03  0.12500000000E+03 0.  0.
        -13    1    3    3    0    0 -0.57470167939E+01 -0.36369378669E+02  0.83135467344E+01  0.37747663903E+02  0.10566000000E+00 0.  1.
         23    2    1    0    0    0 -0.47249390070E+01  0.18294726818E+02  0.23837001003E+02  0.94582493613E+02  0.89557933224E+02 0.  0.
         13    1    3    3    0    0  0.10220777869E+01  0.54664105487E+02  0.15523454269E+02  0.56834829710E+02  0.10566000000E+00 0. -1.
         22    1    1    0    0    0  0.47249390070E+01 -0.18294726818E+02 -0.23837001003E+02  0.30417506387E+02  0.00000000000E+00 0. -1.
</event>
<event>
 5    1  0.1766627E-003  0.9118800E+02  0.7818608E-02  0.1130116E+00
         25   -1    0    0    0    0  0.00000000000E+00  0.00000000000E+00  0.99999998245E-14  0.12500000000E+03  0.12500000000E+03 0.  0.
        -13    1    3    3    0    0  0.16014061683E+02  0.43936491416E+02 -0.17629500001E+02  0.49976753434E+02  0.10566000000E+00 0. -1.
         23    2    1    0    0    0 -0.67335049664E+01  0.35965499466E+01 -0.26753518919E+02  0.97178676610E+02  0.93111058164E+02 0.  0.
         13    1    3    3    0    0 -0.22747566650E+02 -0.40339941469E+02 -0.91240189174E+01  0.47201923175E+02  0.10566000000E+00 0.  1.
         22    1    1    0    0    0  0.67335049664E+01 -0.35965499466E+01  0.26753518919E+02  0.27821323390E+02  0.00000000000E+00 0. -1.
</event>
<event>
 5    1  0.1766627E-003  0.9118800E+02  0.7818608E-02  0.1130116E+00
         25   -1    0    0    0    0  0.00000000000E+00  0.00000000000E+00  0.99999998245E-14  0.12500000000E+03  0.12500000000E+03 0.  0.
        -13    1    3    3    0    0  0.48744941195E+02 -0.28126682605E+02 -0.25459835208E+02  0.61768875166E+02  0.10566000000E+00 0.  1.
         23    2    1    0    0    0  0.25946823442E+02 -0.73106383962E+01 -0.13180494277E+02  0.94993192274E+02  0.90129340775E+02 0.  0.
         13    1    3    3    0    0 -0.22798117753E+02  0.20816044209E+02  0.12279340932E+02  0.33224317108E+02  0.10566000000E+00 0. -1.
         22    1    1    0    0    0 -0.25946823442E+02  0.73106383962E+01  0.13180494277E+02  0.30006807726E+02  0.00000000000E+00 0.  1.
</event>
<event>
 5    1  0.1766627E-003  0.9118800E+02  0.7818608E-02  0.1130116E+00
         25   -1    0    0    0    0  0.00000000000E+00  0.00000000000E+00  0.99999998245E-14  0.12500000000E+03  0.12500000000E+03 0.  0.
        -13    1    3    3    0    0 -0.14677455433E+02 -0.42284379684E+02 -0.37505326818E+00  0.44761013084E+02  0.10566000000E+00 0.  1.
         23    2    1    0    0    0 -0.25258967296E+02  0.51380373931E+01  0.14306836059E+02  0.95519490928E+02  0.90856330170E+02 0.  0.
         13    1    3    3    0    0 -0.10581511864E+02  0.47422417078E+02  0.14681889328E+02  0.50758477844E+02  0.10566000000E+00 0. -1.
         22    1    1    0    0    0  0.25258967296E+02 -0.51380373931E+01 -0.14306836059E+02  0.29480509072E+02  0.00000000000E+00 0.  1.
</event>
<event>
 5    1  0.1766627E-003  0.9118800E+02  0.7818608E-02  0.1130116E+00
         25   -1    0    0    0    0  0.00000000000E+00  0.00000000000E+00  0.99999998245E-14  0.12500000000E+03  0.12500000000E+03 0.  0.
        -13    1    3    3    0    0 -0.24088927443E+02 -0.25571798355E+02 -0.89618627397E+01  0.36256302132E+02  0.10566000000E+00 0.  1.
         23    2    1    0    0    0  0.29575178413E+02 -0.18982048579E+01 -0.30484802228E+01  0.95207591713E+02  0.90426201559E+02 0.  0.
         13    1    3    3    0    0  0.53664105857E+02  0.23673593497E+02  0.59133825169E+01  0.58951289581E+02  0.10566000000E+00 0. -1.
         22    1    1    0    0    0 -0.29575178413E+02  0.18982048579E+01  0.30484802228E+01  0.29792408287E+02  0.00000000000E+00 0. -1.
</event>
<event>
 5    1  0.1766627E-003  0.9118800E+02  0.7818608E-02  0.1130116E+00
         25   -1    0    0    0    0  0.00000000000E+00  0.00000000000E+00  0.99999998245E-14  0.12500000000E+03  0.12500000000E+03 0.  0.
        -13    1    3    3    0    0 -0.24150141353E+02  0.27341290979E+02  0.35877923983E+01  0.36655953651E+02  0.10566000000E+00 0.  1.
         23    2    1    0    0    0  0.79778914491E+01 -0.12274086079E+02 -0.25663959214E+02  0.95454463220E+02  0.90766821059E+02 0.  0.
         13    1    3    3    0    0  0.32128032802E+02 -0.39615377058E+02 -0.29251751612E+02  0.58798509569E+02  0.10566000000E+00 0. -1.
         22    1    1    0    0    0 -0.79778914491E+01  0.12274086079E+02  0.25663959214E+02  0.29545536780E+02  0.00000000000E+00 0. -1.
</event>
<event>
 5    1  0.1766627E-003  0.9118800E+02  0.7818608E-02  0.1130116E+00
         25   -1    0    0    0    0  0.00000000000E+00  0.00000000000E+00  0.99999998245E-14  0.12500000000E+03  0.12500000000E+03 0.  0.
        -13    1    3    3    0    0 -0.38087820600E+02 -0.71579774222E+01  0.13893350859E+02  0.41169832171E+02  0.10566000000E+00 0.  1.
         23    2    1    0    0    0  0.12152656483E+02 -0.24565461312E+02  0.13741643148E+02  0.94340878918E+02  0.89220063492E+02 0.  0.
         13    1    3    3    0    0  0.50240477083E+02 -0.17407483890E+02 -0.15170771084E+00  0.53171046748E+02  0.10566000000E+00 0. -1.
         22    1    1    0    0    0 -0.12152656483E+02  0.24565461312E+02 -0.13741643148E+02  0.30659121082E+02  0.00000000000E+00 0. -1.
</event>
<event>
 5    1  0.1766627E-003  0.9118800E+02  0.7818608E-02  0.1130116E+00
         25   -1    0    0    0    0  0.00000000000E+00  0.00000000000E+00  0.99999998245E-14  0.12500000000E+03  0.12500000000E+03 0.  0.
        -13    1    3    3    0    0 -0.53915104657E+02  0.40627337048E+01 -0.12206675683E+02  0.55428859005E+02  0.10566000000E+00 0.  1.
         23    2    1    0    0    0 -0.20554674728E+02 -0.18871033607E+02 -0.30901951928E+01  0.96925814903E+02  0.92770974586E+02 0.  0.
         13    1    3    3    0    0  0.33360429930E+02 -0.22933767311E+02  0.91164804902E+01  0.41496955897E+02  0.10566000000E+00 0. -1.
         22    1    1    0    0    0  0.20554674728E+02  0.18871033607E+02  0.30901951928E+01  0.28074185097E+02  0.00000000000E+00 0. -1.
</event>
<event>
 5    1  0.1766627E-003  0.9118800E+02  0.7818608E-02  0.1130116E+00
         25   -1    0    0    0    0  0.00000000000E+00  0.00000000000E+00  0.99999998245E-14  0.12500000000E+03  0.12500000000E+03 0.  0.
        -13    1    3    3    0    0 -0.39105250709E+02 -0.27929296759E+02 -0.23919448111E+01  0.48114434575E+02  0.10566000000E+00 0.  1.
         23    2    1    0    0    0 -0.25166371119E+02  0.16578980736E+02 -0.25624383344E+01  0.94754753634E+02  0.89798042342E+02 0.  0.
         13    1    3    3    0    0  0.13938879590E+02  0.44508277495E+02 -0.17049352327E+00  0.46640319058E+02  0.10566000000E+00 0. -1.
         22    1    1    0    0    0  0.25166371119E+02 -0.16578980736E+02  0.25624383344E+01  0.30245246366E+02  0.00000000000E+00 0.  1.
</event>
<event>
 5    1  0.1766627E-003  0.9118800E+02  0.7818608E-02  0.1130116E+00
         25   -1    0    0    0    0  0.00000000000E+00  0.00000000000E+00  0.99999998245E-14  0.12500000000E+03  0.12500000000E+03 0.  0.
        -13    1    3    3    0    0  0.10410028887E+02 -0.40308428386E+02 -0.18029175089E+02  0.45367393785E+02  0.10566000000E+00 0.  1.
         23    2    1    0    0    0  0.27911514927E+02  0.51344104292E+01 -0.23631703859E+01  0.96521948623E+02  0.92225198051E+02 0.  0.
         13    1    3    3    0    0  0.17501486040E+02  0.45442838815E+02  0.15666004704E+02  0.51154554838E+02  0.10566000000E+00 0. -1.
         22    1    1    0    0    0 -0.27911514927E+02 -0.51344104292E+01  0.23631703859E+01  0.28478051377E+02  0.00000000000E+00 0. -1.
</event>
<event>
 5    1  0.1766627E-003  0.9118800E+02  0.7818608E-02  0.1130116E+00
         25   -1    0    0    0    0  0.00000000000E+00  0.00000000000E+00  0.99999998245E-14  0.12500000000E+03  0.12500000000E+03 0.  0.
        -13    1    3    3    0    0  0.22024216499E+02  0.11485820249E+02 -0.47836088708E+02  0.53900767398E+02  0.10566000000E+00 0.  1.
         23    2    1    0    0    0  0.17172939571E+02  0.22408033963E+02 -0.77597261710E+01  0.95721284354E+02  0.91133534380E+02 0.  0.
         13    1    3    3    0    0 -0.48512769282E+01  0.10922213714E+02  0.40076362537E+02  0.41820516956E+02  0.10566000000E+00 0. -1.
         22    1    1    0    0    0 -0.17172939571E+02 -0.22408033963E+02  0.77597261710E+01  0.29278715646E+02  0.00000000000E+00 0.  1.
</event>
<event>
 5    1  0.1766627E-003  0.9118800E+02  0.7818608E-02  0.1130116E+00
         25   -1    0    0    0    0  0.00000000000E+00  0.00000000000E+00  0.99999998245E-14  0.12500000000E+03  0.12500000000E+03 0.  0.
        -13    1    3    3    0    0 -0.26996711018E+01 -0.37621533251E+02  0.55299782557E+01  0.38121644925E+02  0.10566000000E+00 0.  1.
         23    2    1    0    0    0 -0.26236974153E+02  0.13834908942E+02 -0.23219081938E+01  0.95248113072E+02  0.90482198624E+02 0.  0.
         13    1    3    3    0    0 -0.23537303051E+02  0.51456442193E+02 -0.78518864495E+01  0.57126468147E+02  0.10566000000E+00 0. -1.
         22    1    1    0    0    0  0.26236974153E+02 -0.13834908942E+02  0.23219081938E+01  0.29751886928E+02  0.00000000000E+00 0. -1.
</event>
<event>
 5    1  0.1766627E-003  0.9118800E+02  0.7818608E-02  0.1130116E+00
         25   -1    0    0    0    0  0.00000000000E+00  0.00000000000E+00  0.99999998245E-14  0.12500000000E+03  0.12500000000E+03 0.  0.
        -13    1    3    3    0    0  0.44168569323E+02  0.32853920025E+02  0.27506621433E+02  0.61537532967E+02  0.10566000000E+00 0.  1.
         23    2    1    0    0    0  0.22296398648E+02  0.21219485806E+02  0.76591933511E+01  0.93281563511E+02  0.87723377031E+02 0.  0.
         13    1    3    3    0    0 -0.21872170675E+02 -0.11634434219E+02 -0.19847428082E+02  0.31744030543E+02  0.10566000000E+00 0. -1.
         22    1    1    0    0    0 -0.22296398648E+02 -0.21219485806E+02 -0.76591933511E+01  0.31718436489E+02  0.00000000000E+00 0.  1.
</event>
<event>
 5    1  0.1766627E-003  0.9118800E+02  0.7818608E-02  0.1130116E+00
         25   -1    0    0    0    0  0.00000000000E+00  0.00000000000E+00  0.99999998245E-14  0.12500000000E+03  0.12500000000E+03 0.  0.
        -13    1    3    3    0    0 -0.23667620093E+02  0.48087726017E+02 -0.14530106730E+02  0.55531259665E+02  0.10566000000E+00 0.  1.
         23    2    1    0    0    0 -0.70645589309E+01  0.12697894745E+02 -0.25074417277E+02  0.96019473338E+02  0.91541620777E+02 0.  0.
         13    1    3    3    0    0  0.16603061162E+02 -0.35389831273E+02 -0.10544310547E+02  0.40488213673E+02  0.10566000000E+00 0. -1.
         22    1    1    0    0    0  0.70645589309E+01 -0.12697894745E+02  0.25074417277E+02  0.28980526662E+02  0.00000000000E+00 0.  1.
</event>
<event>
 5    1  0.1766627E-003  0.9118800E+02  0.7818608E-02  0.1130116E+00
         25   -1    0    0    0    0  0.00000000000E+00  0.00000000000E+00  0.99999998245E-14  0.12500000000E+03  0.12500000000E+03 0.  0.
        -13    1    3    3    0    0 -0.42884774082E+02 -0.19373728043E+02  0.38638567853E+02  0.60888383754E+02  0.10566000000E+00 0.  1.
         23    2    1    0    0    0 -0.27821280892E+02 -0.17745221970E+02  0.15510035676E+02  0.88537995393E+02  0.80681465333E+02 0.  0.
         13    1    3    3    0    0  0.15063493190E+02  0.16285060727E+01 -0.23128532178E+02  0.27649611640E+02  0.10566000000E+00 0. -1.
         22    1    1    0    0    0  0.27821280892E+02  0.17745221970E+02 -0.15510035676E+02  0.36462004607E+02  0.00000000000E+00 0.  1.
</event>
<event>
 5    1  0.1766627E-003  0.9118800E+02  0.7818608E-02  0.1130116E+00
         25   -1    0    0    0    0  0.00000000000E+00  0.00000000000E+00  0.99999998245E-14  0.12500000000E+03  0.12500000000E+03 0.  0.
        -13    1    3    3    0    0 -0.33661843641E+02 -0.18414513337E+01  0.30880500521E+01  0.33853476594E+02  0.10566000000E+00 0.  1.
         23    2    1    0    0    0  0.27870527584E+02  0.71570187250E+01 -0.13069211778E+01  0.96195533892E+02  0.91781716441E+02 0.  0.
         13    1    3    3    0    0  0.61532371225E+02  0.89984700587E+01 -0.43949712298E+01  0.62342057298E+02  0.10566000000E+00 0. -1.
         22    1    1    0    0    0 -0.27870527584E+02 -0.71570187250E+01  0.13069211778E+01  0.28804466108E+02  0.00000000000E+00 0. -1.
</event>
<event>
 5    1  0.1766627E-003  0.9118800E+02  0.7818608E-02  0.1130116E+00
         25   -1    0    0    0    0  0.00000000000E+00  0.00000000000E+00  0.99999998245E-14  0.12500000000E+03  0.12500000000E+03 0.  0.
        -13    1    3    3    0    0  0.55502350780E+02  0.22099920179E+02 -0.11214019583E+02  0.60783902584E+02  0.10566000000E+00 0.  1.
         23    2    1    0    0    0  0.20497140001E+02  0.18350183703E+02 -0.89800912412E+01  0.96060338135E+02  0.91597404623E+02 0.  0.
         13    1    3    3    0    0 -0.35005210779E+02 -0.37497364761E+01  0.22339283417E+01  0.35276435551E+02  0.10566000000E+00 0. -1.
         22    1    1    0    0    0 -0.20497140001E+02 -0.18350183703E+02  0.89800912412E+01  0.28939661865E+02  0.00000000000E+00 0.  1.
</event>
<event>
 5    1  0.1766627E-003  0.9118800E+02  0.7818608E-02  0.1130116E+00
         25   -1    0    0    0    0  0.00000000000E+00  0.00000000000E+00  0.99999998245E-14  0.12500000000E+03  0.12500000000E+03 0.  0.
        -13    1    3    3    0    0 -0.20097741427E+02  0.12350544177E+01  0.33850783679E+02  0.39386943136E+02  0.10566000000E+00 0.  1.
         23    2    1    0    0    0  0.21002724405E+02 -0.20740290276E+02  0.28867090442E+01  0.95341828070E+02  0.90611572205E+02 0.  0.
         13    1    3    3    0    0  0.41100465831E+02 -0.21975344693E+02 -0.30964074635E+02  0.55954884934E+02  0.10566000000E+00 0. -1.
         22    1    1    0    0    0 -0.21002724405E+02  0.20740290276E+02 -0.28867090442E+01  0.29658171930E+02  0.00000000000E+00 0. -1.
</event>
<event>
 5    1  0.1766627E-003  0.9118800E+02  0.7818608E-02  0.1130116E+00
         25   -1    0    0    0    0  0.00000000000E+00  0.00000000000E+00  0.99999998245E-14  0.12500000000E+03  0.12500000000E+03 0.  0.
        -13    1    3    3    0    0  0.20284872988E+01 -0.57995305421E+00  0.37837518520E+02  0.37896438858E+02  0.10566000000E+00 0.  1.
         23    2    1    0    0    0  0.13298258793E+02  0.21131347316E+02 -0.14824779043E+02  0.95962927145E+02  0.91464374410E+02 0.  0.
         13    1    3    3    0    0  0.11269771495E+02  0.21711300371E+02 -0.52662297563E+02  0.58066488287E+02  0.10566000000E+00 0. -1.
         22    1    1    0    0    0 -0.13298258793E+02 -0.21131347316E+02  0.14824779043E+02  0.29037072855E+02  0.00000000000E+00 0. -1.
</event>
<event>
 5    1  0.1766627E-003  0.9118800E+02  0.7818608E-02  0.1130116E+00
         25   -1    0    0    0    0  0.00000000000E+00  0.00000000000E+00  0.99999998245E-14  0.12500000000E+03  0.12500000000E+03 0.  0.
        -13    1    3    3    0    0 -0.11414975184E+02 -0.20326547267E+02 -0.46626086614E+02  0.52129389976E+02  0.10566000000E+00 0. -1.
         23    2    1    0    0    0 -0.25744833177E+02 -0.13862597860E+02 -0.67518142379E+01  0.94990750589E+02  0.90125954348E+02 0.  0.
         13    1    3    3    0    0 -0.14329857992E+02  0.64639494070E+01  0.39874272376E+02  0.42861360613E+02  0.10566000000E+00 0.  1.
         22    1    1    0    0    0  0.25744833177E+02  0.13862597860E+02  0.67518142379E+01  0.30009249411E+02  0.00000000000E+00 0. -1.
</event>
<event>
 5    1  0.1766627E-003  0.9118800E+02  0.7818608E-02  0.1130116E+00
         25   -1    0    0    0    0  0.00000000000E+00  0.00000000000E+00  0.99999998245E-14  0.12500000000E+03  0.12500000000E+03 0.  0.
        -13    1    3    3    0    0 -0.15341162703E+02  0.33590408055E+02 -0.20234039659E+02  0.42108126429E+02  0.10566000000E+00 0.  1.
         23    2    1    0    0    0  0.11280934456E+02  0.13511402237E+02  0.22576501327E+02  0.96372812140E+02  0.92022839746E+02 0.  0.
         13    1    3    3    0    0  0.26622097160E+02 -0.20079005818E+02  0.42810540986E+02  0.54264685711E+02  0.10566000000E+00 0. -1.
         22    1    1    0    0    0 -0.11280934456E+02 -0.13511402237E+02 -0.22576501327E+02  0.28627187860E+02  0.00000000000E+00 0. -1.
</event>
<event>
 5    1  0.1766627E-003  0.9118800E+02  0.7818608E-02  0.1130116E+00
         25   -1    0    0    0    0  0.00000000000E+00  0.00000000000E+00  0.99999998245E-14  0.12500000000E+03  0.12500000000E+03 0.  0.
        -13    1    3    3    0    0  0.23655021368E+01  0.51797212330E+01 -0.37608280632E+02  0.38037074658E+02  0.10566000000E+00 0.  1.
         23    2    1    0    0    0  0.13998199843E+02  0.23969249374E+02  0.13805337691E+02  0.93999002223E+02  0.88739791277E+02 0.  0.
         13    1    3    3    0    0  0.11632697706E+02  0.18789528141E+02  0.51413618323E+02  0.55961927565E+02  0.10566000000E+00 0. -1.
         22    1    1    0    0    0 -0.13998199843E+02 -0.23969249374E+02 -0.13805337691E+02  0.31000997777E+02  0.00000000000E+00 0. -1.
</event>
<event>
 5    1  0.1766627E-003  0.9118800E+02  0.7818608E-02  0.1130116E+00
         25   -1    0    0    0    0  0.00000000000E+00  0.00000000000E+00  0.99999998245E-14  0.12500000000E+03  0.12500000000E+03 0.  0.
        -13    1    3    3    0    0 -0.53107970451E+02 -0.16168537322E+01 -0.15636787003E+02  0.55385837660E+02  0.10566000000E+00 0.  1.
         23    2    1    0    0    0 -0.17340526311E+02  0.17074749953E+02 -0.16231965838E+02  0.95747347921E+02  0.91169276514E+02 0.  0.
         13    1    3    3    0    0  0.35767444140E+02  0.18691603686E+02 -0.59517883450E+00  0.40361510261E+02  0.10566000000E+00 0. -1.
         22    1    1    0    0    0  0.17340526311E+02 -0.17074749953E+02  0.16231965838E+02  0.29252652079E+02  0.00000000000E+00 0.  1.
</event>
<event>
 5    1  0.1766627E-003  0.9118800E+02  0.7818608E-02  0.1130116E+00
         25   -1    0    0    0    0  0.00000000000E+00  0.00000000000E+00  0.99999998245E-14  0.12500000000E+03  0.12500000000E+03 0.  0.
        -13    1    3    3    0    0  0.12737114469E+02 -0.38146622406E+02 -0.39981683537E+02  0.56709303192E+02  0.10566000000E+00 0.  1.
         23    2    1    0    0    0  0.19902336307E+02 -0.46504517360E+01 -0.20193609445E+02  0.96268283131E+02  0.91880742176E+02 0.  0.
         13    1    3    3    0    0  0.71652218379E+01  0.33496170670E+02  0.19788074092E+02  0.39558979939E+02  0.10566000000E+00 0. -1.
         22    1    1    0    0    0 -0.19902336307E+02  0.46504517360E+01  0.20193609445E+02  0.28731716869E+02  0.00000000000E+00 0.  1.
</event>
<event>
 5    1  0.1766627E-003  0.9118800E+02  0.7818608E-02  0.1130116E+00
         25   -1    0    0    0    0  0.00000000000E+00  0.00000000000E+00  0.99999998245E-14  0.12500000000E+03  0.12500000000E+03 0.  0.
        -13    1    3    3    0    0  0.14213264728E+02 -0.24144604573E+01 -0.20096330087E+02  0.24732977187E+02  0.10566000000E+00 0.  1.
         23    2    1    0    0    0  0.41928007053E+02 -0.13889880560E+02  0.21387166696E+02  0.75925592651E+02  0.57934429855E+02 0.  0.
         13    1    3    3    0    0  0.27714742325E+02 -0.11475420102E+02  0.41483496782E+02  0.51192615464E+02  0.10566000000E+00 0. -1.
         22    1    1    0    0    0 -0.41928007053E+02  0.13889880560E+02 -0.21387166696E+02  0.49074407349E+02  0.00000000000E+00 0. -1.
</event>
<event>
 5    1  0.1766627E-003  0.9118800E+02  0.7818608E-02  0.1130116E+00
         25   -1    0    0    0    0  0.00000000000E+00  0.00000000000E+00  0.99999998245E-14  0.12500000000E+03  0.12500000000E+03 0.  0.
        -13    1    3    3    0    0  0.12080140891E+02 -0.25887160536E+02 -0.23075609453E+02  0.36722878430E+02  0.10566000000E+00 0. -1.
         23    2    1    0    0    0  0.34385493477E+02  0.14737010620E+02 -0.18418378811E+02  0.83301339090E+02  0.72113346701E+02 0.  0.
         13    1    3    3    0    0  0.22305352587E+02  0.40624171156E+02  0.46572306415E+01  0.46578460660E+02  0.10566000000E+00 0.  1.
         22    1    1    0    0    0 -0.34385493477E+02 -0.14737010620E+02  0.18418378811E+02  0.41698660910E+02  0.00000000000E+00 0.  1.
</event>
<event>
 5    1  0.1766627E-003  0.9118800E+02  0.7818608E-02  0.1130116E+00
         25   -1    0    0    0    0  0.00000000000E+00  0.00000000000E+00  0.99999998245E-14  0.12500000000E+03  0.12500000000E+03 0.  0.
        -13    1    3    3    0    0  0.32364989705E+02 -0.34611712831E+02 -0.74843757040E+01  0.47973849829E+02  0.10566000000E+00 0. -1.
         23    2    1    0    0    0 -0.55409214572E+01 -0.17342163918E+02  0.20058776147E+02  0.97911128475E+02  0.94089224244E+02 0.  0.
         13    1    3    3    0    0 -0.37905911162E+02  0.17269548913E+02  0.27543151851E+02  0.49937278646E+02  0.10566000000E+00 0.  1.
         22    1    1    0    0    0  0.55409214572E+01  0.17342163918E+02 -0.20058776147E+02  0.27088871525E+02  0.00000000000E+00 0. -1.
</event>
<event>
 5    1  0.1766627E-003  0.9118800E+02  0.7818608E-02  0.1130116E+00
         25   -1    0    0    0    0  0.00000000000E+00  0.00000000000E+00  0.99999998245E-14  0.12500000000E+03  0.12500000000E+03 0.  0.
        -13    1    3    3    0    0 -0.42359208307E-01 -0.60927313750E+02 -0.45090026742E+00  0.60929088539E+02  0.10566000000E+00 0. -1.
         23    2    1    0    0    0  0.33462066876E+01 -0.33744026382E+02 -0.95102247881E+01  0.89782095587E+02  0.82586463157E+02 0.  0.
         13    1    3    3    0    0  0.33885658959E+01  0.27183287368E+02 -0.90593245207E+01  0.28853007049E+02  0.10566000000E+00 0.  1.
         22    1    1    0    0    0 -0.33462066876E+01  0.33744026382E+02  0.95102247881E+01  0.35217904413E+02  0.00000000000E+00 0. -1.
</event>
<event>
 5    1  0.1766627E-003  0.9118800E+02  0.7818608E-02  0.1130116E+00
         25   -1    0    0    0    0  0.00000000000E+00  0.00000000000E+00  0.99999998245E-14  0.12500000000E+03  0.12500000000E+03 0.  0.
        -13    1    3    3    0    0 -0.38921648740E+01 -0.29109944525E+02 -0.32469908828E+02  0.43781776586E+02  0.10566000000E+00 0.  1.
         23    2    1    0    0    0 -0.25161881878E+02  0.12195015071E+02 -0.13203999476E+02  0.94077770223E+02  0.88850675606E+02 0.  0.
         13    1    3    3    0    0 -0.21269717004E+02  0.41304959597E+02  0.19265909352E+02  0.50295993637E+02  0.10566000000E+00 0. -1.
         22    1    1    0    0    0  0.25161881878E+02 -0.12195015071E+02  0.13203999476E+02  0.30922229777E+02  0.00000000000E+00 0.  1.
</event>
<event>
 5    1  0.1766627E-003  0.9118800E+02  0.7818608E-02  0.1130116E+00
         25   -1    0    0    0    0  0.00000000000E+00  0.00000000000E+00  0.99999998245E-14  0.12500000000E+03  0.12500000000E+03 0.  0.
        -13    1    3    3    0    0 -0.23842198464E+01  0.42611447005E+02 -0.17596618941E+01  0.42714488106E+02  0.10566000000E+00 0.  1.
         23    2    1    0    0    0 -0.26378131243E+02  0.14997632224E+02  0.23031589815E+02  0.86905526522E+02  0.78111341241E+02 0.  0.
         13    1    3    3    0    0 -0.23993911397E+02 -0.27613814782E+02  0.24791251709E+02  0.44191038416E+02  0.10566000000E+00 0. -1.
         22    1    1    0    0    0  0.26378131243E+02 -0.14997632224E+02 -0.23031589815E+02  0.38094473478E+02  0.00000000000E+00 0. -1.
</event>
<event>
 5    1  0.1766627E-003  0.9118800E+02  0.7818608E-02  0.1130116E+00
         25   -1    0    0    0    0  0.00000000000E+00  0.00000000000E+00  0.99999998245E-14  0.12500000000E+03  0.12500000000E+03 0.  0.
        -13    1    3    3    0    0 -0.34365262103E+02  0.38896170735E+02 -0.33291276592E+01  0.52009399076E+02  0.10566000000E+00 0.  1.
         23    2    1    0    0    0 -0.26886474970E+02 -0.11188314051E+01  0.12036692753E+02  0.95520917714E+02  0.90858293119E+02 0.  0.
         13    1    3    3    0    0  0.74787871331E+01 -0.40015002140E+02  0.15365820412E+02  0.43511518638E+02  0.10566000000E+00 0. -1.
         22    1    1    0    0    0  0.26886474970E+02  0.11188314051E+01 -0.12036692753E+02  0.29479082286E+02  0.00000000000E+00 0.  1.
</event>
<event>
 5    1  0.1766627E-003  0.9118800E+02  0.7818608E-02  0.1130116E+00
         25   -1    0    0    0    0  0.00000000000E+00  0.00000000000E+00  0.99999998245E-14  0.12500000000E+03  0.12500000000E+03 0.  0.
        -13    1    3    3    0    0  0.40178250784E+02 -0.22912910886E+02 -0.13097913752E+02  0.48071403454E+02  0.10566000000E+00 0.  1.
         23    2    1    0    0    0  0.19736231559E+02  0.19632703371E+02 -0.10164116194E+02  0.95364360378E+02  0.90642650526E+02 0.  0.
         13    1    3    3    0    0 -0.20442019225E+02  0.42545614257E+02  0.29337975582E+01  0.47292956924E+02  0.10566000000E+00 0. -1.
         22    1    1    0    0    0 -0.19736231559E+02 -0.19632703371E+02  0.10164116194E+02  0.29635639622E+02  0.00000000000E+00 0.  1.
</event>
<event>
 5    1  0.1766627E-003  0.9118800E+02  0.7818608E-02  0.1130116E+00
         25   -1    0    0    0    0  0.00000000000E+00  0.00000000000E+00  0.99999998245E-14  0.12500000000E+03  0.12500000000E+03 0.  0.
        -13    1    3    3    0    0  0.12250285665E+01  0.19211575397E+02 -0.20685113346E+02  0.28257218589E+02  0.10566000000E+00 0.  1.
         23    2    1    0    0    0  0.33820593074E+02 -0.19495205421E+02 -0.24346712427E+02  0.78992848857E+02  0.64212243492E+02 0.  0.
         13    1    3    3    0    0  0.32595564508E+02 -0.38706780818E+02 -0.36615990811E+01  0.50735630268E+02  0.10566000000E+00 0. -1.
         22    1    1    0    0    0 -0.33820593074E+02  0.19495205421E+02  0.24346712427E+02  0.46007151143E+02  0.00000000000E+00 0.  1.
</event>
<event>
 5    1  0.1766627E-003  0.9118800E+02  0.7818608E-02  0.1130116E+00
         25   -1    0    0    0    0  0.00000000000E+00  0.00000000000E+00  0.99999998245E-14  0.12500000000E+03  0.12500000000E+03 0.  0.
        -13    1    3    3    0    0  0.58756605282E+02  0.11405082026E+02 -0.17779734650E+02  0.62438327080E+02  0.10566000000E+00 0.  1.
         23    2    1    0    0    0  0.26249457346E+02  0.57588225645E+01 -0.99042609112E+01  0.96359252236E+02  0.92004418692E+02 0.  0.
         13    1    3    3    0    0 -0.32507147935E+02 -0.56462594619E+01  0.78754737388E+01  0.33920925156E+02  0.10566000000E+00 0. -1.
         22    1    1    0    0    0 -0.26249457346E+02 -0.57588225645E+01  0.99042609112E+01  0.28640747764E+02  0.00000000000E+00 0.  1.
</event>
<event>
 5    1  0.1766627E-003  0.9118800E+02  0.7818608E-02  0.1130116E+00
         25   -1    0    0    0    0  0.00000000000E+00  0.00000000000E+00  0.99999998245E-14  0.12500000000E+03  0.12500000000E+03 0.  0.
        -13    1    3    3    0    0  0.39318316413E+02  0.37152252369E+01 -0.42605457781E+01  0.39722743089E+02  0.10566000000E+00 0. -1.
         23    2    1    0    0    0 -0.14110262581E+02 -0.65955428535E+01 -0.22955490564E+02  0.97259141278E+02  0.93219018013E+02 0.  0.
         13    1    3    3    0    0 -0.53428578994E+02 -0.10310768090E+02 -0.18694944786E+02  0.57536398189E+02  0.10566000000E+00 0.  1.
         22    1    1    0    0    0  0.14110262581E+02  0.65955428535E+01  0.22955490564E+02  0.27740858722E+02  0.00000000000E+00 0.  1.
</event>
<event>
 5    1  0.1766627E-003  0.9118800E+02  0.7818608E-02  0.1130116E+00
         25   -1    0    0    0    0  0.00000000000E+00  0.00000000000E+00  0.99999998245E-14  0.12500000000E+03  0.12500000000E+03 0.  0.
        -13    1    3    3    0    0 -0.78348280622E+01  0.21465608495E+02  0.24038594349E+02  0.33166580486E+02  0.10566000000E+00 0.  1.
         23    2    1    0    0    0  0.85234634687E+01 -0.22050274170E+02 -0.17561211135E+02  0.95550718905E+02  0.90899283420E+02 0.  0.
         13    1    3    3    0    0  0.16358291531E+02 -0.43515882665E+02 -0.41599805484E+02  0.62384138419E+02  0.10566000000E+00 0. -1.
         22    1    1    0    0    0 -0.85234634687E+01  0.22050274170E+02  0.17561211135E+02  0.29449281095E+02  0.00000000000E+00 0. -1.
</event>
<event>
 5    1  0.1766627E-003  0.9118800E+02  0.7818608E-02  0.1130116E+00
         25   -1    0    0    0    0  0.00000000000E+00  0.00000000000E+00  0.99999998245E-14  0.12500000000E+03  0.12500000000E+03 0.  0.
        -13    1    3    3    0    0  0.35262456899E+02 -0.13693115571E+01 -0.14222264724E+01  0.35317839301E+02  0.10566000000E+00 0.  1.
         23    2    1    0    0    0 -0.20908569835E+02  0.18426835832E+02 -0.97914255048E+01  0.95460389564E+02  0.90774982187E+02 0.  0.
         13    1    3    3    0    0 -0.56171026733E+02  0.19796147389E+02 -0.83691990324E+01  0.60142550264E+02  0.10566000000E+00 0. -1.
         22    1    1    0    0    0  0.20908569835E+02 -0.18426835832E+02  0.97914255048E+01  0.29539610436E+02  0.00000000000E+00 0. -1.
</event>
<event>
 5    1  0.1766627E-003  0.9118800E+02  0.7818608E-02  0.1130116E+00
         25   -1    0    0    0    0  0.00000000000E+00  0.00000000000E+00  0.99999998245E-14  0.12500000000E+03  0.12500000000E+03 0.  0.
        -13    1    3    3    0    0 -0.11836915560E+02  0.34791103240E+02 -0.47418746098E+02  0.59992350181E+02  0.10566000000E+00 0.  1.
         23    2    1    0    0    0 -0.17345939827E+02  0.15295247363E+02 -0.18086464505E+02  0.95641075996E+02  0.91023453016E+02 0.  0.
         13    1    3    3    0    0 -0.55090242673E+01 -0.19495855877E+02  0.29332281593E+02  0.35648725815E+02  0.10566000000E+00 0. -1.
         22    1    1    0    0    0  0.17345939827E+02 -0.15295247363E+02  0.18086464505E+02  0.29358924004E+02  0.00000000000E+00 0.  1.
</event>
<event>
 5    1  0.1766627E-003  0.9118800E+02  0.7818608E-02  0.1130116E+00
         25   -1    0    0    0    0  0.00000000000E+00  0.00000000000E+00  0.99999998245E-14  0.12500000000E+03  0.12500000000E+03 0.  0.
        -13    1    3    3    0    0  0.51988986284E+02  0.17808967830E+01  0.31738943492E+02  0.60937656553E+02  0.10566000000E+00 0.  1.
         23    2    1    0    0    0  0.25581366589E+02 -0.82209597729E+01  0.11037031939E+02  0.95951651163E+02  0.91448962765E+02 0.  0.
         13    1    3    3    0    0 -0.26407619696E+02 -0.10001856556E+02 -0.20701911552E+02  0.35013994609E+02  0.10566000000E+00 0. -1.
         22    1    1    0    0    0 -0.25581366589E+02  0.82209597729E+01 -0.11037031939E+02  0.29048348837E+02  0.00000000000E+00 0.  1.
</event>
<event>
 5    1  0.1766627E-003  0.9118800E+02  0.7818608E-02  0.1130116E+00
         25   -1    0    0    0    0  0.00000000000E+00  0.00000000000E+00  0.99999998245E-14  0.12500000000E+03  0.12500000000E+03 0.  0.
        -13    1    3    3    0    0 -0.27746583747E+02  0.25213583610E+02 -0.18521439989E+02  0.41816893851E+02  0.10566000000E+00 0.  1.
         23    2    1    0    0    0 -0.19473869889E+02 -0.23734800981E+02 -0.12608455580E+02  0.91810460410E+02  0.85601490072E+02 0.  0.
         13    1    3    3    0    0  0.82727138579E+01 -0.48948384591E+02  0.59129844087E+01  0.49993566559E+02  0.10566000000E+00 0. -1.
         22    1    1    0    0    0  0.19473869889E+02  0.23734800981E+02  0.12608455580E+02  0.33189539590E+02  0.00000000000E+00 0. -1.
</event>
<event>
 5    1  0.1766627E-003  0.9118800E+02  0.7818608E-02  0.1130116E+00
         25   -1    0    0    0    0  0.00000000000E+00  0.00000000000E+00  0.99999998245E-14  0.12500000000E+03  0.12500000000E+03 0.  0.
        -13    1    3    3    0    0 -0.26302964790E+02  0.26980372175E+02  0.64088195947E+01  0.38221336608E+02  0.10566000000E+00 0.  1.
         23    2    1    0    0    0  0.14735594597E+02  0.37116928548E+00 -0.24735351217E+02  0.96205675653E+02  0.91795527741E+02 0.  0.
         13    1    3    3    0    0  0.41038559387E+02 -0.26609202890E+02 -0.31144170812E+02  0.57984339045E+02  0.10566000000E+00 0. -1.
         22    1    1    0    0    0 -0.14735594597E+02 -0.37116928548E+00  0.24735351217E+02  0.28794324347E+02  0.00000000000E+00 0. -1.
</event>
<event>
 5    1  0.1766627E-003  0.9118800E+02  0.7818608E-02  0.1130116E+00
         25   -1    0    0    0    0  0.00000000000E+00  0.00000000000E+00  0.99999998245E-14  0.12500000000E+03  0.12500000000E+03 0.  0.
        -13    1    3    3    0    0 -0.44079207102E+02 -0.36090486986E+02  0.43130391271E+01  0.57132418294E+02  0.10566000000E+00 0.  1.
         23    2    1    0    0    0 -0.56507287775E+01 -0.26988367108E+02  0.64500270182E+01  0.96682063221E+02  0.92441959117E+02 0.  0.
         13    1    3    3    0    0  0.38428478324E+02  0.91021198781E+01  0.21369878911E+01  0.39549644927E+02  0.10566000000E+00 0. -1.
         22    1    1    0    0    0  0.56507287775E+01  0.26988367108E+02 -0.64500270182E+01  0.28317936779E+02  0.00000000000E+00 0.  1.
</event>
<event>
 4    1  0.1766627E-003  0.9118800E+02  0.7818608E-02  0.1130116E+00
         25   -1    0    0    0    0  0.00000000000E+00  0.00000000000E+00  0.99999998245E-14  0.12500000000E+03  0.12500000000E+03 0.  0.
        -13    1    1    0    0    0  0.14299450918E+01  0.52188786336E+01  0.94684661778E+01  0.10906165823E+02  0.10566000000E+00 0.  1.
         13    1    1    0    0    0 -0.49494826290E+02  0.26079393628E+02  0.92963495128E-01  0.55945441349E+02  0.10566000000E+00 0. -1.
         22    1    1    0    0    0  0.48064881198E+02 -0.31298272261E+02 -0.95614296729E+01  0.58148392828E+02  0.00000000000E+00 0. -1.
</event>
<event>
 5    1  0.1766627E-003  0.9118800E+02  0.7818608E-02  0.1130116E+00
         25   -1    0    0    0    0  0.00000000000E+00  0.00000000000E+00  0.99999998245E-14  0.12500000000E+03  0.12500000000E+03 0.  0.
        -13    1    3    3    0    0 -0.11673691575E+01 -0.48206323043E+02  0.11427385279E+02  0.49556115974E+02  0.10566000000E+00 0. -1.
         23    2    1    0    0    0  0.25043193352E+02 -0.12737000734E+02 -0.46962803236E+01  0.96514077691E+02  0.92214529347E+02 0.  0.
         13    1    3    3    0    0  0.26210562509E+02  0.35469322309E+02 -0.16123665602E+02  0.46957961717E+02  0.10566000000E+00 0.  1.
         22    1    1    0    0    0 -0.25043193352E+02  0.12737000734E+02  0.46962803236E+01  0.28485922309E+02  0.00000000000E+00 0. -1.
</event>
<event>
 5    1  0.1766627E-003  0.9118800E+02  0.7818608E-02  0.1130116E+00
         25   -1    0    0    0    0  0.00000000000E+00  0.00000000000E+00  0.99999998245E-14  0.12500000000E+03  0.12500000000E+03 0.  0.
        -13    1    3    3    0    0 -0.16644173143E+02 -0.34355866187E+02  0.18234312238E+02  0.42306682072E+02  0.10566000000E+00 0.  1.
         23    2    1    0    0    0 -0.23373143904E+02  0.50324318561E+01 -0.17066199329E+02  0.95625106198E+02  0.91001519490E+02 0.  0.
         13    1    3    3    0    0 -0.67289707611E+01  0.39388298043E+02 -0.35300511568E+02  0.53318424126E+02  0.10566000000E+00 0. -1.
         22    1    1    0    0    0  0.23373143904E+02 -0.50324318561E+01  0.17066199329E+02  0.29374893802E+02  0.00000000000E+00 0.  1.
</event>
<event>
 5    1  0.1766627E-003  0.9118800E+02  0.7818608E-02  0.1130116E+00
         25   -1    0    0    0    0  0.00000000000E+00  0.00000000000E+00  0.99999998245E-14  0.12500000000E+03  0.12500000000E+03 0.  0.
        -13    1    3    3    0    0 -0.20027863246E+02 -0.16233841952E+02  0.52850670846E+02  0.58803550094E+02  0.10566000000E+00 0. -1.
         23    2    1    0    0    0 -0.18993224402E+02  0.37006366871E+01  0.20559388572E+02  0.96766584629E+02  0.92556178384E+02 0.  0.
         13    1    3    3    0    0  0.10346388445E+01  0.19934478639E+02 -0.32291282274E+02  0.37963034534E+02  0.10566000000E+00 0.  1.
         22    1    1    0    0    0  0.18993224402E+02 -0.37006366871E+01 -0.20559388572E+02  0.28233415371E+02  0.00000000000E+00 0. -1.
</event>
<event>
 5    1  0.1766627E-003  0.9118800E+02  0.7818608E-02  0.1130116E+00
         25   -1    0    0    0    0  0.00000000000E+00  0.00000000000E+00  0.99999998245E-14  0.12500000000E+03  0.12500000000E+03 0.  0.
        -13    1    3    3    0    0 -0.41505765325E+02  0.16188105736E+02 -0.10966538119E+02  0.45880926809E+02  0.10566000000E+00 0. -1.
         23    2    1    0    0    0  0.76920334679E+01  0.14593932957E+02 -0.23134212629E+02  0.96586234815E+02  0.92312289018E+02 0.  0.
         13    1    3    3    0    0  0.49197798793E+02 -0.15941727797E+01 -0.12167674510E+02  0.50705308005E+02  0.10566000000E+00 0.  1.
         22    1    1    0    0    0 -0.76920334679E+01 -0.14593932957E+02  0.23134212629E+02  0.28413765185E+02  0.00000000000E+00 0.  1.
</event>
<event>
 5    1  0.1766627E-003  0.9118800E+02  0.7818608E-02  0.1130116E+00
         25   -1    0    0    0    0  0.00000000000E+00  0.00000000000E+00  0.99999998245E-14  0.12500000000E+03  0.12500000000E+03 0.  0.
        -13    1    3    3    0    0  0.33116162552E+01  0.32304855744E+02 -0.32581939945E+02  0.46001787808E+02  0.10566000000E+00 0.  1.
         23    2    1    0    0    0  0.16972747463E+02  0.14591272206E+02  0.14640333625E+02  0.98254556469E+02  0.94544376444E+02 0.  0.
         13    1    3    3    0    0  0.13661131208E+02 -0.17713583537E+02  0.47222273570E+02  0.52252768661E+02  0.10566000000E+00 0. -1.
         22    1    1    0    0    0 -0.16972747463E+02 -0.14591272206E+02 -0.14640333625E+02  0.26745443531E+02  0.00000000000E+00 0. -1.
</event>
<event>
 5    1  0.1766627E-003  0.9118800E+02  0.7818608E-02  0.1130116E+00
         25   -1    0    0    0    0  0.00000000000E+00  0.00000000000E+00  0.99999998245E-14  0.12500000000E+03  0.12500000000E+03 0.  0.
        -13    1    3    3    0    0  0.11755226972E+02  0.14356822345E+02 -0.27748609229E+02  0.33381135199E+02  0.10566000000E+00 0. -1.
         23    2    1    0    0    0 -0.97660050307E+00 -0.10803745156E+02  0.27515285948E+02  0.95423563116E+02  0.90724256839E+02 0.  0.
         13    1    3    3    0    0 -0.12731827475E+02 -0.25160567501E+02  0.55263895176E+02  0.62042427918E+02  0.10566000000E+00 0.  1.
         22    1    1    0    0    0  0.97660050307E+00  0.10803745156E+02 -0.27515285948E+02  0.29576436884E+02  0.00000000000E+00 0.  1.
</event>
<event>
 5    1  0.1766627E-003  0.9118800E+02  0.7818608E-02  0.1130116E+00
         25   -1    0    0    0    0  0.00000000000E+00  0.00000000000E+00  0.99999998245E-14  0.12500000000E+03  0.12500000000E+03 0.  0.
        -13    1    3    3    0    0  0.82001772407E+01 -0.13680030708E+02 -0.35635741244E+02  0.39042327864E+02  0.10566000000E+00 0. -1.
         23    2    1    0    0    0 -0.11386334813E+02  0.26957901998E+02 -0.13490973246E+01  0.95704997624E+02  0.91111192540E+02 0.  0.
         13    1    3    3    0    0 -0.19586512054E+02  0.40637932706E+02  0.34286643920E+02  0.56662669760E+02  0.10566000000E+00 0.  1.
         22    1    1    0    0    0  0.11386334813E+02 -0.26957901998E+02  0.13490973246E+01  0.29295002376E+02  0.00000000000E+00 0.  1.
</event>
<event>
 5    1  0.1766627E-003  0.9118800E+02  0.7818608E-02  0.1130116E+00
         25   -1    0    0    0    0  0.00000000000E+00  0.00000000000E+00  0.99999998245E-14  0.12500000000E+03  0.12500000000E+03 0.  0.
        -13    1    3    3    0    0 -0.54434442497E+02 -0.23347691489E+02  0.57214938845E+01  0.59506049139E+02  0.10566000000E+00 0.  1.
         23    2    1    0    0    0 -0.17978316149E+02 -0.18547097215E+02 -0.66935165762E+01  0.98316337755E+02  0.94626024109E+02 0.  0.
         13    1    3    3    0    0  0.36456126348E+02  0.48005942740E+01 -0.12415010461E+02  0.38810288616E+02  0.10566000000E+00 0. -1.
         22    1    1    0    0    0  0.17978316149E+02  0.18547097215E+02  0.66935165762E+01  0.26683662245E+02  0.00000000000E+00 0.  1.
</event>
<event>
 5    1  0.1766627E-003  0.9118800E+02  0.7818608E-02  0.1130116E+00
         25   -1    0    0    0    0  0.00000000000E+00  0.00000000000E+00  0.99999998245E-14  0.12500000000E+03  0.12500000000E+03 0.  0.
        -13    1    3    3    0    0 -0.44722816828E+01  0.55186647154E+02 -0.19961600714E+02  0.58856129627E+02  0.10566000000E+00 0.  1.
         23    2    1    0    0    0 -0.16665120104E+02  0.22542498109E+02 -0.64294634392E+01  0.96238420607E+02  0.91840106444E+02 0.  0.
         13    1    3    3    0    0 -0.12192838422E+02 -0.32644149045E+02  0.13532137275E+02  0.37382290980E+02  0.10566000000E+00 0. -1.
         22    1    1    0    0    0  0.16665120104E+02 -0.22542498109E+02  0.64294634392E+01  0.28761579393E+02  0.00000000000E+00 0.  1.
</event>
<event>
 5    1  0.1766627E-003  0.9118800E+02  0.7818608E-02  0.1130116E+00
         25   -1    0    0    0    0  0.00000000000E+00  0.00000000000E+00  0.99999998245E-14  0.12500000000E+03  0.12500000000E+03 0.  0.
        -13    1    3    3    0    0  0.46247950734E+01  0.31961433705E+02 -0.39980774689E+02  0.51394508293E+02  0.10566000000E+00 0. -1.
         23    2    1    0    0    0 -0.33316792215E+01 -0.10040602904E+02 -0.26891255314E+02  0.96102709375E+02  0.91655209038E+02 0.  0.
         13    1    3    3    0    0 -0.79564742949E+01 -0.42002036609E+02  0.13089519375E+02  0.44708201082E+02  0.10566000000E+00 0.  1.
         22    1    1    0    0    0  0.33316792215E+01  0.10040602904E+02  0.26891255314E+02  0.28897290625E+02  0.00000000000E+00 0. -1.
</event>
<event>
 5    1  0.1766627E-003  0.9118800E+02  0.7818608E-02  0.1130116E+00
         25   -1    0    0    0    0  0.00000000000E+00  0.00000000000E+00  0.99999998245E-14  0.12500000000E+03  0.12500000000E+03 0.  0.
        -13    1    3    3    0    0 -0.23784387970E+02 -0.14091492604E+02 -0.35126540485E+02  0.44700696699E+02  0.10566000000E+00 0. -1.
         23    2    1    0    0    0  0.23063449430E+02 -0.66663889758E+01 -0.17452182736E+02  0.95319330806E+02  0.90580531580E+02 0.  0.
         13    1    3    3    0    0  0.46847837399E+02  0.74251036286E+01  0.17674357749E+02  0.50618634106E+02  0.10566000000E+00 0.  1.
         22    1    1    0    0    0 -0.23063449430E+02  0.66663889758E+01  0.17452182736E+02  0.29680669194E+02  0.00000000000E+00 0.  1.
</event>
<event>
 5    1  0.1766627E-003  0.9118800E+02  0.7818608E-02  0.1130116E+00
         25   -1    0    0    0    0  0.00000000000E+00  0.00000000000E+00  0.99999998245E-14  0.12500000000E+03  0.12500000000E+03 0.  0.
        -13    1    3    3    0    0  0.33377325545E+02  0.26620960090E+01 -0.45850658702E+02  0.56775229486E+02  0.10566000000E+00 0.  1.
         23    2    1    0    0    0  0.15783684086E+02 -0.17394259686E+02 -0.17469608151E+02  0.95727621171E+02  0.91142225630E+02 0.  0.
         13    1    3    3    0    0 -0.17593641459E+02 -0.20056355695E+02  0.28381050551E+02  0.38952391685E+02  0.10566000000E+00 0. -1.
         22    1    1    0    0    0 -0.15783684086E+02  0.17394259686E+02  0.17469608151E+02  0.29272378829E+02  0.00000000000E+00 0.  1.
</event>
<event>
 5    1  0.1766627E-003  0.9118800E+02  0.7818608E-02  0.1130116E+00
         25   -1    0    0    0    0  0.00000000000E+00  0.00000000000E+00  0.99999998245E-14  0.12500000000E+03  0.12500000000E+03 0.  0.
        -13    1    3    3    0    0 -0.53990109467E+02 -0.30274283901E+02 -0.54152201910E+00  0.61901281054E+02  0.10566000000E+00 0.  1.
         23    2    1    0    0    0 -0.21531162985E+02 -0.18450912787E+02  0.22260019375E+01  0.96557386779E+02  0.92273217646E+02 0.  0.
         13    1    3    3    0    0  0.32458946481E+02  0.11823371114E+02  0.27675239566E+01  0.34656105726E+02  0.10566000000E+00 0. -1.
         22    1    1    0    0    0  0.21531162985E+02  0.18450912787E+02 -0.22260019375E+01  0.28442613221E+02  0.00000000000E+00 0.  1.
</event>
<event>
 5    1  0.1766627E-003  0.9118800E+02  0.7818608E-02  0.1130116E+00
         25   -1    0    0    0    0  0.00000000000E+00  0.00000000000E+00  0.99999998245E-14  0.12500000000E+03  0.12500000000E+03 0.  0.
        -13    1    3    3    0    0 -0.25945064515E+01 -0.29559098911E+02  0.12445016846E+02  0.32177032189E+02  0.10566000000E+00 0. -1.
         23    2    1    0    0    0 -0.26448876004E+01  0.26039406494E+02 -0.15684845815E+02  0.94486715857E+02  0.89424152018E+02 0.  0.
         13    1    3    3    0    0 -0.50381148826E-01  0.55598505405E+02 -0.28129862660E+02  0.62309683668E+02  0.10566000000E+00 0.  1.
         22    1    1    0    0    0  0.26448876004E+01 -0.26039406494E+02  0.15684845815E+02  0.30513284143E+02  0.00000000000E+00 0.  1.
</event>
<event>
 5    1  0.1766627E-003  0.9118800E+02  0.7818608E-02  0.1130116E+00
         25   -1    0    0    0    0  0.00000000000E+00  0.00000000000E+00  0.99999998245E-14  0.12500000000E+03  0.12500000000E+03 0.  0.
        -13    1    3    3    0    0 -0.34391236962E+02 -0.69748796515E+01  0.29234287866E+01  0.35213118661E+02  0.10566000000E+00 0.  1.
         23    2    1    0    0    0  0.26257719509E+02 -0.11966658082E+02  0.20095993376E+01  0.96074107983E+02  0.91616193961E+02 0.  0.
         13    1    3    3    0    0  0.60648956471E+02 -0.49917784310E+01 -0.91382944898E+00  0.60860989322E+02  0.10566000000E+00 0. -1.
         22    1    1    0    0    0 -0.26257719509E+02  0.11966658082E+02 -0.20095993376E+01  0.28925892017E+02  0.00000000000E+00 0. -1.
</event>
<event>
 5    1  0.1766627E-003  0.9118800E+02  0.7818608E-02  0.1130116E+00
         25   -1    0    0    0    0  0.00000000000E+00  0.00000000000E+00  0.99999998245E-14  0.12500000000E+03  0.12500000000E+03 0.  0.
        -13    1    3    3    0    0 -0.31350968012E+02  0.30701332965E+01  0.24664871612E+02  0.40008448726E+02  0.10566000000E+00 0.  1.
         23    2    1    0    0    0  0.63496445857E+01 -0.27935526840E+02 -0.31322627571E+01  0.96181208975E+02  0.91762204876E+02 0.  0.
         13    1    3    3    0    0  0.37700612598E+02 -0.31005660136E+02 -0.27797134369E+02  0.56172760249E+02  0.10566000000E+00 0. -1.
         22    1    1    0    0    0 -0.63496445857E+01  0.27935526840E+02  0.31322627571E+01  0.28818791025E+02  0.00000000000E+00 0. -1.
</event>
<event>
 5    1  0.1766627E-003  0.9118800E+02  0.7818608E-02  0.1130116E+00
         25   -1    0    0    0    0  0.00000000000E+00  0.00000000000E+00  0.99999998245E-14  0.12500000000E+03  0.12500000000E+03 0.  0.
        -13    1    3    3    0    0 -0.60733003055E+01  0.36230421273E+02 -0.92704434506E+01  0.37887737964E+02  0.10566000000E+00 0.  1.
         23    2    1    0    0    0 -0.20097525827E+02 -0.19635231424E+02 -0.90300474346E+01  0.95487382121E+02  0.90812144178E+02 0.  0.
         13    1    3    3    0    0 -0.14024225521E+02 -0.55865652697E+02  0.24039601602E+00  0.57599644157E+02  0.10566000000E+00 0. -1.
         22    1    1    0    0    0  0.20097525827E+02  0.19635231424E+02  0.90300474346E+01  0.29512617879E+02  0.00000000000E+00 0. -1.
</event>
<event>
 5    1  0.1766627E-003  0.9118800E+02  0.7818608E-02  0.1130116E+00
         25   -1    0    0    0    0  0.00000000000E+00  0.00000000000E+00  0.99999998245E-14  0.12500000000E+03  0.12500000000E+03 0.  0.
        -13    1    3    3    0    0  0.16893642178E+02 -0.40448232143E+02 -0.37450488524E+02  0.57654183580E+02  0.10566000000E+00 0. -1.
         23    2    1    0    0    0 -0.95705420839E+01 -0.19698413236E+02 -0.18967032163E+02  0.96028098632E+02  0.91553397851E+02 0.  0.
         13    1    3    3    0    0 -0.26464184262E+02  0.20749818907E+02  0.18483456361E+02  0.38373915052E+02  0.10566000000E+00 0.  1.
         22    1    1    0    0    0  0.95705420839E+01  0.19698413236E+02  0.18967032163E+02  0.28971901368E+02  0.00000000000E+00 0. -1.
</event>
<event>
 5    1  0.1766627E-003  0.9118800E+02  0.7818608E-02  0.1130116E+00
         25   -1    0    0    0    0  0.00000000000E+00  0.00000000000E+00  0.99999998245E-14  0.12500000000E+03  0.12500000000E+03 0.  0.
        -13    1    3    3    0    0 -0.12601635043E+02  0.40558639037E+02 -0.23335218100E+02  0.48459756233E+02  0.10566000000E+00 0.  1.
         23    2    1    0    0    0 -0.28622766626E+02  0.60363561142E+01  0.42175215792E+01  0.95445172090E+02  0.90754024829E+02 0.  0.
         13    1    3    3    0    0 -0.16021131583E+02 -0.34522282923E+02  0.27552739679E+02  0.46985415858E+02  0.10566000000E+00 0. -1.
         22    1    1    0    0    0  0.28622766626E+02 -0.60363561142E+01 -0.42175215792E+01  0.29554827910E+02  0.00000000000E+00 0.  1.
</event>
<event>
 5    1  0.1766627E-003  0.9118800E+02  0.7818608E-02  0.1130116E+00
         25   -1    0    0    0    0  0.00000000000E+00  0.00000000000E+00  0.99999998245E-14  0.12500000000E+03  0.12500000000E+03 0.  0.
        -13    1    3    3    0    0  0.12639151854E+02 -0.41452854589E+02  0.40998704312E+02  0.59657289852E+02  0.10566000000E+00 0. -1.
         23    2    1    0    0    0  0.85348560191E+01 -0.27319443731E+02  0.88066291730E+01  0.95054174074E+02  0.90213876529E+02 0.  0.
         13    1    3    3    0    0 -0.41042958349E+01  0.14133410859E+02 -0.32192075139E+02  0.35396884222E+02  0.10566000000E+00 0.  1.
         22    1    1    0    0    0 -0.85348560191E+01  0.27319443731E+02 -0.88066291730E+01  0.29945825926E+02  0.00000000000E+00 0. -1.
</event>
<event>
 5    1  0.1766627E-003  0.9118800E+02  0.7818608E-02  0.1130116E+00
         25   -1    0    0    0    0  0.00000000000E+00  0.00000000000E+00  0.99999998245E-14  0.12500000000E+03  0.12500000000E+03 0.  0.
        -13    1    3    3    0    0 -0.31656919029E+02  0.85857729047E+01 -0.43095812236E+02  0.54158436232E+02  0.10566000000E+00 0.  1.
         23    2    1    0    0    0 -0.78000115075E+00  0.22303473145E+02 -0.19435287637E+02  0.95406356736E+02  0.90700546768E+02 0.  0.
         13    1    3    3    0    0  0.30876917879E+02  0.13717700240E+02  0.23660524599E+02  0.41247920504E+02  0.10566000000E+00 0. -1.
         22    1    1    0    0    0  0.78000115075E+00 -0.22303473145E+02  0.19435287637E+02  0.29593643264E+02  0.00000000000E+00 0.  1.
</event>
<event>
 5    1  0.1766627E-003  0.9118800E+02  0.7818608E-02  0.1130116E+00
         25   -1    0    0    0    0  0.00000000000E+00  0.00000000000E+00  0.99999998245E-14  0.12500000000E+03  0.12500000000E+03 0.  0.
        -13    1    3    3    0    0 -0.48901782425E+02  0.64358609052E+01  0.11524856823E+02  0.50652128472E+02  0.10566000000E+00 0.  1.
         23    2    1    0    0    0 -0.60920604184E+01  0.15049386877E+02  0.23961220931E+02  0.96056307181E+02  0.91591903546E+02 0.  0.
         13    1    3    3    0    0  0.42809722006E+02  0.86135259722E+01  0.12436364108E+02  0.45404178709E+02  0.10566000000E+00 0. -1.
         22    1    1    0    0    0  0.60920604184E+01 -0.15049386877E+02 -0.23961220931E+02  0.28943692819E+02  0.00000000000E+00 0. -1.
</event>
<event>
 5    1  0.1766627E-003  0.9118800E+02  0.7818608E-02  0.1130116E+00
         25   -1    0    0    0    0  0.00000000000E+00  0.00000000000E+00  0.99999998245E-14  0.12500000000E+03  0.12500000000E+03 0.  0.
        -13    1    3    3    0    0 -0.91894902669E+01 -0.28966197517E+02  0.41036735188E+02  0.51063804489E+02  0.10566000000E+00 0.  1.
         23    2    1    0    0    0 -0.27532621432E+02 -0.83943542095E+00  0.22586420997E+02  0.89378429173E+02  0.81973210827E+02 0.  0.
         13    1    3    3    0    0 -0.18343131165E+02  0.28126762096E+02 -0.18450314191E+02  0.38314624684E+02  0.10566000000E+00 0. -1.
         22    1    1    0    0    0  0.27532621432E+02  0.83943542095E+00 -0.22586420997E+02  0.35621570827E+02  0.00000000000E+00 0.  1.
</event>
<event>
 5    1  0.1766627E-003  0.9118800E+02  0.7818608E-02  0.1130116E+00
         25   -1    0    0    0    0  0.00000000000E+00  0.00000000000E+00  0.99999998245E-14  0.12500000000E+03  0.12500000000E+03 0.  0.
        -13    1    3    3    0    0 -0.39318469375E+02  0.23018028673E+02  0.20827690492E+02  0.50095663817E+02  0.10566000000E+00 0. -1.
         23    2    1    0    0    0 -0.24442555603E+02 -0.14748320806E+02 -0.14836916913E+01  0.96414114811E+02  0.92078926486E+02 0.  0.
         13    1    3    3    0    0  0.14875913772E+02 -0.37766349479E+02 -0.22311382183E+02  0.46318450994E+02  0.10566000000E+00 0.  1.
         22    1    1    0    0    0  0.24442555603E+02  0.14748320806E+02  0.14836916913E+01  0.28585885189E+02  0.00000000000E+00 0. -1.
</event>
<event>
 5    1  0.1766627E-003  0.9118800E+02  0.7818608E-02  0.1130116E+00
         25   -1    0    0    0    0  0.00000000000E+00  0.00000000000E+00  0.99999998245E-14  0.12500000000E+03  0.12500000000E+03 0.  0.
        -13    1    3    3    0    0  0.29147242833E+02 -0.31382919291E+02 -0.20651082472E+01  0.42880359422E+02  0.10566000000E+00 0.  1.
         23    2    1    0    0    0  0.19324862356E+02  0.98533741480E+01  0.24005391319E+02  0.92645740627E+02  0.86812643991E+02 0.  0.
         13    1    3    3    0    0 -0.98223804768E+01  0.41236293439E+02  0.26070499566E+02  0.49765381206E+02  0.10566000000E+00 0. -1.
         22    1    1    0    0    0 -0.19324862356E+02 -0.98533741480E+01 -0.24005391319E+02  0.32354259373E+02  0.00000000000E+00 0.  1.
</event>
<event>
 5    1  0.1766627E-003  0.9118800E+02  0.7818608E-02  0.1130116E+00
         25   -1    0    0    0    0  0.00000000000E+00  0.00000000000E+00  0.99999998245E-14  0.12500000000E+03  0.12500000000E+03 0.  0.
        -13    1    3    3    0    0 -0.41300299223E+01 -0.42172801623E+01 -0.42688682760E+02  0.43094981134E+02  0.10566000000E+00 0.  1.
         23    2    1    0    0    0  0.25041905613E+02  0.15373242649E+02 -0.40249468105E+01  0.95341378604E+02  0.90610952158E+02 0.  0.
         13    1    3    3    0    0  0.29171935536E+02  0.19590522811E+02  0.38663735950E+02  0.52246397470E+02  0.10566000000E+00 0. -1.
         22    1    1    0    0    0 -0.25041905613E+02 -0.15373242649E+02  0.40249468105E+01  0.29658621396E+02  0.00000000000E+00 0. -1.
</event>
<event>
 5    1  0.1766627E-003  0.9118800E+02  0.7818608E-02  0.1130116E+00
         25   -1    0    0    0    0  0.00000000000E+00  0.00000000000E+00  0.99999998245E-14  0.12500000000E+03  0.12500000000E+03 0.  0.
        -13    1    3    3    0    0 -0.46396529989E+02  0.48503481749E+01  0.32775029895E+02  0.57012083115E+02  0.10566000000E+00 0. -1.
         23    2    1    0    0    0 -0.74583252975E+01  0.11004867401E+02  0.24249982883E+02  0.97345065674E+02  0.93334165333E+02 0.  0.
         13    1    3    3    0    0  0.38938204692E+02  0.61545192259E+01 -0.85250470118E+01  0.40332982559E+02  0.10566000000E+00 0.  1.
         22    1    1    0    0    0  0.74583252975E+01 -0.11004867401E+02 -0.24249982883E+02  0.27654934326E+02  0.00000000000E+00 0. -1.
</event>
<event>
 5    1  0.1766627E-003  0.9118800E+02  0.7818608E-02  0.1130116E+00
         25   -1    0    0    0    0  0.00000000000E+00  0.00000000000E+00  0.99999998245E-14  0.12500000000E+03  0.12500000000E+03 0.  0.
        -13    1    3    3    0    0 -0.41647709605E+02  0.92431851013E+01  0.16475624641E+02  0.45732106419E+02  0.10566000000E+00 0.  1.
         23    2    1    0    0    0  0.32029133189E+01  0.28534102261E+02  0.60649498927E+01  0.95653155829E+02  0.91040040407E+02 0.  0.
         13    1    3    3    0    0  0.44850622924E+02  0.19290917160E+02 -0.10410674749E+02  0.49921049411E+02  0.10566000000E+00 0. -1.
         22    1    1    0    0    0 -0.32029133189E+01 -0.28534102261E+02 -0.60649498927E+01  0.29346844171E+02  0.00000000000E+00 0.  1.
</event>
<event>
 5    1  0.1766627E-003  0.9118800E+02  0.7818608E-02  0.1130116E+00
         25   -1    0    0    0    0  0.00000000000E+00  0.00000000000E+00  0.99999998245E-14  0.12500000000E+03  0.12500000000E+03 0.  0.
        -13    1    3    3    0    0 -0.55865416438E+01  0.28777808223E+02  0.45684798459E+02  0.54281522344E+02  0.10566000000E+00 0. -1.
         23    2    1    0    0    0  0.63883318028E+01 -0.77334809739E+01  0.25311157672E+02  0.97773685268E+02  0.93906449816E+02 0.  0.
         13    1    3    3    0    0  0.11974873447E+02 -0.36511289197E+02 -0.20373640788E+02  0.43492162924E+02  0.10566000000E+00 0.  1.
         22    1    1    0    0    0 -0.63883318028E+01  0.77334809739E+01 -0.25311157672E+02  0.27226314732E+02  0.00000000000E+00 0. -1.
</event>
<event>
 5    1  0.1766627E-003  0.9118800E+02  0.7818608E-02  0.1130116E+00
         25   -1    0    0    0    0  0.00000000000E+00  0.00000000000E+00  0.99999998245E-14  0.12500000000E+03  0.12500000000E+03 0.  0.
        -13    1    3    3    0    0 -0.29191482624E+02  0.17313268312E+02  0.16608768753E+01  0.33980311850E+02  0.10566000000E+00 0. -1.
         23    2    1    0    0    0  0.27141339112E+02 -0.51415390255E+01 -0.97845488195E+01  0.95694281992E+02  0.91096490042E+02 0.  0.
         13    1    3    3    0    0  0.56332821736E+02 -0.22454807338E+02 -0.11445425695E+02  0.61713970142E+02  0.10566000000E+00 0.  1.
         22    1    1    0    0    0 -0.27141339112E+02  0.51415390255E+01  0.97845488195E+01  0.29305718008E+02  0.00000000000E+00 0.  1.
</event>
<event>
 5    1  0.1766627E-003  0.9118800E+02  0.7818608E-02  0.1130116E+00
         25   -1    0    0    0    0  0.00000000000E+00  0.00000000000E+00  0.99999998245E-14  0.12500000000E+03  0.12500000000E+03 0.  0.
        -13    1    3    3    0    0  0.15502792096E+02  0.14011099704E+02 -0.19482931692E+02  0.28569971457E+02  0.10566000000E+00 0. -1.
         23    2    1    0    0    0  0.10623970972E+02  0.45163666311E+02  0.15890834179E+02  0.75957731244E+02  0.58003731009E+02 0.  0.
         13    1    3    3    0    0 -0.48788211237E+01  0.31152566606E+02  0.35373765871E+02  0.47387759787E+02  0.10566000000E+00 0.  1.
         22    1    1    0    0    0 -0.10623970972E+02 -0.45163666311E+02 -0.15890834179E+02  0.49042268756E+02  0.00000000000E+00 0.  1.
</event>
<event>
 5    1  0.1766627E-003  0.9118800E+02  0.7818608E-02  0.1130116E+00
         25   -1    0    0    0    0  0.00000000000E+00  0.00000000000E+00  0.99999998245E-14  0.12500000000E+03  0.12500000000E+03 0.  0.
        -13    1    3    3    0    0  0.23344734877E+02 -0.43120315770E+01  0.45244528354E+02  0.51094508245E+02  0.10566000000E+00 0.  1.
         23    2    1    0    0    0  0.15507220454E+02  0.23282270473E+02  0.13310285376E+02  0.94020947378E+02  0.88770698119E+02 0.  0.
         13    1    3    3    0    0 -0.78375144234E+01  0.27594302050E+02 -0.31934242978E+02  0.42926439133E+02  0.10566000000E+00 0. -1.
         22    1    1    0    0    0 -0.15507220454E+02 -0.23282270473E+02 -0.13310285376E+02  0.30979052622E+02  0.00000000000E+00 0.  1.
</event>
<event>
 5    1  0.1766627E-003  0.9118800E+02  0.7818608E-02  0.1130116E+00
         25   -1    0    0    0    0  0.00000000000E+00  0.00000000000E+00  0.99999998245E-14  0.12500000000E+03  0.12500000000E+03 0.  0.
        -13    1    3    3    0    0 -0.15258614180E+02 -0.39999551447E+02 -0.12009883391E+02  0.44463894181E+02  0.10566000000E+00 0.  1.
         23    2    1    0    0    0  0.23806871105E+02 -0.19980609136E+02  0.82992091121E+01  0.92830624421E+02  0.87078447995E+02 0.  0.
         13    1    3    3    0    0  0.39065485285E+02  0.20018942311E+02  0.20309092503E+02  0.48366730240E+02  0.10566000000E+00 0. -1.
         22    1    1    0    0    0 -0.23806871105E+02  0.19980609136E+02 -0.82992091121E+01  0.32169375579E+02  0.00000000000E+00 0.  1.
</event>
<event>
 5    1  0.1766627E-003  0.9118800E+02  0.7818608E-02  0.1130116E+00
         25   -1    0    0    0    0  0.00000000000E+00  0.00000000000E+00  0.99999998245E-14  0.12500000000E+03  0.12500000000E+03 0.  0.
        -13    1    3    3    0    0  0.38086359994E+01  0.52472467600E+02 -0.31573609865E+02  0.61357718082E+02  0.10566000000E+00 0. -1.
         23    2    1    0    0    0  0.43981509949E+01  0.29410521593E+02 -0.83042124763E+01  0.94124727412E+02  0.88916713013E+02 0.  0.
         13    1    3    3    0    0  0.58951499555E+00 -0.23061946008E+02  0.23269397389E+02  0.32767009331E+02  0.10566000000E+00 0.  1.
         22    1    1    0    0    0 -0.43981509949E+01 -0.29410521593E+02  0.83042124763E+01  0.30875272588E+02  0.00000000000E+00 0. -1.
</event>
<event>
 5    1  0.1766627E-003  0.9118800E+02  0.7818608E-02  0.1130116E+00
         25   -1    0    0    0    0  0.00000000000E+00  0.00000000000E+00  0.99999998245E-14  0.12500000000E+03  0.12500000000E+03 0.  0.
        -13    1    3    3    0    0 -0.12665340025E+02  0.17457234228E+02 -0.29308447621E+02  0.36389038608E+02  0.10566000000E+00 0. -1.
         23    2    1    0    0    0  0.24769041779E+02 -0.44330498819E+01  0.12742897344E+02  0.96794702720E+02  0.92594144956E+02 0.  0.
         13    1    3    3    0    0  0.37434381804E+02 -0.21890284110E+02  0.42051344965E+02  0.60405664112E+02  0.10566000000E+00 0.  1.
         22    1    1    0    0    0 -0.24769041779E+02  0.44330498819E+01 -0.12742897344E+02  0.28205297280E+02  0.00000000000E+00 0.  1.
</event>
<event>
 5    1  0.1766627E-003  0.9118800E+02  0.7818608E-02  0.1130116E+00
         25   -1    0    0    0    0  0.00000000000E+00  0.00000000000E+00  0.99999998245E-14  0.12500000000E+03  0.12500000000E+03 0.  0.
        -13    1    3    3    0    0 -0.17646829794E+02 -0.28261840102E+02  0.35461547270E+02  0.48658757758E+02  0.10566000000E+00 0. -1.
         23    2    1    0    0    0  0.13241145943E+01 -0.29694458972E+02 -0.63589520424E+01  0.94603446837E+02  0.89587173799E+02 0.  0.
         13    1    3    3    0    0  0.18970944388E+02 -0.14326188703E+01 -0.41820499313E+02  0.45944689079E+02  0.10566000000E+00 0.  1.
         22    1    1    0    0    0 -0.13241145943E+01  0.29694458972E+02  0.63589520424E+01  0.30396553163E+02  0.00000000000E+00 0. -1.
</event>
<event>
 5    1  0.1766627E-003  0.9118800E+02  0.7818608E-02  0.1130116E+00
         25   -1    0    0    0    0  0.00000000000E+00  0.00000000000E+00  0.99999998245E-14  0.12500000000E+03  0.12500000000E+03 0.  0.
        -13    1    3    3    0    0 -0.25688887886E+02 -0.20328125605E+02  0.17786659485E+02  0.37276374168E+02  0.10566000000E+00 0.  1.
         23    2    1    0    0    0  0.23915273265E+02  0.96501245757E+01  0.14695345954E+02  0.95318046015E+02  0.90578758568E+02 0.  0.
         13    1    3    3    0    0  0.49604161151E+02  0.29978250181E+02 -0.30913135315E+01  0.58041671847E+02  0.10566000000E+00 0. -1.
         22    1    1    0    0    0 -0.23915273265E+02 -0.96501245757E+01 -0.14695345954E+02  0.29681953985E+02  0.00000000000E+00 0. -1.
</event>
<event>
 5    1  0.1766627E-003  0.9118800E+02  0.7818608E-02  0.1130116E+00
         25   -1    0    0    0    0  0.00000000000E+00  0.00000000000E+00  0.99999998245E-14  0.12500000000E+03  0.12500000000E+03 0.  0.
        -13    1    3    3    0    0 -0.58526390582E+02 -0.43401591646E+00 -0.11055215349E+02  0.59563039839E+02  0.10566000000E+00 0. -1.
         23    2    1    0    0    0 -0.23751153507E+02 -0.57502612525E+00 -0.18208468809E+02  0.95066802972E+02  0.90231373385E+02 0.  0.
         13    1    3    3    0    0  0.34775237075E+02 -0.14101020879E+00 -0.71532534601E+01  0.35503763133E+02  0.10566000000E+00 0.  1.
         22    1    1    0    0    0  0.23751153507E+02  0.57502612525E+00  0.18208468809E+02  0.29933197028E+02  0.00000000000E+00 0. -1.
</event>
<event>
 5    1  0.1766627E-003  0.9118800E+02  0.7818608E-02  0.1130116E+00
         25   -1    0    0    0    0  0.00000000000E+00  0.00000000000E+00  0.99999998245E-14  0.12500000000E+03  0.12500000000E+03 0.  0.
        -13    1    3    3    0    0 -0.43864517789E+02  0.18990327508E+02  0.27726117691E+02  0.55258277443E+02  0.10566000000E+00 0.  1.
         23    2    1    0    0    0 -0.26389282585E+02 -0.19910741613E+01 -0.51957333896E+01  0.98030493940E+02  0.94247670979E+02 0.  0.
         13    1    3    3    0    0  0.17475235204E+02 -0.20981401669E+02 -0.32921851080E+02  0.42772216497E+02  0.10566000000E+00 0. -1.
         22    1    1    0    0    0  0.26389282585E+02  0.19910741613E+01  0.51957333896E+01  0.26969506060E+02  0.00000000000E+00 0.  1.
</event>
<event>
 5    1  0.1766627E-003  0.9118800E+02  0.7818608E-02  0.1130116E+00
         25   -1    0    0    0    0  0.00000000000E+00  0.00000000000E+00  0.99999998245E-14  0.12500000000E+03  0.12500000000E+03 0.  0.
        -13    1    3    3    0    0 -0.19899520738E+02 -0.25619905438E+02 -0.10647249251E+02  0.34143016283E+02  0.10566000000E+00 0.  1.
         23    2    1    0    0    0  0.13440349808E+02  0.91704296210E+01  0.25756453473E+02  0.94534697147E+02  0.89491196700E+02 0.  0.
         13    1    3    3    0    0  0.33339870546E+02  0.34790335059E+02  0.36403702724E+02  0.60391680864E+02  0.10566000000E+00 0. -1.
         22    1    1    0    0    0 -0.13440349808E+02 -0.91704296210E+01 -0.25756453473E+02  0.30465302853E+02  0.00000000000E+00 0. -1.
</event>
<event>
 5    1  0.1766627E-003  0.9118800E+02  0.7818608E-02  0.1130116E+00
         25   -1    0    0    0    0  0.00000000000E+00  0.00000000000E+00  0.99999998245E-14  0.12500000000E+03  0.12500000000E+03 0.  0.
        -13    1    3    3    0    0 -0.40400976155E+02 -0.45312236854E+01 -0.36731959454E+02  0.54790682344E+02  0.10566000000E+00 0. -1.
         23    2    1    0    0    0 -0.42443029047E+02  0.56434562001E+01 -0.13712864139E+02  0.80041108160E+02  0.66221424329E+02 0.  0.
         13    1    3    3    0    0 -0.20420528916E+01  0.10174679886E+02  0.23019095314E+02  0.25250425816E+02  0.10566000000E+00 0.  1.
         22    1    1    0    0    0  0.42443029047E+02 -0.56434562001E+01  0.13712864139E+02  0.44958891840E+02  0.00000000000E+00 0. -1.
</event>
<event>
 5    1  0.1766627E-003  0.9118800E+02  0.7818608E-02  0.1130116E+00
         25   -1    0    0    0    0  0.00000000000E+00  0.00000000000E+00  0.99999998245E-14  0.12500000000E+03  0.12500000000E+03 0.  0.
        -13    1    3    3    0    0  0.31387935732E+02  0.11455579024E+02 -0.49458882801E+01  0.33777296743E+02  0.10566000000E+00 0.  1.
         23    2    1    0    0    0 -0.25336950345E+02 -0.13934209625E+02 -0.25619123932E+01  0.95970934466E+02  0.91475316979E+02 0.  0.
         13    1    3    3    0    0 -0.56724886078E+02 -0.25389788650E+02  0.23839758869E+01  0.62193637723E+02  0.10566000000E+00 0. -1.
         22    1    1    0    0    0  0.25336950345E+02  0.13934209625E+02  0.25619123932E+01  0.29029065534E+02  0.00000000000E+00 0. -1.
</event>
<event>
 5    1  0.1766627E-003  0.9118800E+02  0.7818608E-02  0.1130116E+00
         25   -1    0    0    0    0  0.00000000000E+00  0.00000000000E+00  0.99999998245E-14  0.12500000000E+03  0.12500000000E+03 0.  0.
        -13    1    3    3    0    0  0.76469942653E+01  0.34452863072E+02 -0.20316600970E+01  0.35349895359E+02  0.10566000000E+00 0. -1.
         23    2    1    0    0    0 -0.25702286674E+02 -0.13073812997E+02 -0.11075091847E+02  0.94110037456E+02  0.88896059327E+02 0.  0.
         13    1    3    3    0    0 -0.33349280939E+02 -0.47526676069E+02 -0.90434317502E+01  0.58760142096E+02  0.10566000000E+00 0.  1.
         22    1    1    0    0    0  0.25702286674E+02  0.13073812997E+02  0.11075091847E+02  0.30889962544E+02  0.00000000000E+00 0.  1.
</event>
<event>
 5    1  0.1766627E-003  0.9118800E+02  0.7818608E-02  0.1130116E+00
         25   -1    0    0    0    0  0.00000000000E+00  0.00000000000E+00  0.99999998245E-14  0.12500000000E+03  0.12500000000E+03 0.  0.
        -13    1    3    3    0    0  0.20140147563E+02  0.72545420106E+01  0.33235875629E+02  0.39533384835E+02  0.10566000000E+00 0.  1.
         23    2    1    0    0    0 -0.26724808885E+02  0.99557811921E+01  0.10289422489E+01  0.96462450854E+02  0.92144520800E+02 0.  0.
         13    1    3    3    0    0 -0.46864956448E+02  0.27012391816E+01 -0.32206933380E+02  0.56929066019E+02  0.10566000000E+00 0. -1.
         22    1    1    0    0    0  0.26724808885E+02 -0.99557811921E+01 -0.10289422489E+01  0.28537549146E+02  0.00000000000E+00 0. -1.
</event>
<event>
 5    1  0.1766627E-003  0.9118800E+02  0.7818608E-02  0.1130116E+00
         25   -1    0    0    0    0  0.00000000000E+00  0.00000000000E+00  0.99999998245E-14  0.12500000000E+03  0.12500000000E+03 0.  0.
        -13    1    3    3    0    0 -0.14901512443E+02  0.23032874176E+02 -0.13834609580E+02  0.30724191643E+02  0.10566000000E+00 0. -1.
         23    2    1    0    0    0  0.70619390159E+01 -0.28113121075E+02  0.13830892660E+02  0.92882837127E+02  0.87153366440E+02 0.  0.
         13    1    3    3    0    0  0.21963451458E+02 -0.51145995251E+02  0.27665502240E+02  0.62158645484E+02  0.10566000000E+00 0.  1.
         22    1    1    0    0    0 -0.70619390159E+01  0.28113121075E+02 -0.13830892660E+02  0.32117162873E+02  0.00000000000E+00 0.  1.
</event>
<event>
 5    1  0.1766627E-003  0.9118800E+02  0.7818608E-02  0.1130116E+00
         25   -1    0    0    0    0  0.00000000000E+00  0.00000000000E+00  0.99999998245E-14  0.12500000000E+03  0.12500000000E+03 0.  0.
        -13    1    3    3    0    0 -0.42885516479E+02 -0.15590271260E+02 -0.76800977342E+01  0.46273309228E+02  0.10566000000E+00 0. -1.
         23    2    1    0    0    0  0.30315102165E+01 -0.19285370154E-02 -0.26528597617E+02  0.98298753785E+02  0.94602793015E+02 0.  0.
         13    1    3    3    0    0  0.45917026696E+02  0.15588342723E+02 -0.18848499883E+02  0.52025444557E+02  0.10566000000E+00 0.  1.
         22    1    1    0    0    0 -0.30315102165E+01  0.19285370154E-02  0.26528597617E+02  0.26701246215E+02  0.00000000000E+00 0. -1.
</event>
<event>
 5    1  0.1766627E-003  0.9118800E+02  0.7818608E-02  0.1130116E+00
         25   -1    0    0    0    0  0.00000000000E+00  0.00000000000E+00  0.99999998245E-14  0.12500000000E+03  0.12500000000E+03 0.  0.
        -13    1    3    3    0    0 -0.86625814000E+01 -0.49393574897E+02 -0.30792613091E+02  0.58846934862E+02  0.10566000000E+00 0.  1.
         23    2    1    0    0    0  0.81670571663E+01 -0.27309162080E+02 -0.64450980704E+01  0.95776200702E+02  0.91208827290E+02 0.  0.
         13    1    3    3    0    0  0.16829638566E+02  0.22084412818E+02  0.24347515021E+02  0.36929265840E+02  0.10566000000E+00 0. -1.
         22    1    1    0    0    0 -0.81670571663E+01  0.27309162080E+02  0.64450980704E+01  0.29223799298E+02  0.00000000000E+00 0.  1.
</event>
<event>
 5    1  0.1766627E-003  0.9118800E+02  0.7818608E-02  0.1130116E+00
         25   -1    0    0    0    0  0.00000000000E+00  0.00000000000E+00  0.99999998245E-14  0.12500000000E+03  0.12500000000E+03 0.  0.
        -13    1    3    3    0    0 -0.21709483655E+02  0.34765040535E+02  0.26718978601E+02  0.48926727925E+02  0.10566000000E+00 0. -1.
         23    2    1    0    0    0 -0.96451117490E+01 -0.11486361563E+02  0.23867710594E+02  0.96810777031E+02  0.92615842369E+02 0.  0.
         13    1    3    3    0    0  0.12064371906E+02 -0.46251402098E+02 -0.28512680071E+01  0.47884049106E+02  0.10566000000E+00 0.  1.
         22    1    1    0    0    0  0.96451117490E+01  0.11486361563E+02 -0.23867710594E+02  0.28189222969E+02  0.00000000000E+00 0.  1.
</event>
<event>
 5    1  0.1766627E-003  0.9118800E+02  0.7818608E-02  0.1130116E+00
         25   -1    0    0    0    0  0.00000000000E+00  0.00000000000E+00  0.99999998245E-14  0.12500000000E+03  0.12500000000E+03 0.  0.
        -13    1    3    3    0    0  0.15658012568E+02 -0.20475621973E+02  0.20961077141E+02  0.33223521363E+02  0.10566000000E+00 0. -1.
         23    2    1    0    0    0 -0.69287978856E+01  0.16574566427E+02 -0.23546469376E+02  0.95383100897E+02  0.90668490802E+02 0.  0.
         13    1    3    3    0    0 -0.22586810454E+02  0.37050188399E+02 -0.44507546517E+02  0.62159579535E+02  0.10566000000E+00 0.  1.
         22    1    1    0    0    0  0.69287978856E+01 -0.16574566427E+02  0.23546469376E+02  0.29616899103E+02  0.00000000000E+00 0.  1.
</event>
<event>
 5    1  0.1766627E-003  0.9118800E+02  0.7818608E-02  0.1130116E+00
         25   -1    0    0    0    0  0.00000000000E+00  0.00000000000E+00  0.99999998245E-14  0.12500000000E+03  0.12500000000E+03 0.  0.
        -13    1    3    3    0    0  0.42696864614E+01  0.35622968717E+02  0.25679473028E+02  0.44121113106E+02  0.10566000000E+00 0. -1.
         23    2    1    0    0    0 -0.13945019454E+02  0.18721342815E+02 -0.18770639526E+02  0.95045214864E+02  0.90201461828E+02 0.  0.
         13    1    3    3    0    0 -0.18214705915E+02 -0.16901625902E+02 -0.44450112554E+02  0.50924101757E+02  0.10566000000E+00 0.  1.
         22    1    1    0    0    0  0.13945019454E+02 -0.18721342815E+02  0.18770639526E+02  0.29954785136E+02  0.00000000000E+00 0.  1.
</event>
<event>
 5    1  0.1766627E-003  0.9118800E+02  0.7818608E-02  0.1130116E+00
         25   -1    0    0    0    0  0.00000000000E+00  0.00000000000E+00  0.99999998245E-14  0.12500000000E+03  0.12500000000E+03 0.  0.
        -13    1    3    3    0    0 -0.20243584530E+02  0.36134976145E+02 -0.29674883791E+02  0.50952420037E+02  0.10566000000E+00 0. -1.
         23    2    1    0    0    0 -0.25343260178E+02 -0.54602250403E+01 -0.10732636597E+02  0.96941411613E+02  0.92791987280E+02 0.  0.
         13    1    3    3    0    0 -0.50996756478E+01 -0.41595201185E+02  0.18942247194E+02  0.45988991576E+02  0.10566000000E+00 0.  1.
         22    1    1    0    0    0  0.25343260178E+02  0.54602250403E+01  0.10732636597E+02  0.28058588387E+02  0.00000000000E+00 0.  1.
</event>
<event>
 5    1  0.1766627E-003  0.9118800E+02  0.7818608E-02  0.1130116E+00
         25   -1    0    0    0    0  0.00000000000E+00  0.00000000000E+00  0.99999998245E-14  0.12500000000E+03  0.12500000000E+03 0.  0.
        -13    1    3    3    0    0  0.66263638444E+01  0.16265410002E+02  0.34922177517E+02  0.39090176604E+02  0.10566000000E+00 0.  1.
         23    2    1    0    0    0  0.10817072067E+02 -0.27212076264E+02 -0.10839067563E+01  0.95696740854E+02  0.91099863960E+02 0.  0.
         13    1    3    3    0    0  0.41907082230E+01 -0.43477486267E+02 -0.36006084273E+02  0.56606564250E+02  0.10566000000E+00 0. -1.
         22    1    1    0    0    0 -0.10817072067E+02  0.27212076264E+02  0.10839067563E+01  0.29303259146E+02  0.00000000000E+00 0. -1.
</event>
<event>
 5    1  0.1766627E-003  0.9118800E+02  0.7818608E-02  0.1130116E+00
         25   -1    0    0    0    0  0.00000000000E+00  0.00000000000E+00  0.99999998245E-14  0.12500000000E+03  0.12500000000E+03 0.  0.
        -13    1    3    3    0    0 -0.20849397885E+02 -0.26227066909E+02  0.43035941537E+02  0.54540442415E+02  0.10566000000E+00 0.  1.
         23    2    1    0    0    0 -0.24573707831E+02 -0.15380561904E+02  0.33894470498E+01  0.95812380152E+02  0.91258397082E+02 0.  0.
         13    1    3    3    0    0 -0.37243099466E+01  0.10846505004E+02 -0.39646494488E+02  0.41271937737E+02  0.10566000000E+00 0. -1.
         22    1    1    0    0    0  0.24573707831E+02  0.15380561904E+02 -0.33894470498E+01  0.29187619848E+02  0.00000000000E+00 0.  1.
</event>
<event>
 5    1  0.1766627E-003  0.9118800E+02  0.7818608E-02  0.1130116E+00
         25   -1    0    0    0    0  0.00000000000E+00  0.00000000000E+00  0.99999998245E-14  0.12500000000E+03  0.12500000000E+03 0.  0.
        -13    1    3    3    0    0 -0.21735135878E+02 -0.12015147440E+02  0.26031890453E+02  0.35978471121E+02  0.10566000000E+00 0.  1.
         23    2    1    0    0    0  0.28155702893E+02 -0.20454285122E+01 -0.60538719038E+01  0.96128270779E+02  0.91690063228E+02 0.  0.
         13    1    3    3    0    0  0.49890838771E+02  0.99697189283E+01 -0.32085762356E+02  0.60149799657E+02  0.10566000000E+00 0. -1.
         22    1    1    0    0    0 -0.28155702893E+02  0.20454285122E+01  0.60538719038E+01  0.28871729221E+02  0.00000000000E+00 0. -1.
</event>
<event>
 5    1  0.1766627E-003  0.9118800E+02  0.7818608E-02  0.1130116E+00
         25   -1    0    0    0    0  0.00000000000E+00  0.00000000000E+00  0.99999998245E-14  0.12500000000E+03  0.12500000000E+03 0.  0.
        -13    1    3    3    0    0  0.18769704806E+02 -0.23078454426E+02  0.26604275389E+02  0.39908840001E+02  0.10566000000E+00 0.  1.
         23    2    1    0    0    0  0.20712932438E+02  0.18549146411E+02 -0.10076599715E+02  0.95425783788E+02  0.90727316432E+02 0.  0.
         13    1    3    3    0    0  0.19432276323E+01  0.41627600837E+02 -0.36680875104E+02  0.55516943787E+02  0.10566000000E+00 0. -1.
         22    1    1    0    0    0 -0.20712932438E+02 -0.18549146411E+02  0.10076599715E+02  0.29574216212E+02  0.00000000000E+00 0.  1.
</event>
<event>
 5    1  0.1766627E-003  0.9118800E+02  0.7818608E-02  0.1130116E+00
         25   -1    0    0    0    0  0.00000000000E+00  0.00000000000E+00  0.99999998245E-14  0.12500000000E+03  0.12500000000E+03 0.  0.
        -13    1    3    3    0    0 -0.22338561450E+02  0.26622962851E+02  0.17738041237E+01  0.34798721582E+02  0.10566000000E+00 0. -1.
         23    2    1    0    0    0  0.12382131809E+02 -0.20002198488E+02 -0.17098104267E+02  0.95918213569E+02  0.91403246070E+02 0.  0.
         13    1    3    3    0    0  0.34720693259E+02 -0.46625161339E+02 -0.18871908391E+02  0.61119491987E+02  0.10566000000E+00 0.  1.
         22    1    1    0    0    0 -0.12382131809E+02  0.20002198488E+02  0.17098104267E+02  0.29081786431E+02  0.00000000000E+00 0.  1.
</event>
<event>
 5    1  0.1766627E-003  0.9118800E+02  0.7818608E-02  0.1130116E+00
         25   -1    0    0    0    0  0.00000000000E+00  0.00000000000E+00  0.99999998245E-14  0.12500000000E+03  0.12500000000E+03 0.  0.
        -13    1    3    3    0    0 -0.15347104872E+02 -0.27274204842E+02  0.36547362128E+02  0.48115867656E+02  0.10566000000E+00 0.  1.
         23    2    1    0    0    0  0.10799210191E+01  0.16539005354E+02  0.22661185359E+02  0.96924490220E+02  0.92769189686E+02 0.  0.
         13    1    3    3    0    0  0.16427025891E+02  0.43813210196E+02 -0.13886176769E+02  0.48808622564E+02  0.10566000000E+00 0. -1.
         22    1    1    0    0    0 -0.10799210191E+01 -0.16539005354E+02 -0.22661185359E+02  0.28075509780E+02  0.00000000000E+00 0. -1.
</event>
<event>
 5    1  0.1766627E-003  0.9118800E+02  0.7818608E-02  0.1130116E+00
         25   -1    0    0    0    0  0.00000000000E+00  0.00000000000E+00  0.99999998245E-14  0.12500000000E+03  0.12500000000E+03 0.  0.
        -13    1    3    3    0    0 -0.23879486203E+02 -0.44352631548E+02 -0.32248502738E+02  0.59811059842E+02  0.10566000000E+00 0. -1.
         23    2    1    0    0    0 -0.21666679996E+02 -0.18942325545E+02 -0.77083581351E+01  0.95206116328E+02  0.90424162048E+02 0.  0.
         13    1    3    3    0    0  0.22128062071E+01  0.25410306003E+02  0.24540144603E+02  0.35395056486E+02  0.10566000000E+00 0.  1.
         22    1    1    0    0    0  0.21666679996E+02  0.18942325545E+02  0.77083581351E+01  0.29793883672E+02  0.00000000000E+00 0. -1.
</event>
<event>
 5    1  0.1766627E-003  0.9118800E+02  0.7818608E-02  0.1130116E+00
         25   -1    0    0    0    0  0.00000000000E+00  0.00000000000E+00  0.99999998245E-14  0.12500000000E+03  0.12500000000E+03 0.  0.
        -13    1    3    3    0    0  0.35630602665E+02 -0.91358599287E+01  0.11296242066E+02  0.38478825759E+02  0.10566000000E+00 0. -1.
         23    2    1    0    0    0 -0.20638303682E+02 -0.28698342314E+01  0.20419320833E+02  0.95825967185E+02  0.91277005846E+02 0.  0.
         13    1    3    3    0    0 -0.56268906347E+02  0.62660256974E+01  0.91230787670E+01  0.57347141426E+02  0.10566000000E+00 0.  1.
         22    1    1    0    0    0  0.20638303682E+02  0.28698342314E+01 -0.20419320833E+02  0.29174032815E+02  0.00000000000E+00 0.  1.
</event>
<event>
 5    1  0.1766627E-003  0.9118800E+02  0.7818608E-02  0.1130116E+00
         25   -1    0    0    0    0  0.00000000000E+00  0.00000000000E+00  0.99999998245E-14  0.12500000000E+03  0.12500000000E+03 0.  0.
        -13    1    3    3    0    0 -0.23661980263E+02  0.29687123860E+02  0.42066407294E+02  0.56663995797E+02  0.10566000000E+00 0.  1.
         23    2    1    0    0    0 -0.62650143876E+01  0.28542334135E+02  0.83710566646E+01  0.94602798931E+02  0.89586269779E+02 0.  0.
         13    1    3    3    0    0  0.17396965876E+02 -0.11447897257E+01 -0.33695350629E+02  0.37938803134E+02  0.10566000000E+00 0. -1.
         22    1    1    0    0    0  0.62650143876E+01 -0.28542334135E+02 -0.83710566646E+01  0.30397201069E+02  0.00000000000E+00 0.  1.
</event>
<event>
 5    1  0.1766627E-003  0.9118800E+02  0.7818608E-02  0.1130116E+00
         25   -1    0    0    0    0  0.00000000000E+00  0.00000000000E+00  0.99999998245E-14  0.12500000000E+03  0.12500000000E+03 0.  0.
        -13    1    3    3    0    0  0.21676981727E+02 -0.45215879541E+02  0.25756139216E+02  0.56371598973E+02  0.10566000000E+00 0. -1.
         23    2    1    0    0    0 -0.85925602860E+01 -0.18949952591E+02  0.18618316702E+02  0.97079138404E+02  0.92977333802E+02 0.  0.
         13    1    3    3    0    0 -0.30269542013E+02  0.26265926950E+02 -0.71378225136E+01  0.40707539431E+02  0.10566000000E+00 0.  1.
         22    1    1    0    0    0  0.85925602860E+01  0.18949952591E+02 -0.18618316702E+02  0.27920861596E+02  0.00000000000E+00 0. -1.
</event>
<event>
 5    1  0.1766627E-003  0.9118800E+02  0.7818608E-02  0.1130116E+00
         25   -1    0    0    0    0  0.00000000000E+00  0.00000000000E+00  0.99999998245E-14  0.12500000000E+03  0.12500000000E+03 0.  0.
        -13    1    3    3    0    0  0.29232837816E+02  0.17529621154E+02 -0.30210255965E+02  0.45546867665E+02  0.10566000000E+00 0.  1.
         23    2    1    0    0    0  0.75561351926E+01 -0.24798141124E+02 -0.11156606586E+02  0.96777440712E+02  0.92570838702E+02 0.  0.
         13    1    3    3    0    0 -0.21676702623E+02 -0.42327762278E+02  0.19053649379E+02  0.51230573047E+02  0.10566000000E+00 0. -1.
         22    1    1    0    0    0 -0.75561351926E+01  0.24798141124E+02  0.11156606586E+02  0.28222559288E+02  0.00000000000E+00 0.  1.
</event>
<event>
 5    1  0.1766627E-003  0.9118800E+02  0.7818608E-02  0.1130116E+00
         25   -1    0    0    0    0  0.00000000000E+00  0.00000000000E+00  0.99999998245E-14  0.12500000000E+03  0.12500000000E+03 0.  0.
        -13    1    3    3    0    0 -0.27903482917E+02 -0.93693968394E+01  0.28070871207E+02  0.40674008044E+02  0.10566000000E+00 0.  1.
         23    2    1    0    0    0 -0.35862112734E+01  0.28938030674E+02 -0.30298766147E+01  0.95683610678E+02  0.91081845993E+02 0.  0.
         13    1    3    3    0    0  0.24317271643E+02  0.38307427513E+02 -0.31100747821E+02  0.55009602634E+02  0.10566000000E+00 0. -1.
         22    1    1    0    0    0  0.35862112734E+01 -0.28938030674E+02  0.30298766147E+01  0.29316389322E+02  0.00000000000E+00 0. -1.
</event>
<event>
 5    1  0.1766627E-003  0.9118800E+02  0.7818608E-02  0.1130116E+00
         25   -1    0    0    0    0  0.00000000000E+00  0.00000000000E+00  0.99999998245E-14  0.12500000000E+03  0.12500000000E+03 0.  0.
        -13    1    3    3    0    0  0.27173546373E+02  0.96250162077E+01 -0.52824608714E+02  0.60178841874E+02  0.10566000000E+00 0.  1.
         23    2    1    0    0    0  0.14015055645E+01  0.77216135941E+01 -0.27655409972E+02  0.96252665601E+02  0.91859492706E+02 0.  0.
         13    1    3    3    0    0 -0.25772040808E+02 -0.19034026137E+01  0.25169198742E+02  0.36073823727E+02  0.10566000000E+00 0. -1.
         22    1    1    0    0    0 -0.14015055645E+01 -0.77216135941E+01  0.27655409972E+02  0.28747334399E+02  0.00000000000E+00 0.  1.
</event>
<event>
 5    1  0.1766627E-003  0.9118800E+02  0.7818608E-02  0.1130116E+00
         25   -1    0    0    0    0  0.00000000000E+00  0.00000000000E+00  0.99999998245E-14  0.12500000000E+03  0.12500000000E+03 0.  0.
        -13    1    3    3    0    0 -0.11515912833E+02 -0.26029568100E+02 -0.35975095446E+02  0.45873448968E+02  0.10566000000E+00 0. -1.
         23    2    1    0    0    0  0.79780011208E+01 -0.26811244046E+02  0.95811894966E+01  0.95431596233E+02  0.90735324203E+02 0.  0.
         13    1    3    3    0    0  0.19493913954E+02 -0.78167594587E+00  0.45556284942E+02  0.49558147265E+02  0.10566000000E+00 0.  1.
         22    1    1    0    0    0 -0.79780011208E+01  0.26811244046E+02 -0.95811894966E+01  0.29568403767E+02  0.00000000000E+00 0.  1.
</event>
<event>
 5    1  0.1766627E-003  0.9118800E+02  0.7818608E-02  0.1130116E+00
         25   -1    0    0    0    0  0.00000000000E+00  0.00000000000E+00  0.99999998245E-14  0.12500000000E+03  0.12500000000E+03 0.  0.
        -13    1    3    3    0    0 -0.10026161122E+02 -0.35534906095E+02 -0.23213606138E+01  0.36995315070E+02  0.10566000000E+00 0.  1.
         23    2    1    0    0    0 -0.11700312234E+02  0.21721857406E+02 -0.15618028441E+02  0.95799671099E+02  0.91240987361E+02 0.  0.
         13    1    3    3    0    0 -0.16741511122E+01  0.57256763501E+02 -0.13296667827E+02  0.58804356028E+02  0.10566000000E+00 0. -1.
         22    1    1    0    0    0  0.11700312234E+02 -0.21721857406E+02  0.15618028441E+02  0.29200328901E+02  0.00000000000E+00 0. -1.
</event>
<event>
 5    1  0.1766627E-003  0.9118800E+02  0.7818608E-02  0.1130116E+00
         25   -1    0    0    0    0  0.00000000000E+00  0.00000000000E+00  0.99999998245E-14  0.12500000000E+03  0.12500000000E+03 0.  0.
        -13    1    3    3    0    0  0.36112835244E+02 -0.36968964393E+01 -0.48954355072E+02  0.60945417853E+02  0.10566000000E+00 0. -1.
         23    2    1    0    0    0  0.19817362077E+02  0.38058168522E+01 -0.38024341874E+02  0.81952785728E+02  0.69736621886E+02 0.  0.
         13    1    3    3    0    0 -0.16295473168E+02  0.75027132915E+01  0.10930013198E+02  0.21007367875E+02  0.10566000000E+00 0.  1.
         22    1    1    0    0    0 -0.19817362077E+02 -0.38058168522E+01  0.38024341874E+02  0.43047214272E+02  0.00000000000E+00 0. -1.
</event>
<event>
 5    1  0.1766627E-003  0.9118800E+02  0.7818608E-02  0.1130116E+00
         25   -1    0    0    0    0  0.00000000000E+00  0.00000000000E+00  0.99999998245E-14  0.12500000000E+03  0.12500000000E+03 0.  0.
        -13    1    3    3    0    0 -0.31979259486E+02 -0.55958032245E+01  0.15732428658E+02  0.36076398469E+02  0.10566000000E+00 0.  1.
         23    2    1    0    0    0  0.68401866829E+01  0.19868072473E+02 -0.21012213453E+02  0.95283984590E+02  0.90531741105E+02 0.  0.
         13    1    3    3    0    0  0.38819446169E+02  0.25463875697E+02 -0.36744642111E+02  0.59207586121E+02  0.10566000000E+00 0. -1.
         22    1    1    0    0    0 -0.68401866829E+01 -0.19868072473E+02  0.21012213453E+02  0.29716015410E+02  0.00000000000E+00 0. -1.
</event>
<event>
 5    1  0.1766627E-003  0.9118800E+02  0.7818608E-02  0.1130116E+00
         25   -1    0    0    0    0  0.00000000000E+00  0.00000000000E+00  0.99999998245E-14  0.12500000000E+03  0.12500000000E+03 0.  0.
        -13    1    3    3    0    0  0.61207060335E+01 -0.41425922821E+02 -0.27822886821E+02  0.50276180434E+02  0.10566000000E+00 0.  1.
         23    2    1    0    0    0  0.20481080610E+02 -0.24544451411E+02  0.76744604990E+01  0.92124445221E+02  0.86058766581E+02 0.  0.
         13    1    3    3    0    0  0.14360374577E+02  0.16881471409E+02  0.35497347320E+02  0.41848264788E+02  0.10566000000E+00 0. -1.
         22    1    1    0    0    0 -0.20481080610E+02  0.24544451411E+02 -0.76744604990E+01  0.32875554779E+02  0.00000000000E+00 0.  1.
</event>
<event>
 5    1  0.1766627E-003  0.9118800E+02  0.7818608E-02  0.1130116E+00
         25   -1    0    0    0    0  0.00000000000E+00  0.00000000000E+00  0.99999998245E-14  0.12500000000E+03  0.12500000000E+03 0.  0.
        -13    1    3    3    0    0  0.12571661921E+02 -0.22789438707E+02  0.49440234939E+02  0.55872651583E+02  0.10566000000E+00 0. -1.
         23    2    1    0    0    0  0.22953638437E+02 -0.10073019412E+02  0.11088381077E+02  0.97590377009E+02  0.93662128165E+02 0.  0.
         13    1    3    3    0    0  0.10381976516E+02  0.12716419295E+02 -0.38351853862E+02  0.41717725426E+02  0.10566000000E+00 0.  1.
         22    1    1    0    0    0 -0.22953638437E+02  0.10073019412E+02 -0.11088381077E+02  0.27409622991E+02  0.00000000000E+00 0. -1.
</event>
<event>
 5    1  0.1766627E-003  0.9118800E+02  0.7818608E-02  0.1130116E+00
         25   -1    0    0    0    0  0.00000000000E+00  0.00000000000E+00  0.99999998245E-14  0.12500000000E+03  0.12500000000E+03 0.  0.
        -13    1    3    3    0    0  0.81393596208E+01  0.14826340379E+02 -0.30743721529E+02  0.35089273597E+02  0.10566000000E+00 0. -1.
         23    2    1    0    0    0  0.80465191180E+01 -0.13153122498E+02  0.23944998684E+02  0.96519935686E+02  0.92222469721E+02 0.  0.
         13    1    3    3    0    0 -0.92840502812E-01 -0.27979462877E+02  0.54688720213E+02  0.61430662089E+02  0.10566000000E+00 0.  1.
         22    1    1    0    0    0 -0.80465191180E+01  0.13153122498E+02 -0.23944998684E+02  0.28480064314E+02  0.00000000000E+00 0.  1.
</event>
<event>
 5    1  0.1766627E-003  0.9118800E+02  0.7818608E-02  0.1130116E+00
         25   -1    0    0    0    0  0.00000000000E+00  0.00000000000E+00  0.99999998245E-14  0.12500000000E+03  0.12500000000E+03 0.  0.
        -13    1    3    3    0    0  0.62380332153E+01  0.89455307889E+01  0.39402162060E+02  0.40883702359E+02  0.10566000000E+00 0. -1.
         23    2    1    0    0    0  0.29978235194E+02 -0.12546991924E+02 -0.10592737437E+01  0.92484716631E+02  0.86580477925E+02 0.  0.
         13    1    3    3    0    0  0.23740201979E+02 -0.21492522713E+02 -0.40461435804E+02  0.51601014272E+02  0.10566000000E+00 0.  1.
         22    1    1    0    0    0 -0.29978235194E+02  0.12546991924E+02  0.10592737437E+01  0.32515283369E+02  0.00000000000E+00 0.  1.
</event>
<event>
 5    1  0.1766627E-003  0.9118800E+02  0.7818608E-02  0.1130116E+00
         25   -1    0    0    0    0  0.00000000000E+00  0.00000000000E+00  0.99999998245E-14  0.12500000000E+03  0.12500000000E+03 0.  0.
        -13    1    3    3    0    0  0.33866473627E+02  0.44614023869E+01  0.13452427329E+02  0.36712683262E+02  0.10566000000E+00 0.  1.
         23    2    1    0    0    0 -0.12989631692E+02  0.24704906857E+02 -0.13008206171E+02  0.94205903454E+02  0.89030757963E+02 0.  0.
         13    1    3    3    0    0 -0.46856105319E+02  0.20243504470E+02 -0.26460633499E+02  0.57493220193E+02  0.10566000000E+00 0. -1.
         22    1    1    0    0    0  0.12989631692E+02 -0.24704906857E+02  0.13008206171E+02  0.30794096546E+02  0.00000000000E+00 0. -1.
</event>
<event>
 5    1  0.1766627E-003  0.9118800E+02  0.7818608E-02  0.1130116E+00
         25   -1    0    0    0    0  0.00000000000E+00  0.00000000000E+00  0.99999998245E-14  0.12500000000E+03  0.12500000000E+03 0.  0.
        -13    1    3    3    0    0  0.24027439504E+02  0.10745778920E+02 -0.53943277326E+02  0.60022312072E+02  0.10566000000E+00 0.  1.
         23    2    1    0    0    0  0.48552194367E+01 -0.60638434588E+01 -0.26062773578E+02  0.97804200327E+02  0.93947059995E+02 0.  0.
         13    1    3    3    0    0 -0.19172220068E+02 -0.16809622379E+02  0.27880503748E+02  0.37781888255E+02  0.10566000000E+00 0. -1.
         22    1    1    0    0    0 -0.48552194367E+01  0.60638434588E+01  0.26062773578E+02  0.27195799673E+02  0.00000000000E+00 0.  1.
</event>
<event>
 5    1  0.1766627E-003  0.9118800E+02  0.7818608E-02  0.1130116E+00
         25   -1    0    0    0    0  0.00000000000E+00  0.00000000000E+00  0.99999998245E-14  0.12500000000E+03  0.12500000000E+03 0.  0.
        -13    1    3    3    0    0 -0.92062589940E+01  0.37972883549E+02  0.43347076929E+01  0.39312796193E+02  0.10566000000E+00 0.  1.
         23    2    1    0    0    0 -0.21750221239E+02 -0.17970763417E+02  0.34893688247E+00  0.96784007749E+02  0.92579705861E+02 0.  0.
         13    1    3    3    0    0 -0.12543962245E+02 -0.55943646966E+02 -0.39857708105E+01  0.57471211556E+02  0.10566000000E+00 0. -1.
         22    1    1    0    0    0  0.21750221239E+02  0.17970763417E+02 -0.34893688247E+00  0.28215992251E+02  0.00000000000E+00 0. -1.
</event>
<event>
 5    1  0.1766627E-003  0.9118800E+02  0.7818608E-02  0.1130116E+00
         25   -1    0    0    0    0  0.00000000000E+00  0.00000000000E+00  0.99999998245E-14  0.12500000000E+03  0.12500000000E+03 0.  0.
        -13    1    3    3    0    0 -0.97116883693E+01  0.31119009798E+02  0.53093486155E+02  0.62302801686E+02  0.10566000000E+00 0.  1.
         23    2    1    0    0    0 -0.14770176135E+01  0.16048109449E+02  0.23877117311E+02  0.96193054153E+02  0.91778339156E+02 0.  0.
         13    1    3    3    0    0  0.82346707558E+01 -0.15070900349E+02 -0.29216368844E+02  0.33890252467E+02  0.10566000000E+00 0. -1.
         22    1    1    0    0    0  0.14770176135E+01 -0.16048109449E+02 -0.23877117311E+02  0.28806945847E+02  0.00000000000E+00 0.  1.
</event>
<event>
 5    1  0.1766627E-003  0.9118800E+02  0.7818608E-02  0.1130116E+00
         25   -1    0    0    0    0  0.00000000000E+00  0.00000000000E+00  0.99999998245E-14  0.12500000000E+03  0.12500000000E+03 0.  0.
        -13    1    3    3    0    0  0.36584138364E+02  0.17514340969E+01  0.15269796040E+02  0.39681790992E+02  0.10566000000E+00 0. -1.
         23    2    1    0    0    0  0.51294668654E+01 -0.11833134870E+02 -0.27584584228E+02  0.94549321876E+02  0.89511621977E+02 0.  0.
         13    1    3    3    0    0 -0.31454671498E+02 -0.13584568967E+02 -0.42854380268E+02  0.54867530884E+02  0.10566000000E+00 0.  1.
         22    1    1    0    0    0 -0.51294668654E+01  0.11833134870E+02  0.27584584228E+02  0.30450678124E+02  0.00000000000E+00 0.  1.
</event>
<event>
 5    1  0.1766627E-003  0.9118800E+02  0.7818608E-02  0.1130116E+00
         25   -1    0    0    0    0  0.00000000000E+00  0.00000000000E+00  0.99999998245E-14  0.12500000000E+03  0.12500000000E+03 0.  0.
        -13    1    3    3    0    0 -0.24077052631E+02 -0.25040065490E+02  0.15473854307E+02  0.38028419298E+02  0.10566000000E+00 0.  1.
         23    2    1    0    0    0  0.97660099702E+01 -0.56706372952E+01 -0.27027702857E+02  0.95707888437E+02  0.91115158505E+02 0.  0.
         13    1    3    3    0    0  0.33843062602E+02  0.19369428194E+02 -0.42501557164E+02  0.57679469140E+02  0.10566000000E+00 0. -1.
         22    1    1    0    0    0 -0.97660099702E+01  0.56706372952E+01  0.27027702857E+02  0.29292111563E+02  0.00000000000E+00 0. -1.
</event>
<event>
 5    1  0.1766627E-003  0.9118800E+02  0.7818608E-02  0.1130116E+00
         25   -1    0    0    0    0  0.00000000000E+00  0.00000000000E+00  0.99999998245E-14  0.12500000000E+03  0.12500000000E+03 0.  0.
        -13    1    3    3    0    0 -0.29890417736E+02 -0.91623369317E+01 -0.16325037964E+02  0.35269016417E+02  0.10566000000E+00 0.  1.
         23    2    1    0    0    0  0.14425026857E+02  0.26157128613E+02  0.26045096263E+01  0.95015666632E+02  0.90160504979E+02 0.  0.
         13    1    3    3    0    0  0.44315444593E+02  0.35319465545E+02  0.18929547590E+02  0.59746650215E+02  0.10566000000E+00 0. -1.
         22    1    1    0    0    0 -0.14425026857E+02 -0.26157128613E+02 -0.26045096263E+01  0.29984333368E+02  0.00000000000E+00 0. -1.
</event>
<event>
 5    1  0.1766627E-003  0.9118800E+02  0.7818608E-02  0.1130116E+00
         25   -1    0    0    0    0  0.00000000000E+00  0.00000000000E+00  0.99999998245E-14  0.12500000000E+03  0.12500000000E+03 0.  0.
        -13    1    3    3    0    0 -0.22371826927E+02  0.29238904074E+02  0.67169496620E+01  0.37423798956E+02  0.10566000000E+00 0.  1.
         23    2    1    0    0    0  0.13722754846E+02 -0.19462546588E+02  0.12112881356E+02  0.98282466151E+02  0.94581269487E+02 0.  0.
         13    1    3    3    0    0  0.36094581773E+02 -0.48701450662E+02  0.53959316935E+01  0.60858667195E+02  0.10566000000E+00 0. -1.
         22    1    1    0    0    0 -0.13722754846E+02  0.19462546588E+02 -0.12112881356E+02  0.26717533849E+02  0.00000000000E+00 0. -1.
</event>
<event>
 5    1  0.1766627E-003  0.9118800E+02  0.7818608E-02  0.1130116E+00
         25   -1    0    0    0    0  0.00000000000E+00  0.00000000000E+00  0.99999998245E-14  0.12500000000E+03  0.12500000000E+03 0.  0.
        -13    1    3    3    0    0 -0.16194046056E+02 -0.23239184884E+02 -0.27638064012E+02  0.39574999534E+02  0.10566000000E+00 0. -1.
         23    2    1    0    0    0 -0.17225968805E+02  0.71499008290E+01  0.20986133639E+02  0.96923802105E+02  0.92768262494E+02 0.  0.
         13    1    3    3    0    0 -0.10319227485E+01  0.30389085713E+02  0.48624197651E+02  0.57348802571E+02  0.10566000000E+00 0.  1.
         22    1    1    0    0    0  0.17225968805E+02 -0.71499008290E+01 -0.20986133639E+02  0.28076197895E+02  0.00000000000E+00 0.  1.
</event>
<event>
 5    1  0.1766627E-003  0.9118800E+02  0.7818608E-02  0.1130116E+00
         25   -1    0    0    0    0  0.00000000000E+00  0.00000000000E+00  0.99999998245E-14  0.12500000000E+03  0.12500000000E+03 0.  0.
        -13    1    3    3    0    0 -0.93497609484E+01 -0.79318816655E+01 -0.45255835443E+02  0.46887467219E+02  0.10566000000E+00 0.  1.
         23    2    1    0    0    0 -0.14719020643E+01  0.26493989977E+02 -0.10422488598E+02  0.96491645626E+02  0.92184116888E+02 0.  0.
         13    1    3    3    0    0  0.78778588841E+01  0.34425871642E+02  0.34833346845E+02  0.49604178407E+02  0.10566000000E+00 0. -1.
         22    1    1    0    0    0  0.14719020643E+01 -0.26493989977E+02  0.10422488598E+02  0.28508354374E+02  0.00000000000E+00 0.  1.
</event>
<event>
 5    1  0.1766627E-003  0.9118800E+02  0.7818608E-02  0.1130116E+00
         25   -1    0    0    0    0  0.00000000000E+00  0.00000000000E+00  0.99999998245E-14  0.12500000000E+03  0.12500000000E+03 0.  0.
        -13    1    3    3    0    0 -0.33995791907E+02 -0.95839908785E+01  0.32881782217E+02  0.48257533239E+02  0.10566000000E+00 0.  1.
         23    2    1    0    0    0  0.86731962438E+01 -0.22204698255E+02  0.17831246347E+02  0.95230446695E+02  0.90457789459E+02 0.  0.
         13    1    3    3    0    0  0.42668988151E+02 -0.12620707377E+02 -0.15050535870E+02  0.46972913456E+02  0.10566000000E+00 0. -1.
         22    1    1    0    0    0 -0.86731962438E+01  0.22204698255E+02 -0.17831246347E+02  0.29769553305E+02  0.00000000000E+00 0. -1.
</event>
<event>
 5    1  0.1766627E-003  0.9118800E+02  0.7818608E-02  0.1130116E+00
         25   -1    0    0    0    0  0.00000000000E+00  0.00000000000E+00  0.99999998245E-14  0.12500000000E+03  0.12500000000E+03 0.  0.
        -13    1    3    3    0    0  0.73138742478E+01  0.32803216791E+02  0.18433654182E+02  0.38332160895E+02  0.10566000000E+00 0.  1.
         23    2    1    0    0    0 -0.27350762726E+02  0.18017901327E+00 -0.12317911510E+02  0.95002872969E+02  0.90142765889E+02 0.  0.
         13    1    3    3    0    0 -0.34664636974E+02 -0.32623037778E+02 -0.30751565691E+02  0.56670712073E+02  0.10566000000E+00 0. -1.
         22    1    1    0    0    0  0.27350762726E+02 -0.18017901327E+00  0.12317911510E+02  0.29997127031E+02  0.00000000000E+00 0. -1.
</event>
<event>
 5    1  0.1766627E-003  0.9118800E+02  0.7818608E-02  0.1130116E+00
         25   -1    0    0    0    0  0.00000000000E+00  0.00000000000E+00  0.99999998245E-14  0.12500000000E+03  0.12500000000E+03 0.  0.
        -13    1    3    3    0    0 -0.11419018880E+02  0.34027531511E+02 -0.13285868176E+02  0.38272605740E+02  0.10566000000E+00 0. -1.
         23    2    1    0    0    0  0.27454749516E+02 -0.20835622072E+01  0.92999357896E+01  0.95938112446E+02  0.91430455055E+02 0.  0.
         13    1    3    3    0    0  0.38873768396E+02 -0.36111093719E+02  0.22585803966E+02  0.57665506706E+02  0.10566000000E+00 0.  1.
         22    1    1    0    0    0 -0.27454749516E+02  0.20835622072E+01 -0.92999357896E+01  0.29061887554E+02  0.00000000000E+00 0.  1.
</event>
<event>
 5    1  0.1766627E-003  0.9118800E+02  0.7818608E-02  0.1130116E+00
         25   -1    0    0    0    0  0.00000000000E+00  0.00000000000E+00  0.99999998245E-14  0.12500000000E+03  0.12500000000E+03 0.  0.
        -13    1    3    3    0    0  0.17278907966E+02 -0.28908922413E+02  0.39747259886E+02  0.52097430724E+02  0.10566000000E+00 0. -1.
         23    2    1    0    0    0 -0.19403860796E+01  0.90177507314E+01  0.26972883866E+02  0.96493485123E+02  0.92186611180E+02 0.  0.
         13    1    3    3    0    0 -0.19219294045E+02  0.37926673144E+02 -0.12774376021E+02  0.44396054399E+02  0.10566000000E+00 0.  1.
         22    1    1    0    0    0  0.19403860796E+01 -0.90177507314E+01 -0.26972883866E+02  0.28506514877E+02  0.00000000000E+00 0. -1.
</event>
<event>
 5    1  0.1766627E-003  0.9118800E+02  0.7818608E-02  0.1130116E+00
         25   -1    0    0    0    0  0.00000000000E+00  0.00000000000E+00  0.99999998245E-14  0.12500000000E+03  0.12500000000E+03 0.  0.
        -13    1    3    3    0    0 -0.14422864125E+02  0.39123503542E+02  0.23293950554E+02  0.47762818546E+02  0.10566000000E+00 0.  1.
         23    2    1    0    0    0  0.15612343483E+02  0.19373072407E+01  0.24849541393E+02  0.95589149353E+02  0.90952115633E+02 0.  0.
         13    1    3    3    0    0  0.30035207609E+02 -0.37186196302E+02  0.15555908383E+01  0.47826330806E+02  0.10566000000E+00 0. -1.
         22    1    1    0    0    0 -0.15612343483E+02 -0.19373072407E+01 -0.24849541393E+02  0.29410850647E+02  0.00000000000E+00 0.  1.
</event>
<event>
 5    1  0.1766627E-003  0.9118800E+02  0.7818608E-02  0.1130116E+00
         25   -1    0    0    0    0  0.00000000000E+00  0.00000000000E+00  0.99999998245E-14  0.12500000000E+03  0.12500000000E+03 0.  0.
        -13    1    3    3    0    0 -0.32780313887E+02 -0.29764143555E+02  0.22495669020E+02  0.49664066575E+02  0.10566000000E+00 0.  1.
         23    2    1    0    0    0  0.12912507885E+02 -0.13944380650E+02  0.18972181857E+02  0.98146279661E+02  0.94401111833E+02 0.  0.
         13    1    3    3    0    0  0.45692821773E+02  0.15819762905E+02 -0.35234871626E+01  0.48482213086E+02  0.10566000000E+00 0. -1.
         22    1    1    0    0    0 -0.12912507885E+02  0.13944380650E+02 -0.18972181857E+02  0.26853720339E+02  0.00000000000E+00 0. -1.
</event>
<event>
 5    1  0.1766627E-003  0.9118800E+02  0.7818608E-02  0.1130116E+00
         25   -1    0    0    0    0  0.00000000000E+00  0.00000000000E+00  0.99999998245E-14  0.12500000000E+03  0.12500000000E+03 0.  0.
        -13    1    3    3    0    0 -0.24032881007E+02  0.24056862665E+02 -0.67397024697E+01  0.34666219353E+02  0.10566000000E+00 0. -1.
         23    2    1    0    0    0 -0.57807019353E+01 -0.31272493863E+02 -0.32303034213E+01  0.93034076778E+02  0.87370013130E+02 0.  0.
         13    1    3    3    0    0  0.18252179071E+02 -0.55329356528E+02  0.35093990484E+01  0.58367857425E+02  0.10566000000E+00 0.  1.
         22    1    1    0    0    0  0.57807019353E+01  0.31272493863E+02  0.32303034213E+01  0.31965923222E+02  0.00000000000E+00 0.  1.
</event>
<event>
 5    1  0.1766627E-003  0.9118800E+02  0.7818608E-02  0.1130116E+00
         25   -1    0    0    0    0  0.00000000000E+00  0.00000000000E+00  0.99999998245E-14  0.12500000000E+03  0.12500000000E+03 0.  0.
        -13    1    3    3    0    0 -0.30123522617E+02  0.17346168865E+02 -0.11381841012E+01  0.34779632204E+02  0.10566000000E+00 0. -1.
         23    2    1    0    0    0  0.26217031444E+02  0.79611570706E+00 -0.14539521021E+02  0.95010598381E+02  0.90153477999E+02 0.  0.
         13    1    3    3    0    0  0.56340554060E+02 -0.16550053158E+02 -0.13401336920E+02  0.60230966177E+02  0.10566000000E+00 0.  1.
         22    1    1    0    0    0 -0.26217031444E+02 -0.79611570706E+00  0.14539521021E+02  0.29989401619E+02  0.00000000000E+00 0.  1.
</event>
<event>
 5    1  0.1766627E-003  0.9118800E+02  0.7818608E-02  0.1130116E+00
         25   -1    0    0    0    0  0.00000000000E+00  0.00000000000E+00  0.99999998245E-14  0.12500000000E+03  0.12500000000E+03 0.  0.
        -13    1    3    3    0    0 -0.39760009664E+01 -0.58246336064E+02  0.74272153372E+01  0.58852518555E+02  0.10566000000E+00 0.  1.
         23    2    1    0    0    0  0.36423887469E+01 -0.28145118786E+02 -0.10539374959E+02  0.94726362429E+02  0.89758512729E+02 0.  0.
         13    1    3    3    0    0  0.76183897132E+01  0.30101217278E+02 -0.17966590296E+02  0.35873843875E+02  0.10566000000E+00 0. -1.
         22    1    1    0    0    0 -0.36423887469E+01  0.28145118786E+02  0.10539374959E+02  0.30273637571E+02  0.00000000000E+00 0.  1.
</event>
<event>
 5    1  0.1766627E-003  0.9118800E+02  0.7818608E-02  0.1130116E+00
         25   -1    0    0    0    0  0.00000000000E+00  0.00000000000E+00  0.99999998245E-14  0.12500000000E+03  0.12500000000E+03 0.  0.
        -13    1    3    3    0    0  0.57783341311E+01 -0.36196075934E+02 -0.81325808886E+01  0.37545906491E+02  0.10566000000E+00 0.  1.
         23    2    1    0    0    0  0.19317380266E+02  0.19883696759E+02 -0.10676262414E+02  0.95293011659E+02  0.90544204203E+02 0.  0.
         13    1    3    3    0    0  0.13539046135E+02  0.56079772692E+02 -0.25436815256E+01  0.57747105168E+02  0.10566000000E+00 0. -1.
         22    1    1    0    0    0 -0.19317380266E+02 -0.19883696759E+02  0.10676262414E+02  0.29706988341E+02  0.00000000000E+00 0. -1.
</event>
<event>
 5    1  0.1766627E-003  0.9118800E+02  0.7818608E-02  0.1130116E+00
         25   -1    0    0    0    0  0.00000000000E+00  0.00000000000E+00  0.99999998245E-14  0.12500000000E+03  0.12500000000E+03 0.  0.
        -13    1    3    3    0    0 -0.46289645618E+02 -0.12396173848E+02 -0.23334515908E+02  0.53300161484E+02  0.10566000000E+00 0. -1.
         23    2    1    0    0    0 -0.20257436861E+02 -0.16570599372E+02  0.11017959591E+02  0.96603804035E+02  0.92336076420E+02 0.  0.
         13    1    3    3    0    0  0.26032208757E+02 -0.41744255245E+01  0.34352475499E+02  0.43303642551E+02  0.10566000000E+00 0.  1.
         22    1    1    0    0    0  0.20257436861E+02  0.16570599372E+02 -0.11017959591E+02  0.28396195965E+02  0.00000000000E+00 0. -1.
</event>
<event>
 5    1  0.1766627E-003  0.9118800E+02  0.7818608E-02  0.1130116E+00
         25   -1    0    0    0    0  0.00000000000E+00  0.00000000000E+00  0.99999998245E-14  0.12500000000E+03  0.12500000000E+03 0.  0.
        -13    1    3    3    0    0 -0.50206749638E+02 -0.19586518797E+02  0.89727554527E+01  0.54633972327E+02  0.10566000000E+00 0.  1.
         23    2    1    0    0    0 -0.17958596371E+02 -0.19903191548E+02 -0.14500507709E+02  0.94521926878E+02  0.89473357596E+02 0.  0.
         13    1    3    3    0    0  0.32248153267E+02 -0.31667275136E+00 -0.23473263162E+02  0.39887954551E+02  0.10566000000E+00 0. -1.
         22    1    1    0    0    0  0.17958596371E+02  0.19903191548E+02  0.14500507709E+02  0.30478073122E+02  0.00000000000E+00 0.  1.
</event>
<event>
 5    1  0.1766627E-003  0.9118800E+02  0.7818608E-02  0.1130116E+00
         25   -1    0    0    0    0  0.00000000000E+00  0.00000000000E+00  0.99999998245E-14  0.12500000000E+03  0.12500000000E+03 0.  0.
        -13    1    3    3    0    0 -0.21728842859E+02 -0.26287758456E+02 -0.51771901640E+02  0.61996208111E+02  0.10566000000E+00 0.  1.
         23    2    1    0    0    0 -0.10105287133E+02 -0.69540623572E+01 -0.26031125596E+02  0.96223354763E+02  0.91819598620E+02 0.  0.
         13    1    3    3    0    0  0.11623555726E+02  0.19333696099E+02  0.25740776044E+02  0.34227146652E+02  0.10566000000E+00 0. -1.
         22    1    1    0    0    0  0.10105287133E+02  0.69540623572E+01  0.26031125596E+02  0.28776645237E+02  0.00000000000E+00 0.  1.
</event>
<event>
 5    1  0.1766627E-003  0.9118800E+02  0.7818608E-02  0.1130116E+00
         25   -1    0    0    0    0  0.00000000000E+00  0.00000000000E+00  0.99999998245E-14  0.12500000000E+03  0.12500000000E+03 0.  0.
        -13    1    3    3    0    0  0.46877484077E+02  0.32352081302E+01  0.21309279628E+02  0.51595170776E+02  0.10566000000E+00 0. -1.
         23    2    1    0    0    0  0.51312838680E+01  0.22778800109E+02  0.12468465217E+02  0.98529895478E+02  0.94907712381E+02 0.  0.
         13    1    3    3    0    0 -0.41746200209E+02  0.19543591979E+02 -0.88408144111E+01  0.46934724702E+02  0.10566000000E+00 0.  1.
         22    1    1    0    0    0 -0.51312838680E+01 -0.22778800109E+02 -0.12468465217E+02  0.26470104522E+02  0.00000000000E+00 0. -1.
</event>
<event>
 5    1  0.1766627E-003  0.9118800E+02  0.7818608E-02  0.1130116E+00
         25   -1    0    0    0    0  0.00000000000E+00  0.00000000000E+00  0.99999998245E-14  0.12500000000E+03  0.12500000000E+03 0.  0.
        -13    1    3    3    0    0 -0.54096377451E+02  0.53061027851E+01 -0.98153585714E+01  0.55235180890E+02  0.10566000000E+00 0. -1.
         23    2    1    0    0    0 -0.21599671528E+02 -0.17602354269E+02 -0.11077413832E+02  0.95015040718E+02  0.90159637197E+02 0.  0.
         13    1    3    3    0    0  0.32496705923E+02 -0.22908457054E+02 -0.12620552606E+01  0.39779859828E+02  0.10566000000E+00 0.  1.
         22    1    1    0    0    0  0.21599671528E+02  0.17602354269E+02  0.11077413832E+02  0.29984959282E+02  0.00000000000E+00 0. -1.
</event>
<event>
 5    1  0.1766627E-003  0.9118800E+02  0.7818608E-02  0.1130116E+00
         25   -1    0    0    0    0  0.00000000000E+00  0.00000000000E+00  0.99999998245E-14  0.12500000000E+03  0.12500000000E+03 0.  0.
        -13    1    3    3    0    0 -0.37888004014E+02  0.19027249916E+02  0.38391667656E+02  0.57196751630E+02  0.10566000000E+00 0.  1.
         23    2    1    0    0    0 -0.96518087395E+00  0.36566907193E+01  0.25505030987E+02  0.99216098690E+02  0.95807226619E+02 0.  0.
         13    1    3    3    0    0  0.36922823140E+02 -0.15370559197E+02 -0.12886636669E+02  0.42019347060E+02  0.10566000000E+00 0. -1.
         22    1    1    0    0    0  0.96518087395E+00 -0.36566907193E+01 -0.25505030987E+02  0.25783901310E+02  0.00000000000E+00 0.  1.
</event>
<event>
 5    1  0.1766627E-003  0.9118800E+02  0.7818608E-02  0.1130116E+00
         25   -1    0    0    0    0  0.00000000000E+00  0.00000000000E+00  0.99999998245E-14  0.12500000000E+03  0.12500000000E+03 0.  0.
        -13    1    3    3    0    0  0.25510725241E+02  0.11672132572E+02 -0.21288433822E+02  0.35217103227E+02  0.10566000000E+00 0. -1.
         23    2    1    0    0    0 -0.19172370347E+02  0.83961995994E+01  0.19931782635E+02  0.96097544889E+02  0.91648165406E+02 0.  0.
         13    1    3    3    0    0 -0.44683095588E+02 -0.32759329724E+01  0.41220216457E+02  0.60880441662E+02  0.10566000000E+00 0.  1.
         22    1    1    0    0    0  0.19172370347E+02 -0.83961995994E+01 -0.19931782635E+02  0.28902455111E+02  0.00000000000E+00 0.  1.
</event>
<event>
 5    1  0.1766627E-003  0.9118800E+02  0.7818608E-02  0.1130116E+00
         25   -1    0    0    0    0  0.00000000000E+00  0.00000000000E+00  0.99999998245E-14  0.12500000000E+03  0.12500000000E+03 0.  0.
        -13    1    3    3    0    0 -0.33529437192E+02  0.12412299872E+01  0.45416355268E+02  0.56466098680E+02  0.10566000000E+00 0.  1.
         23    2    1    0    0    0 -0.17324286636E+02 -0.17920415619E+02  0.14959452436E+02  0.95930128645E+02  0.91419539275E+02 0.  0.
         13    1    3    3    0    0  0.16205150556E+02 -0.19161645606E+02 -0.30456902832E+02  0.39464029964E+02  0.10566000000E+00 0. -1.
         22    1    1    0    0    0  0.17324286636E+02  0.17920415619E+02 -0.14959452436E+02  0.29069871355E+02  0.00000000000E+00 0.  1.
</event>
<event>
 5    1  0.1766627E-003  0.9118800E+02  0.7818608E-02  0.1130116E+00
         25   -1    0    0    0    0  0.00000000000E+00  0.00000000000E+00  0.99999998245E-14  0.12500000000E+03  0.12500000000E+03 0.  0.
        -13    1    3    3    0    0  0.30766657477E+02 -0.96593233939E+01 -0.47191613474E+02  0.57157233025E+02  0.10566000000E+00 0. -1.
         23    2    1    0    0    0  0.21322009893E+02 -0.18205394755E+02 -0.12147065894E+02  0.94444874179E+02  0.89365645216E+02 0.  0.
         13    1    3    3    0    0 -0.94446475835E+01 -0.85460713612E+01  0.35044547581E+02  0.37287641154E+02  0.10566000000E+00 0.  1.
         22    1    1    0    0    0 -0.21322009893E+02  0.18205394755E+02  0.12147065894E+02  0.30555125821E+02  0.00000000000E+00 0. -1.
</event>
<event>
 5    1  0.1766627E-003  0.9118800E+02  0.7818608E-02  0.1130116E+00
         25   -1    0    0    0    0  0.00000000000E+00  0.00000000000E+00  0.99999998245E-14  0.12500000000E+03  0.12500000000E+03 0.  0.
        -13    1    3    3    0    0  0.49819340792E+02  0.18293930597E+02 -0.25587083103E+02  0.58918117751E+02  0.10566000000E+00 0.  1.
         23    2    1    0    0    0  0.29612599755E+02  0.62310889768E+01  0.13768347871E+01  0.94707621286E+02  0.89732409538E+02 0.  0.
         13    1    3    3    0    0 -0.20206741036E+02 -0.12062841620E+02  0.26963917890E+02  0.35789503535E+02  0.10566000000E+00 0. -1.
         22    1    1    0    0    0 -0.29612599755E+02 -0.62310889768E+01 -0.13768347871E+01  0.30292378714E+02  0.00000000000E+00 0.  1.
</event>
<event>
 5    1  0.1766627E-003  0.9118800E+02  0.7818608E-02  0.1130116E+00
         25   -1    0    0    0    0  0.00000000000E+00  0.00000000000E+00  0.99999998245E-14  0.12500000000E+03  0.12500000000E+03 0.  0.
        -13    1    3    3    0    0 -0.45553461991E+02  0.20661958262E+02  0.21739321299E+00  0.50020924046E+02  0.10566000000E+00 0.  1.
         23    2    1    0    0    0 -0.19130643650E+02 -0.11787434368E+02  0.18698783388E+02  0.95766976967E+02  0.91196185456E+02 0.  0.
         13    1    3    3    0    0  0.26422818340E+02 -0.32449392629E+02  0.18481390175E+02  0.45746052922E+02  0.10566000000E+00 0. -1.
         22    1    1    0    0    0  0.19130643650E+02  0.11787434368E+02 -0.18698783388E+02  0.29233023033E+02  0.00000000000E+00 0.  1.
</event>
<event>
 5    1  0.1766627E-003  0.9118800E+02  0.7818608E-02  0.1130116E+00
         25   -1    0    0    0    0  0.00000000000E+00  0.00000000000E+00  0.99999998245E-14  0.12500000000E+03  0.12500000000E+03 0.  0.
        -13    1    3    3    0    0 -0.33656359905E+02  0.17344315493E+02  0.25601920249E+02  0.45706075378E+02  0.10566000000E+00 0. -1.
         23    2    1    0    0    0 -0.20319592694E+02  0.59353613105E+00 -0.20247327224E+02  0.96308670437E+02  0.91935671038E+02 0.  0.
         13    1    3    3    0    0  0.13336767211E+02 -0.16750779361E+02 -0.45849247473E+02  0.50602595059E+02  0.10566000000E+00 0.  1.
         22    1    1    0    0    0  0.20319592694E+02 -0.59353613105E+00  0.20247327224E+02  0.28691329563E+02  0.00000000000E+00 0.  1.
</event>
<event>
 5    1  0.1766627E-003  0.9118800E+02  0.7818608E-02  0.1130116E+00
         25   -1    0    0    0    0  0.00000000000E+00  0.00000000000E+00  0.99999998245E-14  0.12500000000E+03  0.12500000000E+03 0.  0.
        -13    1    3    3    0    0 -0.12501536618E+02  0.13225951035E+02 -0.41662532326E+02  0.45464183293E+02  0.10566000000E+00 0. -1.
         23    2    1    0    0    0 -0.32229142304E+02 -0.90083138790E+01 -0.75798180089E+01  0.90687888820E+02  0.83946245926E+02 0.  0.
         13    1    3    3    0    0 -0.19727605686E+02 -0.22234264914E+02  0.34082714318E+02  0.45223705527E+02  0.10566000000E+00 0.  1.
         22    1    1    0    0    0  0.32229142304E+02  0.90083138790E+01  0.75798180089E+01  0.34312111180E+02  0.00000000000E+00 0.  1.
</event>
<event>
 5    1  0.1766627E-003  0.9118800E+02  0.7818608E-02  0.1130116E+00
         25   -1    0    0    0    0  0.00000000000E+00  0.00000000000E+00  0.99999998245E-14  0.12500000000E+03  0.12500000000E+03 0.  0.
        -13    1    3    3    0    0 -0.13479754454E+02 -0.40909692838E+02 -0.32348841366E+01  0.43194703236E+02  0.10566000000E+00 0. -1.
         23    2    1    0    0    0 -0.23018539556E+02  0.74106977644E+01  0.15927280545E+02  0.96044001136E+02  0.91575107339E+02 0.  0.
         13    1    3    3    0    0 -0.95387851017E+01  0.48320390603E+02  0.19162164682E+02  0.52849297900E+02  0.10566000000E+00 0.  1.
         22    1    1    0    0    0  0.23018539556E+02 -0.74106977644E+01 -0.15927280545E+02  0.28955998864E+02  0.00000000000E+00 0.  1.
</event>
<event>
 5    1  0.1766627E-003  0.9118800E+02  0.7818608E-02  0.1130116E+00
         25   -1    0    0    0    0  0.00000000000E+00  0.00000000000E+00  0.99999998245E-14  0.12500000000E+03  0.12500000000E+03 0.  0.
        -13    1    3    3    0    0  0.27228672708E+02  0.17682633414E+02  0.34028428413E+02  0.47032129934E+02  0.10566000000E+00 0. -1.
         23    2    1    0    0    0 -0.18645936636E+02  0.13730718581E+02  0.17580541420E+02  0.95926317358E+02  0.91414327868E+02 0.  0.
         13    1    3    3    0    0 -0.45874609343E+02 -0.39519148337E+01 -0.16447886993E+02  0.48894187424E+02  0.10566000000E+00 0.  1.
         22    1    1    0    0    0  0.18645936636E+02 -0.13730718581E+02 -0.17580541420E+02  0.29073682642E+02  0.00000000000E+00 0.  1.
</event>
<event>
 5    1  0.1766627E-003  0.9118800E+02  0.7818608E-02  0.1130116E+00
         25   -1    0    0    0    0  0.00000000000E+00  0.00000000000E+00  0.99999998245E-14  0.12500000000E+03  0.12500000000E+03 0.  0.
        -13    1    3    3    0    0 -0.20503382760E+02 -0.36539138997E+02 -0.47811274192E+01  0.42170697489E+02  0.10566000000E+00 0.  1.
         23    2    1    0    0    0 -0.13870313123E+02  0.15754749964E+02 -0.18913724264E+02  0.96745324314E+02  0.92527461213E+02 0.  0.
         13    1    3    3    0    0  0.66330696366E+01  0.52293888961E+02 -0.14132596845E+02  0.54574626825E+02  0.10566000000E+00 0. -1.
         22    1    1    0    0    0  0.13870313123E+02 -0.15754749964E+02  0.18913724264E+02  0.28254675686E+02  0.00000000000E+00 0. -1.
</event>
<event>
 5    1  0.1766627E-003  0.9118800E+02  0.7818608E-02  0.1130116E+00
         25   -1    0    0    0    0  0.00000000000E+00  0.00000000000E+00  0.99999998245E-14  0.12500000000E+03  0.12500000000E+03 0.  0.
        -13    1    3    3    0    0 -0.55884935934E+02  0.11764297372E+01  0.71619956631E+01  0.56354373363E+02  0.10566000000E+00 0.  1.
         23    2    1    0    0    0 -0.23433969324E+02  0.19258899260E+02 -0.19511500891E+01  0.94604883523E+02  0.89589178368E+02 0.  0.
         13    1    3    3    0    0  0.32450966609E+02  0.18082469523E+02 -0.91131457522E+01  0.38250510160E+02  0.10566000000E+00 0. -1.
         22    1    1    0    0    0  0.23433969324E+02 -0.19258899260E+02  0.19511500891E+01  0.30395116477E+02  0.00000000000E+00 0.  1.
</event>
<event>
 5    1  0.1766627E-003  0.9118800E+02  0.7818608E-02  0.1130116E+00
         25   -1    0    0    0    0  0.00000000000E+00  0.00000000000E+00  0.99999998245E-14  0.12500000000E+03  0.12500000000E+03 0.  0.
        -13    1    3    3    0    0 -0.28950951414E+02 -0.36189802864E+02 -0.40651152654E+02  0.61647277274E+02  0.10566000000E+00 0. -1.
         23    2    1    0    0    0 -0.14277234795E+02 -0.21910919265E+02 -0.13750933155E+02  0.95453156191E+02  0.90765021059E+02 0.  0.
         13    1    3    3    0    0  0.14673716618E+02  0.14278883599E+02  0.26900219500E+02  0.33805878918E+02  0.10566000000E+00 0.  1.
         22    1    1    0    0    0  0.14277234795E+02  0.21910919265E+02  0.13750933155E+02  0.29546843809E+02  0.00000000000E+00 0. -1.
</event>
<event>
 5    1  0.1766627E-003  0.9118800E+02  0.7818608E-02  0.1130116E+00
         25   -1    0    0    0    0  0.00000000000E+00  0.00000000000E+00  0.99999998245E-14  0.12500000000E+03  0.12500000000E+03 0.  0.
        -13    1    3    3    0    0 -0.19591790054E+02  0.37027161377E+02 -0.45615520553E+02  0.61932510013E+02  0.10566000000E+00 0. -1.
         23    2    1    0    0    0 -0.37056189438E+01  0.15803457723E+02 -0.23401799961E+02  0.96519741413E+02  0.92222206399E+02 0.  0.
         13    1    3    3    0    0  0.15886171110E+02 -0.21223703654E+02  0.22213720591E+02  0.34587231400E+02  0.10566000000E+00 0.  1.
         22    1    1    0    0    0  0.37056189438E+01 -0.15803457723E+02  0.23401799961E+02  0.28480258587E+02  0.00000000000E+00 0. -1.
</event>
<event>
 5    1  0.1766627E-003  0.9118800E+02  0.7818608E-02  0.1130116E+00
         25   -1    0    0    0    0  0.00000000000E+00  0.00000000000E+00  0.99999998245E-14  0.12500000000E+03  0.12500000000E+03 0.  0.
        -13    1    3    3    0    0 -0.36680342553E+02 -0.12230273310E+02  0.44091255870E+02  0.58643645208E+02  0.10566000000E+00 0.  1.
         23    2    1    0    0    0 -0.69056607892E+01  0.22720754626E+01  0.29114722201E+02  0.94991375795E+02  0.90126821473E+02 0.  0.
         13    1    3    3    0    0  0.29774681764E+02  0.14502348773E+02 -0.14976533669E+02  0.36347730587E+02  0.10566000000E+00 0. -1.
         22    1    1    0    0    0  0.69056607892E+01 -0.22720754626E+01 -0.29114722201E+02  0.30008624205E+02  0.00000000000E+00 0.  1.
</event>
<event>
 5    1  0.1766627E-003  0.9118800E+02  0.7818608E-02  0.1130116E+00
         25   -1    0    0    0    0  0.00000000000E+00  0.00000000000E+00  0.99999998245E-14  0.12500000000E+03  0.12500000000E+03 0.  0.
        -13    1    3    3    0    0  0.23645970011E+02  0.30625262146E+02 -0.11902972878E+02  0.40481236476E+02  0.10566000000E+00 0.  1.
         23    2    1    0    0    0  0.19671051781E+02 -0.20816098885E+02  0.71486443413E+01  0.95481135406E+02  0.90803545369E+02 0.  0.
         13    1    3    3    0    0 -0.39749182305E+01 -0.51441361031E+02  0.19051617219E+02  0.54999898930E+02  0.10566000000E+00 0. -1.
         22    1    1    0    0    0 -0.19671051781E+02  0.20816098885E+02 -0.71486443413E+01  0.29518864594E+02  0.00000000000E+00 0. -1.
</event>
<event>
 5    1  0.1766627E-003  0.9118800E+02  0.7818608E-02  0.1130116E+00
         25   -1    0    0    0    0  0.00000000000E+00  0.00000000000E+00  0.99999998245E-14  0.12500000000E+03  0.12500000000E+03 0.  0.
        -13    1    3    3    0    0  0.65476421751E+01  0.13896148501E+02 -0.35232565771E+02  0.38435913103E+02  0.10566000000E+00 0.  1.
         23    2    1    0    0    0  0.24351924285E+02  0.38574285395E+01  0.17350224054E+02  0.94851596294E+02  0.89932747503E+02 0.  0.
         13    1    3    3    0    0  0.17804282110E+02 -0.10038719961E+02  0.52582789826E+02  0.56415683190E+02  0.10566000000E+00 0. -1.
         22    1    1    0    0    0 -0.24351924285E+02 -0.38574285395E+01 -0.17350224054E+02  0.30148403706E+02  0.00000000000E+00 0. -1.
</event>
<event>
 5    1  0.1766627E-003  0.9118800E+02  0.7818608E-02  0.1130116E+00
         25   -1    0    0    0    0  0.00000000000E+00  0.00000000000E+00  0.99999998245E-14  0.12500000000E+03  0.12500000000E+03 0.  0.
        -13    1    3    3    0    0  0.61098720367E+01 -0.30287333238E+02  0.22819360644E+02  0.38410772906E+02  0.10566000000E+00 0. -1.
         23    2    1    0    0    0  0.86746986933E+01 -0.57194874511E+01 -0.28119097489E+02  0.95022565524E+02  0.90170069209E+02 0.  0.
         13    1    3    3    0    0  0.25648266566E+01  0.24567845787E+02 -0.50938458134E+02  0.56611792618E+02  0.10566000000E+00 0.  1.
         22    1    1    0    0    0 -0.86746986933E+01  0.57194874511E+01  0.28119097489E+02  0.29977434476E+02  0.00000000000E+00 0.  1.
</event>
<event>
 5    1  0.1766627E-003  0.9118800E+02  0.7818608E-02  0.1130116E+00
         25   -1    0    0    0    0  0.00000000000E+00  0.00000000000E+00  0.99999998245E-14  0.12500000000E+03  0.12500000000E+03 0.  0.
        -13    1    3    3    0    0  0.17001815123E+02  0.46034587491E+01 -0.29478962985E+02  0.34340558711E+02  0.10566000000E+00 0.  1.
         23    2    1    0    0    0 -0.47306785306E+01 -0.32504879788E+02  0.77841446851E+01  0.91242934994E+02  0.84768707365E+02 0.  0.
         13    1    3    3    0    0 -0.21732493653E+02 -0.37108338537E+02  0.37263107670E+02  0.56902376282E+02  0.10566000000E+00 0. -1.
         22    1    1    0    0    0  0.47306785306E+01  0.32504879788E+02 -0.77841446851E+01  0.33757065006E+02  0.00000000000E+00 0. -1.
</event>
<event>
 5    1  0.1766627E-003  0.9118800E+02  0.7818608E-02  0.1130116E+00
         25   -1    0    0    0    0  0.00000000000E+00  0.00000000000E+00  0.99999998245E-14  0.12500000000E+03  0.12500000000E+03 0.  0.
        -13    1    3    3    0    0  0.45210344767E+02  0.27025026931E+02  0.39812225385E+01  0.52822236335E+02  0.10566000000E+00 0. -1.
         23    2    1    0    0    0  0.26837180311E+02 -0.95781146560E+01 -0.78328172951E+01  0.95447884100E+02  0.90757760136E+02 0.  0.
         13    1    3    3    0    0 -0.18373164456E+02 -0.36603141587E+02 -0.11814039834E+02  0.42625647765E+02  0.10566000000E+00 0.  1.
         22    1    1    0    0    0 -0.26837180311E+02  0.95781146560E+01  0.78328172951E+01  0.29552115900E+02  0.00000000000E+00 0. -1.
</event>
<event>
 5    1  0.1766627E-003  0.9118800E+02  0.7818608E-02  0.1130116E+00
         25   -1    0    0    0    0  0.00000000000E+00  0.00000000000E+00  0.99999998245E-14  0.12500000000E+03  0.12500000000E+03 0.  0.
        -13    1    3    3    0    0  0.52238410063E+02  0.44686270203E+01  0.32313421861E+02  0.61587243076E+02  0.10566000000E+00 0. -1.
         23    2    1    0    0    0  0.21006233116E+02  0.83371357798E+01  0.17740431696E+02  0.96268613338E+02  0.91881191408E+02 0.  0.
         13    1    3    3    0    0 -0.31232176947E+02  0.38685087595E+01 -0.14572990165E+02  0.34681370262E+02  0.10566000000E+00 0.  1.
         22    1    1    0    0    0 -0.21006233116E+02 -0.83371357798E+01 -0.17740431696E+02  0.28731386662E+02  0.00000000000E+00 0. -1.
</event>
<event>
 5    1  0.1766627E-003  0.9118800E+02  0.7818608E-02  0.1130116E+00
         25   -1    0    0    0    0  0.00000000000E+00  0.00000000000E+00  0.99999998245E-14  0.12500000000E+03  0.12500000000E+03 0.  0.
        -13    1    3    3    0    0 -0.32111103950E+01  0.55299094495E+02  0.19744335981E+02  0.58806046027E+02  0.10566000000E+00 0.  1.
         23    2    1    0    0    0  0.60420171578E+01  0.18746470148E+02  0.20570002182E+02  0.96520865461E+02  0.92223729946E+02 0.  0.
         13    1    3    3    0    0  0.92531275528E+01 -0.36552624347E+02  0.82566620085E+00  0.37714819433E+02  0.10566000000E+00 0. -1.
         22    1    1    0    0    0 -0.60420171578E+01 -0.18746470148E+02 -0.20570002182E+02  0.28479134539E+02  0.00000000000E+00 0.  1.
</event>
<event>
 5    1  0.1766627E-003  0.9118800E+02  0.7818608E-02  0.1130116E+00
         25   -1    0    0    0    0  0.00000000000E+00  0.00000000000E+00  0.99999998245E-14  0.12500000000E+03  0.12500000000E+03 0.  0.
        -13    1    3    3    0    0  0.35152780728E+02 -0.46363389571E+02 -0.19848480462E+02  0.61475647423E+02  0.10566000000E+00 0.  1.
         23    2    1    0    0    0  0.14633148884E+02 -0.25820223764E+02 -0.26963764372E+01  0.95199271026E+02  0.90414698786E+02 0.  0.
         13    1    3    3    0    0 -0.20519631844E+02  0.20543165808E+02  0.17152104025E+02  0.33723623603E+02  0.10566000000E+00 0. -1.
         22    1    1    0    0    0 -0.14633148884E+02  0.25820223764E+02  0.26963764372E+01  0.29800728974E+02  0.00000000000E+00 0.  1.
</event>
<event>
 5    1  0.1766627E-003  0.9118800E+02  0.7818608E-02  0.1130116E+00
         25   -1    0    0    0    0  0.00000000000E+00  0.00000000000E+00  0.99999998245E-14  0.12500000000E+03  0.12500000000E+03 0.  0.
        -13    1    3    3    0    0 -0.15451848325E+01  0.18086883840E+02 -0.22082878339E+02  0.28586494066E+02  0.10566000000E+00 0.  1.
         23    2    1    0    0    0  0.28851589880E+02 -0.26312285150E+02 -0.24102320265E+01  0.85877630352E+02  0.76448725222E+02 0.  0.
         13    1    3    3    0    0  0.30396774713E+02 -0.44399168990E+02  0.19672646313E+02  0.57291136286E+02  0.10566000000E+00 0. -1.
         22    1    1    0    0    0 -0.28851589880E+02  0.26312285150E+02  0.24102320265E+01  0.39122369648E+02  0.00000000000E+00 0. -1.
</event>
<event>
 5    1  0.1766627E-003  0.9118800E+02  0.7818608E-02  0.1130116E+00
         25   -1    0    0    0    0  0.00000000000E+00  0.00000000000E+00  0.99999998245E-14  0.12500000000E+03  0.12500000000E+03 0.  0.
        -13    1    3    3    0    0  0.47033321963E+00  0.17782215317E+02 -0.30110627536E+02  0.34972695772E+02  0.10566000000E+00 0.  1.
         23    2    1    0    0    0 -0.18680672239E+02 -0.58665862418E+01  0.22143068291E+02  0.95441586261E+02  0.90749085754E+02 0.  0.
         13    1    3    3    0    0 -0.19151005458E+02 -0.23648801559E+02  0.52253695828E+02  0.60468890489E+02  0.10566000000E+00 0. -1.
         22    1    1    0    0    0  0.18680672239E+02  0.58665862418E+01 -0.22143068291E+02  0.29558413739E+02  0.00000000000E+00 0. -1.
</event>
<event>
 5    1  0.1766627E-003  0.9118800E+02  0.7818608E-02  0.1130116E+00
         25   -1    0    0    0    0  0.00000000000E+00  0.00000000000E+00  0.99999998245E-14  0.12500000000E+03  0.12500000000E+03 0.  0.
        -13    1    3    3    0    0 -0.30263006166E+02  0.13451473077E+02 -0.33585453465E+02  0.47167632108E+02  0.10566000000E+00 0. -1.
         23    2    1    0    0    0 -0.11440697291E+02  0.28004920724E+02  0.67563319800E+01  0.94003013677E+02  0.88745441681E+02 0.  0.
         13    1    3    3    0    0  0.18822308874E+02  0.14553447647E+02  0.40341785445E+02  0.46835381569E+02  0.10566000000E+00 0.  1.
         22    1    1    0    0    0  0.11440697291E+02 -0.28004920724E+02 -0.67563319800E+01  0.30996986323E+02  0.00000000000E+00 0. -1.
</event>
<event>
 5    1  0.1766627E-003  0.9118800E+02  0.7818608E-02  0.1130116E+00
         25   -1    0    0    0    0  0.00000000000E+00  0.00000000000E+00  0.99999998245E-14  0.12500000000E+03  0.12500000000E+03 0.  0.
        -13    1    3    3    0    0 -0.39569431625E+02 -0.12048708873E+02  0.21004589094E+02  0.46390896000E+02  0.10566000000E+00 0.  1.
         23    2    1    0    0    0 -0.91189677137E+01 -0.35687702481E+02  0.64006522997E+01  0.87613691940E+02  0.79236500333E+02 0.  0.
         13    1    3    3    0    0  0.30450463911E+02 -0.23638993607E+02 -0.14603936794E+02  0.41222795940E+02  0.10566000000E+00 0. -1.
         22    1    1    0    0    0  0.91189677137E+01  0.35687702481E+02 -0.64006522997E+01  0.37386308060E+02  0.00000000000E+00 0. -1.
</event>
<event>
 5    1  0.1766627E-003  0.9118800E+02  0.7818608E-02  0.1130116E+00
         25   -1    0    0    0    0  0.00000000000E+00  0.00000000000E+00  0.99999998245E-14  0.12500000000E+03  0.12500000000E+03 0.  0.
        -13    1    3    3    0    0  0.15271741048E+00 -0.33177315417E+02 -0.35263882664E+01  0.33364714282E+02  0.10566000000E+00 0. -1.
         23    2    1    0    0    0  0.32958771886E+02  0.57137328565E+01  0.16072275853E+02  0.87888742429E+02  0.79669226225E+02 0.  0.
         13    1    3    3    0    0  0.32806054475E+02  0.38891048274E+02  0.19598664120E+02  0.54524028147E+02  0.10566000000E+00 0.  1.
         22    1    1    0    0    0 -0.32958771886E+02 -0.57137328565E+01 -0.16072275853E+02  0.37111257571E+02  0.00000000000E+00 0. -1.
</event>
<event>
 5    1  0.1766627E-003  0.9118800E+02  0.7818608E-02  0.1130116E+00
         25   -1    0    0    0    0  0.00000000000E+00  0.00000000000E+00  0.99999998245E-14  0.12500000000E+03  0.12500000000E+03 0.  0.
        -13    1    3    3    0    0 -0.50716610823E+01  0.44377825798E+02  0.87248410803E+00  0.44675335043E+02  0.10566000000E+00 0.  1.
         23    2    1    0    0    0 -0.11577025445E+02  0.83598144470E+01 -0.29492537195E+02  0.92232275545E+02  0.86215247412E+02 0.  0.
         13    1    3    3    0    0 -0.65053643629E+01 -0.36018011351E+02 -0.30365021303E+02  0.47556940502E+02  0.10566000000E+00 0. -1.
         22    1    1    0    0    0  0.11577025445E+02 -0.83598144470E+01  0.29492537195E+02  0.32767724455E+02  0.00000000000E+00 0. -1.
</event>
<event>
 5    1  0.1766627E-003  0.9118800E+02  0.7818608E-02  0.1130116E+00
         25   -1    0    0    0    0  0.00000000000E+00  0.00000000000E+00  0.99999998245E-14  0.12500000000E+03  0.12500000000E+03 0.  0.
        -13    1    3    3    0    0  0.70292696140E+01  0.20293872620E+02  0.25497160474E+02  0.33337190246E+02  0.10566000000E+00 0. -1.
         23    2    1    0    0    0 -0.12742668964E+02  0.22521671716E+01 -0.28552840771E+02  0.93651753074E+02  0.88249296136E+02 0.  0.
         13    1    3    3    0    0 -0.19771938578E+02 -0.18041705448E+02 -0.54050001244E+02  0.60314562828E+02  0.10566000000E+00 0.  1.
         22    1    1    0    0    0  0.12742668964E+02 -0.22521671716E+01  0.28552840771E+02  0.31348246926E+02  0.00000000000E+00 0.  1.
</event>
<event>
 5    1  0.1766627E-003  0.9118800E+02  0.7818608E-02  0.1130116E+00
         25   -1    0    0    0    0  0.00000000000E+00  0.00000000000E+00  0.99999998245E-14  0.12500000000E+03  0.12500000000E+03 0.  0.
        -13    1    3    3    0    0 -0.34541998872E+01 -0.18009343329E+02  0.40976958367E+02  0.44893097744E+02  0.10566000000E+00 0.  1.
         23    2    1    0    0    0  0.28437648348E+02 -0.36653172061E+01  0.35603493395E+01  0.96106912916E+02  0.91660941677E+02 0.  0.
         13    1    3    3    0    0  0.31891848236E+02  0.14344026123E+02 -0.37416609028E+02  0.51213815172E+02  0.10566000000E+00 0. -1.
         22    1    1    0    0    0 -0.28437648348E+02  0.36653172061E+01 -0.35603493395E+01  0.28893087084E+02  0.00000000000E+00 0. -1.
</event>
<event>
 5    1  0.1766627E-003  0.9118800E+02  0.7818608E-02  0.1130116E+00
         25   -1    0    0    0    0  0.00000000000E+00  0.00000000000E+00  0.99999998245E-14  0.12500000000E+03  0.12500000000E+03 0.  0.
        -13    1    3    3    0    0  0.38960255299E+02  0.25974774956E+02 -0.22860954743E+02  0.52107819402E+02  0.10566000000E+00 0. -1.
         23    2    1    0    0    0  0.19752446183E+02  0.13311494291E+02  0.15316220043E+02  0.96681426468E+02  0.92441098096E+02 0.  0.
         13    1    3    3    0    0 -0.19207809117E+02 -0.12663280665E+02  0.38177174786E+02  0.44573607067E+02  0.10566000000E+00 0.  1.
         22    1    1    0    0    0 -0.19752446183E+02 -0.13311494291E+02 -0.15316220043E+02  0.28318573532E+02  0.00000000000E+00 0. -1.
</event>
<event>
 5    1  0.1766627E-003  0.9118800E+02  0.7818608E-02  0.1130116E+00
         25   -1    0    0    0    0  0.00000000000E+00  0.00000000000E+00  0.99999998245E-14  0.12500000000E+03  0.12500000000E+03 0.  0.
        -13    1    3    3    0    0  0.10432571599E+02 -0.21043486991E+02  0.56891841294E+02  0.61549652028E+02  0.10566000000E+00 0. -1.
         23    2    1    0    0    0 -0.17759570133E+01 -0.13203294501E+02  0.31574309691E+02  0.90730216787E+02  0.84009250661E+02 0.  0.
         13    1    3    3    0    0 -0.12208528612E+02  0.78401924906E+01 -0.25317531603E+02  0.29180564759E+02  0.10566000000E+00 0.  1.
         22    1    1    0    0    0  0.17759570133E+01  0.13203294501E+02 -0.31574309691E+02  0.34269783213E+02  0.00000000000E+00 0. -1.
</event>
<event>
 5    1  0.1766627E-003  0.9118800E+02  0.7818608E-02  0.1130116E+00
         25   -1    0    0    0    0  0.00000000000E+00  0.00000000000E+00  0.99999998245E-14  0.12500000000E+03  0.12500000000E+03 0.  0.
        -13    1    3    3    0    0 -0.56022114562E+02  0.12080565385E+02  0.34214431647E+00  0.57310955381E+02  0.10566000000E+00 0.  1.
         23    2    1    0    0    0 -0.24653452052E+02 -0.62943232208E+00  0.17012712510E+02  0.95039671730E+02  0.90193779899E+02 0.  0.
         13    1    3    3    0    0  0.31368662510E+02 -0.12709997707E+02  0.16670568194E+02  0.37728716348E+02  0.10566000000E+00 0. -1.
         22    1    1    0    0    0  0.24653452052E+02  0.62943232208E+00 -0.17012712510E+02  0.29960328270E+02  0.00000000000E+00 0.  1.
</event>
<event>
 5    1  0.1766627E-003  0.9118800E+02  0.7818608E-02  0.1130116E+00
         25   -1    0    0    0    0  0.00000000000E+00  0.00000000000E+00  0.99999998245E-14  0.12500000000E+03  0.12500000000E+03 0.  0.
        -13    1    3    3    0    0  0.32889317384E+02 -0.44819178087E+02 -0.96304057599E+01  0.56420047869E+02  0.10566000000E+00 0. -1.
         23    2    1    0    0    0  0.75360198378E+01 -0.17617501865E+02 -0.22201826288E+02  0.95672725024E+02  0.91066905383E+02 0.  0.
         13    1    3    3    0    0 -0.25353297546E+02  0.27201676222E+02 -0.12571420528E+02  0.39252677156E+02  0.10566000000E+00 0.  1.
         22    1    1    0    0    0 -0.75360198378E+01  0.17617501865E+02  0.22201826288E+02  0.29327274976E+02  0.00000000000E+00 0. -1.
</event>
<event>
 5    1  0.1766627E-003  0.9118800E+02  0.7818608E-02  0.1130116E+00
         25   -1    0    0    0    0  0.00000000000E+00  0.00000000000E+00  0.99999998245E-14  0.12500000000E+03  0.12500000000E+03 0.  0.
        -13    1    3    3    0    0  0.20516423608E+02  0.48560713204E+02 -0.19866437778E+02  0.56336072090E+02  0.10566000000E+00 0. -1.
         23    2    1    0    0    0 -0.46504616450E+01  0.30447486357E+02  0.17737646505E+01  0.94148379945E+02  0.88949957764E+02 0.  0.
         13    1    3    3    0    0 -0.25166885253E+02 -0.18113226846E+02  0.21640202428E+02  0.37812307855E+02  0.10566000000E+00 0.  1.
         22    1    1    0    0    0  0.46504616450E+01 -0.30447486357E+02 -0.17737646505E+01  0.30851620055E+02  0.00000000000E+00 0. -1.
</event>
<event>
 5    1  0.1766627E-003  0.9118800E+02  0.7818608E-02  0.1130116E+00
         25   -1    0    0    0    0  0.00000000000E+00  0.00000000000E+00  0.99999998245E-14  0.12500000000E+03  0.12500000000E+03 0.  0.
        -13    1    3    3    0    0  0.38987822713E+01 -0.22461307839E+02  0.48028353699E+02  0.53164318636E+02  0.10566000000E+00 0.  1.
         23    2    1    0    0    0 -0.20251636155E+02 -0.18085526461E+02  0.16108348199E+02  0.93429540453E+02  0.87933981561E+02 0.  0.
         13    1    3    3    0    0 -0.24150418426E+02  0.43757813778E+01 -0.31920005500E+02  0.40265221817E+02  0.10566000000E+00 0. -1.
         22    1    1    0    0    0  0.20251636155E+02  0.18085526461E+02 -0.16108348199E+02  0.31570459547E+02  0.00000000000E+00 0.  1.
</event>
<event>
 5    1  0.1766627E-003  0.9118800E+02  0.7818608E-02  0.1130116E+00
         25   -1    0    0    0    0  0.00000000000E+00  0.00000000000E+00  0.99999998245E-14  0.12500000000E+03  0.12500000000E+03 0.  0.
        -13    1    3    3    0    0  0.99536172647E+01 -0.59934076638E+02  0.55785730532E+01  0.61010652189E+02  0.10566000000E+00 0. -1.
         23    2    1    0    0    0 -0.33855808920E+01 -0.28318878645E+02  0.79067053043E+01  0.95403766549E+02  0.90696977002E+02 0.  0.
         13    1    3    3    0    0 -0.13339198157E+02  0.31615197993E+02  0.23281322512E+01  0.34393114361E+02  0.10566000000E+00 0.  1.
         22    1    1    0    0    0  0.33855808920E+01  0.28318878645E+02 -0.79067053043E+01  0.29596233451E+02  0.00000000000E+00 0. -1.
</event>
<event>
 5    1  0.1766627E-003  0.9118800E+02  0.7818608E-02  0.1130116E+00
         25   -1    0    0    0    0  0.00000000000E+00  0.00000000000E+00  0.99999998245E-14  0.12500000000E+03  0.12500000000E+03 0.  0.
        -13    1    3    3    0    0 -0.15251616680E+02 -0.27910168310E+02  0.11890436581E+02  0.33955602669E+02  0.10566000000E+00 0.  1.
         23    2    1    0    0    0  0.27296962901E+02  0.13874052131E+02  0.46530703917E+01  0.94028003451E+02  0.88780633376E+02 0.  0.
         13    1    3    3    0    0  0.42548579582E+02  0.41784220441E+02 -0.72373661893E+01  0.60072400782E+02  0.10566000000E+00 0. -1.
         22    1    1    0    0    0 -0.27296962901E+02 -0.13874052131E+02 -0.46530703917E+01  0.30971996549E+02  0.00000000000E+00 0. -1.
</event>
<event>
 5    1  0.1766627E-003  0.9118800E+02  0.7818608E-02  0.1130116E+00
         25   -1    0    0    0    0  0.00000000000E+00  0.00000000000E+00  0.99999998245E-14  0.12500000000E+03  0.12500000000E+03 0.  0.
        -13    1    3    3    0    0  0.47139683219E+02  0.11610160405E+02 -0.23042911954E+02  0.53739487474E+02  0.10566000000E+00 0. -1.
         23    2    1    0    0    0  0.52000897423E+01  0.79097133760E+01 -0.27346496462E+02  0.96061524440E+02  0.91599023521E+02 0.  0.
         13    1    3    3    0    0 -0.41939593477E+02 -0.37004470288E+01 -0.43035845077E+01  0.42322036965E+02  0.10566000000E+00 0.  1.
         22    1    1    0    0    0 -0.52000897423E+01 -0.79097133760E+01  0.27346496462E+02  0.28938475560E+02  0.00000000000E+00 0. -1.
</event>
<event>
 5    1  0.1766627E-003  0.9118800E+02  0.7818608E-02  0.1130116E+00
         25   -1    0    0    0    0  0.00000000000E+00  0.00000000000E+00  0.99999998245E-14  0.12500000000E+03  0.12500000000E+03 0.  0.
        -13    1    3    3    0    0  0.22580286114E+02 -0.22294442909E+02  0.29117885471E+02  0.43067086318E+02  0.10566000000E+00 0. -1.
         23    2    1    0    0    0  0.21898827529E+01 -0.20588988132E+02 -0.19960549211E+02  0.96240209605E+02  0.91842541347E+02 0.  0.
         13    1    3    3    0    0 -0.20390403361E+02  0.17054547765E+01 -0.49078434682E+02  0.53173123287E+02  0.10566000000E+00 0.  1.
         22    1    1    0    0    0 -0.21898827529E+01  0.20588988132E+02  0.19960549211E+02  0.28759790395E+02  0.00000000000E+00 0.  1.
</event>
<event>
 5    1  0.1766627E-003  0.9118800E+02  0.7818608E-02  0.1130116E+00
         25   -1    0    0    0    0  0.00000000000E+00  0.00000000000E+00  0.99999998245E-14  0.12500000000E+03  0.12500000000E+03 0.  0.
        -13    1    3    3    0    0  0.22483922651E+02  0.30220852380E+02  0.40134046504E+02  0.55041616520E+02  0.10566000000E+00 0.  1.
         23    2    1    0    0    0  0.27297161797E+02  0.20157875585E+02  0.65363893261E+01  0.90442810072E+02  0.83580515182E+02 0.  0.
         13    1    3    3    0    0  0.48132391454E+01 -0.10062976795E+02 -0.33597657178E+02  0.35401193552E+02  0.10566000000E+00 0. -1.
         22    1    1    0    0    0 -0.27297161797E+02 -0.20157875585E+02 -0.65363893261E+01  0.34557189928E+02  0.00000000000E+00 0.  1.
</event>
<event>
 5    1  0.1766627E-003  0.9118800E+02  0.7818608E-02  0.1130116E+00
         25   -1    0    0    0    0  0.00000000000E+00  0.00000000000E+00  0.99999998245E-14  0.12500000000E+03  0.12500000000E+03 0.  0.
        -13    1    3    3    0    0 -0.23180146508E+02 -0.48346041029E+02  0.26493387697E+02  0.59804428189E+02  0.10566000000E+00 0.  1.
         23    2    1    0    0    0 -0.48764514740E+00 -0.27666753869E+02  0.60925609346E+01  0.96666162170E+02  0.92420455217E+02 0.  0.
         13    1    3    3    0    0  0.22692501360E+02  0.20679287160E+02 -0.20400826763E+02  0.36861733981E+02  0.10566000000E+00 0. -1.
         22    1    1    0    0    0  0.48764514740E+00  0.27666753869E+02 -0.60925609346E+01  0.28333837830E+02  0.00000000000E+00 0.  1.
</event>
<event>
 5    1  0.1766627E-003  0.9118800E+02  0.7818608E-02  0.1130116E+00
         25   -1    0    0    0    0  0.00000000000E+00  0.00000000000E+00  0.99999998245E-14  0.12500000000E+03  0.12500000000E+03 0.  0.
        -13    1    3    3    0    0 -0.30206048319E+01  0.23944722961E+02 -0.22740234275E+02  0.33160265834E+02  0.10566000000E+00 0. -1.
         23    2    1    0    0    0  0.82030404397E+01 -0.21577384668E+02  0.18356095966E+02  0.95507294789E+02  0.90839549191E+02 0.  0.
         13    1    3    3    0    0  0.11223645272E+02 -0.45522107629E+02  0.41096330241E+02  0.62347028955E+02  0.10566000000E+00 0.  1.
         22    1    1    0    0    0 -0.82030404397E+01  0.21577384668E+02 -0.18356095966E+02  0.29492705211E+02  0.00000000000E+00 0.  1.
</event>
<event>
 5    1  0.1766627E-003  0.9118800E+02  0.7818608E-02  0.1130116E+00
         25   -1    0    0    0    0  0.00000000000E+00  0.00000000000E+00  0.99999998245E-14  0.12500000000E+03  0.12500000000E+03 0.  0.
        -13    1    3    3    0    0 -0.54424676801E+02 -0.13998861922E+02  0.12033435465E+02  0.57470238499E+02  0.10566000000E+00 0. -1.
         23    2    1    0    0    0 -0.22112546012E+02 -0.18730038885E+02 -0.68894333395E+01  0.95213369786E+02  0.90434188482E+02 0.  0.
         13    1    3    3    0    0  0.32312130789E+02 -0.47311769630E+01 -0.18922868804E+02  0.37743131287E+02  0.10566000000E+00 0.  1.
         22    1    1    0    0    0  0.22112546012E+02  0.18730038885E+02  0.68894333395E+01  0.29786630214E+02  0.00000000000E+00 0. -1.
</event>
<event>
 5    1  0.1766627E-003  0.9118800E+02  0.7818608E-02  0.1130116E+00
         25   -1    0    0    0    0  0.00000000000E+00  0.00000000000E+00  0.99999998245E-14  0.12500000000E+03  0.12500000000E+03 0.  0.
        -13    1    3    3    0    0 -0.30304356151E+02 -0.17880668412E+02 -0.11139181585E+02  0.36907517324E+02  0.10566000000E+00 0.  1.
         23    2    1    0    0    0 -0.16230256491E+02  0.23631410944E+02  0.19448010755E+02  0.90357685827E+02  0.83453109329E+02 0.  0.
         13    1    3    3    0    0  0.14074099660E+02  0.41512079356E+02  0.30587192340E+02  0.53450168502E+02  0.10566000000E+00 0. -1.
         22    1    1    0    0    0  0.16230256491E+02 -0.23631410944E+02 -0.19448010755E+02  0.34642314173E+02  0.00000000000E+00 0. -1.
</event>
<event>
 5    1  0.1766627E-003  0.9118800E+02  0.7818608E-02  0.1130116E+00
         25   -1    0    0    0    0  0.00000000000E+00  0.00000000000E+00  0.99999998245E-14  0.12500000000E+03  0.12500000000E+03 0.  0.
        -13    1    3    3    0    0 -0.33481030177E+01 -0.32037894587E+01  0.39812421126E+02  0.40081343549E+02  0.10566000000E+00 0. -1.
         23    2    1    0    0    0 -0.21600129632E+02 -0.21155961748E+02 -0.74755757324E+01  0.93854782869E+02  0.88536408992E+02 0.  0.
         13    1    3    3    0    0 -0.18252026615E+02 -0.17952172289E+02 -0.47287996858E+02  0.53773439320E+02  0.10566000000E+00 0.  1.
         22    1    1    0    0    0  0.21600129632E+02  0.21155961748E+02  0.74755757324E+01  0.31145217131E+02  0.00000000000E+00 0.  1.
</event>
<event>
 5    1  0.1766627E-003  0.9118800E+02  0.7818608E-02  0.1130116E+00
         25   -1    0    0    0    0  0.00000000000E+00  0.00000000000E+00  0.99999998245E-14  0.12500000000E+03  0.12500000000E+03 0.  0.
        -13    1    3    3    0    0 -0.49338841454E+02  0.94225590226E+00 -0.30891436901E+02  0.58219422532E+02  0.10566000000E+00 0.  1.
         23    2    1    0    0    0 -0.26962130800E+02 -0.78186834372E+01 -0.55369763784E+00  0.96921629516E+02  0.92765335007E+02 0.  0.
         13    1    3    3    0    0  0.22376710654E+02 -0.87609393394E+01  0.30337739263E+02  0.38702206984E+02  0.10566000000E+00 0. -1.
         22    1    1    0    0    0  0.26962130800E+02  0.78186834372E+01  0.55369763784E+00  0.28078370484E+02  0.00000000000E+00 0.  1.
</event>
<event>
 5    1  0.1766627E-003  0.9118800E+02  0.7818608E-02  0.1130116E+00
         25   -1    0    0    0    0  0.00000000000E+00  0.00000000000E+00  0.99999998245E-14  0.12500000000E+03  0.12500000000E+03 0.  0.
        -13    1    3    3    0    0  0.44892824966E+02  0.12576346607E+01 -0.50422253133E+01  0.45192727054E+02  0.10566000000E+00 0. -1.
         23    2    1    0    0    0  0.13318095941E+02  0.25401187812E+02 -0.22442375127E+02  0.88582254008E+02  0.80750006205E+02 0.  0.
         13    1    3    3    0    0 -0.31574729025E+02  0.24143553151E+02 -0.17400149814E+02  0.43389526955E+02  0.10566000000E+00 0.  1.
         22    1    1    0    0    0 -0.13318095941E+02 -0.25401187812E+02  0.22442375127E+02  0.36417745992E+02  0.00000000000E+00 0. -1.
</event>
<event>
 5    1  0.1766627E-003  0.9118800E+02  0.7818608E-02  0.1130116E+00
         25   -1    0    0    0    0  0.00000000000E+00  0.00000000000E+00  0.99999998245E-14  0.12500000000E+03  0.12500000000E+03 0.  0.
        -13    1    3    3    0    0 -0.33505526434E+02  0.74164048311E+01 -0.25438095954E+01  0.34410833956E+02  0.10566000000E+00 0.  1.
         23    2    1    0    0    0  0.80265323278E+01  0.37249178211E+02  0.65138645218E+01  0.86343086910E+02  0.77206034269E+02 0.  0.
         13    1    3    3    0    0  0.41532058762E+02  0.29832773380E+02  0.90576741172E+01  0.51932252955E+02  0.10566000000E+00 0. -1.
         22    1    1    0    0    0 -0.80265323278E+01 -0.37249178211E+02 -0.65138645218E+01  0.38656913090E+02  0.00000000000E+00 0. -1.
</event>
<event>
 5    1  0.1766627E-003  0.9118800E+02  0.7818608E-02  0.1130116E+00
         25   -1    0    0    0    0  0.00000000000E+00  0.00000000000E+00  0.99999998245E-14  0.12500000000E+03  0.12500000000E+03 0.  0.
        -13    1    3    3    0    0  0.28462480166E+02  0.47282878467E+02  0.37131902841E+01  0.55313491297E+02  0.10566000000E+00 0.  1.
         23    2    1    0    0    0  0.24173001040E+02  0.11159022384E+02 -0.13028505189E+02  0.95358817377E+02  0.90635006174E+02 0.  0.
         13    1    3    3    0    0 -0.42894791260E+01 -0.36123856083E+02 -0.16741695474E+02  0.40045326080E+02  0.10566000000E+00 0. -1.
         22    1    1    0    0    0 -0.24173001040E+02 -0.11159022384E+02  0.13028505189E+02  0.29641182623E+02  0.00000000000E+00 0.  1.
</event>
<event>
 5    1  0.1766627E-003  0.9118800E+02  0.7818608E-02  0.1130116E+00
         25   -1    0    0    0    0  0.00000000000E+00  0.00000000000E+00  0.99999998245E-14  0.12500000000E+03  0.12500000000E+03 0.  0.
        -13    1    3    3    0    0 -0.48607529536E+02  0.20164525708E+02 -0.29009781293E+02  0.60090586612E+02  0.10566000000E+00 0. -1.
         23    2    1    0    0    0 -0.15736367534E+02  0.10829098581E+02 -0.23519898713E+02  0.94700028470E+02  0.89721831889E+02 0.  0.
         13    1    3    3    0    0  0.32871162002E+02 -0.93354271266E+01  0.54898825802E+01  0.34609441859E+02  0.10566000000E+00 0.  1.
         22    1    1    0    0    0  0.15736367534E+02 -0.10829098581E+02  0.23519898713E+02  0.30299971530E+02  0.00000000000E+00 0. -1.
</event>
<event>
 5    1  0.1766627E-003  0.9118800E+02  0.7818608E-02  0.1130116E+00
         25   -1    0    0    0    0  0.00000000000E+00  0.00000000000E+00  0.99999998245E-14  0.12500000000E+03  0.12500000000E+03 0.  0.
        -13    1    3    3    0    0 -0.32619895044E+02 -0.39023210807E+02  0.58054433789E+01  0.51191628918E+02  0.10566000000E+00 0. -1.
         23    2    1    0    0    0 -0.21611108196E+02  0.20565849814E+01  0.19446231177E+02  0.95855095708E+02  0.91316887414E+02 0.  0.
         13    1    3    3    0    0  0.11008786849E+02  0.41079795788E+02  0.13640787798E+02  0.44663466790E+02  0.10566000000E+00 0.  1.
         22    1    1    0    0    0  0.21611108196E+02 -0.20565849814E+01 -0.19446231177E+02  0.29144904292E+02  0.00000000000E+00 0. -1.
</event>
<event>
 5    1  0.1766627E-003  0.9118800E+02  0.7818608E-02  0.1130116E+00
         25   -1    0    0    0    0  0.00000000000E+00  0.00000000000E+00  0.99999998245E-14  0.12500000000E+03  0.12500000000E+03 0.  0.
        -13    1    3    3    0    0 -0.32212514444E+02 -0.36477858643E+01 -0.38232053980E+02  0.50126375732E+02  0.10566000000E+00 0.  1.
         23    2    1    0    0    0 -0.18902296388E+02 -0.28505665225E+02 -0.11680410389E+02  0.88857203407E+02  0.81174508633E+02 0.  0.
         13    1    3    3    0    0  0.13310218056E+02 -0.24857879361E+02  0.26551643590E+02  0.38730827675E+02  0.10566000000E+00 0. -1.
         22    1    1    0    0    0  0.18902296388E+02  0.28505665225E+02  0.11680410389E+02  0.36142796593E+02  0.00000000000E+00 0.  1.
</event>
<event>
 5    1  0.1766627E-003  0.9118800E+02  0.7818608E-02  0.1130116E+00
         25   -1    0    0    0    0  0.00000000000E+00  0.00000000000E+00  0.99999998245E-14  0.12500000000E+03  0.12500000000E+03 0.  0.
        -13    1    3    3    0    0  0.32698730695E+02 -0.39750487536E+02  0.72137665018E+01  0.51974588402E+02  0.10566000000E+00 0.  1.
         23    2    1    0    0    0  0.60824251765E+01 -0.10815009493E+02  0.26480123205E+02  0.95756928149E+02  0.91182410788E+02 0.  0.
         13    1    3    3    0    0 -0.26616305518E+02  0.28935478044E+02  0.19266356703E+02  0.43782339747E+02  0.10566000000E+00 0. -1.
         22    1    1    0    0    0 -0.60824251765E+01  0.10815009493E+02 -0.26480123205E+02  0.29243071851E+02  0.00000000000E+00 0.  1.
</event>
<event>
 5    1  0.1766627E-003  0.9118800E+02  0.7818608E-02  0.1130116E+00
         25   -1    0    0    0    0  0.00000000000E+00  0.00000000000E+00  0.99999998245E-14  0.12500000000E+03  0.12500000000E+03 0.  0.
        -13    1    3    3    0    0 -0.18273032390E+02 -0.12162503672E+02 -0.33985725599E+02  0.40458261416E+02  0.10566000000E+00 0. -1.
         23    2    1    0    0    0 -0.23396899394E+02  0.55948552764E+01  0.17559332505E+02  0.95216657930E+02  0.90438733309E+02 0.  0.
         13    1    3    3    0    0 -0.51238670039E+01  0.17757358948E+02  0.51545058104E+02  0.54758396515E+02  0.10566000000E+00 0.  1.
         22    1    1    0    0    0  0.23396899394E+02 -0.55948552764E+01 -0.17559332505E+02  0.29783342070E+02  0.00000000000E+00 0. -1.
</event>
<event>
 5    1  0.1766627E-003  0.9118800E+02  0.7818608E-02  0.1130116E+00
         25   -1    0    0    0    0  0.00000000000E+00  0.00000000000E+00  0.99999998245E-14  0.12500000000E+03  0.12500000000E+03 0.  0.
        -13    1    3    3    0    0  0.24279919025E+02  0.38628314148E+02 -0.13804973694E+02  0.47668119163E+02  0.10566000000E+00 0. -1.
         23    2    1    0    0    0 -0.18511524072E+02  0.24289372173E+02 -0.16030626389E+01  0.94418634205E+02  0.89328934569E+02 0.  0.
         13    1    3    3    0    0 -0.42791443097E+02 -0.14338941975E+02  0.12201911056E+02  0.46750515043E+02  0.10566000000E+00 0.  1.
         22    1    1    0    0    0  0.18511524072E+02 -0.24289372173E+02  0.16030626389E+01  0.30581365795E+02  0.00000000000E+00 0. -1.
</event>
<event>
 5    1  0.1766627E-003  0.9118800E+02  0.7818608E-02  0.1130116E+00
         25   -1    0    0    0    0  0.00000000000E+00  0.00000000000E+00  0.99999998245E-14  0.12500000000E+03  0.12500000000E+03 0.  0.
        -13    1    3    3    0    0 -0.58727487689E+02  0.87923602587E+01  0.94934580313E+01  0.60136181444E+02  0.10566000000E+00 0.  1.
         23    2    1    0    0    0 -0.23520801589E+02  0.13106174199E+02  0.11628365662E+02  0.95670513174E+02  0.91063869309E+02 0.  0.
         13    1    3    3    0    0  0.35206686100E+02  0.43138139408E+01  0.21349076304E+01  0.35534331730E+02  0.10566000000E+00 0. -1.
         22    1    1    0    0    0  0.23520801589E+02 -0.13106174199E+02 -0.11628365662E+02  0.29329486826E+02  0.00000000000E+00 0.  1.
</event>
<event>
 5    1  0.1766627E-003  0.9118800E+02  0.7818608E-02  0.1130116E+00
         25   -1    0    0    0    0  0.00000000000E+00  0.00000000000E+00  0.99999998245E-14  0.12500000000E+03  0.12500000000E+03 0.  0.
        -13    1    3    3    0    0 -0.80190701455E+01  0.10992127264E+02 -0.58678325997E+02  0.60235284125E+02  0.10566000000E+00 0. -1.
         23    2    1    0    0    0  0.37560774780E+01 -0.40496490754E+01 -0.28632162860E+02  0.95839949834E+02  0.91296152485E+02 0.  0.
         13    1    3    3    0    0  0.11775147623E+02 -0.15041776339E+02  0.30046163137E+02  0.35604665709E+02  0.10566000000E+00 0.  1.
         22    1    1    0    0    0 -0.37560774780E+01  0.40496490754E+01  0.28632162860E+02  0.29160050166E+02  0.00000000000E+00 0. -1.
</event>
<event>
 5    1  0.1766627E-003  0.9118800E+02  0.7818608E-02  0.1130116E+00
         25   -1    0    0    0    0  0.00000000000E+00  0.00000000000E+00  0.99999998245E-14  0.12500000000E+03  0.12500000000E+03 0.  0.
        -13    1    3    3    0    0  0.20263225346E+02 -0.15268869818E+02  0.28768339473E+02  0.38358378576E+02  0.10566000000E+00 0. -1.
         23    2    1    0    0    0  0.14827221380E+02 -0.12535760370E+00 -0.25796269693E+02  0.95245845023E+02  0.90479065290E+02 0.  0.
         13    1    3    3    0    0 -0.54360039662E+01  0.15143512214E+02 -0.54564609165E+02  0.56887466447E+02  0.10566000000E+00 0.  1.
         22    1    1    0    0    0 -0.14827221380E+02  0.12535760370E+00  0.25796269693E+02  0.29754154977E+02  0.00000000000E+00 0.  1.
</event>
<event>
 5    1  0.1766627E-003  0.9118800E+02  0.7818608E-02  0.1130116E+00
         25   -1    0    0    0    0  0.00000000000E+00  0.00000000000E+00  0.99999998245E-14  0.12500000000E+03  0.12500000000E+03 0.  0.
        -13    1    3    3    0    0 -0.11732962194E+02  0.11002095711E+02 -0.59180948385E+02  0.61327843005E+02  0.10566000000E+00 0.  1.
         23    2    1    0    0    0 -0.12180393811E+02  0.98434221239E+01 -0.25209422138E+02  0.95322231940E+02  0.90584535021E+02 0.  0.
         13    1    3    3    0    0 -0.44743161646E+00 -0.11586735867E+01  0.33971526246E+02  0.33994388935E+02  0.10566000000E+00 0. -1.
         22    1    1    0    0    0  0.12180393811E+02 -0.98434221239E+01  0.25209422138E+02  0.29677768060E+02  0.00000000000E+00 0.  1.
</event>
<event>
 5    1  0.1766627E-003  0.9118800E+02  0.7818608E-02  0.1130116E+00
         25   -1    0    0    0    0  0.00000000000E+00  0.00000000000E+00  0.99999998245E-14  0.12500000000E+03  0.12500000000E+03 0.  0.
        -13    1    3    3    0    0  0.31996289970E+01  0.34549569722E+02 -0.29480083055E+02  0.45530175210E+02  0.10566000000E+00 0. -1.
         23    2    1    0    0    0 -0.22505567922E+02  0.14428914730E+02  0.97304092883E+01  0.96550482733E+02  0.92263864450E+02 0.  0.
         13    1    3    3    0    0 -0.25705196919E+02 -0.20120654991E+02  0.39210492343E+02  0.51020307523E+02  0.10566000000E+00 0.  1.
         22    1    1    0    0    0  0.22505567922E+02 -0.14428914730E+02 -0.97304092883E+01  0.28449517267E+02  0.00000000000E+00 0. -1.
</event>
<event>
 5    1  0.1766627E-003  0.9118800E+02  0.7818608E-02  0.1130116E+00
         25   -1    0    0    0    0  0.00000000000E+00  0.00000000000E+00  0.99999998245E-14  0.12500000000E+03  0.12500000000E+03 0.  0.
        -13    1    3    3    0    0 -0.33104119144E+02 -0.32763497850E+01 -0.41087198187E+02  0.52865737403E+02  0.10566000000E+00 0.  1.
         23    2    1    0    0    0 -0.66375969006E+01 -0.24379866509E+02 -0.14866255733E+02  0.95683773382E+02  0.91082069286E+02 0.  0.
         13    1    3    3    0    0  0.26466522244E+02 -0.21103516724E+02  0.26220942455E+02  0.42818035979E+02  0.10566000000E+00 0. -1.
         22    1    1    0    0    0  0.66375969006E+01  0.24379866509E+02  0.14866255733E+02  0.29316226618E+02  0.00000000000E+00 0.  1.
</event>
<event>
 5    1  0.1766627E-003  0.9118800E+02  0.7818608E-02  0.1130116E+00
         25   -1    0    0    0    0  0.00000000000E+00  0.00000000000E+00  0.99999998245E-14  0.12500000000E+03  0.12500000000E+03 0.  0.
        -13    1    3    3    0    0  0.25371869906E+02  0.14838578766E+02 -0.15973560178E+02  0.33452667922E+02  0.10566000000E+00 0.  1.
         23    2    1    0    0    0  0.26035039448E+02 -0.91032683770E+01  0.29355523360E+02  0.84720482551E+02  0.74532681676E+02 0.  0.
         13    1    3    3    0    0  0.66316954185E+00 -0.23941847143E+02  0.45329083537E+02  0.51267814629E+02  0.10566000000E+00 0. -1.
         22    1    1    0    0    0 -0.26035039448E+02  0.91032683770E+01 -0.29355523360E+02  0.40279517449E+02  0.00000000000E+00 0. -1.
</event>
<event>
 5    1  0.1766627E-003  0.9118800E+02  0.7818608E-02  0.1130116E+00
         25   -1    0    0    0    0  0.00000000000E+00  0.00000000000E+00  0.99999998245E-14  0.12500000000E+03  0.12500000000E+03 0.  0.
        -13    1    3    3    0    0  0.21922084386E+02  0.29301362677E+02  0.26200936164E+02  0.45007197851E+02  0.10566000000E+00 0.  1.
         23    2    1    0    0    0 -0.13753563291E+02  0.23832918423E+02 -0.96124028197E+01  0.95852670933E+02  0.91313568177E+02 0.  0.
         13    1    3    3    0    0 -0.35675647677E+02 -0.54684442535E+01 -0.35813338983E+02  0.50845473082E+02  0.10566000000E+00 0. -1.
         22    1    1    0    0    0  0.13753563291E+02 -0.23832918423E+02  0.96124028197E+01  0.29147329067E+02  0.00000000000E+00 0. -1.
</event>
<event>
 5    1  0.1766627E-003  0.9118800E+02  0.7818608E-02  0.1130116E+00
         25   -1    0    0    0    0  0.00000000000E+00  0.00000000000E+00  0.99999998245E-14  0.12500000000E+03  0.12500000000E+03 0.  0.
        -13    1    3    3    0    0 -0.16887074995E+02  0.20504288806E+02 -0.24396805321E+02  0.36066805171E+02  0.10566000000E+00 0. -1.
         23    2    1    0    0    0  0.30865129041E+02  0.74305002896E+00  0.19296009818E+01  0.94065687756E+02  0.88833675704E+02 0.  0.
         13    1    3    3    0    0  0.47752204036E+02 -0.19761238777E+02  0.26326406303E+02  0.57998882585E+02  0.10566000000E+00 0.  1.
         22    1    1    0    0    0 -0.30865129041E+02 -0.74305002896E+00 -0.19296009818E+01  0.30934312244E+02  0.00000000000E+00 0.  1.
</event>
<event>
 5    1  0.1766627E-003  0.9118800E+02  0.7818608E-02  0.1130116E+00
         25   -1    0    0    0    0  0.00000000000E+00  0.00000000000E+00  0.99999998245E-14  0.12500000000E+03  0.12500000000E+03 0.  0.
        -13    1    3    3    0    0  0.31829504995E+02 -0.92888367095E+00 -0.11591134315E+02  0.33887250875E+02  0.10566000000E+00 0. -1.
         23    2    1    0    0    0 -0.23477877444E+00 -0.35172125167E+02  0.13784364386E+02  0.87222464197E+02  0.78616894172E+02 0.  0.
         13    1    3    3    0    0 -0.32064283770E+02 -0.34243241496E+02  0.25375498701E+02  0.53335213322E+02  0.10566000000E+00 0.  1.
         22    1    1    0    0    0  0.23477877444E+00  0.35172125167E+02 -0.13784364386E+02  0.37777535803E+02  0.00000000000E+00 0.  1.
</event>
<event>
 5    1  0.1766627E-003  0.9118800E+02  0.7818608E-02  0.1130116E+00
         25   -1    0    0    0    0  0.00000000000E+00  0.00000000000E+00  0.99999998245E-14  0.12500000000E+03  0.12500000000E+03 0.  0.
        -13    1    3    3    0    0  0.55337564359E+02 -0.16236927816E+02 -0.90437253462E+01  0.58375371401E+02  0.10566000000E+00 0. -1.
         23    2    1    0    0    0  0.26285473485E+02  0.44154007583E+01 -0.14847861327E+02  0.94489659685E+02  0.89428266902E+02 0.  0.
         13    1    3    3    0    0 -0.29052090874E+02  0.20652328574E+02 -0.58041359811E+01  0.36114288283E+02  0.10566000000E+00 0.  1.
         22    1    1    0    0    0 -0.26285473485E+02 -0.44154007583E+01  0.14847861327E+02  0.30510340315E+02  0.00000000000E+00 0. -1.
</event>
<event>
 5    1  0.1766627E-003  0.9118800E+02  0.7818608E-02  0.1130116E+00
         25   -1    0    0    0    0  0.00000000000E+00  0.00000000000E+00  0.99999998245E-14  0.12500000000E+03  0.12500000000E+03 0.  0.
        -13    1    3    3    0    0  0.12514090098E+02  0.35604397773E+02 -0.31298215859E+02  0.49029226709E+02  0.10566000000E+00 0. -1.
         23    2    1    0    0    0 -0.10310532343E+02  0.26704194168E+02  0.79455715216E+01  0.95292203546E+02  0.90543088562E+02 0.  0.
         13    1    3    3    0    0 -0.22824622441E+02 -0.89002036046E+01  0.39243787380E+02  0.46262976836E+02  0.10566000000E+00 0.  1.
         22    1    1    0    0    0  0.10310532343E+02 -0.26704194168E+02 -0.79455715216E+01  0.29707796454E+02  0.00000000000E+00 0. -1.
</event>
<event>
 5    1  0.1766627E-003  0.9118800E+02  0.7818608E-02  0.1130116E+00
         25   -1    0    0    0    0  0.00000000000E+00  0.00000000000E+00  0.99999998245E-14  0.12500000000E+03  0.12500000000E+03 0.  0.
        -13    1    3    3    0    0  0.27615936507E+02 -0.14379597546E+02  0.13064648847E+02  0.33765499970E+02  0.10566000000E+00 0. -1.
         23    2    1    0    0    0 -0.12163671661E+02  0.21835777819E+02 -0.16402982632E+02  0.95103278768E+02  0.90281890166E+02 0.  0.
         13    1    3    3    0    0 -0.39779608167E+02  0.36215375365E+02 -0.29467631479E+02  0.61337778797E+02  0.10566000000E+00 0.  1.
         22    1    1    0    0    0  0.12163671661E+02 -0.21835777819E+02  0.16402982632E+02  0.29896721232E+02  0.00000000000E+00 0.  1.
</event>
<event>
 5    1  0.1766627E-003  0.9118800E+02  0.7818608E-02  0.1130116E+00
         25   -1    0    0    0    0  0.00000000000E+00  0.00000000000E+00  0.99999998245E-14  0.12500000000E+03  0.12500000000E+03 0.  0.
        -13    1    3    3    0    0 -0.25069897525E+01 -0.17816192219E+02 -0.52702089017E+02  0.55688625891E+02  0.10566000000E+00 0. -1.
         23    2    1    0    0    0  0.19137038436E+02 -0.48139133188E+01 -0.21775831803E+02  0.95613151713E+02  0.90985097286E+02 0.  0.
         13    1    3    3    0    0  0.21644028189E+02  0.13002278901E+02  0.30926257214E+02  0.39924525822E+02  0.10566000000E+00 0.  1.
         22    1    1    0    0    0 -0.19137038436E+02  0.48139133188E+01  0.21775831803E+02  0.29386848287E+02  0.00000000000E+00 0.  1.
</event>
<event>
 5    1  0.1766627E-003  0.9118800E+02  0.7818608E-02  0.1130116E+00
         25   -1    0    0    0    0  0.00000000000E+00  0.00000000000E+00  0.99999998245E-14  0.12500000000E+03  0.12500000000E+03 0.  0.
        -13    1    3    3    0    0  0.16470746525E+02  0.27172982588E+02 -0.50635714192E+02  0.59779956420E+02  0.10566000000E+00 0.  1.
         23    2    1    0    0    0  0.14835693362E+02  0.20175761544E+02 -0.15710535520E+02  0.95436845944E+02  0.90742556091E+02 0.  0.
         13    1    3    3    0    0 -0.16350531633E+01 -0.69972210434E+01  0.34925178672E+02  0.35656889523E+02  0.10566000000E+00 0. -1.
         22    1    1    0    0    0 -0.14835693362E+02 -0.20175761544E+02  0.15710535520E+02  0.29563154056E+02  0.00000000000E+00 0.  1.
</event>
<event>
 5    1  0.1766627E-003  0.9118800E+02  0.7818608E-02  0.1130116E+00
         25   -1    0    0    0    0  0.00000000000E+00  0.00000000000E+00  0.99999998245E-14  0.12500000000E+03  0.12500000000E+03 0.  0.
        -13    1    3    3    0    0 -0.81050552593E+00  0.60481233996E+02 -0.12330995252E+02  0.61730877143E+02  0.10566000000E+00 0. -1.
         23    2    1    0    0    0  0.53772404508E+01  0.27069089187E+02 -0.94318693019E+01  0.95834773055E+02  0.91289064316E+02 0.  0.
         13    1    3    3    0    0  0.61877459767E+01 -0.33412144809E+02  0.28991259505E+01  0.34103895912E+02  0.10566000000E+00 0.  1.
         22    1    1    0    0    0 -0.53772404508E+01 -0.27069089187E+02  0.94318693019E+01  0.29165226945E+02  0.00000000000E+00 0. -1.
</event>
<event>
 5    1  0.1766627E-003  0.9118800E+02  0.7818608E-02  0.1130116E+00
         25   -1    0    0    0    0  0.00000000000E+00  0.00000000000E+00  0.99999998245E-14  0.12500000000E+03  0.12500000000E+03 0.  0.
        -13    1    3    3    0    0 -0.29476939634E+02  0.11606563242E+02  0.20269649617E+02  0.37609468756E+02  0.10566000000E+00 0.  1.
         23    2    1    0    0    0  0.24723792066E+02 -0.96070003115E+01  0.96484292361E+01  0.96774966150E+02  0.92567497198E+02 0.  0.
         13    1    3    3    0    0  0.54200731700E+02 -0.21213563553E+02 -0.10621220381E+02  0.59165497394E+02  0.10566000000E+00 0. -1.
         22    1    1    0    0    0 -0.24723792066E+02  0.96070003115E+01 -0.96484292361E+01  0.28225033850E+02  0.00000000000E+00 0. -1.
</event>
<event>
 5    1  0.1766627E-003  0.9118800E+02  0.7818608E-02  0.1130116E+00
         25   -1    0    0    0    0  0.00000000000E+00  0.00000000000E+00  0.99999998245E-14  0.12500000000E+03  0.12500000000E+03 0.  0.
        -13    1    3    3    0    0  0.51132971195E+02  0.44067096385E+01 -0.28911259148E+02  0.58905618600E+02  0.10566000000E+00 0.  1.
         23    2    1    0    0    0  0.14088462859E+02  0.19693324426E+01 -0.25000313302E+02  0.96235808351E+02  0.91836550936E+02 0.  0.
         13    1    3    3    0    0 -0.37044508336E+02 -0.24373771959E+01  0.39109458454E+01  0.37330189752E+02  0.10566000000E+00 0. -1.
         22    1    1    0    0    0 -0.14088462859E+02 -0.19693324426E+01  0.25000313302E+02  0.28764191649E+02  0.00000000000E+00 0.  1.
</event>
<event>
 5    1  0.1766627E-003  0.9118800E+02  0.7818608E-02  0.1130116E+00
         25   -1    0    0    0    0  0.00000000000E+00  0.00000000000E+00  0.99999998245E-14  0.12500000000E+03  0.12500000000E+03 0.  0.
        -13    1    3    3    0    0  0.16217685575E+02 -0.59560947178E+01  0.28521524682E+02  0.33346317996E+02  0.10566000000E+00 0. -1.
         23    2    1    0    0    0 -0.97339507103E+01 -0.12905981853E+02 -0.26146839362E+02  0.94259613329E+02  0.89106135211E+02 0.  0.
         13    1    3    3    0    0 -0.25951636285E+02 -0.69498871355E+01 -0.54668364044E+02  0.60913295333E+02  0.10566000000E+00 0.  1.
         22    1    1    0    0    0  0.97339507103E+01  0.12905981853E+02  0.26146839362E+02  0.30740386671E+02  0.00000000000E+00 0.  1.
</event>
<event>
 5    1  0.1766627E-003  0.9118800E+02  0.7818608E-02  0.1130116E+00
         25   -1    0    0    0    0  0.00000000000E+00  0.00000000000E+00  0.99999998245E-14  0.12500000000E+03  0.12500000000E+03 0.  0.
        -13    1    3    3    0    0  0.40192083153E+02 -0.21507844878E+02 -0.12248750290E+02  0.47202054904E+02  0.10566000000E+00 0.  1.
         23    2    1    0    0    0  0.35012727924E+01  0.70890471301E+01 -0.27679461256E+02  0.96213439319E+02  0.91806099089E+02 0.  0.
         13    1    3    3    0    0 -0.36690810360E+02  0.28596892008E+02 -0.15430710967E+02  0.49011384416E+02  0.10566000000E+00 0. -1.
         22    1    1    0    0    0 -0.35012727924E+01 -0.70890471301E+01  0.27679461256E+02  0.28786560681E+02  0.00000000000E+00 0.  1.
</event>
<event>
 5    1  0.1766627E-003  0.9118800E+02  0.7818608E-02  0.1130116E+00
         25   -1    0    0    0    0  0.00000000000E+00  0.00000000000E+00  0.99999998245E-14  0.12500000000E+03  0.12500000000E+03 0.  0.
        -13    1    3    3    0    0 -0.37876498485E+02 -0.34554313011E+02  0.62479136523E+01  0.51649562188E+02  0.10566000000E+00 0. -1.
         23    2    1    0    0    0 -0.28385384949E+02  0.79476097993E+01  0.10900404656E+01  0.95502834569E+02  0.90833411487E+02 0.  0.
         13    1    3    3    0    0  0.94911135359E+01  0.42501922810E+02 -0.51578731867E+01  0.43853272381E+02  0.10566000000E+00 0.  1.
         22    1    1    0    0    0  0.28385384949E+02 -0.79476097993E+01 -0.10900404656E+01  0.29497165431E+02  0.00000000000E+00 0.  1.
</event>
<event>
 5    1  0.1766627E-003  0.9118800E+02  0.7818608E-02  0.1130116E+00
         25   -1    0    0    0    0  0.00000000000E+00  0.00000000000E+00  0.99999998245E-14  0.12500000000E+03  0.12500000000E+03 0.  0.
        -13    1    3    3    0    0 -0.34165592541E+02 -0.29023873791E+02  0.89927896183E+01  0.45722580774E+02  0.10566000000E+00 0.  1.
         23    2    1    0    0    0  0.48439732745E+00 -0.16199460399E+02 -0.24522349366E+02  0.95606075859E+02  0.90975375595E+02 0.  0.
         13    1    3    3    0    0  0.34649989868E+02  0.12824413392E+02 -0.33515138984E+02  0.49883495085E+02  0.10566000000E+00 0. -1.
         22    1    1    0    0    0 -0.48439732745E+00  0.16199460399E+02  0.24522349366E+02  0.29393924141E+02  0.00000000000E+00 0. -1.
</event>
<event>
 5    1  0.1766627E-003  0.9118800E+02  0.7818608E-02  0.1130116E+00
         25   -1    0    0    0    0  0.00000000000E+00  0.00000000000E+00  0.99999998245E-14  0.12500000000E+03  0.12500000000E+03 0.  0.
        -13    1    3    3    0    0  0.31576115476E+02  0.36609795630E+02  0.11090226401E+01  0.48358756186E+02  0.10566000000E+00 0.  1.
         23    2    1    0    0    0 -0.69082618408E+01  0.17610490053E+02  0.21910642221E+02  0.96052984884E+02  0.91587369331E+02 0.  0.
         13    1    3    3    0    0 -0.38484377316E+02 -0.18999305577E+02  0.20801619581E+02  0.47694228698E+02  0.10566000000E+00 0. -1.
         22    1    1    0    0    0  0.69082618408E+01 -0.17610490053E+02 -0.21910642221E+02  0.28947015116E+02  0.00000000000E+00 0. -1.
</event>
<event>
 5    1  0.1766627E-003  0.9118800E+02  0.7818608E-02  0.1130116E+00
         25   -1    0    0    0    0  0.00000000000E+00  0.00000000000E+00  0.99999998245E-14  0.12500000000E+03  0.12500000000E+03 0.  0.
        -13    1    3    3    0    0  0.17569869056E+02  0.21904528202E+02  0.29119074961E+02  0.40452939881E+02  0.10566000000E+00 0.  1.
         23    2    1    0    0    0  0.20638547470E+02  0.27435088421E+01 -0.21746065649E+02  0.94894056175E+02  0.89991744308E+02 0.  0.
         13    1    3    3    0    0  0.30686784134E+01 -0.19161019360E+02 -0.50865140609E+02  0.54441116294E+02  0.10566000000E+00 0. -1.
         22    1    1    0    0    0 -0.20638547470E+02 -0.27435088421E+01  0.21746065649E+02  0.30105943825E+02  0.00000000000E+00 0. -1.
</event>
<event>
 5    1  0.1766627E-003  0.9118800E+02  0.7818608E-02  0.1130116E+00
         25   -1    0    0    0    0  0.00000000000E+00  0.00000000000E+00  0.99999998245E-14  0.12500000000E+03  0.12500000000E+03 0.  0.
        -13    1    3    3    0    0 -0.44643741921E+02  0.31192828423E+02 -0.18622440688E+02  0.57557473007E+02  0.10566000000E+00 0.  1.
         23    2    1    0    0    0 -0.20621011949E+02  0.32359563071E+01 -0.22123502250E+02  0.94583772442E+02  0.89559718125E+02 0.  0.
         13    1    3    3    0    0  0.24022729971E+02 -0.27956872116E+02 -0.35010615616E+01  0.37026299436E+02  0.10566000000E+00 0. -1.
         22    1    1    0    0    0  0.20621011949E+02 -0.32359563071E+01  0.22123502250E+02  0.30416227558E+02  0.00000000000E+00 0.  1.
</event>
<event>
 5    1  0.1766627E-003  0.9118800E+02  0.7818608E-02  0.1130116E+00
         25   -1    0    0    0    0  0.00000000000E+00  0.00000000000E+00  0.99999998245E-14  0.12500000000E+03  0.12500000000E+03 0.  0.
        -13    1    3    3    0    0  0.15265477523E+02  0.16269472681E+02  0.12439357913E+02  0.25543675042E+02  0.10566000000E+00 0.  1.
         23    2    1    0    0    0 -0.23019086964E+02 -0.11610357526E+02  0.37783273283E+02  0.79258831382E+02  0.64727952583E+02 0.  0.
         13    1    3    3    0    0 -0.38284564487E+02 -0.27879830207E+02  0.25343915370E+02  0.53715156340E+02  0.10566000000E+00 0. -1.
         22    1    1    0    0    0  0.23019086964E+02  0.11610357526E+02 -0.37783273283E+02  0.45741168618E+02  0.00000000000E+00 0. -1.
</event>
<event>
 5    1  0.1766627E-003  0.9118800E+02  0.7818608E-02  0.1130116E+00
         25   -1    0    0    0    0  0.00000000000E+00  0.00000000000E+00  0.99999998245E-14  0.12500000000E+03  0.12500000000E+03 0.  0.
        -13    1    3    3    0    0 -0.28458326837E+02  0.10020354655E+01  0.90864608292E+00  0.28490651856E+02  0.10566000000E+00 0. -1.
         23    2    1    0    0    0  0.13891754702E+02  0.34470028859E+02  0.15998960672E+02  0.84538530911E+02  0.74226900297E+02 0.  0.
         13    1    3    3    0    0  0.42350081539E+02  0.33467993394E+02  0.15090314589E+02  0.56047879055E+02  0.10566000000E+00 0.  1.
         22    1    1    0    0    0 -0.13891754702E+02 -0.34470028859E+02 -0.15998960672E+02  0.40461469089E+02  0.00000000000E+00 0.  1.
</event>
<event>
 5    1  0.1766627E-003  0.9118800E+02  0.7818608E-02  0.1130116E+00
         25   -1    0    0    0    0  0.00000000000E+00  0.00000000000E+00  0.99999998245E-14  0.12500000000E+03  0.12500000000E+03 0.  0.
        -13    1    3    3    0    0  0.70190619872E+01 -0.21815728073E+02 -0.23118047435E+02  0.32552242684E+02  0.10566000000E+00 0.  1.
         23    2    1    0    0    0 -0.10664240229E+02  0.33800548667E+01  0.29465055168E+02  0.93482698932E+02  0.88009515014E+02 0.  0.
         13    1    3    3    0    0 -0.17683302216E+02  0.25195782940E+02  0.52583102602E+02  0.60930456248E+02  0.10566000000E+00 0. -1.
         22    1    1    0    0    0  0.10664240229E+02 -0.33800548667E+01 -0.29465055168E+02  0.31517301068E+02  0.00000000000E+00 0. -1.
</event>
<event>
 5    1  0.1766627E-003  0.9118800E+02  0.7818608E-02  0.1130116E+00
         25   -1    0    0    0    0  0.00000000000E+00  0.00000000000E+00  0.99999998245E-14  0.12500000000E+03  0.12500000000E+03 0.  0.
        -13    1    3    3    0    0 -0.26807061295E+02 -0.27396492009E+02 -0.16957746929E+02  0.41913752572E+02  0.10566000000E+00 0.  1.
         23    2    1    0    0    0 -0.14963650774E+02  0.13074793912E+02  0.19130605646E+02  0.97416650807E+02  0.93429988235E+02 0.  0.
         13    1    3    3    0    0  0.11843410521E+02  0.40471285921E+02  0.36088352575E+02  0.55502898235E+02  0.10566000000E+00 0. -1.
         22    1    1    0    0    0  0.14963650774E+02 -0.13074793912E+02 -0.19130605646E+02  0.27583349193E+02  0.00000000000E+00 0. -1.
</event>
<event>
 5    1  0.1766627E-003  0.9118800E+02  0.7818608E-02  0.1130116E+00
         25   -1    0    0    0    0  0.00000000000E+00  0.00000000000E+00  0.99999998245E-14  0.12500000000E+03  0.12500000000E+03 0.  0.
        -13    1    3    3    0    0 -0.23616954080E+02  0.13240172147E+02  0.29722513467E+02  0.40205741497E+02  0.10566000000E+00 0.  1.
         23    2    1    0    0    0 -0.18831611095E+02 -0.13862287681E+02 -0.18132079822E+02  0.95410053821E+02  0.90705641805E+02 0.  0.
         13    1    3    3    0    0  0.47853429853E+01 -0.27102459828E+02 -0.47854593290E+02  0.55204312324E+02  0.10566000000E+00 0. -1.
         22    1    1    0    0    0  0.18831611095E+02  0.13862287681E+02  0.18132079822E+02  0.29589946179E+02  0.00000000000E+00 0. -1.
</event>
<event>
 5    1  0.1766627E-003  0.9118800E+02  0.7818608E-02  0.1130116E+00
         25   -1    0    0    0    0  0.00000000000E+00  0.00000000000E+00  0.99999998245E-14  0.12500000000E+03  0.12500000000E+03 0.  0.
        -13    1    3    3    0    0  0.17642316787E+02 -0.21848136526E+02  0.20072407434E+02  0.34518185287E+02  0.10566000000E+00 0.  1.
         23    2    1    0    0    0  0.34823995640E+02  0.13550513113E+01 -0.20690544755E+02  0.84470436980E+02  0.74112139660E+02 0.  0.
         13    1    3    3    0    0  0.17181678853E+02  0.23203187838E+02 -0.40762952189E+02  0.49952251693E+02  0.10566000000E+00 0. -1.
         22    1    1    0    0    0 -0.34823995640E+02 -0.13550513113E+01  0.20690544755E+02  0.40529563020E+02  0.00000000000E+00 0. -1.
</event>
<event>
 5    1  0.1766627E-003  0.9118800E+02  0.7818608E-02  0.1130116E+00
         25   -1    0    0    0    0  0.00000000000E+00  0.00000000000E+00  0.99999998245E-14  0.12500000000E+03  0.12500000000E+03 0.  0.
        -13    1    3    3    0    0 -0.13244403848E+02  0.42000499490E+02  0.23408867490E+02  0.49874266230E+02  0.10566000000E+00 0. -1.
         23    2    1    0    0    0 -0.86818962033E+01 -0.34210921435E+01  0.27742823417E+02  0.95729819880E+02  0.91145241071E+02 0.  0.
         13    1    3    3    0    0  0.45625076445E+01 -0.45421591634E+02  0.43339559265E+01  0.45855553650E+02  0.10566000000E+00 0.  1.
         22    1    1    0    0    0  0.86818962033E+01  0.34210921435E+01 -0.27742823417E+02  0.29270180120E+02  0.00000000000E+00 0. -1.
</event>
<event>
 5    1  0.1766627E-003  0.9118800E+02  0.7818608E-02  0.1130116E+00
         25   -1    0    0    0    0  0.00000000000E+00  0.00000000000E+00  0.99999998245E-14  0.12500000000E+03  0.12500000000E+03 0.  0.
        -13    1    3    3    0    0 -0.14854556514E+02  0.15082980055E+02  0.41290860440E+02  0.46401513515E+02  0.10566000000E+00 0.  1.
         23    2    1    0    0    0 -0.78535495488E+00  0.24752511133E+02 -0.83256917661E+01  0.98872988438E+02  0.95358518809E+02 0.  0.
         13    1    3    3    0    0  0.14069201559E+02  0.96695310783E+01 -0.49616552206E+02  0.52471474923E+02  0.10566000000E+00 0. -1.
         22    1    1    0    0    0  0.78535495488E+00 -0.24752511133E+02  0.83256917661E+01  0.26127011562E+02  0.00000000000E+00 0. -1.
</event>
<event>
 5    1  0.1766627E-003  0.9118800E+02  0.7818608E-02  0.1130116E+00
         25   -1    0    0    0    0  0.00000000000E+00  0.00000000000E+00  0.99999998245E-14  0.12500000000E+03  0.12500000000E+03 0.  0.
        -13    1    3    3    0    0 -0.14538259244E+02  0.43845366512E+02 -0.40747379847E+01  0.46372317174E+02  0.10566000000E+00 0. -1.
         23    2    1    0    0    0 -0.17379423181E+02  0.14697455205E+01 -0.25628641320E+02  0.93999487780E+02  0.88740475235E+02 0.  0.
         13    1    3    3    0    0 -0.28411639367E+01 -0.42375620991E+02 -0.21553903335E+02  0.47627170606E+02  0.10566000000E+00 0.  1.
         22    1    1    0    0    0  0.17379423181E+02 -0.14697455205E+01  0.25628641320E+02  0.31000512220E+02  0.00000000000E+00 0. -1.
</event>
<event>
 5    1  0.1766627E-003  0.9118800E+02  0.7818608E-02  0.1130116E+00
         25   -1    0    0    0    0  0.00000000000E+00  0.00000000000E+00  0.99999998245E-14  0.12500000000E+03  0.12500000000E+03 0.  0.
        -13    1    3    3    0    0  0.22873914079E+02 -0.26679330127E+02  0.41227769817E+02  0.54173266187E+02  0.10566000000E+00 0.  1.
         23    2    1    0    0    0 -0.12376198256E+02 -0.14140195319E+02  0.21414413953E+02  0.96509781821E+02  0.92208705962E+02 0.  0.
         13    1    3    3    0    0 -0.35250112335E+02  0.12539134807E+02 -0.19813355863E+02  0.42336515633E+02  0.10566000000E+00 0. -1.
         22    1    1    0    0    0  0.12376198256E+02  0.14140195319E+02 -0.21414413953E+02  0.28490218179E+02  0.00000000000E+00 0. -1.
</event>
<event>
 5    1  0.1766627E-003  0.9118800E+02  0.7818608E-02  0.1130116E+00
         25   -1    0    0    0    0  0.00000000000E+00  0.00000000000E+00  0.99999998245E-14  0.12500000000E+03  0.12500000000E+03 0.  0.
        -13    1    3    3    0    0  0.22028507399E+02  0.34847950262E+02 -0.29681292764E+02  0.50799853148E+02  0.10566000000E+00 0. -1.
         23    2    1    0    0    0  0.26802848448E+02 -0.54791811791E+01 -0.13181929488E+02  0.94632626449E+02  0.89627878544E+02 0.  0.
         13    1    3    3    0    0  0.47743410496E+01 -0.40327131441E+02  0.16499363275E+02  0.43832773301E+02  0.10566000000E+00 0.  1.
         22    1    1    0    0    0 -0.26802848448E+02  0.54791811791E+01  0.13181929488E+02  0.30367373551E+02  0.00000000000E+00 0. -1.
</event>
<event>
 5    1  0.1766627E-003  0.9118800E+02  0.7818608E-02  0.1130116E+00
         25   -1    0    0    0    0  0.00000000000E+00  0.00000000000E+00  0.99999998245E-14  0.12500000000E+03  0.12500000000E+03 0.  0.
        -13    1    3    3    0    0  0.36252306058E+02 -0.50676136284E+01  0.15260144286E+02  0.39658461519E+02  0.10566000000E+00 0.  1.
         23    2    1    0    0    0 -0.16235174180E+02 -0.22012372270E+02  0.12621336469E+02  0.94876528290E+02  0.89967394496E+02 0.  0.
         13    1    3    3    0    0 -0.52487480238E+02 -0.16944758642E+02 -0.26388078163E+01  0.55218066771E+02  0.10566000000E+00 0. -1.
         22    1    1    0    0    0  0.16235174180E+02  0.22012372270E+02 -0.12621336469E+02  0.30123471710E+02  0.00000000000E+00 0. -1.
</event>
<event>
 5    1  0.1766627E-003  0.9118800E+02  0.7818608E-02  0.1130116E+00
         25   -1    0    0    0    0  0.00000000000E+00  0.00000000000E+00  0.99999998245E-14  0.12500000000E+03  0.12500000000E+03 0.  0.
        -13    1    3    3    0    0  0.18933492853E+01 -0.43891126267E+02  0.24932249698E+02  0.50513799852E+02  0.10566000000E+00 0.  1.
         23    2    1    0    0    0 -0.45199227971E+01 -0.40708597434E+02 -0.71817677013E+01  0.83416380695E+02  0.72312482836E+02 0.  0.
         13    1    3    3    0    0 -0.64132720824E+01  0.31825288324E+01 -0.32114017399E+02  0.32902580843E+02  0.10566000000E+00 0. -1.
         22    1    1    0    0    0  0.45199227971E+01  0.40708597434E+02  0.71817677013E+01  0.41583619305E+02  0.00000000000E+00 0.  1.
</event>
<event>
 5    1  0.1766627E-003  0.9118800E+02  0.7818608E-02  0.1130116E+00
         25   -1    0    0    0    0  0.00000000000E+00  0.00000000000E+00  0.99999998245E-14  0.12500000000E+03  0.12500000000E+03 0.  0.
        -13    1    3    3    0    0 -0.52854147599E+02  0.26619208929E+02 -0.12077963619E+02  0.60398936842E+02  0.10566000000E+00 0. -1.
         23    2    1    0    0    0 -0.19698008620E+02  0.22643754092E+02 -0.43669569684E+01  0.94671441575E+02  0.89681995929E+02 0.  0.
         13    1    3    3    0    0  0.33156138979E+02 -0.39754548373E+01  0.77110066502E+01  0.34272504734E+02  0.10566000000E+00 0.  1.
         22    1    1    0    0    0  0.19698008620E+02 -0.22643754092E+02  0.43669569684E+01  0.30328558425E+02  0.00000000000E+00 0. -1.
</event>
<event>
 5    1  0.1766627E-003  0.9118800E+02  0.7818608E-02  0.1130116E+00
         25   -1    0    0    0    0  0.00000000000E+00  0.00000000000E+00  0.99999998245E-14  0.12500000000E+03  0.12500000000E+03 0.  0.
        -13    1    3    3    0    0 -0.58270459373E+01 -0.57407447241E+02  0.12273994672E+02  0.58993487542E+02  0.10566000000E+00 0. -1.
         23    2    1    0    0    0 -0.23164403422E+01 -0.31344511689E+02 -0.84245636811E+01  0.92460522713E+02  0.86545541066E+02 0.  0.
         13    1    3    3    0    0  0.35106055951E+01  0.26062935553E+02 -0.20698558353E+02  0.33467035172E+02  0.10566000000E+00 0.  1.
         22    1    1    0    0    0  0.23164403422E+01  0.31344511689E+02  0.84245636811E+01  0.32539477287E+02  0.00000000000E+00 0. -1.
</event>
<event>
 5    1  0.1766627E-003  0.9118800E+02  0.7818608E-02  0.1130116E+00
         25   -1    0    0    0    0  0.00000000000E+00  0.00000000000E+00  0.99999998245E-14  0.12500000000E+03  0.12500000000E+03 0.  0.
        -13    1    3    3    0    0  0.16534695057E+02 -0.23578555075E+02  0.44698963150E+02  0.53172858404E+02  0.10566000000E+00 0. -1.
         23    2    1    0    0    0  0.44136794608E+01 -0.28340232781E+02  0.38337607448E+01  0.96063049885E+02  0.91601105186E+02 0.  0.
         13    1    3    3    0    0 -0.12121015596E+02 -0.47616777060E+01 -0.40865202405E+02  0.42890191482E+02  0.10566000000E+00 0.  1.
         22    1    1    0    0    0 -0.44136794608E+01  0.28340232781E+02 -0.38337607448E+01  0.28936950115E+02  0.00000000000E+00 0. -1.
</event>
<event>
 5    1  0.1766627E-003  0.9118800E+02  0.7818608E-02  0.1130116E+00
         25   -1    0    0    0    0  0.00000000000E+00  0.00000000000E+00  0.99999998245E-14  0.12500000000E+03  0.12500000000E+03 0.  0.
        -13    1    3    3    0    0 -0.34544551951E+02  0.10566076444E+02 -0.15781498527E+02  0.39421249355E+02  0.10566000000E+00 0.  1.
         23    2    1    0    0    0 -0.31028845059E+02 -0.22892951173E+02  0.13623766614E+02  0.84103992177E+02  0.73491482800E+02 0.  0.
         13    1    3    3    0    0  0.35157068919E+01 -0.33459027617E+02  0.29405265141E+02  0.44682742822E+02  0.10566000000E+00 0. -1.
         22    1    1    0    0    0  0.31028845059E+02  0.22892951173E+02 -0.13623766614E+02  0.40896007823E+02  0.00000000000E+00 0.  1.
</event>
<event>
 5    1  0.1766627E-003  0.9118800E+02  0.7818608E-02  0.1130116E+00
         25   -1    0    0    0    0  0.00000000000E+00  0.00000000000E+00  0.99999998245E-14  0.12500000000E+03  0.12500000000E+03 0.  0.
        -13    1    3    3    0    0  0.23962559579E+02  0.40664915049E+02  0.17339283114E+02  0.50284207068E+02  0.10566000000E+00 0. -1.
         23    2    1    0    0    0  0.28021556775E+02 -0.27648929954E+01  0.11238469370E+01  0.96819948380E+02  0.92628219755E+02 0.  0.
         13    1    3    3    0    0  0.40589971966E+01 -0.43429808044E+02 -0.16215436177E+02  0.46535741312E+02  0.10566000000E+00 0.  1.
         22    1    1    0    0    0 -0.28021556775E+02  0.27648929954E+01 -0.11238469370E+01  0.28180051620E+02  0.00000000000E+00 0. -1.
</event>
<event>
 5    1  0.1766627E-003  0.9118800E+02  0.7818608E-02  0.1130116E+00
         25   -1    0    0    0    0  0.00000000000E+00  0.00000000000E+00  0.99999998245E-14  0.12500000000E+03  0.12500000000E+03 0.  0.
        -13    1    3    3    0    0  0.70396167381E+01  0.47209885234E+01 -0.50514664725E+02  0.51220957163E+02  0.10566000000E+00 0. -1.
         23    2    1    0    0    0  0.26906589665E+02 -0.14132553315E+01 -0.10950659262E+02  0.95916004465E+02  0.91400224924E+02 0.  0.
         13    1    3    3    0    0  0.19866972927E+02 -0.61342438549E+01  0.39564005463E+02  0.44695047301E+02  0.10566000000E+00 0.  1.
         22    1    1    0    0    0 -0.26906589665E+02  0.14132553315E+01  0.10950659262E+02  0.29083995535E+02  0.00000000000E+00 0. -1.
</event>
<event>
 5    1  0.1766627E-003  0.9118800E+02  0.7818608E-02  0.1130116E+00
         25   -1    0    0    0    0  0.00000000000E+00  0.00000000000E+00  0.99999998245E-14  0.12500000000E+03  0.12500000000E+03 0.  0.
        -13    1    3    3    0    0 -0.50709800692E+02  0.31585908127E+02 -0.11912130377E+02  0.60918498772E+02  0.10566000000E+00 0. -1.
         23    2    1    0    0    0 -0.28281698045E+02  0.60374530756E+01 -0.67391777534E+01  0.95306199287E+02  0.90562408436E+02 0.  0.
         13    1    3    3    0    0  0.22428102647E+02 -0.25548455052E+02  0.51729526231E+01  0.34387700515E+02  0.10566000000E+00 0.  1.
         22    1    1    0    0    0  0.28281698045E+02 -0.60374530756E+01  0.67391777534E+01  0.29693800713E+02  0.00000000000E+00 0. -1.
</event>
<event>
 5    1  0.1766627E-003  0.9118800E+02  0.7818608E-02  0.1130116E+00
         25   -1    0    0    0    0  0.00000000000E+00  0.00000000000E+00  0.99999998245E-14  0.12500000000E+03  0.12500000000E+03 0.  0.
        -13    1    3    3    0    0  0.73855887013E+01  0.30408048076E+02  0.39504797993E+02  0.50396790937E+02  0.10566000000E+00 0.  1.
         23    2    1    0    0    0 -0.23807559412E+02  0.14233396768E+02  0.13248812187E+02  0.94260440909E+02  0.89107296151E+02 0.  0.
         13    1    3    3    0    0 -0.31193148114E+02 -0.16174651309E+02 -0.26255985806E+02  0.43863649972E+02  0.10566000000E+00 0. -1.
         22    1    1    0    0    0  0.23807559412E+02 -0.14233396768E+02 -0.13248812187E+02  0.30739559091E+02  0.00000000000E+00 0.  1.
</event>
<event>
 5    1  0.1766627E-003  0.9118800E+02  0.7818608E-02  0.1130116E+00
         25   -1    0    0    0    0  0.00000000000E+00  0.00000000000E+00  0.99999998245E-14  0.12500000000E+03  0.12500000000E+03 0.  0.
        -13    1    3    3    0    0 -0.47207941720E+02 -0.23106883204E+02  0.20261900322E+02  0.56330041554E+02  0.10566000000E+00 0. -1.
         23    2    1    0    0    0 -0.13706862143E+02 -0.77288176474E+01  0.26948439415E+02  0.93793733339E+02  0.88450174306E+02 0.  0.
         13    1    3    3    0    0  0.33501079577E+02  0.15378065557E+02  0.66865390933E+01  0.37463691785E+02  0.10566000000E+00 0.  1.
         22    1    1    0    0    0  0.13706862143E+02  0.77288176474E+01 -0.26948439415E+02  0.31206266661E+02  0.00000000000E+00 0. -1.
</event>
<event>
 5    1  0.1766627E-003  0.9118800E+02  0.7818608E-02  0.1130116E+00
         25   -1    0    0    0    0  0.00000000000E+00  0.00000000000E+00  0.99999998245E-14  0.12500000000E+03  0.12500000000E+03 0.  0.
        -13    1    3    3    0    0  0.91376628772E+01 -0.30256182394E+02  0.13710129983E+02  0.34451593346E+02  0.10566000000E+00 0.  1.
         23    2    1    0    0    0  0.73044427054E+01  0.26173810988E+02 -0.10479802413E+02  0.95875276422E+02  0.91344507802E+02 0.  0.
         13    1    3    3    0    0 -0.18332201717E+01  0.56429993382E+02 -0.24189932395E+02  0.61423683076E+02  0.10566000000E+00 0. -1.
         22    1    1    0    0    0 -0.73044427054E+01 -0.26173810988E+02  0.10479802413E+02  0.29124723578E+02  0.00000000000E+00 0. -1.
</event>
<event>
 5    1  0.1766627E-003  0.9118800E+02  0.7818608E-02  0.1130116E+00
         25   -1    0    0    0    0  0.00000000000E+00  0.00000000000E+00  0.99999998245E-14  0.12500000000E+03  0.12500000000E+03 0.  0.
        -13    1    3    3    0    0 -0.27840185179E+02 -0.64683839232E+01 -0.32885574514E+02  0.43570495482E+02  0.10566000000E+00 0. -1.
         23    2    1    0    0    0 -0.22173593217E+02  0.66829539749E+01  0.17513496077E+02  0.95964630968E+02  0.91466702915E+02 0.  0.
         13    1    3    3    0    0  0.56665919625E+01  0.13151337898E+02  0.50399070590E+02  0.52394135486E+02  0.10566000000E+00 0.  1.
         22    1    1    0    0    0  0.22173593217E+02 -0.66829539749E+01 -0.17513496077E+02  0.29035369032E+02  0.00000000000E+00 0. -1.
</event>
<event>
 5    1  0.1766627E-003  0.9118800E+02  0.7818608E-02  0.1130116E+00
         25   -1    0    0    0    0  0.00000000000E+00  0.00000000000E+00  0.99999998245E-14  0.12500000000E+03  0.12500000000E+03 0.  0.
        -13    1    3    3    0    0  0.35709883816E+02 -0.22971090337E+02  0.35306705491E+02  0.55221747619E+02  0.10566000000E+00 0. -1.
         23    2    1    0    0    0  0.14108969240E+02  0.97326552708E+01  0.23026975460E+02  0.96294091367E+02  0.91915846521E+02 0.  0.
         13    1    3    3    0    0 -0.21600914576E+02  0.32703745607E+02 -0.12279730031E+02  0.41072343748E+02  0.10566000000E+00 0.  1.
         22    1    1    0    0    0 -0.14108969240E+02 -0.97326552708E+01 -0.23026975460E+02  0.28705908633E+02  0.00000000000E+00 0. -1.
</event>
<event>
 5    1  0.1766627E-003  0.9118800E+02  0.7818608E-02  0.1130116E+00
         25   -1    0    0    0    0  0.00000000000E+00  0.00000000000E+00  0.99999998245E-14  0.12500000000E+03  0.12500000000E+03 0.  0.
        -13    1    3    3    0    0 -0.46679515044E+02 -0.19181403474E+02 -0.17282579736E+02  0.53344185159E+02  0.10566000000E+00 0. -1.
         23    2    1    0    0    0 -0.93715584319E+01 -0.62818967191E+00 -0.27241651208E+02  0.96184582421E+02  0.91766800126E+02 0.  0.
         13    1    3    3    0    0  0.37307956612E+02  0.18553213802E+02 -0.99590714717E+01  0.42840397262E+02  0.10566000000E+00 0.  1.
         22    1    1    0    0    0  0.93715584319E+01  0.62818967191E+00  0.27241651208E+02  0.28815417579E+02  0.00000000000E+00 0. -1.
</event>
<event>
 5    1  0.1766627E-003  0.9118800E+02  0.7818608E-02  0.1130116E+00
         25   -1    0    0    0    0  0.00000000000E+00  0.00000000000E+00  0.99999998245E-14  0.12500000000E+03  0.12500000000E+03 0.  0.
        -13    1    3    3    0    0  0.17614542088E+02  0.45350405247E+02 -0.14230952315E+01  0.48672042418E+02  0.10566000000E+00 0.  1.
         23    2    1    0    0    0  0.30214122252E+02  0.32754691526E+01  0.79588990299E+01  0.93583985686E+02  0.88153255308E+02 0.  0.
         13    1    3    3    0    0  0.12599580164E+02 -0.42074936095E+02  0.93819942613E+01  0.44911943267E+02  0.10566000000E+00 0. -1.
         22    1    1    0    0    0 -0.30214122252E+02 -0.32754691526E+01 -0.79588990299E+01  0.31416014314E+02  0.00000000000E+00 0. -1.
</event>
<event>
 5    1  0.1766627E-003  0.9118800E+02  0.7818608E-02  0.1130116E+00
         25   -1    0    0    0    0  0.00000000000E+00  0.00000000000E+00  0.99999998245E-14  0.12500000000E+03  0.12500000000E+03 0.  0.
        -13    1    3    3    0    0 -0.35061071548E+01 -0.22793975722E+01  0.56814535646E+02  0.56968333883E+02  0.10566000000E+00 0. -1.
         23    2    1    0    0    0 -0.10592180081E+02  0.14551537399E+02  0.19803890422E+02  0.98239290081E+02  0.94524190132E+02 0.  0.
         13    1    3    3    0    0 -0.70860729265E+01  0.16830934971E+02 -0.37010645224E+02  0.41270956198E+02  0.10566000000E+00 0.  1.
         22    1    1    0    0    0  0.10592180081E+02 -0.14551537399E+02 -0.19803890422E+02  0.26760709919E+02  0.00000000000E+00 0. -1.
</event>
<event>
 5    1  0.1766627E-003  0.9118800E+02  0.7818608E-02  0.1130116E+00
         25   -1    0    0    0    0  0.00000000000E+00  0.00000000000E+00  0.99999998245E-14  0.12500000000E+03  0.12500000000E+03 0.  0.
        -13    1    3    3    0    0 -0.55421422857E+02 -0.14916837867E+02  0.16949012870E+02  0.59844184051E+02  0.10566000000E+00 0. -1.
         23    2    1    0    0    0 -0.28074906097E+02 -0.84559768712E+01 -0.46853703048E+01  0.95307297326E+02  0.90563924007E+02 0.  0.
         13    1    3    3    0    0  0.27346516760E+02  0.64608609958E+01 -0.21634383175E+02  0.35463113275E+02  0.10566000000E+00 0.  1.
         22    1    1    0    0    0  0.28074906097E+02  0.84559768712E+01  0.46853703048E+01  0.29692702674E+02  0.00000000000E+00 0. -1.
</event>
<event>
 5    1  0.1766627E-003  0.9118800E+02  0.7818608E-02  0.1130116E+00
         25   -1    0    0    0    0  0.00000000000E+00  0.00000000000E+00  0.99999998245E-14  0.12500000000E+03  0.12500000000E+03 0.  0.
        -13    1    3    3    0    0 -0.22480099027E+01 -0.41363820485E+02 -0.15287523391E+02  0.44155845923E+02  0.10566000000E+00 0.  1.
         23    2    1    0    0    0 -0.77691676020E+01 -0.59284460559E+01  0.25038419406E+02  0.98121962791E+02  0.94368907473E+02 0.  0.
         13    1    3    3    0    0 -0.55211576992E+01  0.35435374430E+02  0.40325942797E+02  0.53966116868E+02  0.10566000000E+00 0. -1.
         22    1    1    0    0    0  0.77691676020E+01  0.59284460559E+01 -0.25038419406E+02  0.26878037209E+02  0.00000000000E+00 0. -1.
</event>
<event>
 5    1  0.1766627E-003  0.9118800E+02  0.7818608E-02  0.1130116E+00
         25   -1    0    0    0    0  0.00000000000E+00  0.00000000000E+00  0.99999998245E-14  0.12500000000E+03  0.12500000000E+03 0.  0.
        -13    1    3    3    0    0  0.28832054222E+02  0.58859417121E+00 -0.30293613448E+02  0.41825207394E+02  0.10566000000E+00 0.  1.
         23    2    1    0    0    0  0.34315318427E+01  0.25635533068E+02  0.11432638577E+02  0.96721718735E+02  0.92495565751E+02 0.  0.
         13    1    3    3    0    0 -0.25400522379E+02  0.25046938897E+02  0.41726252026E+02  0.54896511341E+02  0.10566000000E+00 0. -1.
         22    1    1    0    0    0 -0.34315318427E+01 -0.25635533068E+02 -0.11432638577E+02  0.28278281265E+02  0.00000000000E+00 0. -1.
</event>
<event>
 5    1  0.1766627E-003  0.9118800E+02  0.7818608E-02  0.1130116E+00
         25   -1    0    0    0    0  0.00000000000E+00  0.00000000000E+00  0.99999998245E-14  0.12500000000E+03  0.12500000000E+03 0.  0.
        -13    1    3    3    0    0 -0.29262796860E+02  0.77998745429E+01  0.47640144261E+02  0.56451251822E+02  0.10566000000E+00 0. -1.
         23    2    1    0    0    0 -0.11954267152E+02 -0.15264163324E+02  0.26303369170E+02  0.92323304714E+02  0.86347126058E+02 0.  0.
         13    1    3    3    0    0  0.17308529708E+02 -0.23064037867E+02 -0.21336775092E+02  0.35872052892E+02  0.10566000000E+00 0.  1.
         22    1    1    0    0    0  0.11954267152E+02  0.15264163324E+02 -0.26303369170E+02  0.32676695286E+02  0.00000000000E+00 0. -1.
</event>
<event>
 5    1  0.1766627E-003  0.9118800E+02  0.7818608E-02  0.1130116E+00
         25   -1    0    0    0    0  0.00000000000E+00  0.00000000000E+00  0.99999998245E-14  0.12500000000E+03  0.12500000000E+03 0.  0.
        -13    1    3    3    0    0  0.28005537223E+02  0.48632066826E+02 -0.21051663339E+02  0.59938065804E+02  0.10566000000E+00 0.  1.
         23    2    1    0    0    0  0.94934080920E+01  0.18457129141E+02 -0.21188669670E+02  0.95339417813E+02  0.90608247159E+02 0.  0.
         13    1    3    3    0    0 -0.18512129131E+02 -0.30174937685E+02 -0.13700633076E+00  0.35401352009E+02  0.10566000000E+00 0. -1.
         22    1    1    0    0    0 -0.94934080920E+01 -0.18457129141E+02  0.21188669670E+02  0.29660582187E+02  0.00000000000E+00 0.  1.
</event>
<event>
 5    1  0.1766627E-003  0.9118800E+02  0.7818608E-02  0.1130116E+00
         25   -1    0    0    0    0  0.00000000000E+00  0.00000000000E+00  0.99999998245E-14  0.12500000000E+03  0.12500000000E+03 0.  0.
        -13    1    3    3    0    0  0.38144890917E+02 -0.17579648609E+02  0.25930666365E+02  0.49360787782E+02  0.10566000000E+00 0. -1.
         23    2    1    0    0    0  0.23543314806E+02  0.14938930028E+02 -0.51393349456E+01  0.96647362272E+02  0.92395024584E+02 0.  0.
         13    1    3    3    0    0 -0.14601576111E+02  0.32518578638E+02 -0.31070001310E+02  0.47286574490E+02  0.10566000000E+00 0.  1.
         22    1    1    0    0    0 -0.23543314806E+02 -0.14938930028E+02  0.51393349456E+01  0.28352637728E+02  0.00000000000E+00 0.  1.
</event>
<event>
 5    1  0.1766627E-003  0.9118800E+02  0.7818608E-02  0.1130116E+00
         25   -1    0    0    0    0  0.00000000000E+00  0.00000000000E+00  0.99999998245E-14  0.12500000000E+03  0.12500000000E+03 0.  0.
        -13    1    3    3    0    0 -0.39291237617E+01  0.49161928064E+02  0.16708273076E+01  0.49347097305E+02  0.10566000000E+00 0.  1.
         23    2    1    0    0    0  0.39066482907E+01  0.10381354829E+02  0.26647756179E+02  0.96135881473E+02  0.91700438212E+02 0.  0.
         13    1    3    3    0    0  0.78357720525E+01 -0.38780573235E+02  0.24976928871E+02  0.46788784169E+02  0.10566000000E+00 0. -1.
         22    1    1    0    0    0 -0.39066482907E+01 -0.10381354829E+02 -0.26647756179E+02  0.28864118527E+02  0.00000000000E+00 0.  1.
</event>
<event>
 5    1  0.1766627E-003  0.9118800E+02  0.7818608E-02  0.1130116E+00
         25   -1    0    0    0    0  0.00000000000E+00  0.00000000000E+00  0.99999998245E-14  0.12500000000E+03  0.12500000000E+03 0.  0.
        -13    1    3    3    0    0 -0.12564889521E+02 -0.29812203562E+02 -0.33440190344E+02  0.46528501203E+02  0.10566000000E+00 0. -1.
         23    2    1    0    0    0  0.25432015165E+02 -0.68558370542E+01 -0.92612383633E+01  0.97079390531E+02  0.92977672765E+02 0.  0.
         13    1    3    3    0    0  0.37996904686E+02  0.22956366508E+02  0.24178951981E+02  0.50550889328E+02  0.10566000000E+00 0.  1.
         22    1    1    0    0    0 -0.25432015165E+02  0.68558370542E+01  0.92612383633E+01  0.27920609469E+02  0.00000000000E+00 0.  1.
</event>
<event>
 5    1  0.1766627E-003  0.9118800E+02  0.7818608E-02  0.1130116E+00
         25   -1    0    0    0    0  0.00000000000E+00  0.00000000000E+00  0.99999998245E-14  0.12500000000E+03  0.12500000000E+03 0.  0.
        -13    1    3    3    0    0  0.85414156583E+01  0.36102789535E+02  0.10796664118E+02  0.38638663458E+02  0.10566000000E+00 0. -1.
         23    2    1    0    0    0 -0.27802110906E+02 -0.73268984247E+01  0.22268994257E+00  0.96247775700E+02  0.91852838416E+02 0.  0.
         13    1    3    3    0    0 -0.36343526565E+02 -0.43429687960E+02 -0.10573974175E+02  0.57609112242E+02  0.10566000000E+00 0.  1.
         22    1    1    0    0    0  0.27802110906E+02  0.73268984247E+01 -0.22268994257E+00  0.28752224300E+02  0.00000000000E+00 0.  1.
</event>
<event>
 5    1  0.1766627E-003  0.9118800E+02  0.7818608E-02  0.1130116E+00
         25   -1    0    0    0    0  0.00000000000E+00  0.00000000000E+00  0.99999998245E-14  0.12500000000E+03  0.12500000000E+03 0.  0.
        -13    1    3    3    0    0 -0.38325644705E+02 -0.35091587152E+02  0.20733510780E+02  0.55947870060E+02  0.10566000000E+00 0.  1.
         23    2    1    0    0    0 -0.54938130753E+01 -0.13051799196E+02  0.25554466876E+02  0.95784212801E+02  0.91219807061E+02 0.  0.
         13    1    3    3    0    0  0.32831831630E+02  0.22039787956E+02  0.48209560955E+01  0.39836342742E+02  0.10566000000E+00 0. -1.
         22    1    1    0    0    0  0.54938130753E+01  0.13051799196E+02 -0.25554466876E+02  0.29215787199E+02  0.00000000000E+00 0.  1.
</event>
<event>
 5    1  0.1766627E-003  0.9118800E+02  0.7818608E-02  0.1130116E+00
         25   -1    0    0    0    0  0.00000000000E+00  0.00000000000E+00  0.99999998245E-14  0.12500000000E+03  0.12500000000E+03 0.  0.
        -13    1    3    3    0    0  0.12421757556E+02  0.42137308572E+02 -0.29220708757E+02  0.52760911846E+02  0.10566000000E+00 0.  1.
         23    2    1    0    0    0  0.22630832201E+02  0.21050299408E+02  0.44429950111E+01  0.93774851866E+02  0.88423486510E+02 0.  0.
         13    1    3    3    0    0  0.10209074645E+02 -0.21087009164E+02  0.33663703769E+02  0.41013940021E+02  0.10566000000E+00 0. -1.
         22    1    1    0    0    0 -0.22630832201E+02 -0.21050299408E+02 -0.44429950111E+01  0.31225148134E+02  0.00000000000E+00 0.  1.
</event>
<event>
 5    1  0.1766627E-003  0.9118800E+02  0.7818608E-02  0.1130116E+00
         25   -1    0    0    0    0  0.00000000000E+00  0.00000000000E+00  0.99999998245E-14  0.12500000000E+03  0.12500000000E+03 0.  0.
        -13    1    3    3    0    0 -0.49235510126E+02 -0.24103729464E+02 -0.74719413719E+00  0.54824216315E+02  0.10566000000E+00 0.  1.
         23    2    1    0    0    0 -0.26113849955E+02  0.10707541253E+02  0.20034366073E+01  0.96705153165E+02  0.92473176064E+02 0.  0.
         13    1    3    3    0    0  0.23121660170E+02  0.34811270717E+02  0.27506307445E+01  0.41880936851E+02  0.10566000000E+00 0. -1.
         22    1    1    0    0    0  0.26113849955E+02 -0.10707541253E+02 -0.20034366073E+01  0.28294846835E+02  0.00000000000E+00 0. -1.
</event>
<event>
 5    1  0.1766627E-003  0.9118800E+02  0.7818608E-02  0.1130116E+00
         25   -1    0    0    0    0  0.00000000000E+00  0.00000000000E+00  0.99999998245E-14  0.12500000000E+03  0.12500000000E+03 0.  0.
        -13    1    3    3    0    0 -0.17841769442E+02  0.36223424201E+02 -0.51621638038E+01  0.40707791598E+02  0.10566000000E+00 0.  1.
         23    2    1    0    0    0  0.18729622477E+02 -0.78231110356E+00  0.19208061537E+02  0.98160469512E+02  0.94419899270E+02 0.  0.
         13    1    3    3    0    0  0.36571391919E+02 -0.37005735305E+02  0.24370225340E+02  0.57452677914E+02  0.10566000000E+00 0. -1.
         22    1    1    0    0    0 -0.18729622477E+02  0.78231110356E+00 -0.19208061537E+02  0.26839530488E+02  0.00000000000E+00 0.  1.
</event>
<event>
 5    1  0.1766627E-003  0.9118800E+02  0.7818608E-02  0.1130116E+00
         25   -1    0    0    0    0  0.00000000000E+00  0.00000000000E+00  0.99999998245E-14  0.12500000000E+03  0.12500000000E+03 0.  0.
        -13    1    3    3    0    0 -0.40705363334E+02 -0.49651648452E+01 -0.93153517804E+01  0.42051948931E+02  0.10566000000E+00 0.  1.
         23    2    1    0    0    0  0.24936388411E+00  0.23706947924E+02 -0.20927313992E+02  0.93376685292E+02  0.87858814715E+02 0.  0.
         13    1    3    3    0    0  0.40954727218E+02  0.28672112769E+02 -0.11611962211E+02  0.51324736361E+02  0.10566000000E+00 0. -1.
         22    1    1    0    0    0 -0.24936388411E+00 -0.23706947924E+02  0.20927313992E+02  0.31623314708E+02  0.00000000000E+00 0. -1.
</event>
<event>
 5    1  0.1766627E-003  0.9118800E+02  0.7818608E-02  0.1130116E+00
         25   -1    0    0    0    0  0.00000000000E+00  0.00000000000E+00  0.99999998245E-14  0.12500000000E+03  0.12500000000E+03 0.  0.
        -13    1    3    3    0    0 -0.14965468324E+02 -0.28983657582E+02  0.19808873391E+01  0.32679546014E+02  0.10566000000E+00 0.  1.
         23    2    1    0    0    0  0.15879718383E+02  0.24528747362E+02  0.79064784659E+01  0.94728936180E+02  0.89762096929E+02 0.  0.
         13    1    3    3    0    0  0.30845186706E+02  0.53512404944E+02  0.59255911268E+01  0.62049390167E+02  0.10566000000E+00 0. -1.
         22    1    1    0    0    0 -0.15879718383E+02 -0.24528747362E+02 -0.79064784659E+01  0.30271063820E+02  0.00000000000E+00 0. -1.
</event>
<event>
 5    1  0.1766627E-003  0.9118800E+02  0.7818608E-02  0.1130116E+00
         25   -1    0    0    0    0  0.00000000000E+00  0.00000000000E+00  0.99999998245E-14  0.12500000000E+03  0.12500000000E+03 0.  0.
        -13    1    3    3    0    0 -0.57029577058E+01  0.24243811158E+02 -0.55000493005E+02  0.60376746359E+02  0.10566000000E+00 0.  1.
         23    2    1    0    0    0 -0.12502145610E+02  0.54219563893E+01 -0.26496407526E+02  0.95204683796E+02  0.90422181731E+02 0.  0.
         13    1    3    3    0    0 -0.67991879038E+01 -0.18821854769E+02  0.28504085479E+02  0.34827937437E+02  0.10566000000E+00 0. -1.
         22    1    1    0    0    0  0.12502145610E+02 -0.54219563893E+01  0.26496407526E+02  0.29795316204E+02  0.00000000000E+00 0.  1.
</event>
<event>
 5    1  0.1766627E-003  0.9118800E+02  0.7818608E-02  0.1130116E+00
         25   -1    0    0    0    0  0.00000000000E+00  0.00000000000E+00  0.99999998245E-14  0.12500000000E+03  0.12500000000E+03 0.  0.
        -13    1    3    3    0    0 -0.43935656549E+02 -0.34097430724E+02  0.27624091721E+02  0.62097329298E+02  0.10566000000E+00 0. -1.
         23    2    1    0    0    0 -0.19099229932E+02 -0.13891554345E+02  0.17251302570E+02  0.95753405216E+02  0.91177581148E+02 0.  0.
         13    1    3    3    0    0  0.24836426618E+02  0.20205876380E+02 -0.10372789151E+02  0.33656075918E+02  0.10566000000E+00 0.  1.
         22    1    1    0    0    0  0.19099229932E+02  0.13891554345E+02 -0.17251302570E+02  0.29246594784E+02  0.00000000000E+00 0. -1.
</event>
<event>
 5    1  0.1766627E-003  0.9118800E+02  0.7818608E-02  0.1130116E+00
         25   -1    0    0    0    0  0.00000000000E+00  0.00000000000E+00  0.99999998245E-14  0.12500000000E+03  0.12500000000E+03 0.  0.
        -13    1    3    3    0    0  0.25036142358E+01  0.30367796611E+02  0.30090252279E+02  0.42824124060E+02  0.10566000000E+00 0.  1.
         23    2    1    0    0    0  0.27808809660E+02 -0.85454380120E+01  0.53617911057E+01  0.95417856579E+02  0.90716394024E+02 0.  0.
         13    1    3    3    0    0  0.25305195424E+02 -0.38913234623E+02 -0.24728461173E+02  0.52593732519E+02  0.10566000000E+00 0. -1.
         22    1    1    0    0    0 -0.27808809660E+02  0.85454380120E+01 -0.53617911057E+01  0.29582143421E+02  0.00000000000E+00 0. -1.
</event>
<event>
 5    1  0.1766627E-003  0.9118800E+02  0.7818608E-02  0.1130116E+00
         25   -1    0    0    0    0  0.00000000000E+00  0.00000000000E+00  0.99999998245E-14  0.12500000000E+03  0.12500000000E+03 0.  0.
        -13    1    3    3    0    0 -0.12170993333E+02 -0.47558716955E+02  0.86479473930E+01  0.49847395069E+02  0.10566000000E+00 0.  1.
         23    2    1    0    0    0 -0.71591573879E+01 -0.12922417597E+02 -0.23416801509E+02  0.97312656249E+02  0.93290750144E+02 0.  0.
         13    1    3    3    0    0  0.50118359447E+01  0.34636299357E+02 -0.32064748902E+02  0.47465261180E+02  0.10566000000E+00 0. -1.
         22    1    1    0    0    0  0.71591573879E+01  0.12922417597E+02  0.23416801509E+02  0.27687343751E+02  0.00000000000E+00 0.  1.
</event>
<event>
 5    1  0.1766627E-003  0.9118800E+02  0.7818608E-02  0.1130116E+00
         25   -1    0    0    0    0  0.00000000000E+00  0.00000000000E+00  0.99999998245E-14  0.12500000000E+03  0.12500000000E+03 0.  0.
        -13    1    3    3    0    0 -0.15567149409E+02  0.56814897049E+02  0.13977731214E+02  0.60544667820E+02  0.10566000000E+00 0.  1.
         23    2    1    0    0    0 -0.18379783781E+02  0.25290271042E+02  0.64375216050E+01  0.93080477046E+02  0.87436372646E+02 0.  0.
         13    1    3    3    0    0 -0.28126343715E+01 -0.31524626007E+02 -0.75402096094E+01  0.32535809226E+02  0.10566000000E+00 0. -1.
         22    1    1    0    0    0  0.18379783781E+02 -0.25290271042E+02 -0.64375216050E+01  0.31919522954E+02  0.00000000000E+00 0.  1.
</event>
<event>
 5    1  0.1766627E-003  0.9118800E+02  0.7818608E-02  0.1130116E+00
         25   -1    0    0    0    0  0.00000000000E+00  0.00000000000E+00  0.99999998245E-14  0.12500000000E+03  0.12500000000E+03 0.  0.
        -13    1    3    3    0    0  0.12151274074E+02 -0.32471474768E+02 -0.23786859864E+02  0.42046117555E+02  0.10566000000E+00 0. -1.
         23    2    1    0    0    0  0.26690775422E+02  0.12594678982E+02  0.95008166873E+00  0.95471605420E+02  0.90790425459E+02 0.  0.
         13    1    3    3    0    0  0.14539501348E+02  0.45066153749E+02  0.24736941533E+02  0.53425487865E+02  0.10566000000E+00 0.  1.
         22    1    1    0    0    0 -0.26690775422E+02 -0.12594678982E+02 -0.95008166873E+00  0.29528394580E+02  0.00000000000E+00 0.  1.
</event>
<event>
 5    1  0.1766627E-003  0.9118800E+02  0.7818608E-02  0.1130116E+00
         25   -1    0    0    0    0  0.00000000000E+00  0.00000000000E+00  0.99999998245E-14  0.12500000000E+03  0.12500000000E+03 0.  0.
        -13    1    3    3    0    0  0.47086604066E+02  0.18588689725E+01  0.32285861542E+02  0.57122602320E+02  0.10566000000E+00 0.  1.
         23    2    1    0    0    0  0.26330835715E+02 -0.11151551805E+02  0.16370126669E+01  0.96358250270E+02  0.92003057382E+02 0.  0.
         13    1    3    3    0    0 -0.20755768351E+02 -0.13010420778E+02 -0.30648848875E+02  0.39235647950E+02  0.10566000000E+00 0. -1.
         22    1    1    0    0    0 -0.26330835715E+02  0.11151551805E+02 -0.16370126669E+01  0.28641749730E+02  0.00000000000E+00 0.  1.
</event>
<event>
 5    1  0.1766627E-003  0.9118800E+02  0.7818608E-02  0.1130116E+00
         25   -1    0    0    0    0  0.00000000000E+00  0.00000000000E+00  0.99999998245E-14  0.12500000000E+03  0.12500000000E+03 0.  0.
        -13    1    3    3    0    0 -0.31656348704E+02 -0.28779680311E+02  0.42335740016E+02  0.60189039358E+02  0.10566000000E+00 0.  1.
         23    2    1    0    0    0 -0.90027186560E+01 -0.61096081314E+01  0.27343863255E+02  0.95571049757E+02  0.90927237059E+02 0.  0.
         13    1    3    3    0    0  0.22653630048E+02  0.22670072180E+02 -0.14991876762E+02  0.35382010399E+02  0.10566000000E+00 0. -1.
         22    1    1    0    0    0  0.90027186560E+01  0.61096081314E+01 -0.27343863255E+02  0.29428950243E+02  0.00000000000E+00 0.  1.
</event>
<event>
 5    1  0.1766627E-003  0.9118800E+02  0.7818608E-02  0.1130116E+00
         25   -1    0    0    0    0  0.00000000000E+00  0.00000000000E+00  0.99999998245E-14  0.12500000000E+03  0.12500000000E+03 0.  0.
        -13    1    3    3    0    0 -0.50880804666E+01 -0.14236280301E+02  0.33836726213E+02  0.37060699460E+02  0.10566000000E+00 0.  1.
         23    2    1    0    0    0  0.15757060171E+02 -0.12426330727E+02 -0.21120456812E+02  0.95866302388E+02  0.91332226498E+02 0.  0.
         13    1    3    3    0    0  0.20845140637E+02  0.18099495742E+01 -0.54957183025E+02  0.58805602928E+02  0.10566000000E+00 0. -1.
         22    1    1    0    0    0 -0.15757060171E+02  0.12426330727E+02  0.21120456812E+02  0.29133697612E+02  0.00000000000E+00 0. -1.
</event>
<event>
 5    1  0.1766627E-003  0.9118800E+02  0.7818608E-02  0.1130116E+00
         25   -1    0    0    0    0  0.00000000000E+00  0.00000000000E+00  0.99999998245E-14  0.12500000000E+03  0.12500000000E+03 0.  0.
        -13    1    3    3    0    0 -0.61556808057E+01 -0.35300639927E+01 -0.37016608821E+02  0.37690771425E+02  0.10566000000E+00 0. -1.
         23    2    1    0    0    0  0.22957513972E+02  0.22720483515E+02  0.15245089310E+01  0.92664385789E+02  0.86839486683E+02 0.  0.
         13    1    3    3    0    0  0.29113194778E+02  0.26250547507E+02  0.38541117752E+02  0.54973614364E+02  0.10566000000E+00 0.  1.
         22    1    1    0    0    0 -0.22957513972E+02 -0.22720483515E+02 -0.15245089310E+01  0.32335614211E+02  0.00000000000E+00 0.  1.
</event>
<event>
 5    1  0.1766627E-003  0.9118800E+02  0.7818608E-02  0.1130116E+00
         25   -1    0    0    0    0  0.00000000000E+00  0.00000000000E+00  0.99999998245E-14  0.12500000000E+03  0.12500000000E+03 0.  0.
        -13    1    3    3    0    0  0.24443918084E+02  0.54069383309E+01 -0.28731296122E+02  0.38108249164E+02  0.10566000000E+00 0.  1.
         23    2    1    0    0    0 -0.18544589004E+02 -0.21875776882E+02 -0.52005224908E+00  0.96316871686E+02  0.91946821161E+02 0.  0.
         13    1    3    3    0    0 -0.42988507089E+02 -0.27282715213E+02  0.28211243873E+02  0.58208622523E+02  0.10566000000E+00 0. -1.
         22    1    1    0    0    0  0.18544589004E+02  0.21875776882E+02  0.52005224908E+00  0.28683128314E+02  0.00000000000E+00 0. -1.
</event>
<event>
 5    1  0.1766627E-003  0.9118800E+02  0.7818608E-02  0.1130116E+00
         25   -1    0    0    0    0  0.00000000000E+00  0.00000000000E+00  0.99999998245E-14  0.12500000000E+03  0.12500000000E+03 0.  0.
        -13    1    3    3    0    0  0.32127594377E+01  0.55599842360E+01 -0.48580705111E+02  0.49003380710E+02  0.10566000000E+00 0. -1.
         23    2    1    0    0    0 -0.15966459674E+02  0.25306277855E+02 -0.18304301295E+02  0.89923184590E+02  0.82799735190E+02 0.  0.
         13    1    3    3    0    0 -0.19179219112E+02  0.19746293619E+02  0.30276403817E+02  0.40919803880E+02  0.10566000000E+00 0.  1.
         22    1    1    0    0    0  0.15966459674E+02 -0.25306277855E+02  0.18304301295E+02  0.35076815410E+02  0.00000000000E+00 0. -1.
</event>
<event>
 5    1  0.1766627E-003  0.9118800E+02  0.7818608E-02  0.1130116E+00
         25   -1    0    0    0    0  0.00000000000E+00  0.00000000000E+00  0.99999998245E-14  0.12500000000E+03  0.12500000000E+03 0.  0.
        -13    1    3    3    0    0 -0.32367715841E+01 -0.38602002015E+02  0.72704196329E+01  0.39413974876E+02  0.10566000000E+00 0. -1.
         23    2    1    0    0    0  0.22522124990E+02  0.94506712317E+01  0.17586359172E+02  0.94902801962E+02  0.90003891530E+02 0.  0.
         13    1    3    3    0    0  0.25758896574E+02  0.48052673246E+02  0.10315939539E+02  0.55488827087E+02  0.10566000000E+00 0.  1.
         22    1    1    0    0    0 -0.22522124990E+02 -0.94506712317E+01 -0.17586359172E+02  0.30097198038E+02  0.00000000000E+00 0.  1.
</event>
<event>
 5    1  0.1766627E-003  0.9118800E+02  0.7818608E-02  0.1130116E+00
         25   -1    0    0    0    0  0.00000000000E+00  0.00000000000E+00  0.99999998245E-14  0.12500000000E+03  0.12500000000E+03 0.  0.
        -13    1    3    3    0    0 -0.38262964858E+01  0.43834923090E+02 -0.78948171509E+01  0.44704365883E+02  0.10566000000E+00 0. -1.
         23    2    1    0    0    0 -0.30868791389E+02  0.35151072321E+01 -0.64181000929E+01  0.93275714831E+02  0.87715042654E+02 0.  0.
         13    1    3    3    0    0 -0.27042494903E+02 -0.40319815858E+02  0.14767170580E+01  0.48571348949E+02  0.10566000000E+00 0.  1.
         22    1    1    0    0    0  0.30868791389E+02 -0.35151072321E+01  0.64181000929E+01  0.31724285169E+02  0.00000000000E+00 0.  1.
</event>
<event>
 5    1  0.1766627E-003  0.9118800E+02  0.7818608E-02  0.1130116E+00
         25   -1    0    0    0    0  0.00000000000E+00  0.00000000000E+00  0.99999998245E-14  0.12500000000E+03  0.12500000000E+03 0.  0.
        -13    1    3    3    0    0 -0.24284322081E+02  0.17605255804E+02  0.22757440290E+02  0.37650837752E+02  0.10566000000E+00 0.  1.
         23    2    1    0    0    0  0.27834907456E+02  0.36719391315E+01  0.17639177102E+02  0.91842711526E+02  0.85648571976E+02 0.  0.
         13    1    3    3    0    0  0.52119229537E+02 -0.13933316672E+02 -0.51182631871E+01  0.54191873774E+02  0.10566000000E+00 0. -1.
         22    1    1    0    0    0 -0.27834907456E+02 -0.36719391315E+01 -0.17639177102E+02  0.33157288474E+02  0.00000000000E+00 0. -1.
</event>
<event>
 5    1  0.1766627E-003  0.9118800E+02  0.7818608E-02  0.1130116E+00
         25   -1    0    0    0    0  0.00000000000E+00  0.00000000000E+00  0.99999998245E-14  0.12500000000E+03  0.12500000000E+03 0.  0.
        -13    1    3    3    0    0  0.11213068135E+02 -0.55998045960E+01  0.50800454412E+02  0.52323876395E+02  0.10566000000E+00 0.  1.
         23    2    1    0    0    0  0.21091503850E+02  0.15200768421E+02  0.14727766459E+02  0.95119872823E+02  0.90304862581E+02 0.  0.
         13    1    3    3    0    0  0.98784357157E+01  0.20800573017E+02 -0.36072687953E+02  0.42795996427E+02  0.10566000000E+00 0. -1.
         22    1    1    0    0    0 -0.21091503850E+02 -0.15200768421E+02 -0.14727766459E+02  0.29880127177E+02  0.00000000000E+00 0.  1.
</event>
<event>
 5    1  0.1766627E-003  0.9118800E+02  0.7818608E-02  0.1130116E+00
         25   -1    0    0    0    0  0.00000000000E+00  0.00000000000E+00  0.99999998245E-14  0.12500000000E+03  0.12500000000E+03 0.  0.
        -13    1    3    3    0    0 -0.60926975016E+01  0.34026282830E+02  0.15683910705E+02  0.37959255856E+02  0.10566000000E+00 0.  1.
         23    2    1    0    0    0  0.22672352142E+02 -0.84199742689E+01 -0.13848004197E+02  0.97130684641E+02  0.93046607463E+02 0.  0.
         13    1    3    3    0    0  0.28765049643E+02 -0.42446257099E+02 -0.29531914902E+02  0.59171428786E+02  0.10566000000E+00 0. -1.
         22    1    1    0    0    0 -0.22672352142E+02  0.84199742689E+01  0.13848004197E+02  0.27869315359E+02  0.00000000000E+00 0. -1.
</event>
<event>
 5    1  0.1766627E-003  0.9118800E+02  0.7818608E-02  0.1130116E+00
         25   -1    0    0    0    0  0.00000000000E+00  0.00000000000E+00  0.99999998245E-14  0.12500000000E+03  0.12500000000E+03 0.  0.
        -13    1    3    3    0    0  0.14310240857E+01  0.34121428293E+02  0.12936443493E+02  0.36519617097E+02  0.10566000000E+00 0.  1.
         23    2    1    0    0    0  0.16676334876E+02 -0.20848648943E+02 -0.77508549401E+01  0.97199962951E+02  0.93139630328E+02 0.  0.
         13    1    3    3    0    0  0.15245310790E+02 -0.54970077236E+02 -0.20687298433E+02  0.60680345853E+02  0.10566000000E+00 0. -1.
         22    1    1    0    0    0 -0.16676334876E+02  0.20848648943E+02  0.77508549401E+01  0.27800037049E+02  0.00000000000E+00 0. -1.
</event>
<event>
 5    1  0.1766627E-003  0.9118800E+02  0.7818608E-02  0.1130116E+00
         25   -1    0    0    0    0  0.00000000000E+00  0.00000000000E+00  0.99999998245E-14  0.12500000000E+03  0.12500000000E+03 0.  0.
        -13    1    3    3    0    0  0.39007218002E+02 -0.17228201239E+02 -0.24928002262E+02  0.49394234836E+02  0.10566000000E+00 0. -1.
         23    2    1    0    0    0 -0.46736589759E+01 -0.25870968647E+02 -0.13875437763E+02  0.95273280031E+02  0.90516959780E+02 0.  0.
         13    1    3    3    0    0 -0.43680876978E+02 -0.86427674083E+01  0.11052564498E+02  0.45879045196E+02  0.10566000000E+00 0.  1.
         22    1    1    0    0    0  0.46736589759E+01  0.25870968647E+02  0.13875437763E+02  0.29726719969E+02  0.00000000000E+00 0. -1.
</event>
<event>
 5    1  0.1766627E-003  0.9118800E+02  0.7818608E-02  0.1130116E+00
         25   -1    0    0    0    0  0.00000000000E+00  0.00000000000E+00  0.99999998245E-14  0.12500000000E+03  0.12500000000E+03 0.  0.
        -13    1    3    3    0    0  0.58666833549E+01  0.54826120752E+01  0.59270292969E+02  0.59811836633E+02  0.10566000000E+00 0. -1.
         23    2    1    0    0    0 -0.68849637244E+01  0.11185750186E+02  0.27072591415E+02  0.94909321400E+02  0.90012945457E+02 0.  0.
         13    1    3    3    0    0 -0.12751647079E+02  0.57031381104E+01 -0.32197701554E+02  0.35097484766E+02  0.10566000000E+00 0.  1.
         22    1    1    0    0    0  0.68849637244E+01 -0.11185750186E+02 -0.27072591415E+02  0.30090678600E+02  0.00000000000E+00 0. -1.
</event>
<event>
 5    1  0.1766627E-003  0.9118800E+02  0.7818608E-02  0.1130116E+00
         25   -1    0    0    0    0  0.00000000000E+00  0.00000000000E+00  0.99999998245E-14  0.12500000000E+03  0.12500000000E+03 0.  0.
        -13    1    3    3    0    0  0.13895874242E+02  0.11845905583E+02  0.24877861618E+02  0.30860005877E+02  0.10566000000E+00 0.  1.
         23    2    1    0    0    0 -0.27594662294E+02  0.67484444782E+00 -0.18384900222E+02  0.91834877382E+02  0.85637137653E+02 0.  0.
         13    1    3    3    0    0 -0.41490536536E+02 -0.11171061135E+02 -0.43262761839E+02  0.60974871504E+02  0.10566000000E+00 0. -1.
         22    1    1    0    0    0  0.27594662294E+02 -0.67484444782E+00  0.18384900222E+02  0.33165122618E+02  0.00000000000E+00 0. -1.
</event>
<event>
 5    1  0.1766627E-003  0.9118800E+02  0.7818608E-02  0.1130116E+00
         25   -1    0    0    0    0  0.00000000000E+00  0.00000000000E+00  0.99999998245E-14  0.12500000000E+03  0.12500000000E+03 0.  0.
        -13    1    3    3    0    0  0.76575465281E+01 -0.21931799366E+02 -0.46145224749E+02  0.51662701956E+02  0.10566000000E+00 0.  1.
         23    2    1    0    0    0  0.18858406681E+02 -0.22492498943E+02 -0.38778416587E+01  0.95392742998E+02  0.90681782898E+02 0.  0.
         13    1    3    3    0    0  0.11200860153E+02 -0.56069957729E+00  0.42267383090E+02  0.43730041042E+02  0.10566000000E+00 0. -1.
         22    1    1    0    0    0 -0.18858406681E+02  0.22492498943E+02  0.38778416587E+01  0.29607257002E+02  0.00000000000E+00 0.  1.
</event>
<event>
 5    1  0.1766627E-003  0.9118800E+02  0.7818608E-02  0.1130116E+00
         25   -1    0    0    0    0  0.00000000000E+00  0.00000000000E+00  0.99999998245E-14  0.12500000000E+03  0.12500000000E+03 0.  0.
        -13    1    3    3    0    0 -0.29146296835E+02 -0.24344467678E+02 -0.24148603798E+01  0.38052627247E+02  0.10566000000E+00 0.  1.
         23    2    1    0    0    0 -0.53690472012E+01  0.25099004097E+02  0.14570994198E+02  0.95485587479E+02  0.90809673878E+02 0.  0.
         13    1    3    3    0    0  0.23777249634E+02  0.49443471775E+02  0.16985854578E+02  0.57432960233E+02  0.10566000000E+00 0. -1.
         22    1    1    0    0    0  0.53690472012E+01 -0.25099004097E+02 -0.14570994198E+02  0.29514412521E+02  0.00000000000E+00 0. -1.
</event>
<event>
 5    1  0.1766627E-003  0.9118800E+02  0.7818608E-02  0.1130116E+00
         25   -1    0    0    0    0  0.00000000000E+00  0.00000000000E+00  0.99999998245E-14  0.12500000000E+03  0.12500000000E+03 0.  0.
        -13    1    3    3    0    0  0.45377892302E+02  0.30228794117E+02  0.18070733498E+02  0.57441236727E+02  0.10566000000E+00 0. -1.
         23    2    1    0    0    0  0.12380660387E+02  0.28159321136E+02  0.20759634643E+01  0.94169207880E+02  0.88979222125E+02 0.  0.
         13    1    3    3    0    0 -0.32997231916E+02 -0.20694729814E+01 -0.15994770034E+02  0.36727971153E+02  0.10566000000E+00 0.  1.
         22    1    1    0    0    0 -0.12380660387E+02 -0.28159321136E+02 -0.20759634643E+01  0.30830792120E+02  0.00000000000E+00 0. -1.
</event>
<event>
 5    1  0.1766627E-003  0.9118800E+02  0.7818608E-02  0.1130116E+00
         25   -1    0    0    0    0  0.00000000000E+00  0.00000000000E+00  0.99999998245E-14  0.12500000000E+03  0.12500000000E+03 0.  0.
        -13    1    3    3    0    0 -0.16197905262E+02 -0.15813287394E+01 -0.35461441382E+02  0.39017915429E+02  0.10566000000E+00 0.  1.
         23    2    1    0    0    0 -0.18861294766E+01  0.27124632796E+02  0.11160640569E+02  0.95608452122E+02  0.90978640518E+02 0.  0.
         13    1    3    3    0    0  0.14311775785E+02  0.28705961536E+02  0.46622081951E+02  0.56590536694E+02  0.10566000000E+00 0. -1.
         22    1    1    0    0    0  0.18861294766E+01 -0.27124632796E+02 -0.11160640569E+02  0.29391547878E+02  0.00000000000E+00 0. -1.
</event>
<event>
 5    1  0.1766627E-003  0.9118800E+02  0.7818608E-02  0.1130116E+00
         25   -1    0    0    0    0  0.00000000000E+00  0.00000000000E+00  0.99999998245E-14  0.12500000000E+03  0.12500000000E+03 0.  0.
        -13    1    3    3    0    0 -0.35029382580E+02  0.25894682068E+02 -0.36760832326E+02  0.56999668075E+02  0.10566000000E+00 0.  1.
         23    2    1    0    0    0 -0.56040244094E+01  0.27052484319E+02 -0.15487187092E+02  0.93328325566E+02  0.87789984574E+02 0.  0.
         13    1    3    3    0    0  0.29425358170E+02  0.11578022510E+01  0.21273645234E+02  0.36328657491E+02  0.10566000000E+00 0. -1.
         22    1    1    0    0    0  0.56040244094E+01 -0.27052484319E+02  0.15487187092E+02  0.31671674434E+02  0.00000000000E+00 0.  1.
</event>
<event>
 5    1  0.1766627E-003  0.9118800E+02  0.7818608E-02  0.1130116E+00
         25   -1    0    0    0    0  0.00000000000E+00  0.00000000000E+00  0.99999998245E-14  0.12500000000E+03  0.12500000000E+03 0.  0.
        -13    1    3    3    0    0 -0.32955611249E+02  0.34698523750E+02  0.30369166683E+01  0.47950952964E+02  0.10566000000E+00 0. -1.
         23    2    1    0    0    0  0.14417610054E+02  0.20454581317E+02  0.10277868641E+02  0.97946498187E+02  0.94136202105E+02 0.  0.
         13    1    3    3    0    0  0.47373221303E+02 -0.14243942433E+02  0.72409519725E+01  0.49995545224E+02  0.10566000000E+00 0.  1.
         22    1    1    0    0    0 -0.14417610054E+02 -0.20454581317E+02 -0.10277868641E+02  0.27053501813E+02  0.00000000000E+00 0. -1.
</event>
<event>
 5    1  0.1766627E-003  0.9118800E+02  0.7818608E-02  0.1130116E+00
         25   -1    0    0    0    0  0.00000000000E+00  0.00000000000E+00  0.99999998245E-14  0.12500000000E+03  0.12500000000E+03 0.  0.
        -13    1    3    3    0    0  0.34450791775E+02 -0.19010529074E+02  0.17975932879E+02  0.43259711008E+02  0.10566000000E+00 0. -1.
         23    2    1    0    0    0 -0.25267101681E+01 -0.19943575517E+02 -0.20259624326E+02  0.96459102212E+02  0.92139978039E+02 0.  0.
         13    1    3    3    0    0 -0.36977501943E+02 -0.93304644322E+00 -0.38235557206E+02  0.53199391204E+02  0.10566000000E+00 0.  1.
         22    1    1    0    0    0  0.25267101681E+01  0.19943575517E+02  0.20259624326E+02  0.28540897788E+02  0.00000000000E+00 0.  1.
</event>
<event>
 5    1  0.1766627E-003  0.9118800E+02  0.7818608E-02  0.1130116E+00
         25   -1    0    0    0    0  0.00000000000E+00  0.00000000000E+00  0.99999998245E-14  0.12500000000E+03  0.12500000000E+03 0.  0.
        -13    1    3    3    0    0  0.10534295753E+02 -0.27715588006E+01 -0.35381088294E+02  0.37020068856E+02  0.10566000000E+00 0.  1.
         23    2    1    0    0    0  0.13994766334E+02 -0.10436326729E+02  0.23067759479E+02  0.96070915539E+02  0.91611838126E+02 0.  0.
         13    1    3    3    0    0  0.34604705814E+01 -0.76647679287E+01  0.58448847773E+02  0.59050846684E+02  0.10566000000E+00 0. -1.
         22    1    1    0    0    0 -0.13994766334E+02  0.10436326729E+02 -0.23067759479E+02  0.28929084461E+02  0.00000000000E+00 0. -1.
</event>
<event>
 5    1  0.1766627E-003  0.9118800E+02  0.7818608E-02  0.1130116E+00
         25   -1    0    0    0    0  0.00000000000E+00  0.00000000000E+00  0.99999998245E-14  0.12500000000E+03  0.12500000000E+03 0.  0.
        -13    1    3    3    0    0 -0.28072276542E+02  0.39074747575E+02 -0.38080020378E+02  0.61359495795E+02  0.10566000000E+00 0. -1.
         23    2    1    0    0    0 -0.22895977585E+02  0.23925615364E+02 -0.17160627045E+02  0.87701903793E+02  0.79375537467E+02 0.  0.
         13    1    3    3    0    0  0.51762989562E+01 -0.15149132211E+02  0.20919393333E+02  0.26342407997E+02  0.10566000000E+00 0.  1.
         22    1    1    0    0    0  0.22895977585E+02 -0.23925615364E+02  0.17160627045E+02  0.37298096207E+02  0.00000000000E+00 0. -1.
</event>
<event>
 5    1  0.1766627E-003  0.9118800E+02  0.7818608E-02  0.1130116E+00
         25   -1    0    0    0    0  0.00000000000E+00  0.00000000000E+00  0.99999998245E-14  0.12500000000E+03  0.12500000000E+03 0.  0.
        -13    1    3    3    0    0  0.16464009529E+02  0.51850750491E+02 -0.27917144231E+02  0.61146889065E+02  0.10566000000E+00 0. -1.
         23    2    1    0    0    0  0.35430805978E+01  0.20994423153E+02 -0.20566711856E+02  0.95397485576E+02  0.90688320053E+02 0.  0.
         13    1    3    3    0    0 -0.12920928931E+02 -0.30856327338E+02  0.73504323746E+01  0.34250596511E+02  0.10566000000E+00 0.  1.
         22    1    1    0    0    0 -0.35430805978E+01 -0.20994423153E+02  0.20566711856E+02  0.29602514424E+02  0.00000000000E+00 0. -1.
</event>
<event>
 5    1  0.1766627E-003  0.9118800E+02  0.7818608E-02  0.1130116E+00
         25   -1    0    0    0    0  0.00000000000E+00  0.00000000000E+00  0.99999998245E-14  0.12500000000E+03  0.12500000000E+03 0.  0.
        -13    1    3    3    0    0  0.31187981506E+02 -0.33418135996E+02 -0.90363346876E+00  0.45719686365E+02  0.10566000000E+00 0.  1.
         23    2    1    0    0    0 -0.17148696777E+02 -0.23337511909E+02 -0.62109637669E+01  0.95380862029E+02  0.90665404137E+02 0.  0.
         13    1    3    3    0    0 -0.48336678282E+02  0.10080624088E+02 -0.53073302981E+01  0.49661175664E+02  0.10566000000E+00 0. -1.
         22    1    1    0    0    0  0.17148696777E+02  0.23337511909E+02  0.62109637669E+01  0.29619137971E+02  0.00000000000E+00 0.  1.
</event>
<event>
 5    1  0.1766627E-003  0.9118800E+02  0.7818608E-02  0.1130116E+00
         25   -1    0    0    0    0  0.00000000000E+00  0.00000000000E+00  0.99999998245E-14  0.12500000000E+03  0.12500000000E+03 0.  0.
        -13    1    3    3    0    0  0.94408273881E+01 -0.14629658118E+02 -0.31319618678E+02  0.35834142889E+02  0.10566000000E+00 0.  1.
         23    2    1    0    0    0 -0.22422930978E+02  0.18523583892E+02  0.62948736535E+01  0.95242035887E+02  0.90473802681E+02 0.  0.
         13    1    3    3    0    0 -0.31863758367E+02  0.33153242009E+02  0.37614492332E+02  0.59407892997E+02  0.10566000000E+00 0. -1.
         22    1    1    0    0    0  0.22422930978E+02 -0.18523583892E+02 -0.62948736535E+01  0.29757964113E+02  0.00000000000E+00 0. -1.
</event>
<event>
 5    1  0.1766627E-003  0.9118800E+02  0.7818608E-02  0.1130116E+00
         25   -1    0    0    0    0  0.00000000000E+00  0.00000000000E+00  0.99999998245E-14  0.12500000000E+03  0.12500000000E+03 0.  0.
        -13    1    3    3    0    0  0.49685889881E+02  0.29469256311E+02  0.18155671401E+02  0.60553813166E+02  0.10566000000E+00 0.  1.
         23    2    1    0    0    0  0.20515371837E+02  0.21644555151E+02  0.12809371266E+01  0.95150242058E+02  0.90346889899E+02 0.  0.
         13    1    3    3    0    0 -0.29170518044E+02 -0.78247011600E+01 -0.16874734274E+02  0.34596428892E+02  0.10566000000E+00 0. -1.
         22    1    1    0    0    0 -0.20515371837E+02 -0.21644555151E+02 -0.12809371266E+01  0.29849757942E+02  0.00000000000E+00 0.  1.
</event>
<event>
 5    1  0.1766627E-003  0.9118800E+02  0.7818608E-02  0.1130116E+00
         25   -1    0    0    0    0  0.00000000000E+00  0.00000000000E+00  0.99999998245E-14  0.12500000000E+03  0.12500000000E+03 0.  0.
        -13    1    3    3    0    0 -0.43247606815E+02  0.27283415594E+02 -0.10047299081E+02  0.52112375158E+02  0.10566000000E+00 0. -1.
         23    2    1    0    0    0  0.60415000575E+00  0.25162952727E+02 -0.14009036471E+02  0.96193884504E+02  0.91779470068E+02 0.  0.
         13    1    3    3    0    0  0.43851756821E+02 -0.21204628672E+01 -0.39617373896E+01  0.44081509346E+02  0.10566000000E+00 0.  1.
         22    1    1    0    0    0 -0.60415000575E+00 -0.25162952727E+02  0.14009036471E+02  0.28806115496E+02  0.00000000000E+00 0. -1.
</event>
<event>
 5    1  0.1766627E-003  0.9118800E+02  0.7818608E-02  0.1130116E+00
         25   -1    0    0    0    0  0.00000000000E+00  0.00000000000E+00  0.99999998245E-14  0.12500000000E+03  0.12500000000E+03 0.  0.
        -13    1    3    3    0    0 -0.57964809769E+01  0.24333569712E+02  0.49996529985E+02  0.55905151652E+02  0.10566000000E+00 0.  1.
         23    2    1    0    0    0  0.16874763219E+02  0.14093198127E+02  0.29908537787E+02  0.87879971718E+02  0.79655463902E+02 0.  0.
         13    1    3    3    0    0  0.22671244196E+02 -0.10240371585E+02 -0.20087992199E+02  0.31974820065E+02  0.10566000000E+00 0. -1.
         22    1    1    0    0    0 -0.16874763219E+02 -0.14093198127E+02 -0.29908537787E+02  0.37120028282E+02  0.00000000000E+00 0.  1.
</event>
<event>
 5    1  0.1766627E-003  0.9118800E+02  0.7818608E-02  0.1130116E+00
         25   -1    0    0    0    0  0.00000000000E+00  0.00000000000E+00  0.99999998245E-14  0.12500000000E+03  0.12500000000E+03 0.  0.
        -13    1    3    3    0    0 -0.40659647084E+02 -0.11318658433E+01  0.23203795659E+02  0.46828573738E+02  0.10566000000E+00 0.  1.
         23    2    1    0    0    0 -0.20764709004E+02  0.31827244039E+01 -0.20877028253E+02  0.95383228006E+02  0.90668666041E+02 0.  0.
         13    1    3    3    0    0  0.19894938081E+02  0.43145902472E+01 -0.44080823913E+02  0.48554654268E+02  0.10566000000E+00 0. -1.
         22    1    1    0    0    0  0.20764709004E+02 -0.31827244039E+01  0.20877028253E+02  0.29616771994E+02  0.00000000000E+00 0. -1.
</event>
<event>
 5    1  0.1766627E-003  0.9118800E+02  0.7818608E-02  0.1130116E+00
         25   -1    0    0    0    0  0.00000000000E+00  0.00000000000E+00  0.99999998245E-14  0.12500000000E+03  0.12500000000E+03 0.  0.
        -13    1    3    3    0    0 -0.36468346505E+02 -0.26429564220E+02 -0.52898379596E+01  0.45348161058E+02  0.10566000000E+00 0.  1.
         23    2    1    0    0    0  0.28798220654E+01 -0.72096132970E+01 -0.28883681740E+02  0.95091155658E+02  0.90265103525E+02 0.  0.
         13    1    3    3    0    0  0.39348168570E+02  0.19219950923E+02 -0.23593843781E+02  0.49742994599E+02  0.10566000000E+00 0. -1.
         22    1    1    0    0    0 -0.28798220654E+01  0.72096132970E+01  0.28883681740E+02  0.29908844342E+02  0.00000000000E+00 0.  1.
</event>
<event>
 5    1  0.1766627E-003  0.9118800E+02  0.7818608E-02  0.1130116E+00
         25   -1    0    0    0    0  0.00000000000E+00  0.00000000000E+00  0.99999998245E-14  0.12500000000E+03  0.12500000000E+03 0.  0.
        -13    1    3    3    0    0  0.16919171760E+02 -0.34054668244E+02  0.57224292741E+00  0.38030480252E+02  0.10566000000E+00 0.  1.
         23    2    1    0    0    0 -0.13684719542E+02  0.15828839915E+02 -0.15776747391E+02  0.98794476150E+02  0.95255545968E+02 0.  0.
         13    1    3    3    0    0 -0.30603891301E+02  0.49883508159E+02 -0.16348990318E+02  0.60763995898E+02  0.10566000000E+00 0. -1.
         22    1    1    0    0    0  0.13684719542E+02 -0.15828839915E+02  0.15776747391E+02  0.26205523850E+02  0.00000000000E+00 0. -1.
</event>
<event>
 5    1  0.1766627E-003  0.9118800E+02  0.7818608E-02  0.1130116E+00
         25   -1    0    0    0    0  0.00000000000E+00  0.00000000000E+00  0.99999998245E-14  0.12500000000E+03  0.12500000000E+03 0.  0.
        -13    1    3    3    0    0 -0.20603002592E+02  0.44116354855E+02  0.28955016425E+02  0.56649277327E+02  0.10566000000E+00 0.  1.
         23    2    1    0    0    0  0.23826087893E+01  0.28254334545E+02  0.32662324612E+00  0.96643502897E+02  0.92389803140E+02 0.  0.
         13    1    3    3    0    0  0.22985611381E+02 -0.15862020309E+02 -0.28628393179E+02  0.39994225570E+02  0.10566000000E+00 0. -1.
         22    1    1    0    0    0 -0.23826087893E+01 -0.28254334545E+02 -0.32662324612E+00  0.28356497103E+02  0.00000000000E+00 0. -1.
</event>
<event>
 5    1  0.1766627E-003  0.9118800E+02  0.7818608E-02  0.1130116E+00
         25   -1    0    0    0    0  0.00000000000E+00  0.00000000000E+00  0.99999998245E-14  0.12500000000E+03  0.12500000000E+03 0.  0.
        -13    1    3    3    0    0 -0.14992771065E+02 -0.41647965851E+02  0.43690305186E+02  0.62194776107E+02  0.10566000000E+00 0. -1.
         23    2    1    0    0    0 -0.96488997524E+01 -0.19522976886E+02  0.16358899671E+02  0.97762865581E+02  0.93892046496E+02 0.  0.
         13    1    3    3    0    0  0.53438713126E+01  0.22124988965E+02 -0.27331405515E+02  0.35568089473E+02  0.10566000000E+00 0.  1.
         22    1    1    0    0    0  0.96488997524E+01  0.19522976886E+02 -0.16358899671E+02  0.27237134419E+02  0.00000000000E+00 0. -1.
</event>
<event>
 5    1  0.1766627E-003  0.9118800E+02  0.7818608E-02  0.1130116E+00
         25   -1    0    0    0    0  0.00000000000E+00  0.00000000000E+00  0.99999998245E-14  0.12500000000E+03  0.12500000000E+03 0.  0.
        -13    1    3    3    0    0 -0.71604234679E+01 -0.61597467242E+01 -0.43899495076E+02  0.44904242293E+02  0.10566000000E+00 0.  1.
         23    2    1    0    0    0 -0.24763681581E+02 -0.18216058802E+02  0.59757286906E+00  0.94252287613E+02  0.89095857946E+02 0.  0.
         13    1    3    3    0    0 -0.17603258113E+02 -0.12056312078E+02  0.44497067945E+02  0.49348045320E+02  0.10566000000E+00 0. -1.
         22    1    1    0    0    0  0.24763681581E+02  0.18216058802E+02 -0.59757286906E+00  0.30747712387E+02  0.00000000000E+00 0. -1.
</event>
<event>
 5    1  0.1766627E-003  0.9118800E+02  0.7818608E-02  0.1130116E+00
         25   -1    0    0    0    0  0.00000000000E+00  0.00000000000E+00  0.99999998245E-14  0.12500000000E+03  0.12500000000E+03 0.  0.
        -13    1    3    3    0    0  0.13503544004E+02 -0.36290990639E+02 -0.22014368728E+02  0.44542398866E+02  0.10566000000E+00 0.  1.
         23    2    1    0    0    0 -0.26561058161E+02 -0.62042518006E+01 -0.82922835206E+01  0.96491325583E+02  0.92183682915E+02 0.  0.
         13    1    3    3    0    0 -0.40064602165E+02  0.30086738838E+02  0.13722085207E+02  0.51948926717E+02  0.10566000000E+00 0. -1.
         22    1    1    0    0    0  0.26561058161E+02  0.62042518006E+01  0.82922835206E+01  0.28508674417E+02  0.00000000000E+00 0. -1.
</event>
<event>
 5    1  0.1766627E-003  0.9118800E+02  0.7818608E-02  0.1130116E+00
         25   -1    0    0    0    0  0.00000000000E+00  0.00000000000E+00  0.99999998245E-14  0.12500000000E+03  0.12500000000E+03 0.  0.
        -13    1    3    3    0    0  0.75409985890E+01  0.23806495172E+01 -0.44782783091E+02  0.45475740535E+02  0.10566000000E+00 0. -1.
         23    2    1    0    0    0  0.12940423635E+02 -0.27059117314E+02 -0.60903137843E+01  0.94393753649E+02  0.89294111857E+02 0.  0.
         13    1    3    3    0    0  0.53994250463E+01 -0.29439766832E+02  0.38692469307E+02  0.48918013114E+02  0.10566000000E+00 0.  1.
         22    1    1    0    0    0 -0.12940423635E+02  0.27059117314E+02  0.60903137843E+01  0.30606246351E+02  0.00000000000E+00 0.  1.
</event>
<event>
 5    1  0.1766627E-003  0.9118800E+02  0.7818608E-02  0.1130116E+00
         25   -1    0    0    0    0  0.00000000000E+00  0.00000000000E+00  0.99999998245E-14  0.12500000000E+03  0.12500000000E+03 0.  0.
        -13    1    3    3    0    0 -0.17535778712E+02  0.13820281724E+01  0.42966116297E+02  0.46427490247E+02  0.10566000000E+00 0. -1.
         23    2    1    0    0    0  0.23772468579E+02  0.18585566029E+01  0.21054683367E+02  0.93189872892E+02  0.87592626533E+02 0.  0.
         13    1    3    3    0    0  0.41308247291E+02  0.47652843059E+00 -0.21911432930E+02  0.46762382645E+02  0.10566000000E+00 0.  1.
         22    1    1    0    0    0 -0.23772468579E+02 -0.18585566029E+01 -0.21054683367E+02  0.31810127108E+02  0.00000000000E+00 0.  1.
</event>
<event>
 5    1  0.1766627E-003  0.9118800E+02  0.7818608E-02  0.1130116E+00
         25   -1    0    0    0    0  0.00000000000E+00  0.00000000000E+00  0.99999998245E-14  0.12500000000E+03  0.12500000000E+03 0.  0.
        -13    1    3    3    0    0 -0.16382831887E+02  0.45320564795E+02 -0.36903116609E+02  0.60697627247E+02  0.10566000000E+00 0. -1.
         23    2    1    0    0    0 -0.71830866788E+01  0.12883726521E+02 -0.24061846719E+02  0.96776612343E+02  0.92569720134E+02 0.  0.
         13    1    3    3    0    0  0.91997452084E+01 -0.32436838274E+02  0.12841269890E+02  0.36078985096E+02  0.10566000000E+00 0.  1.
         22    1    1    0    0    0  0.71830866788E+01 -0.12883726521E+02  0.24061846719E+02  0.28223387657E+02  0.00000000000E+00 0. -1.
</event>
<event>
 5    1  0.1766627E-003  0.9118800E+02  0.7818608E-02  0.1130116E+00
         25   -1    0    0    0    0  0.00000000000E+00  0.00000000000E+00  0.99999998245E-14  0.12500000000E+03  0.12500000000E+03 0.  0.
        -13    1    3    3    0    0 -0.40992103899E+02 -0.26755441428E+02  0.32584291401E+02  0.58804365809E+02  0.10566000000E+00 0. -1.
         23    2    1    0    0    0 -0.26919390033E+02 -0.87175936192E+00  0.88107098796E+01  0.96662001963E+02  0.92414828306E+02 0.  0.
         13    1    3    3    0    0  0.14072713866E+02  0.25883682066E+02 -0.23773581521E+02  0.37857636154E+02  0.10566000000E+00 0.  1.
         22    1    1    0    0    0  0.26919390033E+02  0.87175936192E+00 -0.88107098796E+01  0.28337998037E+02  0.00000000000E+00 0. -1.
</event>
<event>
 5    1  0.1766627E-003  0.9118800E+02  0.7818608E-02  0.1130116E+00
         25   -1    0    0    0    0  0.00000000000E+00  0.00000000000E+00  0.99999998245E-14  0.12500000000E+03  0.12500000000E+03 0.  0.
        -13    1    3    3    0    0  0.89042124513E-01 -0.53677091435E+02 -0.31197728218E+02  0.62085002081E+02  0.10566000000E+00 0.  1.
         23    2    1    0    0    0 -0.13700221739E+01 -0.27375874363E+02 -0.10266807107E+02  0.95730172770E+02  0.91145725037E+02 0.  0.
         13    1    3    3    0    0 -0.14590642985E+01  0.26301217073E+02  0.20930921110E+02  0.33645170689E+02  0.10566000000E+00 0. -1.
         22    1    1    0    0    0  0.13700221739E+01  0.27375874363E+02  0.10266807107E+02  0.29269827230E+02  0.00000000000E+00 0.  1.
</event>
<event>
 5    1  0.1766627E-003  0.9118800E+02  0.7818608E-02  0.1130116E+00
         25   -1    0    0    0    0  0.00000000000E+00  0.00000000000E+00  0.99999998245E-14  0.12500000000E+03  0.12500000000E+03 0.  0.
        -13    1    3    3    0    0  0.60539100107E+00 -0.10180833856E+02  0.45749878524E+02  0.46873003161E+02  0.10566000000E+00 0. -1.
         23    2    1    0    0    0  0.24933109849E+02 -0.10356092564E+02  0.79355649655E+00  0.97990032361E+02  0.94193991795E+02 0.  0.
         13    1    3    3    0    0  0.24327718848E+02 -0.17525870786E+00 -0.44956322028E+02  0.51117029200E+02  0.10566000000E+00 0.  1.
         22    1    1    0    0    0 -0.24933109849E+02  0.10356092564E+02 -0.79355649655E+00  0.27009967639E+02  0.00000000000E+00 0. -1.
</event>
<event>
 5    1  0.1766627E-003  0.9118800E+02  0.7818608E-02  0.1130116E+00
         25   -1    0    0    0    0  0.00000000000E+00  0.00000000000E+00  0.99999998245E-14  0.12500000000E+03  0.12500000000E+03 0.  0.
        -13    1    3    3    0    0  0.47791798514E+02 -0.26520847475E+02  0.24308779606E+02  0.59819221710E+02  0.10566000000E+00 0.  1.
         23    2    1    0    0    0  0.27213412676E+02 -0.10378779068E+02 -0.50310379564E+00  0.95870255788E+02  0.91337637079E+02 0.  0.
         13    1    3    3    0    0 -0.20578385838E+02  0.16142068407E+02 -0.24811883401E+02  0.36051034079E+02  0.10566000000E+00 0. -1.
         22    1    1    0    0    0 -0.27213412676E+02  0.10378779068E+02  0.50310379564E+00  0.29129744212E+02  0.00000000000E+00 0.  1.
</event>
<event>
 5    1  0.1766627E-003  0.9118800E+02  0.7818608E-02  0.1130116E+00
         25   -1    0    0    0    0  0.00000000000E+00  0.00000000000E+00  0.99999998245E-14  0.12500000000E+03  0.12500000000E+03 0.  0.
        -13    1    3    3    0    0 -0.19135752561E+02 -0.68025835812E+01  0.36989487768E+02  0.42198169851E+02  0.10566000000E+00 0. -1.
         23    2    1    0    0    0  0.26934288406E+02 -0.44644915948E+01  0.85457925535E+01  0.96391991550E+02  0.92048888572E+02 0.  0.
         13    1    3    3    0    0  0.46070040967E+02  0.23380919863E+01 -0.28443695214E+02  0.54193821698E+02  0.10566000000E+00 0.  1.
         22    1    1    0    0    0 -0.26934288406E+02  0.44644915948E+01 -0.85457925535E+01  0.28608008450E+02  0.00000000000E+00 0.  1.
</event>
<event>
 5    1  0.1766627E-003  0.9118800E+02  0.7818608E-02  0.1130116E+00
         25   -1    0    0    0    0  0.00000000000E+00  0.00000000000E+00  0.99999998245E-14  0.12500000000E+03  0.12500000000E+03 0.  0.
        -13    1    3    3    0    0 -0.38591275748E+02 -0.19542694137E-01 -0.17813105295E+02  0.42504174267E+02  0.10566000000E+00 0.  1.
         23    2    1    0    0    0  0.12267580709E+02 -0.15529418923E+02 -0.21469100347E+02  0.95801050391E+02  0.91242876970E+02 0.  0.
         13    1    3    3    0    0  0.50858856457E+02 -0.15509876229E+02 -0.36559950518E+01  0.53296876125E+02  0.10566000000E+00 0. -1.
         22    1    1    0    0    0 -0.12267580709E+02  0.15529418923E+02  0.21469100347E+02  0.29198949609E+02  0.00000000000E+00 0.  1.
</event>
<event>
 5    1  0.1766627E-003  0.9118800E+02  0.7818608E-02  0.1130116E+00
         25   -1    0    0    0    0  0.00000000000E+00  0.00000000000E+00  0.99999998245E-14  0.12500000000E+03  0.12500000000E+03 0.  0.
        -13    1    3    3    0    0  0.45413967619E+01 -0.44038403628E+01 -0.46747827240E+02  0.47174024740E+02  0.10566000000E+00 0.  1.
         23    2    1    0    0    0 -0.24705239051E+02  0.10741629225E+02 -0.10670111763E+02  0.96024446165E+02  0.91548410916E+02 0.  0.
         13    1    3    3    0    0 -0.29246635813E+02  0.15145469588E+02  0.36077715476E+02  0.48850421425E+02  0.10566000000E+00 0. -1.
         22    1    1    0    0    0  0.24705239051E+02 -0.10741629225E+02  0.10670111763E+02  0.28975553835E+02  0.00000000000E+00 0. -1.
</event>
<event>
 5    1  0.1766627E-003  0.9118800E+02  0.7818608E-02  0.1130116E+00
         25   -1    0    0    0    0  0.00000000000E+00  0.00000000000E+00  0.99999998245E-14  0.12500000000E+03  0.12500000000E+03 0.  0.
        -13    1    3    3    0    0 -0.22966193508E+02 -0.32322256566E+02  0.17842434168E+02  0.43480316636E+02  0.10566000000E+00 0.  1.
         23    2    1    0    0    0 -0.50553324468E+01  0.18453254935E+02  0.19942651918E+02  0.97363278607E+02  0.93358554251E+02 0.  0.
         13    1    3    3    0    0  0.17910861061E+02  0.50775511501E+02  0.21002177498E+01  0.53882961971E+02  0.10566000000E+00 0. -1.
         22    1    1    0    0    0  0.50553324468E+01 -0.18453254935E+02 -0.19942651918E+02  0.27636721393E+02  0.00000000000E+00 0. -1.
</event>
<event>
 5    1  0.1766627E-003  0.9118800E+02  0.7818608E-02  0.1130116E+00
         25   -1    0    0    0    0  0.00000000000E+00  0.00000000000E+00  0.99999998245E-14  0.12500000000E+03  0.12500000000E+03 0.  0.
        -13    1    3    3    0    0  0.28362866988E+02 -0.21605091216E+01 -0.19971258404E+02  0.34756040478E+02  0.10566000000E+00 0.  1.
         23    2    1    0    0    0 -0.39086533471E+01  0.59870508532E+01  0.29646455816E+02  0.94503529854E+02  0.89447652085E+02 0.  0.
         13    1    3    3    0    0 -0.32271520335E+02  0.81475599748E+01  0.49617714220E+02  0.59747489376E+02  0.10566000000E+00 0. -1.
         22    1    1    0    0    0  0.39086533471E+01 -0.59870508532E+01 -0.29646455816E+02  0.30496470146E+02  0.00000000000E+00 0. -1.
</event>
<event>
 5    1  0.1766627E-003  0.9118800E+02  0.7818608E-02  0.1130116E+00
         25   -1    0    0    0    0  0.00000000000E+00  0.00000000000E+00  0.99999998245E-14  0.12500000000E+03  0.12500000000E+03 0.  0.
        -13    1    3    3    0    0 -0.36975837751E+02  0.29775699081E+02  0.25520108353E+02  0.53898904697E+02  0.10566000000E+00 0.  1.
         23    2    1    0    0    0  0.28414757288E+01  0.24065796565E+02  0.17982314460E+02  0.94823847462E+02  0.89894170365E+02 0.  0.
         13    1    3    3    0    0  0.39817313480E+02 -0.57099025158E+01 -0.75377938932E+01  0.40924942765E+02  0.10566000000E+00 0. -1.
         22    1    1    0    0    0 -0.28414757288E+01 -0.24065796565E+02 -0.17982314460E+02  0.30176152538E+02  0.00000000000E+00 0.  1.
</event>
<event>
 5    1  0.1766627E-003  0.9118800E+02  0.7818608E-02  0.1130116E+00
         25   -1    0    0    0    0  0.00000000000E+00  0.00000000000E+00  0.99999998245E-14  0.12500000000E+03  0.12500000000E+03 0.  0.
        -13    1    3    3    0    0  0.72041280630E+00  0.15058043992E+02  0.29066981760E+02  0.32743919682E+02  0.10566000000E+00 0.  1.
         23    2    1    0    0    0  0.35620224909E+01 -0.35318947110E+02  0.34412737604E+01  0.89335474288E+02  0.81907683229E+02 0.  0.
         13    1    3    3    0    0  0.28416096845E+01 -0.50376991103E+02 -0.25625707999E+02  0.56591554605E+02  0.10566000000E+00 0. -1.
         22    1    1    0    0    0 -0.35620224909E+01  0.35318947110E+02 -0.34412737604E+01  0.35664525712E+02  0.00000000000E+00 0. -1.
</event>
<event>
 5    1  0.1766627E-003  0.9118800E+02  0.7818608E-02  0.1130116E+00
         25   -1    0    0    0    0  0.00000000000E+00  0.00000000000E+00  0.99999998245E-14  0.12500000000E+03  0.12500000000E+03 0.  0.
        -13    1    3    3    0    0 -0.69747393598E+01 -0.15533867060E+02  0.27277072911E+02  0.32155837504E+02  0.10566000000E+00 0.  1.
         23    2    1    0    0    0 -0.69527360809E+00  0.14511580442E+02 -0.26901971475E+02  0.94425738904E+02  0.89338875782E+02 0.  0.
         13    1    3    3    0    0  0.62794657518E+01  0.30045447503E+02 -0.54179044386E+02  0.62269901400E+02  0.10566000000E+00 0. -1.
         22    1    1    0    0    0  0.69527360809E+00 -0.14511580442E+02  0.26901971475E+02  0.30574261096E+02  0.00000000000E+00 0. -1.
</event>
<event>
 5    1  0.1766627E-003  0.9118800E+02  0.7818608E-02  0.1130116E+00
         25   -1    0    0    0    0  0.00000000000E+00  0.00000000000E+00  0.99999998245E-14  0.12500000000E+03  0.12500000000E+03 0.  0.
        -13    1    3    3    0    0 -0.26973246187E+02 -0.20661481995E+02  0.53799633608E+01  0.34400697927E+02  0.10566000000E+00 0. -1.
         23    2    1    0    0    0  0.19538613224E+02  0.18817703243E+02  0.11129257423E+02  0.95678954097E+02  0.91075455114E+02 0.  0.
         13    1    3    3    0    0  0.46511859411E+02  0.39479185238E+02  0.57492940619E+01  0.61278256170E+02  0.10566000000E+00 0.  1.
         22    1    1    0    0    0 -0.19538613224E+02 -0.18817703243E+02 -0.11129257423E+02  0.29321045903E+02  0.00000000000E+00 0.  1.
</event>
<event>
 5    1  0.1766627E-003  0.9118800E+02  0.7818608E-02  0.1130116E+00
         25   -1    0    0    0    0  0.00000000000E+00  0.00000000000E+00  0.99999998245E-14  0.12500000000E+03  0.12500000000E+03 0.  0.
        -13    1    3    3    0    0 -0.30645687952E+02 -0.36221137726E+02  0.30306559878E+02  0.56299447101E+02  0.10566000000E+00 0.  1.
         23    2    1    0    0    0 -0.93631548723E+01 -0.38821822732E+02  0.16567470045E+02  0.81764786885E+02  0.69398823630E+02 0.  0.
         13    1    3    3    0    0  0.21282533080E+02 -0.26006850061E+01 -0.13739089833E+02  0.25465339784E+02  0.10566000000E+00 0. -1.
         22    1    1    0    0    0  0.93631548723E+01  0.38821822732E+02 -0.16567470045E+02  0.43235213115E+02  0.00000000000E+00 0. -1.
</event>
<event>
 5    1  0.1766627E-003  0.9118800E+02  0.7818608E-02  0.1130116E+00
         25   -1    0    0    0    0  0.00000000000E+00  0.00000000000E+00  0.99999998245E-14  0.12500000000E+03  0.12500000000E+03 0.  0.
        -13    1    3    3    0    0 -0.21828813423E+02 -0.48020885456E+02  0.30143868596E+02  0.60754971100E+02  0.10566000000E+00 0.  1.
         23    2    1    0    0    0 -0.30007699880E+01 -0.15951158789E+02  0.19883786213E+02  0.99332724309E+02  0.95959267803E+02 0.  0.
         13    1    3    3    0    0  0.18828043435E+02  0.32069726667E+02 -0.10260082383E+02  0.38577753209E+02  0.10566000000E+00 0. -1.
         22    1    1    0    0    0  0.30007699880E+01  0.15951158789E+02 -0.19883786213E+02  0.25667275691E+02  0.00000000000E+00 0.  1.
</event>
<event>
 5    1  0.1766627E-003  0.9118800E+02  0.7818608E-02  0.1130116E+00
         25   -1    0    0    0    0  0.00000000000E+00  0.00000000000E+00  0.99999998245E-14  0.12500000000E+03  0.12500000000E+03 0.  0.
        -13    1    3    3    0    0 -0.47995726262E+00 -0.44166015084E+02  0.40762724446E+02  0.60103894347E+02  0.10566000000E+00 0.  1.
         23    2    1    0    0    0  0.80708014905E+01 -0.26458339742E+02  0.12233419648E+02  0.94753708742E+02  0.89796587828E+02 0.  0.
         13    1    3    3    0    0  0.85507587531E+01  0.17707675343E+02 -0.28529304798E+02  0.34649814395E+02  0.10566000000E+00 0. -1.
         22    1    1    0    0    0 -0.80708014905E+01  0.26458339742E+02 -0.12233419648E+02  0.30246291258E+02  0.00000000000E+00 0.  1.
</event>
<event>
 5    1  0.1766627E-003  0.9118800E+02  0.7818608E-02  0.1130116E+00
         25   -1    0    0    0    0  0.00000000000E+00  0.00000000000E+00  0.99999998245E-14  0.12500000000E+03  0.12500000000E+03 0.  0.
        -13    1    3    3    0    0  0.10901585980E+01 -0.21532446173E+02 -0.16589213902E+02  0.27203820795E+02  0.10566000000E+00 0. -1.
         23    2    1    0    0    0  0.20332923007E+02  0.45309086415E+01  0.32724554202E+02  0.86207560803E+02  0.76986298786E+02 0.  0.
         13    1    3    3    0    0  0.19242764409E+02  0.26063354814E+02  0.49313768104E+02  0.59003740008E+02  0.10566000000E+00 0.  1.
         22    1    1    0    0    0 -0.20332923007E+02 -0.45309086415E+01 -0.32724554202E+02  0.38792439197E+02  0.00000000000E+00 0.  1.
</event>
<event>
 5    1  0.1766627E-003  0.9118800E+02  0.7818608E-02  0.1130116E+00
         25   -1    0    0    0    0  0.00000000000E+00  0.00000000000E+00  0.99999998245E-14  0.12500000000E+03  0.12500000000E+03 0.  0.
        -13    1    3    3    0    0  0.26187221063E+02 -0.44306349991E+02 -0.19496871838E+02  0.55036009776E+02  0.10566000000E+00 0.  1.
         23    2    1    0    0    0  0.23873068255E+02 -0.15848925188E+02 -0.28110765059E+02  0.84858663080E+02  0.74764067372E+02 0.  0.
         13    1    3    3    0    0 -0.23141528079E+01  0.28457424803E+02 -0.86138932210E+01  0.29822653304E+02  0.10566000000E+00 0. -1.
         22    1    1    0    0    0 -0.23873068255E+02  0.15848925188E+02  0.28110765059E+02  0.40141336920E+02  0.00000000000E+00 0.  1.
</event>
<event>
 5    1  0.1766627E-003  0.9118800E+02  0.7818608E-02  0.1130116E+00
         25   -1    0    0    0    0  0.00000000000E+00  0.00000000000E+00  0.99999998245E-14  0.12500000000E+03  0.12500000000E+03 0.  0.
        -13    1    3    3    0    0 -0.12023301764E+01 -0.89107379371E+01 -0.56638158262E+02  0.57347528140E+02  0.10566000000E+00 0. -1.
         23    2    1    0    0    0  0.65881083975E+01 -0.19876465006E+02 -0.21429552895E+02  0.95038311619E+02  0.90191894895E+02 0.  0.
         13    1    3    3    0    0  0.77904385740E+01 -0.10965727068E+02  0.35208605367E+02  0.37690783479E+02  0.10566000000E+00 0.  1.
         22    1    1    0    0    0 -0.65881083975E+01  0.19876465006E+02  0.21429552895E+02  0.29961688381E+02  0.00000000000E+00 0. -1.
</event>
<event>
 5    1  0.1766627E-003  0.9118800E+02  0.7818608E-02  0.1130116E+00
         25   -1    0    0    0    0  0.00000000000E+00  0.00000000000E+00  0.99999998245E-14  0.12500000000E+03  0.12500000000E+03 0.  0.
        -13    1    3    3    0    0  0.26293557205E+02 -0.36697809025E+02 -0.28313426260E+02  0.53289226007E+02  0.10566000000E+00 0. -1.
         23    2    1    0    0    0 -0.11436449623E+02 -0.19371703764E+02 -0.18307777440E+02  0.95996034728E+02  0.91509609779E+02 0.  0.
         13    1    3    3    0    0 -0.37730006828E+02  0.17326105262E+02  0.10005648820E+02  0.42706808721E+02  0.10566000000E+00 0.  1.
         22    1    1    0    0    0  0.11436449623E+02  0.19371703764E+02  0.18307777440E+02  0.29003965272E+02  0.00000000000E+00 0. -1.
</event>
<event>
 5    1  0.1766627E-003  0.9118800E+02  0.7818608E-02  0.1130116E+00
         25   -1    0    0    0    0  0.00000000000E+00  0.00000000000E+00  0.99999998245E-14  0.12500000000E+03  0.12500000000E+03 0.  0.
        -13    1    3    3    0    0  0.57034896067E+02  0.17087223526E+02 -0.21200630935E+01  0.59577331332E+02  0.10566000000E+00 0.  1.
         23    2    1    0    0    0  0.22254775754E+02  0.18959751744E+02  0.55482906894E+01  0.95242131131E+02  0.90473934272E+02 0.  0.
         13    1    3    3    0    0 -0.34780120312E+02  0.18725282184E+01  0.76683537829E+01  0.35664799798E+02  0.10566000000E+00 0. -1.
         22    1    1    0    0    0 -0.22254775754E+02 -0.18959751744E+02 -0.55482906894E+01  0.29757868869E+02  0.00000000000E+00 0.  1.
</event>
<event>
 5    1  0.1766627E-003  0.9118800E+02  0.7818608E-02  0.1130116E+00
         25   -1    0    0    0    0  0.00000000000E+00  0.00000000000E+00  0.99999998245E-14  0.12500000000E+03  0.12500000000E+03 0.  0.
        -13    1    3    3    0    0  0.27369725270E+02 -0.31776474394E+02 -0.32176369637E+02  0.52859967020E+02  0.10566000000E+00 0. -1.
         23    2    1    0    0    0  0.20201933870E+01  0.25564170551E+01 -0.29175953189E+02  0.95642672227E+02  0.91025645050E+02 0.  0.
         13    1    3    3    0    0 -0.25349531883E+02  0.34332891449E+02  0.30004164483E+01  0.42782705207E+02  0.10566000000E+00 0.  1.
         22    1    1    0    0    0 -0.20201933870E+01 -0.25564170551E+01  0.29175953189E+02  0.29357327773E+02  0.00000000000E+00 0. -1.
</event>
<event>
 5    1  0.1766627E-003  0.9118800E+02  0.7818608E-02  0.1130116E+00
         25   -1    0    0    0    0  0.00000000000E+00  0.00000000000E+00  0.99999998245E-14  0.12500000000E+03  0.12500000000E+03 0.  0.
        -13    1    3    3    0    0  0.56533361452E+02  0.77790454931E+01  0.50286836197E+01  0.57287287672E+02  0.10566000000E+00 0.  1.
         23    2    1    0    0    0  0.24996598940E+02 -0.14134000427E+02  0.58302764445E+01  0.95698258583E+02  0.91101946443E+02 0.  0.
         13    1    3    3    0    0 -0.31536762512E+02 -0.21913045920E+02  0.80159282481E+00  0.38410970911E+02  0.10566000000E+00 0. -1.
         22    1    1    0    0    0 -0.24996598940E+02  0.14134000427E+02 -0.58302764445E+01  0.29301741417E+02  0.00000000000E+00 0.  1.
</event>
<event>
 5    1  0.1766627E-003  0.9118800E+02  0.7818608E-02  0.1130116E+00
         25   -1    0    0    0    0  0.00000000000E+00  0.00000000000E+00  0.99999998245E-14  0.12500000000E+03  0.12500000000E+03 0.  0.
        -13    1    3    3    0    0  0.56841896063E+01  0.52772363967E+02 -0.29223273992E+02  0.60590785744E+02  0.10566000000E+00 0. -1.
         23    2    1    0    0    0 -0.83205678934E+01  0.23921571809E+02 -0.13012631847E+02  0.96525414218E+02  0.92229895123E+02 0.  0.
         13    1    3    3    0    0 -0.14004757500E+02 -0.28850792158E+02  0.16210642145E+02  0.35934628474E+02  0.10566000000E+00 0.  1.
         22    1    1    0    0    0  0.83205678934E+01 -0.23921571809E+02  0.13012631847E+02  0.28474585782E+02  0.00000000000E+00 0. -1.
</event>
<event>
 5    1  0.1766627E-003  0.9118800E+02  0.7818608E-02  0.1130116E+00
         25   -1    0    0    0    0  0.00000000000E+00  0.00000000000E+00  0.99999998245E-14  0.12500000000E+03  0.12500000000E+03 0.  0.
        -13    1    3    3    0    0  0.43889156974E+01  0.44691296299E+01 -0.27758230227E+02  0.28456391374E+02  0.10566000000E+00 0. -1.
         23    2    1    0    0    0  0.16654351741E+02 -0.15222245282E+02  0.28112892946E+02  0.88952546094E+02  0.81321193569E+02 0.  0.
         13    1    3    3    0    0  0.12265436043E+02 -0.19691374911E+02  0.55871123173E+02  0.60496154720E+02  0.10566000000E+00 0.  1.
         22    1    1    0    0    0 -0.16654351741E+02  0.15222245282E+02 -0.28112892946E+02  0.36047453906E+02  0.00000000000E+00 0.  1.
</event>
<event>
 5    1  0.1766627E-003  0.9118800E+02  0.7818608E-02  0.1130116E+00
         25   -1    0    0    0    0  0.00000000000E+00  0.00000000000E+00  0.99999998245E-14  0.12500000000E+03  0.12500000000E+03 0.  0.
        -13    1    3    3    0    0 -0.27595103518E+02 -0.86358268232E+01  0.54252967912E+02  0.61477336754E+02  0.10566000000E+00 0.  1.
         23    2    1    0    0    0 -0.12832429996E+02 -0.11803196724E+02  0.23484464231E+02  0.95750952618E+02  0.91174218695E+02 0.  0.
         13    1    3    3    0    0  0.14762673522E+02 -0.31673699004E+01 -0.30768503681E+02  0.34273615864E+02  0.10566000000E+00 0. -1.
         22    1    1    0    0    0  0.12832429996E+02  0.11803196724E+02 -0.23484464231E+02  0.29249047382E+02  0.00000000000E+00 0.  1.
</event>
<event>
 5    1  0.1766627E-003  0.9118800E+02  0.7818608E-02  0.1130116E+00
         25   -1    0    0    0    0  0.00000000000E+00  0.00000000000E+00  0.99999998245E-14  0.12500000000E+03  0.12500000000E+03 0.  0.
        -13    1    3    3    0    0  0.18604632868E+02  0.20046263003E+02 -0.35510677465E+02  0.44821918774E+02  0.10566000000E+00 0. -1.
         23    2    1    0    0    0 -0.11204444795E+02 -0.18568153846E+02 -0.18530897922E+02  0.96474395744E+02  0.92160723391E+02 0.  0.
         13    1    3    3    0    0 -0.29809077663E+02 -0.38614416849E+02  0.16979779543E+02  0.51652476970E+02  0.10566000000E+00 0.  1.
         22    1    1    0    0    0  0.11204444795E+02  0.18568153846E+02  0.18530897922E+02  0.28525604256E+02  0.00000000000E+00 0.  1.
</event>
<event>
 5    1  0.1766627E-003  0.9118800E+02  0.7818608E-02  0.1130116E+00
         25   -1    0    0    0    0  0.00000000000E+00  0.00000000000E+00  0.99999998245E-14  0.12500000000E+03  0.12500000000E+03 0.  0.
        -13    1    3    3    0    0  0.45342974726E+02 -0.25371073404E+02 -0.23603841973E+02  0.57068636243E+02  0.10566000000E+00 0.  1.
         23    2    1    0    0    0  0.15427925066E+02 -0.16572648441E+01 -0.25344900474E+02  0.95282473545E+02  0.90529654734E+02 0.  0.
         13    1    3    3    0    0 -0.29915049660E+02  0.23713808560E+02 -0.17410585003E+01  0.38213837302E+02  0.10566000000E+00 0. -1.
         22    1    1    0    0    0 -0.15427925066E+02  0.16572648441E+01  0.25344900474E+02  0.29717526455E+02  0.00000000000E+00 0.  1.
</event>
<event>
 5    1  0.1766627E-003  0.9118800E+02  0.7818608E-02  0.1130116E+00
         25   -1    0    0    0    0  0.00000000000E+00  0.00000000000E+00  0.99999998245E-14  0.12500000000E+03  0.12500000000E+03 0.  0.
        -13    1    3    3    0    0 -0.27621398724E+02  0.56823087889E+01  0.50558645826E+02  0.57891434016E+02  0.10566000000E+00 0. -1.
         23    2    1    0    0    0 -0.44414543614E+01  0.17123530167E+02  0.26037055079E+02  0.93521911758E+02  0.88065191417E+02 0.  0.
         13    1    3    3    0    0  0.23179944363E+02  0.11441221378E+02 -0.24521590747E+02  0.35630477742E+02  0.10566000000E+00 0.  1.
         22    1    1    0    0    0  0.44414543614E+01 -0.17123530167E+02 -0.26037055079E+02  0.31478088242E+02  0.00000000000E+00 0. -1.
</event>
<event>
 5    1  0.1766627E-003  0.9118800E+02  0.7818608E-02  0.1130116E+00
         25   -1    0    0    0    0  0.00000000000E+00  0.00000000000E+00  0.99999998245E-14  0.12500000000E+03  0.12500000000E+03 0.  0.
        -13    1    3    3    0    0 -0.14162396704E+02 -0.25239922984E+02 -0.32749053568E+02  0.43705135468E+02  0.10566000000E+00 0. -1.
         23    2    1    0    0    0 -0.24590077112E+02 -0.60196946054E+01  0.14540177936E+02  0.95805387655E+02  0.91248818698E+02 0.  0.
         13    1    3    3    0    0 -0.10427680408E+02  0.19220228379E+02  0.47289231504E+02  0.52100252187E+02  0.10566000000E+00 0.  1.
         22    1    1    0    0    0  0.24590077112E+02  0.60196946054E+01 -0.14540177936E+02  0.29194612345E+02  0.00000000000E+00 0.  1.
</event>
<event>
 5    1  0.1766627E-003  0.9118800E+02  0.7818608E-02  0.1130116E+00
         25   -1    0    0    0    0  0.00000000000E+00  0.00000000000E+00  0.99999998245E-14  0.12500000000E+03  0.12500000000E+03 0.  0.
        -13    1    3    3    0    0 -0.70634887002E+00  0.40795671846E+01 -0.44481509718E+02  0.44673903657E+02  0.10566000000E+00 0. -1.
         23    2    1    0    0    0 -0.80421845448E+01 -0.29269379500E+02 -0.10412295135E+02  0.92909671261E+02  0.87191844890E+02 0.  0.
         13    1    3    3    0    0 -0.73358356747E+01 -0.33348946685E+02  0.34069214583E+02  0.48235767604E+02  0.10566000000E+00 0.  1.
         22    1    1    0    0    0  0.80421845448E+01  0.29269379500E+02  0.10412295135E+02  0.32090328739E+02  0.00000000000E+00 0.  1.
</event>
<event>
 5    1  0.1766627E-003  0.9118800E+02  0.7818608E-02  0.1130116E+00
         25   -1    0    0    0    0  0.00000000000E+00  0.00000000000E+00  0.99999998245E-14  0.12500000000E+03  0.12500000000E+03 0.  0.
        -13    1    3    3    0    0 -0.35429925651E+01  0.10128995803E+02 -0.26672663579E+02  0.28750504322E+02  0.10566000000E+00 0. -1.
         23    2    1    0    0    0  0.15588168200E+02 -0.37222170977E+02 -0.46075121416E+01  0.84383375717E+02  0.73965153479E+02 0.  0.
         13    1    3    3    0    0  0.19131160765E+02 -0.47351166780E+02  0.22065151438E+02  0.55632871395E+02  0.10566000000E+00 0.  1.
         22    1    1    0    0    0 -0.15588168200E+02  0.37222170977E+02  0.46075121416E+01  0.40616624283E+02  0.00000000000E+00 0.  1.
</event>
<event>
 5    1  0.1766627E-003  0.9118800E+02  0.7818608E-02  0.1130116E+00
         25   -1    0    0    0    0  0.00000000000E+00  0.00000000000E+00  0.99999998245E-14  0.12500000000E+03  0.12500000000E+03 0.  0.
        -13    1    3    3    0    0  0.28195333690E+02 -0.30241457563E+02  0.35040451547E+02  0.54197481547E+02  0.10566000000E+00 0. -1.
         23    2    1    0    0    0  0.31235612142E+02 -0.65350181133E+01  0.48213947003E+01  0.92725927210E+02  0.86928026565E+02 0.  0.
         13    1    3    3    0    0  0.30402784515E+01  0.23706439450E+02 -0.30219056846E+02  0.38528445663E+02  0.10566000000E+00 0.  1.
         22    1    1    0    0    0 -0.31235612142E+02  0.65350181133E+01 -0.48213947003E+01  0.32274072790E+02  0.00000000000E+00 0. -1.
</event>
<event>
 5    1  0.1766627E-003  0.9118800E+02  0.7818608E-02  0.1130116E+00
         25   -1    0    0    0    0  0.00000000000E+00  0.00000000000E+00  0.99999998245E-14  0.12500000000E+03  0.12500000000E+03 0.  0.
        -13    1    3    3    0    0 -0.23038438536E+02 -0.42412821992E+00  0.26884512310E+02  0.35408158680E+02  0.10566000000E+00 0.  1.
         23    2    1    0    0    0 -0.67089008795E+01  0.94105029421E+01 -0.28641198632E+02  0.94114968420E+02  0.88902992666E+02 0.  0.
         13    1    3    3    0    0  0.16329537657E+02  0.98346311620E+01 -0.55525710942E+02  0.58706809740E+02  0.10566000000E+00 0. -1.
         22    1    1    0    0    0  0.67089008795E+01 -0.94105029421E+01  0.28641198632E+02  0.30885031580E+02  0.00000000000E+00 0. -1.
</event>
<event>
 5    1  0.1766627E-003  0.9118800E+02  0.7818608E-02  0.1130116E+00
         25   -1    0    0    0    0  0.00000000000E+00  0.00000000000E+00  0.99999998245E-14  0.12500000000E+03  0.12500000000E+03 0.  0.
        -13    1    3    3    0    0  0.25364286854E+02 -0.37660898728E+02  0.18252416365E+02  0.48937227218E+02  0.10566000000E+00 0.  1.
         23    2    1    0    0    0 -0.26019397341E+01 -0.29088169971E+01  0.29743924251E+02  0.95001127745E+02  0.90140345774E+02 0.  0.
         13    1    3    3    0    0 -0.27966226588E+02  0.34752081731E+02  0.11491507886E+02  0.46063900527E+02  0.10566000000E+00 0. -1.
         22    1    1    0    0    0  0.26019397341E+01  0.29088169971E+01 -0.29743924251E+02  0.29998872255E+02  0.00000000000E+00 0.  1.
</event>
<event>
 5    1  0.1766627E-003  0.9118800E+02  0.7818608E-02  0.1130116E+00
         25   -1    0    0    0    0  0.00000000000E+00  0.00000000000E+00  0.99999998245E-14  0.12500000000E+03  0.12500000000E+03 0.  0.
        -13    1    3    3    0    0  0.36500996680E+01  0.31194394791E+02  0.14752641588E+02  0.34699641090E+02  0.10566000000E+00 0. -1.
         23    2    1    0    0    0 -0.25151692628E+01 -0.12375798131E+02 -0.26894946806E+02  0.95287635242E+02  0.90536781534E+02 0.  0.
         13    1    3    3    0    0 -0.61652689308E+01 -0.43570192922E+02 -0.41647588394E+02  0.60587994152E+02  0.10566000000E+00 0.  1.
         22    1    1    0    0    0  0.25151692628E+01  0.12375798131E+02  0.26894946806E+02  0.29712364758E+02  0.00000000000E+00 0.  1.
</event>
<event>
 5    1  0.1766627E-003  0.9118800E+02  0.7818608E-02  0.1130116E+00
         25   -1    0    0    0    0  0.00000000000E+00  0.00000000000E+00  0.99999998245E-14  0.12500000000E+03  0.12500000000E+03 0.  0.
        -13    1    3    3    0    0 -0.84773396327E+01  0.61184251577E+02  0.47065893300E+01  0.61947890000E+02  0.10566000000E+00 0. -1.
         23    2    1    0    0    0  0.22787408104E+00  0.28640104122E+02 -0.19689369000E+01  0.96291391479E+02  0.91912174763E+02 0.  0.
         13    1    3    3    0    0  0.87052137137E+01 -0.32544147455E+02 -0.66755262299E+01  0.34343501479E+02  0.10566000000E+00 0.  1.
         22    1    1    0    0    0 -0.22787408104E+00 -0.28640104122E+02  0.19689369000E+01  0.28708608521E+02  0.00000000000E+00 0. -1.
</event>
<event>
 5    1  0.1766627E-003  0.9118800E+02  0.7818608E-02  0.1130116E+00
         25   -1    0    0    0    0  0.00000000000E+00  0.00000000000E+00  0.99999998245E-14  0.12500000000E+03  0.12500000000E+03 0.  0.
        -13    1    3    3    0    0 -0.15717276796E+02  0.29750956010E+02  0.79669124852E+01  0.34577955868E+02  0.10566000000E+00 0. -1.
         23    2    1    0    0    0  0.22285901120E+02 -0.17628768127E+02  0.85751681820E+01  0.95318888772E+02  0.90579921577E+02 0.  0.
         13    1    3    3    0    0  0.38003177916E+02 -0.47379724137E+02  0.60825569680E+00  0.60740932904E+02  0.10566000000E+00 0.  1.
         22    1    1    0    0    0 -0.22285901120E+02  0.17628768127E+02 -0.85751681820E+01  0.29681111228E+02  0.00000000000E+00 0.  1.
</event>
<event>
 5    1  0.1766627E-003  0.9118800E+02  0.7818608E-02  0.1130116E+00
         25   -1    0    0    0    0  0.00000000000E+00  0.00000000000E+00  0.99999998245E-14  0.12500000000E+03  0.12500000000E+03 0.  0.
        -13    1    3    3    0    0  0.31235838373E+02  0.71253527092E+00  0.34161096897E+01  0.31430340037E+02  0.10566000000E+00 0.  1.
         23    2    1    0    0    0 -0.29709849915E+02 -0.74156911249E+01 -0.64620969258E+01  0.93704211888E+02  0.88323569743E+02 0.  0.
         13    1    3    3    0    0 -0.60945688289E+02 -0.81282263959E+01 -0.98782066155E+01  0.62273871851E+02  0.10566000000E+00 0. -1.
         22    1    1    0    0    0  0.29709849915E+02  0.74156911249E+01  0.64620969258E+01  0.31295788112E+02  0.00000000000E+00 0. -1.
</event>
<event>
 5    1  0.1766627E-003  0.9118800E+02  0.7818608E-02  0.1130116E+00
         25   -1    0    0    0    0  0.00000000000E+00  0.00000000000E+00  0.99999998245E-14  0.12500000000E+03  0.12500000000E+03 0.  0.
        -13    1    3    3    0    0  0.21572608579E+02  0.26098467476E+02  0.12801995759E+02  0.36199581557E+02  0.10566000000E+00 0.  1.
         23    2    1    0    0    0 -0.21962333508E+02  0.33428510243E+00 -0.19004012727E+02  0.95955063446E+02  0.91453626837E+02 0.  0.
         13    1    3    3    0    0 -0.43534942088E+02 -0.25764182373E+02 -0.31806008486E+02  0.59755481889E+02  0.10566000000E+00 0. -1.
         22    1    1    0    0    0  0.21962333508E+02 -0.33428510243E+00  0.19004012727E+02  0.29044936554E+02  0.00000000000E+00 0. -1.
</event>
<event>
 5    1  0.1766627E-003  0.9118800E+02  0.7818608E-02  0.1130116E+00
         25   -1    0    0    0    0  0.00000000000E+00  0.00000000000E+00  0.99999998245E-14  0.12500000000E+03  0.12500000000E+03 0.  0.
        -13    1    3    3    0    0 -0.64994004351E+01 -0.29093059087E+02 -0.30368532013E+02  0.42554755242E+02  0.10566000000E+00 0. -1.
         23    2    1    0    0    0  0.18852917121E+02 -0.15048323266E+02  0.15148269542E+02  0.96515713328E+02  0.92216746483E+02 0.  0.
         13    1    3    3    0    0  0.25352317556E+02  0.14044735821E+02  0.45516801555E+02  0.53960958086E+02  0.10566000000E+00 0.  1.
         22    1    1    0    0    0 -0.18852917121E+02  0.15048323266E+02 -0.15148269542E+02  0.28484286672E+02  0.00000000000E+00 0.  1.
</event>
<event>
 5    1  0.1766627E-003  0.9118800E+02  0.7818608E-02  0.1130116E+00
         25   -1    0    0    0    0  0.00000000000E+00  0.00000000000E+00  0.99999998245E-14  0.12500000000E+03  0.12500000000E+03 0.  0.
        -13    1    3    3    0    0 -0.23554806424E+02 -0.12864190062E+02 -0.26688030114E+02  0.37849417525E+02  0.10566000000E+00 0. -1.
         23    2    1    0    0    0  0.23649558652E+02  0.15130978878E+02 -0.95411722389E+01  0.95347308488E+02  0.90619132207E+02 0.  0.
         13    1    3    3    0    0  0.47204365075E+02  0.27995168940E+02  0.17146857875E+02  0.57497890963E+02  0.10566000000E+00 0.  1.
         22    1    1    0    0    0 -0.23649558652E+02 -0.15130978878E+02  0.95411722389E+01  0.29652691512E+02  0.00000000000E+00 0.  1.
</event>
<event>
 5    1  0.1766627E-003  0.9118800E+02  0.7818608E-02  0.1130116E+00
         25   -1    0    0    0    0  0.00000000000E+00  0.00000000000E+00  0.99999998245E-14  0.12500000000E+03  0.12500000000E+03 0.  0.
        -13    1    3    3    0    0 -0.84622356188E+01 -0.42238245623E+02 -0.18799110109E+01  0.43118720463E+02  0.10566000000E+00 0.  1.
         23    2    1    0    0    0  0.29616143573E+02 -0.92035862720E+01  0.33789376977E+01  0.93803218429E+02  0.88463577857E+02 0.  0.
         13    1    3    3    0    0  0.38078379192E+02  0.33034659351E+02  0.52588487086E+01  0.50684497966E+02  0.10566000000E+00 0. -1.
         22    1    1    0    0    0 -0.29616143573E+02  0.92035862720E+01 -0.33789376977E+01  0.31196781571E+02  0.00000000000E+00 0. -1.
</event>
<event>
 5    1  0.1766627E-003  0.9118800E+02  0.7818608E-02  0.1130116E+00
         25   -1    0    0    0    0  0.00000000000E+00  0.00000000000E+00  0.99999998245E-14  0.12500000000E+03  0.12500000000E+03 0.  0.
        -13    1    3    3    0    0  0.37201725706E+02 -0.38170759871E+02 -0.59986462546E+01  0.53637395775E+02  0.10566000000E+00 0. -1.
         23    2    1    0    0    0  0.67088538167E+01 -0.15804957477E+02 -0.23976796934E+02  0.95509455895E+02  0.90842522938E+02 0.  0.
         13    1    3    3    0    0 -0.30492871890E+02  0.22365802393E+02 -0.17978150679E+02  0.41872060120E+02  0.10566000000E+00 0.  1.
         22    1    1    0    0    0 -0.67088538167E+01  0.15804957477E+02  0.23976796934E+02  0.29490544105E+02  0.00000000000E+00 0. -1.
</event>
<event>
 5    1  0.1766627E-003  0.9118800E+02  0.7818608E-02  0.1130116E+00
         25   -1    0    0    0    0  0.00000000000E+00  0.00000000000E+00  0.99999998245E-14  0.12500000000E+03  0.12500000000E+03 0.  0.
        -13    1    3    3    0    0 -0.25780192891E+02  0.23739884279E+02  0.14013987515E+02  0.37743919526E+02  0.10566000000E+00 0. -1.
         23    2    1    0    0    0 -0.19115284130E+02  0.31254805433E+01 -0.31425960162E+02  0.88084506124E+02  0.79975787155E+02 0.  0.
         13    1    3    3    0    0  0.66649087608E+01 -0.20614403735E+02 -0.45439947677E+02  0.50340586599E+02  0.10566000000E+00 0.  1.
         22    1    1    0    0    0  0.19115284130E+02 -0.31254805433E+01  0.31425960162E+02  0.36915493876E+02  0.00000000000E+00 0. -1.
</event>
<event>
 5    1  0.1766627E-003  0.9118800E+02  0.7818608E-02  0.1130116E+00
         25   -1    0    0    0    0  0.00000000000E+00  0.00000000000E+00  0.99999998245E-14  0.12500000000E+03  0.12500000000E+03 0.  0.
        -13    1    3    3    0    0 -0.21238660378E+02 -0.44953733119E+02 -0.20586784021E+02  0.53812132984E+02  0.10566000000E+00 0. -1.
         23    2    1    0    0    0  0.12988254554E+02 -0.24092455833E+02 -0.13364170164E+02  0.94541138751E+02  0.89500193786E+02 0.  0.
         13    1    3    3    0    0  0.34226914932E+02  0.20861277286E+02  0.72226138571E+01  0.40729005766E+02  0.10566000000E+00 0.  1.
         22    1    1    0    0    0 -0.12988254554E+02  0.24092455833E+02  0.13364170164E+02  0.30458861249E+02  0.00000000000E+00 0. -1.
</event>
<event>
 5    1  0.1766627E-003  0.9118800E+02  0.7818608E-02  0.1130116E+00
         25   -1    0    0    0    0  0.00000000000E+00  0.00000000000E+00  0.99999998245E-14  0.12500000000E+03  0.12500000000E+03 0.  0.
        -13    1    3    3    0    0  0.15557853012E+01  0.13382638493E+02 -0.54592285846E+02  0.56230279377E+02  0.10566000000E+00 0. -1.
         23    2    1    0    0    0  0.14650539786E+02 -0.80194599666E+01 -0.23061964956E+02  0.96525374773E+02  0.92229841663E+02 0.  0.
         13    1    3    3    0    0  0.13094754485E+02 -0.21402098459E+02  0.31530320890E+02  0.40295095396E+02  0.10566000000E+00 0.  1.
         22    1    1    0    0    0 -0.14650539786E+02  0.80194599666E+01  0.23061964956E+02  0.28474625227E+02  0.00000000000E+00 0. -1.
</event>
<event>
 5    1  0.1766627E-003  0.9118800E+02  0.7818608E-02  0.1130116E+00
         25   -1    0    0    0    0  0.00000000000E+00  0.00000000000E+00  0.99999998245E-14  0.12500000000E+03  0.12500000000E+03 0.  0.
        -13    1    3    3    0    0  0.34475281962E+02  0.11307972655E+02 -0.10455304935E+02  0.37758970818E+02  0.10566000000E+00 0.  1.
         23    2    1    0    0    0  0.24522628259E+01 -0.25437594013E+02  0.17574023158E+02  0.93984986343E+02  0.88720046133E+02 0.  0.
         13    1    3    3    0    0 -0.32023019136E+02 -0.36745566669E+02  0.28029328093E+02  0.56226015525E+02  0.10566000000E+00 0. -1.
         22    1    1    0    0    0 -0.24522628259E+01  0.25437594013E+02 -0.17574023158E+02  0.31015013657E+02  0.00000000000E+00 0. -1.
</event>
<event>
 5    1  0.1766627E-003  0.9118800E+02  0.7818608E-02  0.1130116E+00
         25   -1    0    0    0    0  0.00000000000E+00  0.00000000000E+00  0.99999998245E-14  0.12500000000E+03  0.12500000000E+03 0.  0.
        -13    1    3    3    0    0 -0.83128906733E+01 -0.36028337615E+02 -0.92442680943E+01  0.38113159398E+02  0.10566000000E+00 0. -1.
         23    2    1    0    0    0  0.25594683860E+01  0.84502591515E+01  0.27052701029E+02  0.96542902623E+02  0.92253594270E+02 0.  0.
         13    1    3    3    0    0  0.10872359059E+02  0.44478596766E+02  0.36296969123E+02  0.58429743225E+02  0.10566000000E+00 0.  1.
         22    1    1    0    0    0 -0.25594683860E+01 -0.84502591515E+01 -0.27052701029E+02  0.28457097377E+02  0.00000000000E+00 0.  1.
</event>
<event>
 5    1  0.1766627E-003  0.9118800E+02  0.7818608E-02  0.1130116E+00
         25   -1    0    0    0    0  0.00000000000E+00  0.00000000000E+00  0.99999998245E-14  0.12500000000E+03  0.12500000000E+03 0.  0.
        -13    1    3    3    0    0 -0.35261184415E+02  0.14905665131E+02 -0.42751931781E+02  0.57387009108E+02  0.10566000000E+00 0.  1.
         23    2    1    0    0    0 -0.16964299754E+02 -0.10960836956E+02 -0.21280471665E+02  0.95660847197E+02  0.91050600214E+02 0.  0.
         13    1    3    3    0    0  0.18296884660E+02 -0.25866502087E+02  0.21471460116E+02  0.38273838089E+02  0.10566000000E+00 0. -1.
         22    1    1    0    0    0  0.16964299754E+02  0.10960836956E+02  0.21280471665E+02  0.29339152803E+02  0.00000000000E+00 0.  1.
</event>
<event>
 5    1  0.1766627E-003  0.9118800E+02  0.7818608E-02  0.1130116E+00
         25   -1    0    0    0    0  0.00000000000E+00  0.00000000000E+00  0.99999998245E-14  0.12500000000E+03  0.12500000000E+03 0.  0.
        -13    1    3    3    0    0 -0.78937939485E+01 -0.28376265376E+02  0.31905471295E+02  0.43422283245E+02  0.10566000000E+00 0.  1.
         23    2    1    0    0    0 -0.19111895331E+02  0.18562877593E+02  0.14040399268E+02  0.94883928223E+02  0.89977675318E+02 0.  0.
         13    1    3    3    0    0 -0.11218101383E+02  0.46939142969E+02 -0.17865072027E+02  0.51461644978E+02  0.10566000000E+00 0. -1.
         22    1    1    0    0    0  0.19111895331E+02 -0.18562877593E+02 -0.14040399268E+02  0.30116071777E+02  0.00000000000E+00 0. -1.
</event>
<event>
 5    1  0.1766627E-003  0.9118800E+02  0.7818608E-02  0.1130116E+00
         25   -1    0    0    0    0  0.00000000000E+00  0.00000000000E+00  0.99999998245E-14  0.12500000000E+03  0.12500000000E+03 0.  0.
        -13    1    3    3    0    0 -0.24495533864E+02  0.18830582200E+02 -0.13695275169E+02  0.33796356775E+02  0.10566000000E+00 0.  1.
         23    2    1    0    0    0  0.14834706341E+02 -0.23417955432E+02  0.90512821335E+01  0.95838469569E+02  0.91294125726E+02 0.  0.
         13    1    3    3    0    0  0.39330240206E+02 -0.42248537632E+02  0.22746557303E+02  0.62042112793E+02  0.10566000000E+00 0. -1.
         22    1    1    0    0    0 -0.14834706341E+02  0.23417955432E+02 -0.90512821335E+01  0.29161530431E+02  0.00000000000E+00 0. -1.
</event>
<event>
 5    1  0.1766627E-003  0.9118800E+02  0.7818608E-02  0.1130116E+00
         25   -1    0    0    0    0  0.00000000000E+00  0.00000000000E+00  0.99999998245E-14  0.12500000000E+03  0.12500000000E+03 0.  0.
        -13    1    3    3    0    0  0.14719659725E+01  0.11644136872E+02  0.38815504847E+02  0.40551290829E+02  0.10566000000E+00 0.  1.
         23    2    1    0    0    0 -0.96389132887E+01  0.22655822428E+02 -0.14712301134E+02  0.96318180951E+02  0.91948601065E+02 0.  0.
         13    1    3    3    0    0 -0.11110879261E+02  0.11011685556E+02 -0.53527805981E+02  0.55766890122E+02  0.10566000000E+00 0. -1.
         22    1    1    0    0    0  0.96389132887E+01 -0.22655822428E+02  0.14712301134E+02  0.28681819049E+02  0.00000000000E+00 0.  1.
</event>
<event>
 5    1  0.1766627E-003  0.9118800E+02  0.7818608E-02  0.1130116E+00
         25   -1    0    0    0    0  0.00000000000E+00  0.00000000000E+00  0.99999998245E-14  0.12500000000E+03  0.12500000000E+03 0.  0.
        -13    1    3    3    0    0  0.15066511915E+01 -0.19593138224E+02 -0.25476590781E+02  0.32174973273E+02  0.10566000000E+00 0.  1.
         23    2    1    0    0    0 -0.83531255668E+01  0.24073894944E+02  0.17385434158E+02  0.94152302430E+02  0.88955469801E+02 0.  0.
         13    1    3    3    0    0 -0.98597767583E+01  0.43667033168E+02  0.42862024939E+02  0.61977329156E+02  0.10566000000E+00 0. -1.
         22    1    1    0    0    0  0.83531255668E+01 -0.24073894944E+02 -0.17385434158E+02  0.30847697570E+02  0.00000000000E+00 0. -1.
</event>
<event>
 5    1  0.1766627E-003  0.9118800E+02  0.7818608E-02  0.1130116E+00
         25   -1    0    0    0    0  0.00000000000E+00  0.00000000000E+00  0.99999998245E-14  0.12500000000E+03  0.12500000000E+03 0.  0.
        -13    1    3    3    0    0  0.31481970176E+02 -0.13426467904E+02  0.46963950967E+02  0.58112032669E+02  0.10566000000E+00 0.  1.
         23    2    1    0    0    0  0.15326867802E+02 -0.20140878756E+02  0.12478397955E+02  0.96781596622E+02  0.92576450329E+02 0.  0.
         13    1    3    3    0    0 -0.16155102374E+02 -0.67144108513E+01 -0.34485553011E+02  0.38669563953E+02  0.10566000000E+00 0. -1.
         22    1    1    0    0    0 -0.15326867802E+02  0.20140878756E+02 -0.12478397955E+02  0.28218403378E+02  0.00000000000E+00 0.  1.
</event>
<event>
 5    1  0.1766627E-003  0.9118800E+02  0.7818608E-02  0.1130116E+00
         25   -1    0    0    0    0  0.00000000000E+00  0.00000000000E+00  0.99999998245E-14  0.12500000000E+03  0.12500000000E+03 0.  0.
        -13    1    3    3    0    0 -0.14124675396E+02 -0.33037274023E+02  0.43439103067E+02  0.56373174199E+02  0.10566000000E+00 0.  1.
         23    2    1    0    0    0  0.47567631451E+01 -0.28270682662E+02  0.10830349746E+02  0.94354367858E+02  0.89238959902E+02 0.  0.
         13    1    3    3    0    0  0.18881438541E+02  0.47665913615E+01 -0.32608753321E+02  0.37981193659E+02  0.10566000000E+00 0. -1.
         22    1    1    0    0    0 -0.47567631451E+01  0.28270682662E+02 -0.10830349746E+02  0.30645632142E+02  0.00000000000E+00 0.  1.
</event>
<event>
 5    1  0.1766627E-003  0.9118800E+02  0.7818608E-02  0.1130116E+00
         25   -1    0    0    0    0  0.00000000000E+00  0.00000000000E+00  0.99999998245E-14  0.12500000000E+03  0.12500000000E+03 0.  0.
        -13    1    3    3    0    0 -0.23784297888E+02  0.22764668326E+02  0.26588402999E+02  0.42318758111E+02  0.10566000000E+00 0. -1.
         23    2    1    0    0    0  0.13135943720E+02 -0.15529357219E+02  0.20933909706E+02  0.95811945446E+02  0.91257801648E+02 0.  0.
         13    1    3    3    0    0  0.36920241607E+02 -0.38294025546E+02 -0.56544932928E+01  0.53493187335E+02  0.10566000000E+00 0.  1.
         22    1    1    0    0    0 -0.13135943720E+02  0.15529357219E+02 -0.20933909706E+02  0.29188054554E+02  0.00000000000E+00 0.  1.
</event>
<event>
 5    1  0.1766627E-003  0.9118800E+02  0.7818608E-02  0.1130116E+00
         25   -1    0    0    0    0  0.00000000000E+00  0.00000000000E+00  0.99999998245E-14  0.12500000000E+03  0.12500000000E+03 0.  0.
        -13    1    3    3    0    0 -0.18717095420E+02  0.10661358459E+02  0.34614038586E+02  0.40769315133E+02  0.10566000000E+00 0. -1.
         23    2    1    0    0    0  0.78796300221E+01  0.26063828585E+02 -0.10884637681E+02  0.95676168953E+02  0.91071632457E+02 0.  0.
         13    1    3    3    0    0  0.26596725442E+02  0.15402470126E+02 -0.45498676268E+02  0.54906853820E+02  0.10566000000E+00 0.  1.
         22    1    1    0    0    0 -0.78796300221E+01 -0.26063828585E+02  0.10884637681E+02  0.29323831047E+02  0.00000000000E+00 0. -1.
</event>
<event>
 5    1  0.1766627E-003  0.9118800E+02  0.7818608E-02  0.1130116E+00
         25   -1    0    0    0    0  0.00000000000E+00  0.00000000000E+00  0.99999998245E-14  0.12500000000E+03  0.12500000000E+03 0.  0.
        -13    1    3    3    0    0 -0.18738448717E+02  0.22158712201E+02  0.30826467736E+02  0.42336984586E+02  0.10566000000E+00 0.  1.
         23    2    1    0    0    0 -0.10645390173E+02 -0.25834679759E+02  0.93574709200E+01  0.95532776307E+02  0.90874606335E+02 0.  0.
         13    1    3    3    0    0  0.80930585444E+01 -0.47993391960E+02 -0.21468996816E+02  0.53195791720E+02  0.10566000000E+00 0. -1.
         22    1    1    0    0    0  0.10645390173E+02  0.25834679759E+02 -0.93574709200E+01  0.29467223693E+02  0.00000000000E+00 0. -1.
</event>
<event>
 5    1  0.1766627E-003  0.9118800E+02  0.7818608E-02  0.1130116E+00
         25   -1    0    0    0    0  0.00000000000E+00  0.00000000000E+00  0.99999998245E-14  0.12500000000E+03  0.12500000000E+03 0.  0.
        -13    1    3    3    0    0 -0.35252206202E+02  0.30530291191E+02  0.35036794743E+01  0.46766480049E+02  0.10566000000E+00 0.  1.
         23    2    1    0    0    0 -0.61341273824E+01 -0.23008194977E+00  0.28431148343E+02  0.95913737735E+02  0.91397124866E+02 0.  0.
         13    1    3    3    0    0  0.29118078819E+02 -0.30760373140E+02  0.24927468868E+02  0.49147257686E+02  0.10566000000E+00 0. -1.
         22    1    1    0    0    0  0.61341273824E+01  0.23008194977E+00 -0.28431148343E+02  0.29086262265E+02  0.00000000000E+00 0.  1.
</event>
<event>
 5    1  0.1766627E-003  0.9118800E+02  0.7818608E-02  0.1130116E+00
         25   -1    0    0    0    0  0.00000000000E+00  0.00000000000E+00  0.99999998245E-14  0.12500000000E+03  0.12500000000E+03 0.  0.
        -13    1    3    3    0    0 -0.13243412090E+02 -0.10737133741E+02  0.33306436343E+02  0.37416625591E+02  0.10566000000E+00 0.  1.
         23    2    1    0    0    0  0.27920584546E+02  0.67224271442E+01 -0.44497423681E+01  0.95938852823E+02  0.91431467262E+02 0.  0.
         13    1    3    3    0    0  0.41163996636E+02  0.17459560885E+02 -0.37756178711E+02  0.58522227232E+02  0.10566000000E+00 0. -1.
         22    1    1    0    0    0 -0.27920584546E+02 -0.67224271442E+01  0.44497423681E+01  0.29061147177E+02  0.00000000000E+00 0. -1.
</event>
<event>
 5    1  0.1766627E-003  0.9118800E+02  0.7818608E-02  0.1130116E+00
         25   -1    0    0    0    0  0.00000000000E+00  0.00000000000E+00  0.99999998245E-14  0.12500000000E+03  0.12500000000E+03 0.  0.
        -13    1    3    3    0    0 -0.15770683312E+02 -0.38876802536E+02  0.15275090479E+02  0.44648177798E+02  0.10566000000E+00 0. -1.
         23    2    1    0    0    0  0.23899025053E+02 -0.14193601715E+02 -0.68920986664E+01  0.96362214608E+02  0.92008443374E+02 0.  0.
         13    1    3    3    0    0  0.39669708365E+02  0.24683200821E+02 -0.22167189146E+02  0.51714036810E+02  0.10566000000E+00 0.  1.
         22    1    1    0    0    0 -0.23899025053E+02  0.14193601715E+02  0.68920986664E+01  0.28637785392E+02  0.00000000000E+00 0.  1.
</event>
<event>
 5    1  0.1766627E-003  0.9118800E+02  0.7818608E-02  0.1130116E+00
         25   -1    0    0    0    0  0.00000000000E+00  0.00000000000E+00  0.99999998245E-14  0.12500000000E+03  0.12500000000E+03 0.  0.
        -13    1    3    3    0    0  0.21158545167E+02  0.30651552526E+02 -0.45820044774E+02  0.59048195340E+02  0.10566000000E+00 0. -1.
         23    2    1    0    0    0  0.18473399706E+02  0.24684022242E+01 -0.22901723035E+02  0.95472920493E+02  0.90792236030E+02 0.  0.
         13    1    3    3    0    0 -0.26851454604E+01 -0.28183150302E+02  0.22918321739E+02  0.36424725153E+02  0.10566000000E+00 0.  1.
         22    1    1    0    0    0 -0.18473399706E+02 -0.24684022242E+01  0.22901723035E+02  0.29527079507E+02  0.00000000000E+00 0. -1.
</event>
<event>
 5    1  0.1766627E-003  0.9118800E+02  0.7818608E-02  0.1130116E+00
         25   -1    0    0    0    0  0.00000000000E+00  0.00000000000E+00  0.99999998245E-14  0.12500000000E+03  0.12500000000E+03 0.  0.
        -13    1    3    3    0    0 -0.48469631719E+02 -0.39019661474E+02  0.44856680153E+01  0.62385667922E+02  0.10566000000E+00 0. -1.
         23    2    1    0    0    0 -0.23975531798E+02 -0.17611081870E+02  0.44720765283E+01  0.94917184339E+02  0.90023863973E+02 0.  0.
         13    1    3    3    0    0  0.24494099921E+02  0.21408579603E+02 -0.13591486975E-01  0.32531516416E+02  0.10566000000E+00 0.  1.
         22    1    1    0    0    0  0.23975531798E+02  0.17611081870E+02 -0.44720765283E+01  0.30082815661E+02  0.00000000000E+00 0. -1.
</event>
<event>
 5    1  0.1766627E-003  0.9118800E+02  0.7818608E-02  0.1130116E+00
         25   -1    0    0    0    0  0.00000000000E+00  0.00000000000E+00  0.99999998245E-14  0.12500000000E+03  0.12500000000E+03 0.  0.
        -13    1    3    3    0    0 -0.16669419994E+02  0.32068407012E+02  0.19036860673E+02  0.40849302559E+02  0.10566000000E+00 0. -1.
         23    2    1    0    0    0 -0.23684329419E+02 -0.14370733127E+02 -0.93904939419E+01  0.95748558889E+02  0.91170936829E+02 0.  0.
         13    1    3    3    0    0 -0.70149094246E+01 -0.46439140139E+02 -0.28427354615E+02  0.54899256329E+02  0.10566000000E+00 0.  1.
         22    1    1    0    0    0  0.23684329419E+02  0.14370733127E+02  0.93904939419E+01  0.29251441111E+02  0.00000000000E+00 0.  1.
</event>
<event>
 5    1  0.1766627E-003  0.9118800E+02  0.7818608E-02  0.1130116E+00
         25   -1    0    0    0    0  0.00000000000E+00  0.00000000000E+00  0.99999998245E-14  0.12500000000E+03  0.12500000000E+03 0.  0.
        -13    1    3    3    0    0  0.17644013998E+02  0.26472946646E+02  0.17912768762E+02  0.36510362678E+02  0.10566000000E+00 0. -1.
         23    2    1    0    0    0  0.15189405701E+01  0.39312136437E+00 -0.30848771468E+02  0.94111354417E+02  0.88897911136E+02 0.  0.
         13    1    3    3    0    0 -0.16125073428E+02 -0.26079825282E+02 -0.48761540230E+02  0.57600991740E+02  0.10566000000E+00 0.  1.
         22    1    1    0    0    0 -0.15189405701E+01 -0.39312136437E+00  0.30848771468E+02  0.30888645583E+02  0.00000000000E+00 0.  1.
</event>
<event>
 5    1  0.1766627E-003  0.9118800E+02  0.7818608E-02  0.1130116E+00
         25   -1    0    0    0    0  0.00000000000E+00  0.00000000000E+00  0.99999998245E-14  0.12500000000E+03  0.12500000000E+03 0.  0.
        -13    1    3    3    0    0 -0.45977721434E+01 -0.11446387838E+02 -0.33548661335E+02  0.35744693937E+02  0.10566000000E+00 0.  1.
         23    2    1    0    0    0  0.13572103617E+02  0.91866915565E+01  0.21906737796E+02  0.97641227016E+02  0.93729967214E+02 0.  0.
         13    1    3    3    0    0  0.18169875760E+02  0.20633079395E+02  0.55455399131E+02  0.61896533079E+02  0.10566000000E+00 0. -1.
         22    1    1    0    0    0 -0.13572103617E+02 -0.91866915565E+01 -0.21906737796E+02  0.27358772984E+02  0.00000000000E+00 0. -1.
</event>
<event>
 5    1  0.1766627E-003  0.9118800E+02  0.7818608E-02  0.1130116E+00
         25   -1    0    0    0    0  0.00000000000E+00  0.00000000000E+00  0.99999998245E-14  0.12500000000E+03  0.12500000000E+03 0.  0.
        -13    1    3    3    0    0  0.10802747480E+02 -0.47845205312E+02  0.29897653883E+02  0.57443397325E+02  0.10566000000E+00 0.  1.
         23    2    1    0    0    0  0.83448174855E+01 -0.27710903240E+02 -0.28032310092E+01  0.95924439106E+02  0.91411759509E+02 0.  0.
         13    1    3    3    0    0 -0.24579299941E+01  0.20134302073E+02 -0.32700884892E+02  0.38481041781E+02  0.10566000000E+00 0. -1.
         22    1    1    0    0    0 -0.83448174855E+01  0.27710903240E+02  0.28032310092E+01  0.29075560894E+02  0.00000000000E+00 0.  1.
</event>
<event>
 5    1  0.1766627E-003  0.9118800E+02  0.7818608E-02  0.1130116E+00
         25   -1    0    0    0    0  0.00000000000E+00  0.00000000000E+00  0.99999998245E-14  0.12500000000E+03  0.12500000000E+03 0.  0.
        -13    1    3    3    0    0 -0.33976176467E+02  0.13664385705E+02  0.13793869235E+02  0.39132825052E+02  0.10566000000E+00 0. -1.
         23    2    1    0    0    0  0.12395378924E+02 -0.17344252064E+02  0.20629816170E+02  0.95334231620E+02  0.90601092185E+02 0.  0.
         13    1    3    3    0    0  0.46371555392E+02 -0.31008637769E+02  0.68359469351E+01  0.56201406568E+02  0.10566000000E+00 0.  1.
         22    1    1    0    0    0 -0.12395378924E+02  0.17344252064E+02 -0.20629816170E+02  0.29665768380E+02  0.00000000000E+00 0.  1.
</event>
<event>
 5    1  0.1766627E-003  0.9118800E+02  0.7818608E-02  0.1130116E+00
         25   -1    0    0    0    0  0.00000000000E+00  0.00000000000E+00  0.99999998245E-14  0.12500000000E+03  0.12500000000E+03 0.  0.
        -13    1    3    3    0    0  0.17168380080E+02 -0.34373104009E+02 -0.28541290855E+02  0.47863138233E+02  0.10566000000E+00 0. -1.
         23    2    1    0    0    0  0.16491888932E+02  0.12652174821E+02 -0.20924182901E+02  0.95506248826E+02  0.90838109880E+02 0.  0.
         13    1    3    3    0    0 -0.67649114839E+00  0.47025278830E+02  0.76171079544E+01  0.47643110593E+02  0.10566000000E+00 0.  1.
         22    1    1    0    0    0 -0.16491888932E+02 -0.12652174821E+02  0.20924182901E+02  0.29493751174E+02  0.00000000000E+00 0.  1.
</event>
<event>
 5    1  0.1766627E-003  0.9118800E+02  0.7818608E-02  0.1130116E+00
         25   -1    0    0    0    0  0.00000000000E+00  0.00000000000E+00  0.99999998245E-14  0.12500000000E+03  0.12500000000E+03 0.  0.
        -13    1    3    3    0    0  0.34431127558E+02  0.19437635314E+02 -0.17882297455E+02  0.43394837686E+02  0.10566000000E+00 0. -1.
         23    2    1    0    0    0 -0.14717637107E+02  0.14551888105E+00 -0.24307275870E+02  0.96583918673E+02  0.92309152678E+02 0.  0.
         13    1    3    3    0    0 -0.49148764665E+02 -0.19292116433E+02 -0.64249784151E+01  0.53189080987E+02  0.10566000000E+00 0.  1.
         22    1    1    0    0    0  0.14717637107E+02 -0.14551888105E+00  0.24307275870E+02  0.28416081327E+02  0.00000000000E+00 0. -1.
</event>
<event>
 5    1  0.1766627E-003  0.9118800E+02  0.7818608E-02  0.1130116E+00
         25   -1    0    0    0    0  0.00000000000E+00  0.00000000000E+00  0.99999998245E-14  0.12500000000E+03  0.12500000000E+03 0.  0.
        -13    1    3    3    0    0  0.15623184195E+02  0.46985276552E+02 -0.33567580958E+02  0.59820512807E+02  0.10566000000E+00 0.  1.
         23    2    1    0    0    0  0.10880752037E+02  0.12070905137E+02 -0.23431349655E+02  0.96484641641E+02  0.92174619121E+02 0.  0.
         13    1    3    3    0    0 -0.47424321585E+01 -0.34914371415E+02  0.10136231303E+02  0.36664128834E+02  0.10566000000E+00 0. -1.
         22    1    1    0    0    0 -0.10880752037E+02 -0.12070905137E+02  0.23431349655E+02  0.28515358359E+02  0.00000000000E+00 0.  1.
</event>
<event>
 5    1  0.1766627E-003  0.9118800E+02  0.7818608E-02  0.1130116E+00
         25   -1    0    0    0    0  0.00000000000E+00  0.00000000000E+00  0.99999998245E-14  0.12500000000E+03  0.12500000000E+03 0.  0.
        -13    1    3    3    0    0  0.37118548618E+02  0.95067737172E+01  0.16213306269E+02  0.41605863315E+02  0.10566000000E+00 0.  1.
         23    2    1    0    0    0 -0.10554260283E+01 -0.28153024387E+02  0.50981437684E+01  0.96369635418E+02  0.92018524518E+02 0.  0.
         13    1    3    3    0    0 -0.38173974646E+02 -0.37659798104E+02 -0.11115162501E+02  0.54763772103E+02  0.10566000000E+00 0. -1.
         22    1    1    0    0    0  0.10554260283E+01  0.28153024387E+02 -0.50981437684E+01  0.28630364582E+02  0.00000000000E+00 0. -1.
</event>
<event>
 5    1  0.1766627E-003  0.9118800E+02  0.7818608E-02  0.1130116E+00
         25   -1    0    0    0    0  0.00000000000E+00  0.00000000000E+00  0.99999998245E-14  0.12500000000E+03  0.12500000000E+03 0.  0.
        -13    1    3    3    0    0 -0.28219990319E+02 -0.46322638035E+02 -0.24787699181E+02  0.59637201836E+02  0.10566000000E+00 0.  1.
         23    2    1    0    0    0 -0.22715813543E+02 -0.12342339242E+02 -0.13302358296E+02  0.95926055322E+02  0.91413969559E+02 0.  0.
         13    1    3    3    0    0  0.55041767756E+01  0.33980298793E+02  0.11485340886E+02  0.36288853486E+02  0.10566000000E+00 0. -1.
         22    1    1    0    0    0  0.22715813543E+02  0.12342339242E+02  0.13302358296E+02  0.29073944678E+02  0.00000000000E+00 0.  1.
</event>
<event>
 5    1  0.1766627E-003  0.9118800E+02  0.7818608E-02  0.1130116E+00
         25   -1    0    0    0    0  0.00000000000E+00  0.00000000000E+00  0.99999998245E-14  0.12500000000E+03  0.12500000000E+03 0.  0.
        -13    1    3    3    0    0  0.14134048030E+02 -0.31096649273E+02 -0.35239844161E+02  0.49077802419E+02  0.10566000000E+00 0. -1.
         23    2    1    0    0    0 -0.13346531490E+02  0.37713038735E+01 -0.27579748947E+02  0.94129379862E+02  0.88923253233E+02 0.  0.
         13    1    3    3    0    0 -0.27480579520E+02  0.34867953147E+02  0.76600952137E+01  0.45051577443E+02  0.10566000000E+00 0.  1.
         22    1    1    0    0    0  0.13346531490E+02 -0.37713038735E+01  0.27579748947E+02  0.30870620138E+02  0.00000000000E+00 0.  1.
</event>
<event>
 5    1  0.1766627E-003  0.9118800E+02  0.7818608E-02  0.1130116E+00
         25   -1    0    0    0    0  0.00000000000E+00  0.00000000000E+00  0.99999998245E-14  0.12500000000E+03  0.12500000000E+03 0.  0.
        -13    1    3    3    0    0 -0.27520653483E+02 -0.21671302052E+02  0.25810876216E+02  0.43511426038E+02  0.10566000000E+00 0.  1.
         23    2    1    0    0    0 -0.12453855994E+02 -0.12476876000E+02 -0.23348625777E+02  0.95743730766E+02  0.91164316985E+02 0.  0.
         13    1    3    3    0    0  0.15066797488E+02  0.91944260519E+01 -0.49159501993E+02  0.52232304728E+02  0.10566000000E+00 0. -1.
         22    1    1    0    0    0  0.12453855994E+02  0.12476876000E+02  0.23348625777E+02  0.29256269234E+02  0.00000000000E+00 0. -1.
</event>
<event>
 5    1  0.1766627E-003  0.9118800E+02  0.7818608E-02  0.1130116E+00
         25   -1    0    0    0    0  0.00000000000E+00  0.00000000000E+00  0.99999998245E-14  0.12500000000E+03  0.12500000000E+03 0.  0.
        -13    1    3    3    0    0 -0.15921926590E+02 -0.20785931740E+02 -0.23285160481E+02  0.35039585718E+02  0.10566000000E+00 0.  1.
         23    2    1    0    0    0 -0.19976631720E+02  0.10251234461E+02  0.24247732368E+02  0.91952970665E+02  0.85809339039E+02 0.  0.
         13    1    3    3    0    0 -0.40547051298E+01  0.31037166201E+02  0.47532892849E+02  0.56913384947E+02  0.10566000000E+00 0. -1.
         22    1    1    0    0    0  0.19976631720E+02 -0.10251234461E+02 -0.24247732368E+02  0.33047029335E+02  0.00000000000E+00 0. -1.
</event>
<event>
 5    1  0.1766627E-003  0.9118800E+02  0.7818608E-02  0.1130116E+00
         25   -1    0    0    0    0  0.00000000000E+00  0.00000000000E+00  0.99999998245E-14  0.12500000000E+03  0.12500000000E+03 0.  0.
        -13    1    3    3    0    0 -0.36766319492E+02 -0.42012377528E+02 -0.16308544885E+02  0.58161687689E+02  0.10566000000E+00 0.  1.
         23    2    1    0    0    0 -0.26859494761E+02 -0.64495804097E+01 -0.10050508576E+02  0.95605404086E+02  0.90974452576E+02 0.  0.
         13    1    3    3    0    0  0.99068247306E+01  0.35562797119E+02  0.62580363086E+01  0.37443716397E+02  0.10566000000E+00 0. -1.
         22    1    1    0    0    0  0.26859494761E+02  0.64495804097E+01  0.10050508576E+02  0.29394595914E+02  0.00000000000E+00 0.  1.
</event>
<event>
 5    1  0.1766627E-003  0.9118800E+02  0.7818608E-02  0.1130116E+00
         25   -1    0    0    0    0  0.00000000000E+00  0.00000000000E+00  0.99999998245E-14  0.12500000000E+03  0.12500000000E+03 0.  0.
        -13    1    3    3    0    0 -0.19968611095E+02 -0.24144838083E+02 -0.24483429748E+02  0.39763904881E+02  0.10566000000E+00 0.  1.
         23    2    1    0    0    0 -0.21678273292E+01  0.27104632039E+02 -0.11005910417E+02  0.95665879638E+02  0.91057508804E+02 0.  0.
         13    1    3    3    0    0  0.17800783766E+02  0.51249470121E+02  0.13477519331E+02  0.55901974757E+02  0.10566000000E+00 0. -1.
         22    1    1    0    0    0  0.21678273292E+01 -0.27104632039E+02  0.11005910417E+02  0.29334120362E+02  0.00000000000E+00 0. -1.
</event>
<event>
 5    1  0.1766627E-003  0.9118800E+02  0.7818608E-02  0.1130116E+00
         25   -1    0    0    0    0  0.00000000000E+00  0.00000000000E+00  0.99999998245E-14  0.12500000000E+03  0.12500000000E+03 0.  0.
        -13    1    3    3    0    0  0.26501099852E+02 -0.42524387565E+02  0.33640880895E+02  0.60351900240E+02  0.10566000000E+00 0. -1.
         23    2    1    0    0    0  0.22642095114E+01 -0.25319080074E+02  0.13977837934E+02  0.95990304831E+02  0.91501782538E+02 0.  0.
         13    1    3    3    0    0 -0.24236890341E+02  0.17205307491E+02 -0.19663042961E+02  0.35638404591E+02  0.10566000000E+00 0.  1.
         22    1    1    0    0    0 -0.22642095114E+01  0.25319080074E+02 -0.13977837934E+02  0.29009695169E+02  0.00000000000E+00 0. -1.
</event>
<event>
 5    1  0.1766627E-003  0.9118800E+02  0.7818608E-02  0.1130116E+00
         25   -1    0    0    0    0  0.00000000000E+00  0.00000000000E+00  0.99999998245E-14  0.12500000000E+03  0.12500000000E+03 0.  0.
        -13    1    3    3    0    0 -0.18928495840E+02 -0.29259981616E+02 -0.43628102096E+02  0.55837773375E+02  0.10566000000E+00 0. -1.
         23    2    1    0    0    0 -0.21826232650E+02 -0.19122178668E+02 -0.54122444063E+01  0.95481623720E+02  0.90804217578E+02 0.  0.
         13    1    3    3    0    0 -0.28977368102E+01  0.10137802948E+02  0.38215857689E+02  0.39643850345E+02  0.10566000000E+00 0.  1.
         22    1    1    0    0    0  0.21826232650E+02  0.19122178668E+02  0.54122444063E+01  0.29518376280E+02  0.00000000000E+00 0. -1.
</event>
<event>
 5    1  0.1766627E-003  0.9118800E+02  0.7818608E-02  0.1130116E+00
         25   -1    0    0    0    0  0.00000000000E+00  0.00000000000E+00  0.99999998245E-14  0.12500000000E+03  0.12500000000E+03 0.  0.
        -13    1    3    3    0    0 -0.90645083382E+01  0.93523275969E+01  0.35589407502E+02  0.37897868453E+02  0.10566000000E+00 0.  1.
         23    2    1    0    0    0  0.17157623579E+01 -0.27215061821E+02 -0.87388174888E+01  0.96364875389E+02  0.92012058162E+02 0.  0.
         13    1    3    3    0    0  0.10780270696E+02 -0.36567389418E+02 -0.44328224991E+02  0.58467006936E+02  0.10566000000E+00 0. -1.
         22    1    1    0    0    0 -0.17157623579E+01  0.27215061821E+02  0.87388174888E+01  0.28635124611E+02  0.00000000000E+00 0. -1.
</event>
<event>
 5    1  0.1766627E-003  0.9118800E+02  0.7818608E-02  0.1130116E+00
         25   -1    0    0    0    0  0.00000000000E+00  0.00000000000E+00  0.99999998245E-14  0.12500000000E+03  0.12500000000E+03 0.  0.
        -13    1    3    3    0    0  0.58307713369E+01 -0.26771099559E+02 -0.27495736141E+02  0.38816444143E+02  0.10566000000E+00 0.  1.
         23    2    1    0    0    0  0.24496070729E+02  0.48737981951E+01  0.15681259166E+02  0.95509098368E+02  0.90842030977E+02 0.  0.
         13    1    3    3    0    0  0.18665299392E+02  0.31644897754E+02  0.43176995307E+02  0.56692654225E+02  0.10566000000E+00 0. -1.
         22    1    1    0    0    0 -0.24496070729E+02 -0.48737981951E+01 -0.15681259166E+02  0.29490901632E+02  0.00000000000E+00 0. -1.
</event>
<event>
 5    1  0.1766627E-003  0.9118800E+02  0.7818608E-02  0.1130116E+00
         25   -1    0    0    0    0  0.00000000000E+00  0.00000000000E+00  0.99999998245E-14  0.12500000000E+03  0.12500000000E+03 0.  0.
        -13    1    3    3    0    0  0.26950680505E+02  0.15054597271E+02  0.48145271032E+02  0.57192292885E+02  0.10566000000E+00 0.  1.
         23    2    1    0    0    0  0.43554846172E+01  0.22728305121E+02  0.17754989497E+02  0.95831768104E+02  0.91284949614E+02 0.  0.
         13    1    3    3    0    0 -0.22595195887E+02  0.76737078502E+01 -0.30390281535E+02  0.38639475219E+02  0.10566000000E+00 0. -1.
         22    1    1    0    0    0 -0.43554846172E+01 -0.22728305121E+02 -0.17754989497E+02  0.29168231896E+02  0.00000000000E+00 0.  1.
</event>
<event>
 5    1  0.1766627E-003  0.9118800E+02  0.7818608E-02  0.1130116E+00
         25   -1    0    0    0    0  0.00000000000E+00  0.00000000000E+00  0.99999998245E-14  0.12500000000E+03  0.12500000000E+03 0.  0.
        -13    1    3    3    0    0  0.62104915457E+01  0.26217088100E+02  0.33853601863E+02  0.43266423897E+02  0.10566000000E+00 0.  1.
         23    2    1    0    0    0 -0.27875590234E+02  0.11908186301E+02 -0.18107538952E+01  0.94633369276E+02  0.89628914525E+02 0.  0.
         13    1    3    3    0    0 -0.34086081780E+02 -0.14308901799E+02 -0.35664355759E+02  0.51366945378E+02  0.10566000000E+00 0. -1.
         22    1    1    0    0    0  0.27875590234E+02 -0.11908186301E+02  0.18107538952E+01  0.30366630724E+02  0.00000000000E+00 0. -1.
</event>
<event>
 5    1  0.1766627E-003  0.9118800E+02  0.7818608E-02  0.1130116E+00
         25   -1    0    0    0    0  0.00000000000E+00  0.00000000000E+00  0.99999998245E-14  0.12500000000E+03  0.12500000000E+03 0.  0.
        -13    1    3    3    0    0 -0.27662728802E+02 -0.23327649894E+00 -0.37415582557E+02  0.46531902656E+02  0.10566000000E+00 0.  1.
         23    2    1    0    0    0  0.19199863582E+02 -0.21943032012E+01 -0.21568891905E+02  0.96040255075E+02  0.91569993824E+02 0.  0.
         13    1    3    3    0    0  0.46862592384E+02 -0.19610267022E+01  0.15846690652E+02  0.49508352420E+02  0.10566000000E+00 0. -1.
         22    1    1    0    0    0 -0.19199863582E+02  0.21943032012E+01  0.21568891905E+02  0.28959744925E+02  0.00000000000E+00 0.  1.
</event>
<event>
 5    1  0.1766627E-003  0.9118800E+02  0.7818608E-02  0.1130116E+00
         25   -1    0    0    0    0  0.00000000000E+00  0.00000000000E+00  0.99999998245E-14  0.12500000000E+03  0.12500000000E+03 0.  0.
        -13    1    3    3    0    0 -0.14367467751E+02  0.91269986425E+01  0.46360487416E+02  0.49386558812E+02  0.10566000000E+00 0.  1.
         23    2    1    0    0    0  0.20040098265E+02  0.72595095625E+01  0.52120287342E+01  0.10305754660E+03  0.10069452145E+03 0.  0.
         13    1    3    3    0    0  0.34407566016E+02 -0.18674890800E+01 -0.41148458682E+02  0.53670987791E+02  0.10566000000E+00 0. -1.
         22    1    1    0    0    0 -0.20040098265E+02 -0.72595095625E+01 -0.52120287342E+01  0.21942453397E+02  0.00000000000E+00 0. -1.
</event>
<event>
 5    1  0.1766627E-003  0.9118800E+02  0.7818608E-02  0.1130116E+00
         25   -1    0    0    0    0  0.00000000000E+00  0.00000000000E+00  0.99999998245E-14  0.12500000000E+03  0.12500000000E+03 0.  0.
        -13    1    3    3    0    0  0.82260118007E+00 -0.29078262130E+01  0.35762898683E+02  0.35890503093E+02  0.10566000000E+00 0.  1.
         23    2    1    0    0    0  0.16095939101E+02  0.14428849437E+02 -0.19561986543E+02  0.95846230619E+02  0.91304751545E+02 0.  0.
         13    1    3    3    0    0  0.15273337921E+02  0.17336675650E+02 -0.55324885227E+02  0.59955727526E+02  0.10566000000E+00 0. -1.
         22    1    1    0    0    0 -0.16095939101E+02 -0.14428849437E+02  0.19561986543E+02  0.29153769381E+02  0.00000000000E+00 0. -1.
</event>
<event>
 5    1  0.1766627E-003  0.9118800E+02  0.7818608E-02  0.1130116E+00
         25   -1    0    0    0    0  0.00000000000E+00  0.00000000000E+00  0.99999998245E-14  0.12500000000E+03  0.12500000000E+03 0.  0.
        -13    1    3    3    0    0  0.17504683719E+01  0.25495381601E+02 -0.23245517892E+02  0.34546257230E+02  0.10566000000E+00 0.  1.
         23    2    1    0    0    0  0.36538966873E+02  0.26983254281E+02  0.48927803849E+01  0.79314866624E+02  0.64836075266E+02 0.  0.
         13    1    3    3    0    0  0.34788498501E+02  0.14878726798E+01  0.28138298277E+02  0.44768609393E+02  0.10566000000E+00 0. -1.
         22    1    1    0    0    0 -0.36538966873E+02 -0.26983254281E+02 -0.48927803849E+01  0.45685133376E+02  0.00000000000E+00 0. -1.
</event>
<event>
 5    1  0.1766627E-003  0.9118800E+02  0.7818608E-02  0.1130116E+00
         25   -1    0    0    0    0  0.00000000000E+00  0.00000000000E+00  0.99999998245E-14  0.12500000000E+03  0.12500000000E+03 0.  0.
        -13    1    3    3    0    0  0.56419873042E+02 -0.80376093150E+01  0.59368132660E+01  0.57298011775E+02  0.10566000000E+00 0.  1.
         23    2    1    0    0    0  0.20760551956E+02 -0.19537460378E+02  0.95380718398E+01  0.94938601331E+02  0.90053597000E+02 0.  0.
         13    1    3    3    0    0 -0.35659321086E+02 -0.11499851063E+02  0.36012585739E+01  0.37640589556E+02  0.10566000000E+00 0. -1.
         22    1    1    0    0    0 -0.20760551956E+02  0.19537460378E+02 -0.95380718398E+01  0.30061398669E+02  0.00000000000E+00 0. -1.
</event>
<event>
 5    1  0.1766627E-003  0.9118800E+02  0.7818608E-02  0.1130116E+00
         25   -1    0    0    0    0  0.00000000000E+00  0.00000000000E+00  0.99999998245E-14  0.12500000000E+03  0.12500000000E+03 0.  0.
        -13    1    3    3    0    0  0.18530245021E+02 -0.37152300900E+02  0.86753601284E+01  0.42413871317E+02  0.10566000000E+00 0.  1.
         23    2    1    0    0    0  0.20223532325E+02  0.11385971903E+02 -0.15921663769E+02  0.96855178219E+02  0.92675749551E+02 0.  0.
         13    1    3    3    0    0  0.16932873039E+01  0.48538272803E+02 -0.24597023898E+02  0.54441306903E+02  0.10566000000E+00 0. -1.
         22    1    1    0    0    0 -0.20223532325E+02 -0.11385971903E+02  0.15921663769E+02  0.28144821781E+02  0.00000000000E+00 0. -1.
</event>
<event>
 5    1  0.1766627E-003  0.9118800E+02  0.7818608E-02  0.1130116E+00
         25   -1    0    0    0    0  0.00000000000E+00  0.00000000000E+00  0.99999998245E-14  0.12500000000E+03  0.12500000000E+03 0.  0.
        -13    1    3    3    0    0 -0.34894822165E+02 -0.31830241555E+02  0.30048185258E+02  0.55979616761E+02  0.10566000000E+00 0.  1.
         23    2    1    0    0    0 -0.26578044746E+02 -0.11940081207E+02 -0.32863657025E+01  0.95678366327E+02  0.91074648403E+02 0.  0.
         13    1    3    3    0    0  0.83167774191E+01  0.19890160348E+02 -0.33334550960E+02  0.39698749566E+02  0.10566000000E+00 0. -1.
         22    1    1    0    0    0  0.26578044746E+02  0.11940081207E+02  0.32863657025E+01  0.29321633673E+02  0.00000000000E+00 0.  1.
</event>
<event>
 5    1  0.1766627E-003  0.9118800E+02  0.7818608E-02  0.1130116E+00
         25   -1    0    0    0    0  0.00000000000E+00  0.00000000000E+00  0.99999998245E-14  0.12500000000E+03  0.12500000000E+03 0.  0.
        -13    1    3    3    0    0 -0.15034795474E+02 -0.11681082269E+02  0.32072997069E+02  0.37298539689E+02  0.10566000000E+00 0.  1.
         23    2    1    0    0    0  0.15296334684E+02  0.26284711756E+02  0.18336959921E+01  0.94533192359E+02  0.89489094809E+02 0.  0.
         13    1    3    3    0    0  0.30331130158E+02  0.37965794025E+02 -0.30239301077E+02  0.57234652670E+02  0.10566000000E+00 0. -1.
         22    1    1    0    0    0 -0.15296334684E+02 -0.26284711756E+02 -0.18336959921E+01  0.30466807641E+02  0.00000000000E+00 0. -1.
</event>
<event>
 5    1  0.1766627E-003  0.9118800E+02  0.7818608E-02  0.1130116E+00
         25   -1    0    0    0    0  0.00000000000E+00  0.00000000000E+00  0.99999998245E-14  0.12500000000E+03  0.12500000000E+03 0.  0.
        -13    1    3    3    0    0 -0.25348311912E+02 -0.28751308514E+01 -0.17099917134E+02  0.30711913392E+02  0.10566000000E+00 0.  1.
         23    2    1    0    0    0  0.60747189155E+01  0.35261787788E+02  0.11010621525E+02  0.87562990580E+02  0.79156475699E+02 0.  0.
         13    1    3    3    0    0  0.31423030827E+02  0.38136918640E+02  0.28110538659E+02  0.56851077188E+02  0.10566000000E+00 0. -1.
         22    1    1    0    0    0 -0.60747189155E+01 -0.35261787788E+02 -0.11010621525E+02  0.37437009420E+02  0.00000000000E+00 0. -1.
</event>
<event>
 5    1  0.1766627E-003  0.9118800E+02  0.7818608E-02  0.1130116E+00
         25   -1    0    0    0    0  0.00000000000E+00  0.00000000000E+00  0.99999998245E-14  0.12500000000E+03  0.12500000000E+03 0.  0.
        -13    1    3    3    0    0 -0.47088285299E+01 -0.37721935495E+02  0.43366884043E+02  0.57669881908E+02  0.10566000000E+00 0.  1.
         23    2    1    0    0    0  0.14471321988E+02 -0.12407040251E+02  0.21698081688E+02  0.96118162164E+02  0.91676281235E+02 0.  0.
         13    1    3    3    0    0  0.19180150518E+02  0.25314895244E+02 -0.21668802355E+02  0.38448280256E+02  0.10566000000E+00 0. -1.
         22    1    1    0    0    0 -0.14471321988E+02  0.12407040251E+02 -0.21698081688E+02  0.28881837836E+02  0.00000000000E+00 0.  1.
</event>
<event>
 5    1  0.1766627E-003  0.9118800E+02  0.7818608E-02  0.1130116E+00
         25   -1    0    0    0    0  0.00000000000E+00  0.00000000000E+00  0.99999998245E-14  0.12500000000E+03  0.12500000000E+03 0.  0.
        -13    1    3    3    0    0  0.27202910176E+01  0.28708102080E+02  0.11678663501E+02  0.31112014616E+02  0.10566000000E+00 0.  1.
         23    2    1    0    0    0 -0.25482420520E+02 -0.17073042546E+02 -0.14678724742E+02  0.90995478280E+02  0.84403018726E+02 0.  0.
         13    1    3    3    0    0 -0.28202711538E+02 -0.45781144626E+02 -0.26357388243E+02  0.59883463664E+02  0.10566000000E+00 0. -1.
         22    1    1    0    0    0  0.25482420520E+02  0.17073042546E+02  0.14678724742E+02  0.34004521720E+02  0.00000000000E+00 0. -1.
</event>
<event>
 5    1  0.1766627E-003  0.9118800E+02  0.7818608E-02  0.1130116E+00
         25   -1    0    0    0    0  0.00000000000E+00  0.00000000000E+00  0.99999998245E-14  0.12500000000E+03  0.12500000000E+03 0.  0.
        -13    1    3    3    0    0  0.42187084387E+02 -0.37689335058E+02  0.18065371391E+02  0.59385224372E+02  0.10566000000E+00 0.  1.
         23    2    1    0    0    0  0.15601229281E+02 -0.25556236792E+02 -0.22454372351E+01  0.94973984906E+02  0.90102698220E+02 0.  0.
         13    1    3    3    0    0 -0.26585855106E+02  0.12133098265E+02 -0.20310808627E+02  0.35588760534E+02  0.10566000000E+00 0. -1.
         22    1    1    0    0    0 -0.15601229281E+02  0.25556236792E+02  0.22454372351E+01  0.30026015094E+02  0.00000000000E+00 0.  1.
</event>
<event>
 5    1  0.1766627E-003  0.9118800E+02  0.7818608E-02  0.1130116E+00
         25   -1    0    0    0    0  0.00000000000E+00  0.00000000000E+00  0.99999998245E-14  0.12500000000E+03  0.12500000000E+03 0.  0.
        -13    1    3    3    0    0  0.35167355986E+02  0.22014593114E+01  0.43307044395E+02  0.55831000425E+02  0.10566000000E+00 0.  1.
         23    2    1    0    0    0  0.17488366424E+02 -0.18813530837E+02  0.15075364230E+02  0.95216472516E+02  0.90438477039E+02 0.  0.
         13    1    3    3    0    0 -0.17678989562E+02 -0.21014990148E+02 -0.28231680166E+02  0.39385472092E+02  0.10566000000E+00 0. -1.
         22    1    1    0    0    0 -0.17488366424E+02  0.18813530837E+02 -0.15075364230E+02  0.29783527484E+02  0.00000000000E+00 0. -1.
</event>
<event>
 5    1  0.1766627E-003  0.9118800E+02  0.7818608E-02  0.1130116E+00
         25   -1    0    0    0    0  0.00000000000E+00  0.00000000000E+00  0.99999998245E-14  0.12500000000E+03  0.12500000000E+03 0.  0.
        -13    1    3    3    0    0 -0.17346587567E+02  0.58024075539E+01  0.31498709810E+02  0.36424605933E+02  0.10566000000E+00 0.  1.
         23    2    1    0    0    0  0.13669364879E+02  0.19419524874E+02 -0.17151525779E+02  0.95705899586E+02  0.91112429978E+02 0.  0.
         13    1    3    3    0    0  0.31015952446E+02  0.13617117320E+02 -0.48650235589E+02  0.59281293653E+02  0.10566000000E+00 0. -1.
         22    1    1    0    0    0 -0.13669364879E+02 -0.19419524874E+02  0.17151525779E+02  0.29294100414E+02  0.00000000000E+00 0. -1.
</event>
<event>
 5    1  0.1766627E-003  0.9118800E+02  0.7818608E-02  0.1130116E+00
         25   -1    0    0    0    0  0.00000000000E+00  0.00000000000E+00  0.99999998245E-14  0.12500000000E+03  0.12500000000E+03 0.  0.
        -13    1    3    3    0    0 -0.27470092135E+02  0.51498524850E+02  0.10517676749E+02  0.59307138793E+02  0.10566000000E+00 0. -1.
         23    2    1    0    0    0 -0.22166438072E+02  0.18647168017E+02 -0.42672995556E+01  0.95720695067E+02  0.91132726102E+02 0.  0.
         13    1    3    3    0    0  0.53036540626E+01 -0.32851356833E+02 -0.14784976304E+02  0.36413556274E+02  0.10566000000E+00 0.  1.
         22    1    1    0    0    0  0.22166438072E+02 -0.18647168017E+02  0.42672995556E+01  0.29279304933E+02  0.00000000000E+00 0. -1.
</event>
<event>
 5    1  0.1766627E-003  0.9118800E+02  0.7818608E-02  0.1130116E+00
         25   -1    0    0    0    0  0.00000000000E+00  0.00000000000E+00  0.99999998245E-14  0.12500000000E+03  0.12500000000E+03 0.  0.
        -13    1    3    3    0    0  0.12285661296E+01 -0.31135474738E+02 -0.43679551648E+02  0.53654837230E+02  0.10566000000E+00 0. -1.
         23    2    1    0    0    0 -0.22269774713E+02 -0.12697099017E+02 -0.13873322970E+02  0.95851616178E+02  0.91312124302E+02 0.  0.
         13    1    3    3    0    0 -0.23498340842E+02  0.18438375721E+02  0.29806228678E+02  0.42196778948E+02  0.10566000000E+00 0.  1.
         22    1    1    0    0    0  0.22269774713E+02  0.12697099017E+02  0.13873322970E+02  0.29148383822E+02  0.00000000000E+00 0.  1.
</event>
<event>
 5    1  0.1766627E-003  0.9118800E+02  0.7818608E-02  0.1130116E+00
         25   -1    0    0    0    0  0.00000000000E+00  0.00000000000E+00  0.99999998245E-14  0.12500000000E+03  0.12500000000E+03 0.  0.
        -13    1    3    3    0    0 -0.44873889331E+02 -0.67327288569E+01  0.13360387852E+02  0.47302290739E+02  0.10566000000E+00 0. -1.
         23    2    1    0    0    0 -0.62686458752E+00 -0.26816497020E+02  0.11169727067E+02  0.95943498587E+02  0.91437818471E+02 0.  0.
         13    1    3    3    0    0  0.44247024743E+02 -0.20083768163E+02 -0.21906607850E+01  0.48641207848E+02  0.10566000000E+00 0.  1.
         22    1    1    0    0    0  0.62686458752E+00  0.26816497020E+02 -0.11169727067E+02  0.29056501413E+02  0.00000000000E+00 0. -1.
</event>
<event>
 5    1  0.1766627E-003  0.9118800E+02  0.7818608E-02  0.1130116E+00
         25   -1    0    0    0    0  0.00000000000E+00  0.00000000000E+00  0.99999998245E-14  0.12500000000E+03  0.12500000000E+03 0.  0.
        -13    1    3    3    0    0  0.29891515122E+00  0.55235926644E+02  0.26630191364E+02  0.61321082823E+02  0.10566000000E+00 0.  1.
         23    2    1    0    0    0 -0.40939241826E+01  0.28418244066E+02  0.54491762721E+01  0.95775860440E+02  0.91208360965E+02 0.  0.
         13    1    3    3    0    0 -0.43928393338E+01 -0.26817682578E+02 -0.21181015092E+02  0.34454777617E+02  0.10566000000E+00 0. -1.
         22    1    1    0    0    0  0.40939241826E+01 -0.28418244066E+02 -0.54491762721E+01  0.29224139560E+02  0.00000000000E+00 0.  1.
</event>
<event>
 5    1  0.1766627E-003  0.9118800E+02  0.7818608E-02  0.1130116E+00
         25   -1    0    0    0    0  0.00000000000E+00  0.00000000000E+00  0.99999998245E-14  0.12500000000E+03  0.12500000000E+03 0.  0.
        -13    1    3    3    0    0  0.35054069384E+02 -0.57411693153E+01  0.25459781369E+02  0.43703094134E+02  0.10566000000E+00 0.  1.
         23    2    1    0    0    0 -0.13753277880E+02 -0.18846904892E+02  0.19505560515E+02  0.94589058425E+02  0.89567095556E+02 0.  0.
         13    1    3    3    0    0 -0.48807347263E+02 -0.13105735577E+02 -0.59542208531E+01  0.50885964292E+02  0.10566000000E+00 0. -1.
         22    1    1    0    0    0  0.13753277880E+02  0.18846904892E+02 -0.19505560515E+02  0.30410941575E+02  0.00000000000E+00 0.  1.
</event>
<event>
 5    1  0.1766627E-003  0.9118800E+02  0.7818608E-02  0.1130116E+00
         25   -1    0    0    0    0  0.00000000000E+00  0.00000000000E+00  0.99999998245E-14  0.12500000000E+03  0.12500000000E+03 0.  0.
        -13    1    3    3    0    0  0.16595511029E+02  0.20727301235E+02  0.41028077560E+02  0.48870710196E+02  0.10566000000E+00 0.  1.
         23    2    1    0    0    0  0.29353063915E+02  0.20799773250E+01  0.15500651109E+00  0.95572925835E+02  0.90929816115E+02 0.  0.
         13    1    3    3    0    0  0.12757552887E+02 -0.18647323910E+02 -0.40873071048E+02  0.46702215639E+02  0.10566000000E+00 0. -1.
         22    1    1    0    0    0 -0.29353063915E+02 -0.20799773250E+01 -0.15500651109E+00  0.29427074165E+02  0.00000000000E+00 0. -1.
</event>
<event>
 5    1  0.1766627E-003  0.9118800E+02  0.7818608E-02  0.1130116E+00
         25   -1    0    0    0    0  0.00000000000E+00  0.00000000000E+00  0.99999998245E-14  0.12500000000E+03  0.12500000000E+03 0.  0.
        -13    1    3    3    0    0 -0.74780562925E+01 -0.25755789931E+02 -0.37616823621E+02  0.46198686391E+02  0.10566000000E+00 0.  1.
         23    2    1    0    0    0  0.27557263587E+02 -0.61508615620E+01 -0.95141792042E+01  0.95204774203E+02  0.90422306710E+02 0.  0.
         13    1    3    3    0    0  0.35035319879E+02  0.19604928369E+02  0.28102644417E+02  0.49006087812E+02  0.10566000000E+00 0. -1.
         22    1    1    0    0    0 -0.27557263587E+02  0.61508615620E+01  0.95141792042E+01  0.29795225797E+02  0.00000000000E+00 0.  1.
</event>
<event>
 5    1  0.1766627E-003  0.9118800E+02  0.7818608E-02  0.1130116E+00
         25   -1    0    0    0    0  0.00000000000E+00  0.00000000000E+00  0.99999998245E-14  0.12500000000E+03  0.12500000000E+03 0.  0.
        -13    1    3    3    0    0 -0.78446381614E+01 -0.28451085549E+01 -0.36874108383E+02  0.37806666391E+02  0.10566000000E+00 0.  1.
         23    2    1    0    0    0  0.17646816598E+02  0.31207551136E+02 -0.11440648109E+02  0.87367436799E+02  0.78847062086E+02 0.  0.
         13    1    3    3    0    0  0.25491454760E+02  0.34052659691E+02  0.25433460274E+02  0.49560770407E+02  0.10566000000E+00 0. -1.
         22    1    1    0    0    0 -0.17646816598E+02 -0.31207551136E+02  0.11440648109E+02  0.37632563201E+02  0.00000000000E+00 0. -1.
</event>
<event>
 5    1  0.1766627E-003  0.9118800E+02  0.7818608E-02  0.1130116E+00
         25   -1    0    0    0    0  0.00000000000E+00  0.00000000000E+00  0.99999998245E-14  0.12500000000E+03  0.12500000000E+03 0.  0.
        -13    1    3    3    0    0  0.26148680850E+02 -0.20029157433E+02  0.17588059857E+02  0.37339947392E+02  0.10566000000E+00 0.  1.
         23    2    1    0    0    0 -0.28643555871E+02 -0.53366164145E+01  0.66912994346E+01  0.95105079766E+02  0.90284383708E+02 0.  0.
         13    1    3    3    0    0 -0.54792236721E+02  0.14692541018E+02 -0.10896760423E+02  0.57765132374E+02  0.10566000000E+00 0. -1.
         22    1    1    0    0    0  0.28643555871E+02  0.53366164145E+01 -0.66912994346E+01  0.29894920234E+02  0.00000000000E+00 0. -1.
</event>
<event>
 5    1  0.1766627E-003  0.9118800E+02  0.7818608E-02  0.1130116E+00
         25   -1    0    0    0    0  0.00000000000E+00  0.00000000000E+00  0.99999998245E-14  0.12500000000E+03  0.12500000000E+03 0.  0.
        -13    1    3    3    0    0 -0.20175762152E+02  0.18889540071E+02 -0.27557359441E+02  0.39029416161E+02  0.10566000000E+00 0. -1.
         23    2    1    0    0    0 -0.40989825204E+01 -0.26483823582E+02  0.57812741818E+01  0.97584353001E+02  0.93654088273E+02 0.  0.
         13    1    3    3    0    0  0.16076779631E+02 -0.45373363653E+02  0.33338633623E+02  0.58554936840E+02  0.10566000000E+00 0.  1.
         22    1    1    0    0    0  0.40989825204E+01  0.26483823582E+02 -0.57812741818E+01  0.27415646999E+02  0.00000000000E+00 0.  1.
</event>
<event>
 5    1  0.1766627E-003  0.9118800E+02  0.7818608E-02  0.1130116E+00
         25   -1    0    0    0    0  0.00000000000E+00  0.00000000000E+00  0.99999998245E-14  0.12500000000E+03  0.12500000000E+03 0.  0.
        -13    1    3    3    0    0  0.40072074321E+02 -0.21606622366E+01 -0.70652138975E+01  0.40747613588E+02  0.10566000000E+00 0. -1.
         23    2    1    0    0    0 -0.11777666879E+02 -0.23967099306E+02 -0.83789422163E+01  0.97011753200E+02  0.92886696034E+02 0.  0.
         13    1    3    3    0    0 -0.51849741200E+02 -0.21806437070E+02 -0.13137283188E+01  0.56264139612E+02  0.10566000000E+00 0.  1.
         22    1    1    0    0    0  0.11777666879E+02  0.23967099306E+02  0.83789422163E+01  0.27988246800E+02  0.00000000000E+00 0.  1.
</event>
<event>
 5    1  0.1766627E-003  0.9118800E+02  0.7818608E-02  0.1130116E+00
         25   -1    0    0    0    0  0.00000000000E+00  0.00000000000E+00  0.99999998245E-14  0.12500000000E+03  0.12500000000E+03 0.  0.
        -13    1    3    3    0    0  0.26598471911E+02 -0.32376760264E+02  0.34395903205E+02  0.54210908814E+02  0.10566000000E+00 0.  1.
         23    2    1    0    0    0  0.18771676903E+02  0.67366376644E+01  0.20365466817E+02  0.96495432305E+02  0.92189251414E+02 0.  0.
         13    1    3    3    0    0 -0.78267950078E+01  0.39113397928E+02 -0.14030436387E+02  0.42284523491E+02  0.10566000000E+00 0. -1.
         22    1    1    0    0    0 -0.18771676903E+02 -0.67366376644E+01 -0.20365466817E+02  0.28504567695E+02  0.00000000000E+00 0.  1.
</event>
<event>
 5    1  0.1766627E-003  0.9118800E+02  0.7818608E-02  0.1130116E+00
         25   -1    0    0    0    0  0.00000000000E+00  0.00000000000E+00  0.99999998245E-14  0.12500000000E+03  0.12500000000E+03 0.  0.
        -13    1    3    3    0    0 -0.20630701331E+02  0.29716566132E+02  0.36604051197E+02  0.51464238731E+02  0.10566000000E+00 0. -1.
         23    2    1    0    0    0  0.16355331731E+02  0.19402091655E+02  0.15004092546E+02  0.95520162318E+02  0.90857253863E+02 0.  0.
         13    1    3    3    0    0  0.36986033062E+02 -0.10314474477E+02 -0.21599958651E+02  0.44055923588E+02  0.10566000000E+00 0.  1.
         22    1    1    0    0    0 -0.16355331731E+02 -0.19402091655E+02 -0.15004092546E+02  0.29479837682E+02  0.00000000000E+00 0. -1.
</event>
<event>
 5    1  0.1766627E-003  0.9118800E+02  0.7818608E-02  0.1130116E+00
         25   -1    0    0    0    0  0.00000000000E+00  0.00000000000E+00  0.99999998245E-14  0.12500000000E+03  0.12500000000E+03 0.  0.
        -13    1    3    3    0    0  0.47399633632E+02 -0.22548003854E+02 -0.19513064402E+02  0.55999183857E+02  0.10566000000E+00 0.  1.
         23    2    1    0    0    0  0.22957049677E+02  0.10363066188E+02 -0.71964043615E+01  0.98804437276E+02  0.95268616653E+02 0.  0.
         13    1    3    3    0    0 -0.24442583955E+02  0.32911070042E+02  0.12316660041E+02  0.42805253419E+02  0.10566000000E+00 0. -1.
         22    1    1    0    0    0 -0.22957049677E+02 -0.10363066188E+02  0.71964043615E+01  0.26195562724E+02  0.00000000000E+00 0.  1.
</event>
<event>
 5    1  0.1766627E-003  0.9118800E+02  0.7818608E-02  0.1130116E+00
         25   -1    0    0    0    0  0.00000000000E+00  0.00000000000E+00  0.99999998245E-14  0.12500000000E+03  0.12500000000E+03 0.  0.
        -13    1    3    3    0    0  0.12917409597E+02 -0.27007817859E+02 -0.18515309810E+02  0.35200988020E+02  0.10566000000E+00 0.  1.
         23    2    1    0    0    0  0.43036365165E+01  0.27671846245E+02  0.69715958754E+01  0.96140763854E+02  0.91707093310E+02 0.  0.
         13    1    3    3    0    0 -0.86137730807E+01  0.54679664104E+02  0.25486905685E+02  0.60939775834E+02  0.10566000000E+00 0. -1.
         22    1    1    0    0    0 -0.43036365165E+01 -0.27671846245E+02 -0.69715958754E+01  0.28859236146E+02  0.00000000000E+00 0. -1.
</event>
<event>
 5    1  0.1766627E-003  0.9118800E+02  0.7818608E-02  0.1130116E+00
         25   -1    0    0    0    0  0.00000000000E+00  0.00000000000E+00  0.99999998245E-14  0.12500000000E+03  0.12500000000E+03 0.  0.
        -13    1    3    3    0    0  0.57211761855E+01  0.60773153998E+02  0.52685646922E+01  0.61268891305E+02  0.10566000000E+00 0. -1.
         23    2    1    0    0    0 -0.59523917605E+01  0.22799664774E+02 -0.60614315826E+00  0.10142834136E+03  0.98651332176E+02 0.  0.
         13    1    3    3    0    0 -0.11673567946E+02 -0.37973489223E+02 -0.58747078505E+01  0.40159450055E+02  0.10566000000E+00 0.  1.
         22    1    1    0    0    0  0.59523917605E+01 -0.22799664774E+02  0.60614315826E+00  0.23571658640E+02  0.00000000000E+00 0. -1.
</event>
<event>
 5    1  0.1766627E-003  0.9118800E+02  0.7818608E-02  0.1130116E+00
         25   -1    0    0    0    0  0.00000000000E+00  0.00000000000E+00  0.99999998245E-14  0.12500000000E+03  0.12500000000E+03 0.  0.
        -13    1    3    3    0    0  0.39647950784E+02  0.22335598153E+02  0.78416454705E+01  0.46177283527E+02  0.10566000000E+00 0. -1.
         23    2    1    0    0    0  0.53198493586E+01  0.14817837692E+02 -0.25767370180E+02  0.94803535356E+02  0.89865921455E+02 0.  0.
         13    1    3    3    0    0 -0.34328101426E+02 -0.75177604610E+01 -0.33609015650E+02  0.48626251828E+02  0.10566000000E+00 0.  1.
         22    1    1    0    0    0 -0.53198493586E+01 -0.14817837692E+02  0.25767370180E+02  0.30196464644E+02  0.00000000000E+00 0. -1.
</event>
<event>
 5    1  0.1766627E-003  0.9118800E+02  0.7818608E-02  0.1130116E+00
         25   -1    0    0    0    0  0.00000000000E+00  0.00000000000E+00  0.99999998245E-14  0.12500000000E+03  0.12500000000E+03 0.  0.
        -13    1    3    3    0    0  0.25403529394E+02  0.74603948914E+01  0.25826931700E+02  0.36987002618E+02  0.10566000000E+00 0. -1.
         23    2    1    0    0    0 -0.23480353920E+02  0.15967441546E+02 -0.60561101594E+01  0.95966180409E+02  0.91468820384E+02 0.  0.
         13    1    3    3    0    0 -0.48883883314E+02  0.85070466546E+01 -0.31883041860E+02  0.58979177791E+02  0.10566000000E+00 0.  1.
         22    1    1    0    0    0  0.23480353920E+02 -0.15967441546E+02  0.60561101594E+01  0.29033819591E+02  0.00000000000E+00 0.  1.
</event>
<event>
 5    1  0.1766627E-003  0.9118800E+02  0.7818608E-02  0.1130116E+00
         25   -1    0    0    0    0  0.00000000000E+00  0.00000000000E+00  0.99999998245E-14  0.12500000000E+03  0.12500000000E+03 0.  0.
        -13    1    3    3    0    0  0.57313682996E+02  0.22930887126E+02 -0.31043713933E+01  0.61808835361E+02  0.10566000000E+00 0.  1.
         23    2    1    0    0    0  0.26083808139E+02  0.14751432573E+02 -0.67063703304E+01  0.94292587003E+02  0.89152379389E+02 0.  0.
         13    1    3    3    0    0 -0.31229874857E+02 -0.81794545534E+01 -0.36019989371E+01  0.32483751642E+02  0.10566000000E+00 0. -1.
         22    1    1    0    0    0 -0.26083808139E+02 -0.14751432573E+02  0.67063703304E+01  0.30707412997E+02  0.00000000000E+00 0.  1.
</event>
<event>
 5    1  0.1766627E-003  0.9118800E+02  0.7818608E-02  0.1130116E+00
         25   -1    0    0    0    0  0.00000000000E+00  0.00000000000E+00  0.99999998245E-14  0.12500000000E+03  0.12500000000E+03 0.  0.
        -13    1    3    3    0    0 -0.76724260328E+01  0.22232342240E+02  0.46531248129E+02  0.52137427816E+02  0.10566000000E+00 0. -1.
         23    2    1    0    0    0  0.14962524526E+02  0.19112207163E+02  0.40246194675E+01  0.10039611485E+03  0.97334622368E+02 0.  0.
         13    1    3    3    0    0  0.22634950558E+02 -0.31201350773E+01 -0.42506628662E+02  0.48258687031E+02  0.10566000000E+00 0.  1.
         22    1    1    0    0    0 -0.14962524526E+02 -0.19112207163E+02 -0.40246194675E+01  0.24603885154E+02  0.00000000000E+00 0.  1.
</event>
<event>
 5    1  0.1766627E-003  0.9118800E+02  0.7818608E-02  0.1130116E+00
         25   -1    0    0    0    0  0.00000000000E+00  0.00000000000E+00  0.99999998245E-14  0.12500000000E+03  0.12500000000E+03 0.  0.
        -13    1    3    3    0    0 -0.38270583299E+02 -0.75416203247E+00 -0.15608606652E+00  0.38278477416E+02  0.10566000000E+00 0.  1.
         23    2    1    0    0    0  0.12634706381E+02  0.12125369009E+02 -0.23458385333E+02  0.95726185398E+02  0.91140256470E+02 0.  0.
         13    1    3    3    0    0  0.50905289680E+02  0.12879531041E+02 -0.23302299267E+02  0.57447707982E+02  0.10566000000E+00 0. -1.
         22    1    1    0    0    0 -0.12634706381E+02 -0.12125369009E+02  0.23458385333E+02  0.29273814602E+02  0.00000000000E+00 0.  1.
</event>
<event>
 5    1  0.1766627E-003  0.9118800E+02  0.7818608E-02  0.1130116E+00
         25   -1    0    0    0    0  0.00000000000E+00  0.00000000000E+00  0.99999998245E-14  0.12500000000E+03  0.12500000000E+03 0.  0.
        -13    1    3    3    0    0  0.49312783410E+02 -0.30685052897E+02 -0.72780745821E+01  0.58534644550E+02  0.10566000000E+00 0.  1.
         23    2    1    0    0    0  0.13247776791E+02 -0.26551836225E+02 -0.50108638098E+01  0.94906606158E+02  0.90009174752E+02 0.  0.
         13    1    3    3    0    0 -0.36065006619E+02  0.41332166722E+01  0.22672107723E+01  0.36371961608E+02  0.10566000000E+00 0. -1.
         22    1    1    0    0    0 -0.13247776791E+02  0.26551836225E+02  0.50108638098E+01  0.30093393842E+02  0.00000000000E+00 0.  1.
</event>
<event>
 5    1  0.1766627E-003  0.9118800E+02  0.7818608E-02  0.1130116E+00
         25   -1    0    0    0    0  0.00000000000E+00  0.00000000000E+00  0.99999998245E-14  0.12500000000E+03  0.12500000000E+03 0.  0.
        -13    1    3    3    0    0  0.37471315653E+02 -0.64216193717E+01  0.42595213218E+02  0.57093782895E+02  0.10566000000E+00 0. -1.
         23    2    1    0    0    0  0.18347005705E+02 -0.19364488765E+02  0.11197086630E+02  0.96069552502E+02  0.91609978307E+02 0.  0.
         13    1    3    3    0    0 -0.19124309948E+02 -0.12942869393E+02 -0.31398126589E+02  0.38975769607E+02  0.10566000000E+00 0.  1.
         22    1    1    0    0    0 -0.18347005705E+02  0.19364488765E+02 -0.11197086630E+02  0.28930447498E+02  0.00000000000E+00 0. -1.
</event>
<event>
 5    1  0.1766627E-003  0.9118800E+02  0.7818608E-02  0.1130116E+00
         25   -1    0    0    0    0  0.00000000000E+00  0.00000000000E+00  0.99999998245E-14  0.12500000000E+03  0.12500000000E+03 0.  0.
        -13    1    3    3    0    0  0.29668082091E+02  0.37063475710E+02 -0.16931282637E+02  0.50404125054E+02  0.10566000000E+00 0. -1.
         23    2    1    0    0    0 -0.12761188586E+02  0.24673045427E+02 -0.11491065905E+02  0.94939199937E+02  0.90054427900E+02 0.  0.
         13    1    3    3    0    0 -0.42429270676E+02 -0.12390430283E+02  0.54402167321E+01  0.44535074883E+02  0.10566000000E+00 0.  1.
         22    1    1    0    0    0  0.12761188586E+02 -0.24673045427E+02  0.11491065905E+02  0.30060800063E+02  0.00000000000E+00 0. -1.
</event>
<event>
 5    1  0.1766627E-003  0.9118800E+02  0.7818608E-02  0.1130116E+00
         25   -1    0    0    0    0  0.00000000000E+00  0.00000000000E+00  0.99999998245E-14  0.12500000000E+03  0.12500000000E+03 0.  0.
        -13    1    3    3    0    0 -0.13510095370E+02  0.43090664986E+01  0.27171829051E+02  0.30649799168E+02  0.10566000000E+00 0.  1.
         23    2    1    0    0    0  0.23655126226E+02 -0.38402786930E+01 -0.21757556592E+02  0.92631743852E+02  0.86792487941E+02 0.  0.
         13    1    3    3    0    0  0.37165221596E+02 -0.81493451916E+01 -0.48929385643E+02  0.61981944684E+02  0.10566000000E+00 0. -1.
         22    1    1    0    0    0 -0.23655126226E+02  0.38402786930E+01  0.21757556592E+02  0.32368256148E+02  0.00000000000E+00 0. -1.
</event>
<event>
 5    1  0.1766627E-003  0.9118800E+02  0.7818608E-02  0.1130116E+00
         25   -1    0    0    0    0  0.00000000000E+00  0.00000000000E+00  0.99999998245E-14  0.12500000000E+03  0.12500000000E+03 0.  0.
        -13    1    3    3    0    0 -0.53079947350E+02  0.19432626439E+02 -0.24078893854E+02  0.61440313103E+02  0.10566000000E+00 0. -1.
         23    2    1    0    0    0 -0.20142517867E+02  0.15418808508E+02 -0.13485873715E+02  0.96271451974E+02  0.91885053156E+02 0.  0.
         13    1    3    3    0    0  0.32937429483E+02 -0.40138179307E+01  0.10593020138E+02  0.34831138870E+02  0.10566000000E+00 0.  1.
         22    1    1    0    0    0  0.20142517867E+02 -0.15418808508E+02  0.13485873715E+02  0.28728548026E+02  0.00000000000E+00 0. -1.
</event>
<event>
 5    1  0.1766627E-003  0.9118800E+02  0.7818608E-02  0.1130116E+00
         25   -1    0    0    0    0  0.00000000000E+00  0.00000000000E+00  0.99999998245E-14  0.12500000000E+03  0.12500000000E+03 0.  0.
        -13    1    3    3    0    0  0.12418087178E+02 -0.41366090863E+02  0.29892300107E+01  0.43293290734E+02  0.10566000000E+00 0.  1.
         23    2    1    0    0    0 -0.24548948188E+00  0.20678919593E+01  0.29297308184E+02  0.95628777536E+02  0.91006562312E+02 0.  0.
         13    1    3    3    0    0 -0.12663576659E+02  0.43433982822E+02  0.26308078173E+02  0.52335486802E+02  0.10566000000E+00 0. -1.
         22    1    1    0    0    0  0.24548948188E+00 -0.20678919593E+01 -0.29297308184E+02  0.29371222464E+02  0.00000000000E+00 0.  1.
</event>
<event>
 5    1  0.1766627E-003  0.9118800E+02  0.7818608E-02  0.1130116E+00
         25   -1    0    0    0    0  0.00000000000E+00  0.00000000000E+00  0.99999998245E-14  0.12500000000E+03  0.12500000000E+03 0.  0.
        -13    1    3    3    0    0  0.32915454439E+02 -0.19875580434E+02 -0.25978820893E+02  0.46404484024E+02  0.10566000000E+00 0.  1.
         23    2    1    0    0    0  0.23314348772E+02  0.93999103598E+01  0.13487093516E+02  0.96472489331E+02  0.92158137638E+02 0.  0.
         13    1    3    3    0    0 -0.96011056667E+01  0.29275490794E+02  0.39465914409E+02  0.50068005307E+02  0.10566000000E+00 0. -1.
         22    1    1    0    0    0 -0.23314348772E+02 -0.93999103598E+01 -0.13487093516E+02  0.28527510669E+02  0.00000000000E+00 0. -1.
</event>
<event>
 5    1  0.1766627E-003  0.9118800E+02  0.7818608E-02  0.1130116E+00
         25   -1    0    0    0    0  0.00000000000E+00  0.00000000000E+00  0.99999998245E-14  0.12500000000E+03  0.12500000000E+03 0.  0.
        -13    1    3    3    0    0  0.13860577728E+02  0.37675821221E+02  0.10924161877E+02  0.41604466063E+02  0.10566000000E+00 0.  1.
         23    2    1    0    0    0  0.17331830121E+02  0.49985978513E+01 -0.27467270799E+02  0.92139244060E+02  0.86080259148E+02 0.  0.
         13    1    3    3    0    0  0.34712523931E+01 -0.32677223370E+02 -0.38391432675E+02  0.50534777997E+02  0.10566000000E+00 0. -1.
         22    1    1    0    0    0 -0.17331830121E+02 -0.49985978513E+01  0.27467270799E+02  0.32860755940E+02  0.00000000000E+00 0.  1.
</event>
<event>
 5    1  0.1766627E-003  0.9118800E+02  0.7818608E-02  0.1130116E+00
         25   -1    0    0    0    0  0.00000000000E+00  0.00000000000E+00  0.99999998245E-14  0.12500000000E+03  0.12500000000E+03 0.  0.
        -13    1    3    3    0    0 -0.30762394564E+02  0.17832541983E+02  0.48514030309E+02  0.60149370518E+02  0.10566000000E+00 0. -1.
         23    2    1    0    0    0 -0.12437929310E+02 -0.32475011778E+01  0.25891285518E+02  0.96093132041E+02  0.91642146473E+02 0.  0.
         13    1    3    3    0    0  0.18324465253E+02 -0.21080043161E+02 -0.22622744791E+02  0.35943761523E+02  0.10566000000E+00 0.  1.
         22    1    1    0    0    0  0.12437929310E+02  0.32475011778E+01 -0.25891285518E+02  0.28906867959E+02  0.00000000000E+00 0. -1.
</event>
<event>
 5    1  0.1766627E-003  0.9118800E+02  0.7818608E-02  0.1130116E+00
         25   -1    0    0    0    0  0.00000000000E+00  0.00000000000E+00  0.99999998245E-14  0.12500000000E+03  0.12500000000E+03 0.  0.
        -13    1    3    3    0    0 -0.90885186584E-01  0.64788760765E+01 -0.38014455838E+02  0.38562859230E+02  0.10566000000E+00 0.  1.
         23    2    1    0    0    0 -0.24198773773E+02 -0.90786721948E+01  0.12217780249E+02  0.96411941389E+02  0.92075975951E+02 0.  0.
         13    1    3    3    0    0 -0.24107888586E+02 -0.15557548271E+02  0.50232236087E+02  0.57849082159E+02  0.10566000000E+00 0. -1.
         22    1    1    0    0    0  0.24198773773E+02  0.90786721948E+01 -0.12217780249E+02  0.28588058611E+02  0.00000000000E+00 0. -1.
</event>
<event>
 5    1  0.1766627E-003  0.9118800E+02  0.7818608E-02  0.1130116E+00
         25   -1    0    0    0    0  0.00000000000E+00  0.00000000000E+00  0.99999998245E-14  0.12500000000E+03  0.12500000000E+03 0.  0.
        -13    1    3    3    0    0  0.37078965931E+02 -0.27855826606E+02  0.20579779796E+02  0.50737907829E+02  0.10566000000E+00 0.  1.
         23    2    1    0    0    0  0.10871084236E+02 -0.23276531923E+02 -0.15066270123E+02  0.95217960005E+02  0.90440532956E+02 0.  0.
         13    1    3    3    0    0 -0.26207881695E+02  0.45792946826E+01 -0.35646049919E+02  0.44480052176E+02  0.10566000000E+00 0. -1.
         22    1    1    0    0    0 -0.10871084236E+02  0.23276531923E+02  0.15066270123E+02  0.29782039995E+02  0.00000000000E+00 0. -1.
</event>
<event>
 5    1  0.1766627E-003  0.9118800E+02  0.7818608E-02  0.1130116E+00
         25   -1    0    0    0    0  0.00000000000E+00  0.00000000000E+00  0.99999998245E-14  0.12500000000E+03  0.12500000000E+03 0.  0.
        -13    1    3    3    0    0 -0.31676547634E+02  0.51001359208E+02 -0.15448922437E+02  0.61993730970E+02  0.10566000000E+00 0.  1.
         23    2    1    0    0    0 -0.18179405483E+02  0.22360132096E+02 -0.11778216559E+02  0.93868140493E+02  0.88555265926E+02 0.  0.
         13    1    3    3    0    0  0.13497142152E+02 -0.28641227112E+02  0.36707058775E+01  0.31874409523E+02  0.10566000000E+00 0. -1.
         22    1    1    0    0    0  0.18179405483E+02 -0.22360132096E+02  0.11778216559E+02  0.31131859507E+02  0.00000000000E+00 0.  1.
</event>
<event>
 5    1  0.1766627E-003  0.9118800E+02  0.7818608E-02  0.1130116E+00
         25   -1    0    0    0    0  0.00000000000E+00  0.00000000000E+00  0.99999998245E-14  0.12500000000E+03  0.12500000000E+03 0.  0.
        -13    1    3    3    0    0 -0.12980805736E+02  0.18182370894E+02  0.24356311664E+02  0.33050582609E+02  0.10566000000E+00 0.  1.
         23    2    1    0    0    0 -0.21264061107E+02 -0.25333443504E+02 -0.11439154541E+02  0.90002887102E+02  0.82919972115E+02 0.  0.
         13    1    3    3    0    0 -0.82832553709E+01 -0.43515814398E+02 -0.35795466205E+02  0.56952304493E+02  0.10566000000E+00 0. -1.
         22    1    1    0    0    0  0.21264061107E+02  0.25333443504E+02  0.11439154541E+02  0.34997112898E+02  0.00000000000E+00 0. -1.
</event>
<event>
 5    1  0.1766627E-003  0.9118800E+02  0.7818608E-02  0.1130116E+00
         25   -1    0    0    0    0  0.00000000000E+00  0.00000000000E+00  0.99999998245E-14  0.12500000000E+03  0.12500000000E+03 0.  0.
        -13    1    3    3    0    0  0.14749902097E+02 -0.55452244061E+02  0.59470417418E+01  0.57687862265E+02  0.10566000000E+00 0. -1.
         23    2    1    0    0    0  0.44285015606E+01 -0.26518439942E+02 -0.14366645371E+02  0.94516565446E+02  0.89465867019E+02 0.  0.
         13    1    3    3    0    0 -0.10321400536E+02  0.28933804119E+02 -0.20313687112E+02  0.36828703180E+02  0.10566000000E+00 0.  1.
         22    1    1    0    0    0 -0.44285015606E+01  0.26518439942E+02  0.14366645371E+02  0.30483434554E+02  0.00000000000E+00 0. -1.
</event>
<event>
 5    1  0.1766627E-003  0.9118800E+02  0.7818608E-02  0.1130116E+00
         25   -1    0    0    0    0  0.00000000000E+00  0.00000000000E+00  0.99999998245E-14  0.12500000000E+03  0.12500000000E+03 0.  0.
        -13    1    3    3    0    0  0.18626353323E+02  0.36819555042E+02  0.14729351437E+02  0.43813076009E+02  0.10566000000E+00 0.  1.
         23    2    1    0    0    0  0.25978269345E+02 -0.55005721090E+01 -0.13498143292E+02  0.95211971465E+02  0.90432255673E+02 0.  0.
         13    1    3    3    0    0  0.73519160224E+01 -0.42320127151E+02 -0.28227494729E+02  0.51398895455E+02  0.10566000000E+00 0. -1.
         22    1    1    0    0    0 -0.25978269345E+02  0.55005721090E+01  0.13498143292E+02  0.29788028535E+02  0.00000000000E+00 0. -1.
</event>
<event>
 5    1  0.1766627E-003  0.9118800E+02  0.7818608E-02  0.1130116E+00
         25   -1    0    0    0    0  0.00000000000E+00  0.00000000000E+00  0.99999998245E-14  0.12500000000E+03  0.12500000000E+03 0.  0.
        -13    1    3    3    0    0 -0.21311150612E+02  0.35035387868E+02  0.37826888715E+02  0.55790036901E+02  0.10566000000E+00 0. -1.
         23    2    1    0    0    0  0.10877961278E+02  0.18238341013E+02  0.18016134574E+02  0.97151333435E+02  0.93074343182E+02 0.  0.
         13    1    3    3    0    0  0.32189111890E+02 -0.16797046855E+02 -0.19810754142E+02  0.41361296534E+02  0.10566000000E+00 0.  1.
         22    1    1    0    0    0 -0.10877961278E+02 -0.18238341013E+02 -0.18016134574E+02  0.27848666565E+02  0.00000000000E+00 0. -1.
</event>
<event>
 5    1  0.1766627E-003  0.9118800E+02  0.7818608E-02  0.1130116E+00
         25   -1    0    0    0    0  0.00000000000E+00  0.00000000000E+00  0.99999998245E-14  0.12500000000E+03  0.12500000000E+03 0.  0.
        -13    1    3    3    0    0 -0.49051751238E+02  0.10925169921E+02  0.19249188349E+01  0.50290656327E+02  0.10566000000E+00 0. -1.
         23    2    1    0    0    0 -0.78046731943E+01  0.15372698845E+02 -0.21111188495E+02  0.97743531536E+02  0.93866303240E+02 0.  0.
         13    1    3    3    0    0  0.41247078043E+02  0.44475289246E+01 -0.23036107330E+02  0.47452875209E+02  0.10566000000E+00 0.  1.
         22    1    1    0    0    0  0.78046731943E+01 -0.15372698845E+02  0.21111188495E+02  0.27256468464E+02  0.00000000000E+00 0. -1.
</event>
<event>
 5    1  0.1766627E-003  0.9118800E+02  0.7818608E-02  0.1130116E+00
         25   -1    0    0    0    0  0.00000000000E+00  0.00000000000E+00  0.99999998245E-14  0.12500000000E+03  0.12500000000E+03 0.  0.
        -13    1    3    3    0    0 -0.78380230599E+01 -0.19939395181E+02 -0.39968334067E+02  0.45348571948E+02  0.10566000000E+00 0. -1.
         23    2    1    0    0    0 -0.26912941603E+02  0.11864532103E+02 -0.74813380074E+01  0.94651293831E+02  0.89653909328E+02 0.  0.
         13    1    3    3    0    0 -0.19074918543E+02  0.31803927284E+02  0.32486996059E+02  0.49302721883E+02  0.10566000000E+00 0.  1.
         22    1    1    0    0    0  0.26912941603E+02 -0.11864532103E+02  0.74813380074E+01  0.30348706169E+02  0.00000000000E+00 0.  1.
</event>
<event>
 5    1  0.1766627E-003  0.9118800E+02  0.7818608E-02  0.1130116E+00
         25   -1    0    0    0    0  0.00000000000E+00  0.00000000000E+00  0.99999998245E-14  0.12500000000E+03  0.12500000000E+03 0.  0.
        -13    1    3    3    0    0  0.26409205826E+02  0.50051893476E+02 -0.85712558954E+01  0.57237363536E+02  0.10566000000E+00 0.  1.
         23    2    1    0    0    0  0.20213521544E+02  0.85380720089E+01 -0.13083148355E+02  0.99452908234E+02  0.96115696213E+02 0.  0.
         13    1    3    3    0    0 -0.61956842828E+01 -0.41513821467E+02 -0.45118924592E+01  0.42215544698E+02  0.10566000000E+00 0. -1.
         22    1    1    0    0    0 -0.20213521544E+02 -0.85380720089E+01  0.13083148355E+02  0.25547091766E+02  0.00000000000E+00 0.  1.
</event>
<event>
 5    1  0.1766627E-003  0.9118800E+02  0.7818608E-02  0.1130116E+00
         25   -1    0    0    0    0  0.00000000000E+00  0.00000000000E+00  0.99999998245E-14  0.12500000000E+03  0.12500000000E+03 0.  0.
        -13    1    3    3    0    0 -0.22492331201E+02  0.34529187925E+01  0.26473472777E+02  0.34909648179E+02  0.10566000000E+00 0.  1.
         23    2    1    0    0    0  0.18341047590E+02 -0.16935089043E+02 -0.14403187982E+02  0.96179120561E+02  0.91759359959E+02 0.  0.
         13    1    3    3    0    0  0.40833378792E+02 -0.20388007836E+02 -0.40876660760E+02  0.61269472382E+02  0.10566000000E+00 0. -1.
         22    1    1    0    0    0 -0.18341047590E+02  0.16935089043E+02  0.14403187982E+02  0.28820879439E+02  0.00000000000E+00 0. -1.
</event>
<event>
 5    1  0.1766627E-003  0.9118800E+02  0.7818608E-02  0.1130116E+00
         25   -1    0    0    0    0  0.00000000000E+00  0.00000000000E+00  0.99999998245E-14  0.12500000000E+03  0.12500000000E+03 0.  0.
        -13    1    3    3    0    0  0.56151391654E+01  0.48589543168E+02 -0.21872052744E+02  0.53580512767E+02  0.10566000000E+00 0.  1.
         23    2    1    0    0    0  0.70503075699E+01  0.60295803031E+01 -0.26979587685E+02  0.96470001277E+02  0.92154762868E+02 0.  0.
         13    1    3    3    0    0  0.14351684045E+01 -0.42559962865E+02 -0.51075349414E+01  0.42889488510E+02  0.10566000000E+00 0. -1.
         22    1    1    0    0    0 -0.70503075699E+01 -0.60295803031E+01  0.26979587685E+02  0.28529998723E+02  0.00000000000E+00 0.  1.
</event>
<event>
 5    1  0.1766627E-003  0.9118800E+02  0.7818608E-02  0.1130116E+00
         25   -1    0    0    0    0  0.00000000000E+00  0.00000000000E+00  0.99999998245E-14  0.12500000000E+03  0.12500000000E+03 0.  0.
        -13    1    3    3    0    0  0.22523885699E+02 -0.17787484666E+02  0.28748159272E+02  0.40622504394E+02  0.10566000000E+00 0.  1.
         23    2    1    0    0    0 -0.12563795853E+02 -0.24733459332E+02 -0.11940502984E+02  0.94797871130E+02  0.89858042392E+02 0.  0.
         13    1    3    3    0    0 -0.35087681552E+02 -0.69459746659E+01 -0.40688662256E+02  0.54175366736E+02  0.10566000000E+00 0. -1.
         22    1    1    0    0    0  0.12563795853E+02  0.24733459332E+02  0.11940502984E+02  0.30202128870E+02  0.00000000000E+00 0. -1.
</event>
<event>
 5    1  0.1766627E-003  0.9118800E+02  0.7818608E-02  0.1130116E+00
         25   -1    0    0    0    0  0.00000000000E+00  0.00000000000E+00  0.99999998245E-14  0.12500000000E+03  0.12500000000E+03 0.  0.
        -13    1    3    3    0    0  0.33385541507E+02 -0.63673230178E+01  0.36298718069E+02  0.49726705920E+02  0.10566000000E+00 0.  1.
         23    2    1    0    0    0  0.60341460051E+01 -0.27051170202E+02  0.37045199525E+01  0.97037521652E+02  0.92921366827E+02 0.  0.
         13    1    3    3    0    0 -0.27351395502E+02 -0.20683847184E+02 -0.32594198117E+02  0.47310815731E+02  0.10566000000E+00 0. -1.
         22    1    1    0    0    0 -0.60341460051E+01  0.27051170202E+02 -0.37045199525E+01  0.27962478348E+02  0.00000000000E+00 0. -1.
</event>
<event>
 5    1  0.1766627E-003  0.9118800E+02  0.7818608E-02  0.1130116E+00
         25   -1    0    0    0    0  0.00000000000E+00  0.00000000000E+00  0.99999998245E-14  0.12500000000E+03  0.12500000000E+03 0.  0.
        -13    1    3    3    0    0 -0.92861099920E+01  0.38294760428E+02 -0.29352293466E+02  0.49135413001E+02  0.10566000000E+00 0.  1.
         23    2    1    0    0    0 -0.26775910663E+02 -0.74031977137E+00 -0.15263681757E+02  0.94170185761E+02  0.88980595864E+02 0.  0.
         13    1    3    3    0    0 -0.17489800671E+02 -0.39035080199E+02  0.14088611709E+02  0.45034772761E+02  0.10566000000E+00 0. -1.
         22    1    1    0    0    0  0.26775910663E+02  0.74031977137E+00  0.15263681757E+02  0.30829814239E+02  0.00000000000E+00 0.  1.
</event>
<event>
 5    1  0.1766627E-003  0.9118800E+02  0.7818608E-02  0.1130116E+00
         25   -1    0    0    0    0  0.00000000000E+00  0.00000000000E+00  0.99999998245E-14  0.12500000000E+03  0.12500000000E+03 0.  0.
        -13    1    3    3    0    0 -0.12489977315E+02  0.35381405294E+02  0.65950899817E+01  0.38096584490E+02  0.10566000000E+00 0.  1.
         23    2    1    0    0    0  0.24808845428E+02 -0.10540524522E+02  0.65615163864E+01  0.97257704385E+02  0.93217091224E+02 0.  0.
         13    1    3    3    0    0  0.37298822743E+02 -0.45921929816E+02 -0.33573595279E-01  0.59161119895E+02  0.10566000000E+00 0. -1.
         22    1    1    0    0    0 -0.24808845428E+02  0.10540524522E+02 -0.65615163864E+01  0.27742295615E+02  0.00000000000E+00 0. -1.
</event>
<event>
 5    1  0.1766627E-003  0.9118800E+02  0.7818608E-02  0.1130116E+00
         25   -1    0    0    0    0  0.00000000000E+00  0.00000000000E+00  0.99999998245E-14  0.12500000000E+03  0.12500000000E+03 0.  0.
        -13    1    3    3    0    0 -0.48274250720E+02 -0.34805708745E+02  0.94182203238E+01  0.60254084359E+02  0.10566000000E+00 0. -1.
         23    2    1    0    0    0 -0.29114057401E+02 -0.67910144983E+01  0.17294902687E+01  0.95054426823E+02  0.90214226737E+02 0.  0.
         13    1    3    3    0    0  0.19160193319E+02  0.28014694247E+02 -0.76887300551E+01  0.34800342464E+02  0.10566000000E+00 0.  1.
         22    1    1    0    0    0  0.29114057401E+02  0.67910144983E+01 -0.17294902687E+01  0.29945573177E+02  0.00000000000E+00 0. -1.
</event>
<event>
 5    1  0.1766627E-003  0.9118800E+02  0.7818608E-02  0.1130116E+00
         25   -1    0    0    0    0  0.00000000000E+00  0.00000000000E+00  0.99999998245E-14  0.12500000000E+03  0.12500000000E+03 0.  0.
        -13    1    3    3    0    0  0.34820832118E+02  0.33720208282E+01 -0.16500304202E+02  0.38679866554E+02  0.10566000000E+00 0.  1.
         23    2    1    0    0    0 -0.20541465472E+02  0.16239277847E+02 -0.13357238609E+02  0.95604732149E+02  0.90973529322E+02 0.  0.
         13    1    3    3    0    0 -0.55362297590E+02  0.12867257019E+02  0.31430655931E+01  0.56924865595E+02  0.10566000000E+00 0. -1.
         22    1    1    0    0    0  0.20541465472E+02 -0.16239277847E+02  0.13357238609E+02  0.29395267851E+02  0.00000000000E+00 0. -1.
</event>
<event>
 5    1  0.1766627E-003  0.9118800E+02  0.7818608E-02  0.1130116E+00
         25   -1    0    0    0    0  0.00000000000E+00  0.00000000000E+00  0.99999998245E-14  0.12500000000E+03  0.12500000000E+03 0.  0.
        -13    1    3    3    0    0 -0.17929262284E+02 -0.43389408090E+01 -0.27081807983E+02  0.32767672194E+02  0.10566000000E+00 0.  1.
         23    2    1    0    0    0  0.29927493668E+02  0.44895277910E+01  0.90889728494E+01  0.93402212665E+02  0.87895125952E+02 0.  0.
         13    1    3    3    0    0  0.47856755952E+02  0.88284685999E+01  0.36170780832E+02  0.60634540471E+02  0.10566000000E+00 0. -1.
         22    1    1    0    0    0 -0.29927493668E+02 -0.44895277910E+01 -0.90889728494E+01  0.31597787335E+02  0.00000000000E+00 0. -1.
</event>
<event>
 5    1  0.1766627E-003  0.9118800E+02  0.7818608E-02  0.1130116E+00
         25   -1    0    0    0    0  0.00000000000E+00  0.00000000000E+00  0.99999998245E-14  0.12500000000E+03  0.12500000000E+03 0.  0.
        -13    1    3    3    0    0 -0.34321719516E+02 -0.33025426439E+01 -0.21381978801E+02  0.40572002661E+02  0.10566000000E+00 0. -1.
         23    2    1    0    0    0 -0.70827370273E+01  0.41919420770E+01  0.27096165781E+02  0.96681459391E+02  0.92441142614E+02 0.  0.
         13    1    3    3    0    0  0.27238982489E+02  0.74944847208E+01  0.48478144582E+02  0.56109456729E+02  0.10566000000E+00 0.  1.
         22    1    1    0    0    0  0.70827370273E+01 -0.41919420770E+01 -0.27096165781E+02  0.28318540609E+02  0.00000000000E+00 0.  1.
</event>
<event>
 5    1  0.1766627E-003  0.9118800E+02  0.7818608E-02  0.1130116E+00
         25   -1    0    0    0    0  0.00000000000E+00  0.00000000000E+00  0.99999998245E-14  0.12500000000E+03  0.12500000000E+03 0.  0.
        -13    1    3    3    0    0  0.58528529482E+01  0.46401876768E+02 -0.12266349844E+02  0.48351469034E+02  0.10566000000E+00 0.  1.
         23    2    1    0    0    0 -0.10268325480E+02  0.43338341129E+01 -0.27031709278E+02  0.95760746713E+02  0.91187645425E+02 0.  0.
         13    1    3    3    0    0 -0.16121178428E+02 -0.42068042655E+02 -0.14765359434E+02  0.47409277679E+02  0.10566000000E+00 0. -1.
         22    1    1    0    0    0  0.10268325480E+02 -0.43338341129E+01  0.27031709278E+02  0.29239253287E+02  0.00000000000E+00 0.  1.
</event>
<event>
 5    1  0.1766627E-003  0.9118800E+02  0.7818608E-02  0.1130116E+00
         25   -1    0    0    0    0  0.00000000000E+00  0.00000000000E+00  0.99999998245E-14  0.12500000000E+03  0.12500000000E+03 0.  0.
        -13    1    3    3    0    0 -0.53377804540E+02 -0.19286205636E+02 -0.21636567052E+02  0.60739607697E+02  0.10566000000E+00 0. -1.
         23    2    1    0    0    0 -0.24963927614E+02  0.91878806774E+00 -0.13746516886E+02  0.96486694686E+02  0.92177403258E+02 0.  0.
         13    1    3    3    0    0  0.28413876926E+02  0.20204993703E+02  0.78900501661E+01  0.35747086989E+02  0.10566000000E+00 0.  1.
         22    1    1    0    0    0  0.24963927614E+02 -0.91878806774E+00  0.13746516886E+02  0.28513305314E+02  0.00000000000E+00 0. -1.
</event>
<event>
 5    1  0.1766627E-003  0.9118800E+02  0.7818608E-02  0.1130116E+00
         25   -1    0    0    0    0  0.00000000000E+00  0.00000000000E+00  0.99999998245E-14  0.12500000000E+03  0.12500000000E+03 0.  0.
        -13    1    3    3    0    0 -0.32393273739E+02  0.12040556307E+02  0.13264010539E+02  0.37016811307E+02  0.10566000000E+00 0.  1.
         23    2    1    0    0    0  0.19872636177E+02  0.14185890865E+02  0.24380911315E+02  0.90495072746E+02  0.83658640836E+02 0.  0.
         13    1    3    3    0    0  0.52265909915E+02  0.21453345589E+01  0.11116900776E+02  0.53478261439E+02  0.10566000000E+00 0. -1.
         22    1    1    0    0    0 -0.19872636177E+02 -0.14185890865E+02 -0.24380911315E+02  0.34504927254E+02  0.00000000000E+00 0. -1.
</event>
<event>
 5    1  0.1766627E-003  0.9118800E+02  0.7818608E-02  0.1130116E+00
         25   -1    0    0    0    0  0.00000000000E+00  0.00000000000E+00  0.99999998245E-14  0.12500000000E+03  0.12500000000E+03 0.  0.
        -13    1    3    3    0    0 -0.18175167828E+02  0.51030233503E+02  0.10350268739E+02  0.55150346181E+02  0.10566000000E+00 0. -1.
         23    2    1    0    0    0 -0.18564559439E+02  0.17577190266E+02 -0.13358316256E+02  0.96154808061E+02  0.91726234062E+02 0.  0.
         13    1    3    3    0    0 -0.38939161038E+00 -0.33453043236E+02 -0.23708584994E+02  0.41004461880E+02  0.10566000000E+00 0.  1.
         22    1    1    0    0    0  0.18564559439E+02 -0.17577190266E+02  0.13358316256E+02  0.28845191939E+02  0.00000000000E+00 0. -1.
</event>
<event>
 5    1  0.1766627E-003  0.9118800E+02  0.7818608E-02  0.1130116E+00
         25   -1    0    0    0    0  0.00000000000E+00  0.00000000000E+00  0.99999998245E-14  0.12500000000E+03  0.12500000000E+03 0.  0.
        -13    1    3    3    0    0 -0.80974099902E+01  0.34643527010E+01  0.47347471510E+02  0.48159775857E+02  0.10566000000E+00 0.  1.
         23    2    1    0    0    0  0.16341510171E+02  0.21585117017E+02  0.10457391941E+02  0.95977262750E+02  0.91483964100E+02 0.  0.
         13    1    3    3    0    0  0.24438920161E+02  0.18120764316E+02 -0.36890079569E+02  0.47817486892E+02  0.10566000000E+00 0. -1.
         22    1    1    0    0    0 -0.16341510171E+02 -0.21585117017E+02 -0.10457391941E+02  0.29022737250E+02  0.00000000000E+00 0.  1.
</event>
<event>
 5    1  0.1766627E-003  0.9118800E+02  0.7818608E-02  0.1130116E+00
         25   -1    0    0    0    0  0.00000000000E+00  0.00000000000E+00  0.99999998245E-14  0.12500000000E+03  0.12500000000E+03 0.  0.
        -13    1    3    3    0    0  0.44506753055E+02  0.40180193723E+02  0.64402397095E+01  0.60305778219E+02  0.10566000000E+00 0. -1.
         23    2    1    0    0    0  0.27112098773E+02  0.13902995771E+02 -0.55626991927E+01  0.94027386071E+02  0.88779764124E+02 0.  0.
         13    1    3    3    0    0 -0.17394654282E+02 -0.26277197952E+02 -0.12002938902E+02  0.33721607852E+02  0.10566000000E+00 0.  1.
         22    1    1    0    0    0 -0.27112098773E+02 -0.13902995771E+02  0.55626991927E+01  0.30972613929E+02  0.00000000000E+00 0. -1.
</event>
<event>
 5    1  0.1766627E-003  0.9118800E+02  0.7818608E-02  0.1130116E+00
         25   -1    0    0    0    0  0.00000000000E+00  0.00000000000E+00  0.99999998245E-14  0.12500000000E+03  0.12500000000E+03 0.  0.
        -13    1    3    3    0    0 -0.39940921242E+02 -0.16186539394E+02  0.91962457592E+01  0.44066578575E+02  0.10566000000E+00 0. -1.
         23    2    1    0    0    0  0.10450248918E+02 -0.21991550817E+02  0.16884197183E+02  0.95370418088E+02  0.90651003977E+02 0.  0.
         13    1    3    3    0    0  0.50391170160E+02 -0.58050114226E+01  0.76879514238E+01  0.51303839513E+02  0.10566000000E+00 0.  1.
         22    1    1    0    0    0 -0.10450248918E+02  0.21991550817E+02 -0.16884197183E+02  0.29629581912E+02  0.00000000000E+00 0.  1.
</event>
<event>
 5    1  0.1766627E-003  0.9118800E+02  0.7818608E-02  0.1130116E+00
         25   -1    0    0    0    0  0.00000000000E+00  0.00000000000E+00  0.99999998245E-14  0.12500000000E+03  0.12500000000E+03 0.  0.
        -13    1    3    3    0    0  0.15100874698E+01 -0.49227890261E+02  0.21264275251E+02  0.53645560018E+02  0.10566000000E+00 0.  1.
         23    2    1    0    0    0  0.13802192706E+02 -0.13095206475E+02  0.26718380004E+02  0.92199744115E+02  0.86168068498E+02 0.  0.
         13    1    3    3    0    0  0.12292105236E+02  0.36132683785E+02  0.54541047524E+01  0.38554184096E+02  0.10566000000E+00 0. -1.
         22    1    1    0    0    0 -0.13802192706E+02  0.13095206475E+02 -0.26718380004E+02  0.32800255885E+02  0.00000000000E+00 0. -1.
</event>
<event>
 5    1  0.1766627E-003  0.9118800E+02  0.7818608E-02  0.1130116E+00
         25   -1    0    0    0    0  0.00000000000E+00  0.00000000000E+00  0.99999998245E-14  0.12500000000E+03  0.12500000000E+03 0.  0.
        -13    1    3    3    0    0  0.17230518973E+02  0.27740647537E+02 -0.25612740297E+02  0.41502505218E+02  0.10566000000E+00 0.  1.
         23    2    1    0    0    0  0.21262789351E+02 -0.16728136703E+02  0.73058073662E+01  0.96976588541E+02  0.92839361993E+02 0.  0.
         13    1    3    3    0    0  0.40322703779E+01 -0.44468784240E+02  0.32918547663E+02  0.55474083323E+02  0.10566000000E+00 0. -1.
         22    1    1    0    0    0 -0.21262789351E+02  0.16728136703E+02 -0.73058073662E+01  0.28023411459E+02  0.00000000000E+00 0. -1.
</event>
<event>
 5    1  0.1766627E-003  0.9118800E+02  0.7818608E-02  0.1130116E+00
         25   -1    0    0    0    0  0.00000000000E+00  0.00000000000E+00  0.99999998245E-14  0.12500000000E+03  0.12500000000E+03 0.  0.
        -13    1    3    3    0    0  0.21768372456E+02 -0.51882282388E+02  0.37035046312E+01  0.56385817151E+02  0.10566000000E+00 0. -1.
         23    2    1    0    0    0 -0.47360920332E+01 -0.25586967805E+02 -0.11309813756E+02  0.96626854662E+02  0.92367275945E+02 0.  0.
         13    1    3    3    0    0 -0.26504464489E+02  0.26295314584E+02 -0.15013318387E+02  0.40241037511E+02  0.10566000000E+00 0.  1.
         22    1    1    0    0    0  0.47360920332E+01  0.25586967805E+02  0.11309813756E+02  0.28373145338E+02  0.00000000000E+00 0. -1.
</event>
<event>
 5    1  0.1766627E-003  0.9118800E+02  0.7818608E-02  0.1130116E+00
         25   -1    0    0    0    0  0.00000000000E+00  0.00000000000E+00  0.99999998245E-14  0.12500000000E+03  0.12500000000E+03 0.  0.
        -13    1    3    3    0    0  0.95033173617E+01  0.35489680520E+02 -0.14015167263E+02  0.39322595817E+02  0.10566000000E+00 0. -1.
         23    2    1    0    0    0 -0.16328012089E+02  0.16365321481E+01  0.23677955911E+02  0.96191532280E+02  0.91776266377E+02 0.  0.
         13    1    3    3    0    0 -0.25831329450E+02 -0.33853148372E+02  0.37693123174E+02  0.56868936464E+02  0.10566000000E+00 0.  1.
         22    1    1    0    0    0  0.16328012089E+02 -0.16365321481E+01 -0.23677955911E+02  0.28808467720E+02  0.00000000000E+00 0.  1.
</event>
<event>
 5    1  0.1766627E-003  0.9118800E+02  0.7818608E-02  0.1130116E+00
         25   -1    0    0    0    0  0.00000000000E+00  0.00000000000E+00  0.99999998245E-14  0.12500000000E+03  0.12500000000E+03 0.  0.
        -13    1    3    3    0    0 -0.18051031281E+02  0.25764573375E+02  0.53059247266E+02  0.61684259386E+02  0.10566000000E+00 0. -1.
         23    2    1    0    0    0 -0.20332051550E+01  0.10226823966E+02  0.27360661718E+02  0.95719841850E+02  0.91131555800E+02 0.  0.
         13    1    3    3    0    0  0.16017826126E+02 -0.15537749409E+02 -0.25698585548E+02  0.34035582465E+02  0.10566000000E+00 0.  1.
         22    1    1    0    0    0  0.20332051550E+01 -0.10226823966E+02 -0.27360661718E+02  0.29280158150E+02  0.00000000000E+00 0. -1.
</event>
<event>
 5    1  0.1766627E-003  0.9118800E+02  0.7818608E-02  0.1130116E+00
         25   -1    0    0    0    0  0.00000000000E+00  0.00000000000E+00  0.99999998245E-14  0.12500000000E+03  0.12500000000E+03 0.  0.
        -13    1    3    3    0    0 -0.38171378009E+02  0.74739603046E+01  0.18997588474E+02  0.43287800979E+02  0.10566000000E+00 0.  1.
         23    2    1    0    0    0  0.13274366173E+02  0.11757705396E+02 -0.12079336274E+02  0.10354393330E+03  0.10129651191E+03 0.  0.
         13    1    3    3    0    0  0.51445744181E+02  0.42837450912E+01 -0.31076924748E+02  0.60256132320E+02  0.10566000000E+00 0. -1.
         22    1    1    0    0    0 -0.13274366173E+02 -0.11757705396E+02  0.12079336274E+02  0.21456066701E+02  0.00000000000E+00 0. -1.
</event>
<event>
 5    1  0.1766627E-003  0.9118800E+02  0.7818608E-02  0.1130116E+00
         25   -1    0    0    0    0  0.00000000000E+00  0.00000000000E+00  0.99999998245E-14  0.12500000000E+03  0.12500000000E+03 0.  0.
        -13    1    3    3    0    0  0.32450928835E+00 -0.34960757657E+02  0.52860906479E+01  0.35359776591E+02  0.10566000000E+00 0.  1.
         23    2    1    0    0    0 -0.23254604076E+02  0.19065501656E+02 -0.25269807243E+01  0.94822929305E+02  0.89892893637E+02 0.  0.
         13    1    3    3    0    0 -0.23579113364E+02  0.54026259313E+02 -0.78130713722E+01  0.59463152714E+02  0.10566000000E+00 0. -1.
         22    1    1    0    0    0  0.23254604076E+02 -0.19065501656E+02  0.25269807243E+01  0.30177070695E+02  0.00000000000E+00 0. -1.
</event>
<event>
 5    1  0.1766627E-003  0.9118800E+02  0.7818608E-02  0.1130116E+00
         25   -1    0    0    0    0  0.00000000000E+00  0.00000000000E+00  0.99999998245E-14  0.12500000000E+03  0.12500000000E+03 0.  0.
        -13    1    3    3    0    0  0.75939807380E+01  0.36879311268E+02  0.19911831508E+01  0.37705810128E+02  0.10566000000E+00 0. -1.
         23    2    1    0    0    0 -0.34162401719E-01 -0.13378092445E+02 -0.26017473239E+02  0.95744514390E+02  0.91165391446E+02 0.  0.
         13    1    3    3    0    0 -0.76281431397E+01 -0.50257403712E+02 -0.28008656390E+02  0.58038704262E+02  0.10566000000E+00 0.  1.
         22    1    1    0    0    0  0.34162401719E-01  0.13378092445E+02  0.26017473239E+02  0.29255485610E+02  0.00000000000E+00 0.  1.
</event>
<event>
 5    1  0.1766627E-003  0.9118800E+02  0.7818608E-02  0.1130116E+00
         25   -1    0    0    0    0  0.00000000000E+00  0.00000000000E+00  0.99999998245E-14  0.12500000000E+03  0.12500000000E+03 0.  0.
        -13    1    3    3    0    0  0.47311354756E+02  0.34345850871E+02  0.19345206039E+02  0.61581246509E+02  0.10566000000E+00 0. -1.
         23    2    1    0    0    0  0.17458586798E+02  0.18255617011E+02  0.14598603837E+02  0.95824855794E+02  0.91275483831E+02 0.  0.
         13    1    3    3    0    0 -0.29852767958E+02 -0.16090233860E+02 -0.47466022022E+01  0.34243609286E+02  0.10566000000E+00 0.  1.
         22    1    1    0    0    0 -0.17458586798E+02 -0.18255617011E+02 -0.14598603837E+02  0.29175144206E+02  0.00000000000E+00 0. -1.
</event>
<event>
 5    1  0.1766627E-003  0.9118800E+02  0.7818608E-02  0.1130116E+00
         25   -1    0    0    0    0  0.00000000000E+00  0.00000000000E+00  0.99999998245E-14  0.12500000000E+03  0.12500000000E+03 0.  0.
        -13    1    3    3    0    0  0.36303781821E+02  0.21823719617E+02  0.23725551262E+02  0.48550512450E+02  0.10566000000E+00 0.  1.
         23    2    1    0    0    0 -0.38232229022E+01 -0.48727984525E+01  0.27420856685E+02  0.96888355092E+02  0.92720487342E+02 0.  0.
         13    1    3    3    0    0 -0.40127004723E+02 -0.26696518070E+02  0.36953054227E+01  0.48337842642E+02  0.10566000000E+00 0. -1.
         22    1    1    0    0    0  0.38232229022E+01  0.48727984525E+01 -0.27420856685E+02  0.28111644908E+02  0.00000000000E+00 0.  1.
</event>
<event>
 5    1  0.1766627E-003  0.9118800E+02  0.7818608E-02  0.1130116E+00
         25   -1    0    0    0    0  0.00000000000E+00  0.00000000000E+00  0.99999998245E-14  0.12500000000E+03  0.12500000000E+03 0.  0.
        -13    1    3    3    0    0  0.14700710713E+02  0.19709230846E+02  0.32951982830E+02  0.41114583939E+02  0.10566000000E+00 0. -1.
         23    2    1    0    0    0  0.63543296129E+01 -0.23341916248E+02 -0.63360626661E+01  0.99992636103E+02  0.96815076438E+02 0.  0.
         13    1    3    3    0    0 -0.83463810999E+01 -0.43051147095E+02 -0.39288045496E+02  0.58878052164E+02  0.10566000000E+00 0.  1.
         22    1    1    0    0    0 -0.63543296129E+01  0.23341916248E+02  0.63360626661E+01  0.25007363897E+02  0.00000000000E+00 0.  1.
</event>
<event>
 5    1  0.1766627E-003  0.9118800E+02  0.7818608E-02  0.1130116E+00
         25   -1    0    0    0    0  0.00000000000E+00  0.00000000000E+00  0.99999998245E-14  0.12500000000E+03  0.12500000000E+03 0.  0.
        -13    1    3    3    0    0 -0.24953702187E+02 -0.26835476076E+02 -0.10201090314E+02  0.38038183930E+02  0.10566000000E+00 0.  1.
         23    2    1    0    0    0  0.15815801452E+02  0.17163459630E+02 -0.13363916459E+02  0.98105424615E+02  0.94346998647E+02 0.  0.
         13    1    3    3    0    0  0.40769503639E+02  0.43998935706E+02 -0.31628261452E+01  0.60067240685E+02  0.10566000000E+00 0. -1.
         22    1    1    0    0    0 -0.15815801452E+02 -0.17163459630E+02  0.13363916459E+02  0.26894575385E+02  0.00000000000E+00 0. -1.
</event>
<event>
 5    1  0.1766627E-003  0.9118800E+02  0.7818608E-02  0.1130116E+00
         25   -1    0    0    0    0  0.00000000000E+00  0.00000000000E+00  0.99999998245E-14  0.12500000000E+03  0.12500000000E+03 0.  0.
        -13    1    3    3    0    0  0.28328863790E+02 -0.22702565618E+02 -0.44836122152E+02  0.57690727356E+02  0.10566000000E+00 0.  1.
         23    2    1    0    0    0  0.52379730227E+01 -0.25449397107E+02 -0.17054575166E+02  0.93919995036E+02  0.88628430873E+02 0.  0.
         13    1    3    3    0    0 -0.23090890767E+02 -0.27468314884E+01  0.27781546985E+02  0.36229267679E+02  0.10566000000E+00 0. -1.
         22    1    1    0    0    0 -0.52379730227E+01  0.25449397107E+02  0.17054575166E+02  0.31080004964E+02  0.00000000000E+00 0.  1.
</event>
<event>
 5    1  0.1766627E-003  0.9118800E+02  0.7818608E-02  0.1130116E+00
         25   -1    0    0    0    0  0.00000000000E+00  0.00000000000E+00  0.99999998245E-14  0.12500000000E+03  0.12500000000E+03 0.  0.
        -13    1    3    3    0    0 -0.46065588899E+02 -0.29870014827E+01  0.96668760970E+01  0.47163760622E+02  0.10566000000E+00 0. -1.
         23    2    1    0    0    0 -0.16901172618E+01 -0.15617824624E+02  0.24733357745E+02  0.95699625810E+02  0.91103822381E+02 0.  0.
         13    1    3    3    0    0  0.44375471637E+02 -0.12630823141E+02  0.15066481648E+02  0.48535865188E+02  0.10566000000E+00 0.  1.
         22    1    1    0    0    0  0.16901172618E+01  0.15617824624E+02 -0.24733357745E+02  0.29300374190E+02  0.00000000000E+00 0. -1.
</event>
<event>
 5    1  0.1766627E-003  0.9118800E+02  0.7818608E-02  0.1130116E+00
         25   -1    0    0    0    0  0.00000000000E+00  0.00000000000E+00  0.99999998245E-14  0.12500000000E+03  0.12500000000E+03 0.  0.
        -13    1    3    3    0    0 -0.25945458677E+02 -0.11529498310E+02  0.34304685972E+02  0.44529976430E+02  0.10566000000E+00 0.  1.
         23    2    1    0    0    0  0.17574315377E+02 -0.21855704808E+02  0.14099212093E+02  0.93610253660E+02  0.88190495038E+02 0.  0.
         13    1    3    3    0    0  0.43519774054E+02 -0.10326206498E+02 -0.20205473879E+02  0.49080277230E+02  0.10566000000E+00 0. -1.
         22    1    1    0    0    0 -0.17574315377E+02  0.21855704808E+02 -0.14099212093E+02  0.31389746340E+02  0.00000000000E+00 0. -1.
</event>
<event>
 5    1  0.1766627E-003  0.9118800E+02  0.7818608E-02  0.1130116E+00
         25   -1    0    0    0    0  0.00000000000E+00  0.00000000000E+00  0.99999998245E-14  0.12500000000E+03  0.12500000000E+03 0.  0.
        -13    1    3    3    0    0  0.78275479455E+01 -0.54372515968E+02 -0.12956628134E+02  0.56440467540E+02  0.10566000000E+00 0.  1.
         23    2    1    0    0    0  0.19226994347E+02 -0.15194824281E+02 -0.13033980979E+02  0.97243115147E+02  0.93197525647E+02 0.  0.
         13    1    3    3    0    0  0.11399446402E+02  0.39177691687E+02 -0.77352845579E-01  0.40802647607E+02  0.10566000000E+00 0. -1.
         22    1    1    0    0    0 -0.19226994347E+02  0.15194824281E+02  0.13033980979E+02  0.27756884853E+02  0.00000000000E+00 0.  1.
</event>
<event>
 5    1  0.1766627E-003  0.9118800E+02  0.7818608E-02  0.1130116E+00
         25   -1    0    0    0    0  0.00000000000E+00  0.00000000000E+00  0.99999998245E-14  0.12500000000E+03  0.12500000000E+03 0.  0.
        -13    1    3    3    0    0  0.23830805548E+02 -0.40325682136E+01 -0.39663716051E+02  0.46447717215E+02  0.10566000000E+00 0.  1.
         23    2    1    0    0    0 -0.10348439030E+02 -0.25126839305E+02 -0.11556412549E+02  0.95470372253E+02  0.90788727623E+02 0.  0.
         13    1    3    3    0    0 -0.34179244578E+02 -0.21094271092E+02  0.28107303502E+02  0.49022655038E+02  0.10566000000E+00 0. -1.
         22    1    1    0    0    0  0.10348439030E+02  0.25126839305E+02  0.11556412549E+02  0.29529627747E+02  0.00000000000E+00 0.  1.
</event>
<event>
 5    1  0.1766627E-003  0.9118800E+02  0.7818608E-02  0.1130116E+00
         25   -1    0    0    0    0  0.00000000000E+00  0.00000000000E+00  0.99999998245E-14  0.12500000000E+03  0.12500000000E+03 0.  0.
        -13    1    3    3    0    0  0.88029242747E+01 -0.11344010624E+02 -0.32385380603E+02  0.35426008718E+02  0.10566000000E+00 0. -1.
         23    2    1    0    0    0  0.28756677527E+01  0.25564539517E+02  0.14562581634E+02  0.95438472137E+02  0.90744796183E+02 0.  0.
         13    1    3    3    0    0 -0.59272565220E+01  0.36908550141E+02  0.46947962237E+02  0.60012463419E+02  0.10566000000E+00 0.  1.
         22    1    1    0    0    0 -0.28756677527E+01 -0.25564539517E+02 -0.14562581634E+02  0.29561527863E+02  0.00000000000E+00 0.  1.
</event>
<event>
 5    1  0.1766627E-003  0.9118800E+02  0.7818608E-02  0.1130116E+00
         25   -1    0    0    0    0  0.00000000000E+00  0.00000000000E+00  0.99999998245E-14  0.12500000000E+03  0.12500000000E+03 0.  0.
        -13    1    3    3    0    0  0.21661113438E+02  0.39386325162E+02 -0.21290955651E+02  0.49737334083E+02  0.10566000000E+00 0.  1.
         23    2    1    0    0    0  0.27774859447E+02 -0.42491798579E+01 -0.72605064618E+01  0.95979088559E+02  0.91486458778E+02 0.  0.
         13    1    3    3    0    0  0.61137460094E+01 -0.43635505019E+02  0.14030449189E+02  0.46241754476E+02  0.10566000000E+00 0. -1.
         22    1    1    0    0    0 -0.27774859447E+02  0.42491798579E+01  0.72605064618E+01  0.29020911441E+02  0.00000000000E+00 0. -1.
</event>
<event>
 5    1  0.1766627E-003  0.9118800E+02  0.7818608E-02  0.1130116E+00
         25   -1    0    0    0    0  0.00000000000E+00  0.00000000000E+00  0.99999998245E-14  0.12500000000E+03  0.12500000000E+03 0.  0.
        -13    1    3    3    0    0 -0.35950345935E+02  0.40072655221E+02 -0.26819672692E+02  0.60146081141E+02  0.10566000000E+00 0.  1.
         23    2    1    0    0    0 -0.66410543501E+01  0.25426154519E+02 -0.12318686689E+02  0.95976854439E+02  0.91483406199E+02 0.  0.
         13    1    3    3    0    0  0.29309291585E+02 -0.14646500702E+02  0.14500986004E+02  0.35830773298E+02  0.10566000000E+00 0. -1.
         22    1    1    0    0    0  0.66410543501E+01 -0.25426154519E+02  0.12318686689E+02  0.29023145561E+02  0.00000000000E+00 0.  1.
</event>
<event>
 5    1  0.1766627E-003  0.9118800E+02  0.7818608E-02  0.1130116E+00
         25   -1    0    0    0    0  0.00000000000E+00  0.00000000000E+00  0.99999998245E-14  0.12500000000E+03  0.12500000000E+03 0.  0.
        -13    1    3    3    0    0  0.16714769853E+02 -0.24405635494E+02 -0.18082912892E+02  0.34670181393E+02  0.10566000000E+00 0.  1.
         23    2    1    0    0    0 -0.16814554536E+02  0.24169927475E+02 -0.72019016597E+01  0.94688582582E+02  0.89705884118E+02 0.  0.
         13    1    3    3    0    0 -0.33529324389E+02  0.48575562970E+02  0.10881011232E+02  0.60018401189E+02  0.10566000000E+00 0. -1.
         22    1    1    0    0    0  0.16814554536E+02 -0.24169927475E+02  0.72019016597E+01  0.30311417418E+02  0.00000000000E+00 0. -1.
</event>
<event>
 5    1  0.1766627E-003  0.9118800E+02  0.7818608E-02  0.1130116E+00
         25   -1    0    0    0    0  0.00000000000E+00  0.00000000000E+00  0.99999998245E-14  0.12500000000E+03  0.12500000000E+03 0.  0.
        -13    1    3    3    0    0 -0.23151294931E+02 -0.30567922892E+02 -0.39904447206E+02  0.55342175939E+02  0.10566000000E+00 0. -1.
         23    2    1    0    0    0 -0.30681940449E+01 -0.32440345439E+02 -0.10960829076E+02  0.90620796971E+02  0.83846283416E+02 0.  0.
         13    1    3    3    0    0  0.20083100886E+02 -0.18724225475E+01  0.28943618130E+02  0.35278621031E+02  0.10566000000E+00 0.  1.
         22    1    1    0    0    0  0.30681940449E+01  0.32440345439E+02  0.10960829076E+02  0.34379203029E+02  0.00000000000E+00 0. -1.
</event>
<event>
 5    1  0.1766627E-003  0.9118800E+02  0.7818608E-02  0.1130116E+00
         25   -1    0    0    0    0  0.00000000000E+00  0.00000000000E+00  0.99999998245E-14  0.12500000000E+03  0.12500000000E+03 0.  0.
        -13    1    3    3    0    0  0.28375005153E+02 -0.14503428534E+02 -0.47972696375E+02  0.57592370313E+02  0.10566000000E+00 0. -1.
         23    2    1    0    0    0  0.19901009312E+02  0.93508369740E+01 -0.20746548249E+02  0.94769095482E+02  0.89818004155E+02 0.  0.
         13    1    3    3    0    0 -0.84739958412E+01  0.23854265508E+02  0.27226148127E+02  0.37176725169E+02  0.10566000000E+00 0.  1.
         22    1    1    0    0    0 -0.19901009312E+02 -0.93508369740E+01  0.20746548249E+02  0.30230904518E+02  0.00000000000E+00 0. -1.
</event>
<event>
 5    1  0.1766627E-003  0.9118800E+02  0.7818608E-02  0.1130116E+00
         25   -1    0    0    0    0  0.00000000000E+00  0.00000000000E+00  0.99999998245E-14  0.12500000000E+03  0.12500000000E+03 0.  0.
        -13    1    3    3    0    0 -0.20837557885E+02 -0.41065941942E+01  0.56342174806E+02  0.60212289114E+02  0.10566000000E+00 0. -1.
         23    2    1    0    0    0 -0.19443273396E+02  0.10426097566E+00  0.19008986662E+02  0.97808212184E+02  0.93952397766E+02 0.  0.
         13    1    3    3    0    0  0.13942844894E+01  0.42108551699E+01 -0.37333188144E+02  0.37595923070E+02  0.10566000000E+00 0.  1.
         22    1    1    0    0    0  0.19443273396E+02 -0.10426097566E+00 -0.19008986662E+02  0.27191787816E+02  0.00000000000E+00 0. -1.
</event>
<event>
 5    1  0.1766627E-003  0.9118800E+02  0.7818608E-02  0.1130116E+00
         25   -1    0    0    0    0  0.00000000000E+00  0.00000000000E+00  0.99999998245E-14  0.12500000000E+03  0.12500000000E+03 0.  0.
        -13    1    3    3    0    0 -0.15273484741E+02 -0.31218333578E+02  0.36749155217E+01  0.34948245387E+02  0.10566000000E+00 0. -1.
         23    2    1    0    0    0  0.24041259368E+02  0.12368304907E+02 -0.11567693394E+02  0.95593051013E+02  0.90957477721E+02 0.  0.
         13    1    3    3    0    0  0.39314744109E+02  0.43586638485E+02 -0.15242608915E+02  0.60644805626E+02  0.10566000000E+00 0.  1.
         22    1    1    0    0    0 -0.24041259368E+02 -0.12368304907E+02  0.11567693394E+02  0.29406948987E+02  0.00000000000E+00 0.  1.
</event>
<event>
 5    1  0.1766627E-003  0.9118800E+02  0.7818608E-02  0.1130116E+00
         25   -1    0    0    0    0  0.00000000000E+00  0.00000000000E+00  0.99999998245E-14  0.12500000000E+03  0.12500000000E+03 0.  0.
        -13    1    3    3    0    0 -0.21476470071E+02 -0.18364718601E+02  0.28162148474E+02  0.39895105298E+02  0.10566000000E+00 0.  1.
         23    2    1    0    0    0  0.15420147912E+02  0.21009103316E+02  0.12592661465E+02  0.96056287271E+02  0.91591876374E+02 0.  0.
         13    1    3    3    0    0  0.36896617983E+02  0.39373821917E+02 -0.15569487010E+02  0.56161181973E+02  0.10566000000E+00 0. -1.
         22    1    1    0    0    0 -0.15420147912E+02 -0.21009103316E+02 -0.12592661465E+02  0.28943712729E+02  0.00000000000E+00 0. -1.
</event>
<event>
 5    1  0.1766627E-003  0.9118800E+02  0.7818608E-02  0.1130116E+00
         25   -1    0    0    0    0  0.00000000000E+00  0.00000000000E+00  0.99999998245E-14  0.12500000000E+03  0.12500000000E+03 0.  0.
        -13    1    3    3    0    0  0.33642294056E+02  0.11638249895E+02 -0.90572497770E+01  0.36732788453E+02  0.10566000000E+00 0.  1.
         23    2    1    0    0    0 -0.22849824369E+02  0.14241499699E+02  0.98019319350E+01  0.96346681570E+02  0.91987338219E+02 0.  0.
         13    1    3    3    0    0 -0.56492118425E+02  0.26032498043E+01  0.18859181712E+02  0.59613893117E+02  0.10566000000E+00 0. -1.
         22    1    1    0    0    0  0.22849824369E+02 -0.14241499699E+02 -0.98019319350E+01  0.28653318430E+02  0.00000000000E+00 0. -1.
</event>
<event>
 5    1  0.1766627E-003  0.9118800E+02  0.7818608E-02  0.1130116E+00
         25   -1    0    0    0    0  0.00000000000E+00  0.00000000000E+00  0.99999998245E-14  0.12500000000E+03  0.12500000000E+03 0.  0.
        -13    1    3    3    0    0  0.20525027461E+02  0.11694972770E+02  0.25395105113E+02  0.34683881964E+02  0.10566000000E+00 0.  1.
         23    2    1    0    0    0 -0.31002671617E+02 -0.12378533883E+01 -0.89647269135E+00  0.93959677971E+02  0.88684381334E+02 0.  0.
         13    1    3    3    0    0 -0.51527699078E+02 -0.12932826158E+02 -0.26291577804E+02  0.59275796006E+02  0.10566000000E+00 0. -1.
         22    1    1    0    0    0  0.31002671617E+02  0.12378533883E+01  0.89647269135E+00  0.31040322029E+02  0.00000000000E+00 0. -1.
</event>
<event>
 5    1  0.1766627E-003  0.9118800E+02  0.7818608E-02  0.1130116E+00
         25   -1    0    0    0    0  0.00000000000E+00  0.00000000000E+00  0.99999998245E-14  0.12500000000E+03  0.12500000000E+03 0.  0.
        -13    1    3    3    0    0 -0.33114320664E+02  0.28572605783E+02 -0.28504709480E+02  0.52206145814E+02  0.10566000000E+00 0. -1.
         23    2    1    0    0    0 -0.14455206137E+02  0.23289043445E+02  0.10405169229E+02  0.95681062848E+02  0.91078349304E+02 0.  0.
         13    1    3    3    0    0  0.18659114526E+02 -0.52835623376E+01  0.38909878709E+02  0.43474917033E+02  0.10566000000E+00 0.  1.
         22    1    1    0    0    0  0.14455206137E+02 -0.23289043445E+02 -0.10405169229E+02  0.29318937152E+02  0.00000000000E+00 0. -1.
</event>
<event>
 5    1  0.1766627E-003  0.9118800E+02  0.7818608E-02  0.1130116E+00
         25   -1    0    0    0    0  0.00000000000E+00  0.00000000000E+00  0.99999998245E-14  0.12500000000E+03  0.12500000000E+03 0.  0.
        -13    1    3    3    0    0  0.21251008164E+02 -0.17579427073E+02 -0.44402823742E+02  0.52271058192E+02  0.10566000000E+00 0.  1.
         23    2    1    0    0    0 -0.15317668447E+02 -0.69313259250E+01 -0.24612057340E+02  0.95193497148E+02  0.90406715940E+02 0.  0.
         13    1    3    3    0    0 -0.36568676611E+02  0.10648101148E+02  0.19790766402E+02  0.42922438956E+02  0.10566000000E+00 0. -1.
         22    1    1    0    0    0  0.15317668447E+02  0.69313259250E+01  0.24612057340E+02  0.29806502852E+02  0.00000000000E+00 0.  1.
</event>
<event>
 5    1  0.1766627E-003  0.9118800E+02  0.7818608E-02  0.1130116E+00
         25   -1    0    0    0    0  0.00000000000E+00  0.00000000000E+00  0.99999998245E-14  0.12500000000E+03  0.12500000000E+03 0.  0.
        -13    1    3    3    0    0 -0.21682136718E+02  0.31903971963E+02 -0.58079648264E+01  0.39009256582E+02  0.10566000000E+00 0.  1.
         23    2    1    0    0    0 -0.32035092784E+01 -0.18786922795E+02 -0.22525524517E+02  0.95493895639E+02  0.90821109384E+02 0.  0.
         13    1    3    3    0    0  0.18478627440E+02 -0.50690894757E+02 -0.16717559690E+02  0.56484639057E+02  0.10566000000E+00 0. -1.
         22    1    1    0    0    0  0.32035092784E+01  0.18786922795E+02  0.22525524517E+02  0.29506104361E+02  0.00000000000E+00 0. -1.
</event>
<event>
 5    1  0.1766627E-003  0.9118800E+02  0.7818608E-02  0.1130116E+00
         25   -1    0    0    0    0  0.00000000000E+00  0.00000000000E+00  0.99999998245E-14  0.12500000000E+03  0.12500000000E+03 0.  0.
        -13    1    3    3    0    0 -0.37910465460E+02 -0.11224552695E+02  0.10745704522E+02  0.40971640244E+02  0.10566000000E+00 0.  1.
         23    2    1    0    0    0 -0.43465660064E+01  0.25202603907E+02 -0.13456862956E+02  0.96101020081E+02  0.91652905138E+02 0.  0.
         13    1    3    3    0    0  0.33563899454E+02  0.36427156602E+02 -0.24202567477E+02  0.55129379837E+02  0.10566000000E+00 0. -1.
         22    1    1    0    0    0  0.43465660064E+01 -0.25202603907E+02  0.13456862956E+02  0.28898979919E+02  0.00000000000E+00 0. -1.
</event>
<event>
 5    1  0.1766627E-003  0.9118800E+02  0.7818608E-02  0.1130116E+00
         25   -1    0    0    0    0  0.00000000000E+00  0.00000000000E+00  0.99999998245E-14  0.12500000000E+03  0.12500000000E+03 0.  0.
        -13    1    3    3    0    0  0.89602268545E+01  0.22906739486E+02 -0.31672233238E+02  0.40101694496E+02  0.10566000000E+00 0.  1.
         23    2    1    0    0    0 -0.28201541743E+02 -0.53252334335E+00  0.37585440304E+01  0.96544118516E+02  0.92255241742E+02 0.  0.
         13    1    3    3    0    0 -0.37161768598E+02 -0.23439262830E+02  0.35430777268E+02  0.56442424019E+02  0.10566000000E+00 0. -1.
         22    1    1    0    0    0  0.28201541743E+02  0.53252334335E+00 -0.37585440304E+01  0.28455881484E+02  0.00000000000E+00 0. -1.
</event>
<event>
 5    1  0.1766627E-003  0.9118800E+02  0.7818608E-02  0.1130116E+00
         25   -1    0    0    0    0  0.00000000000E+00  0.00000000000E+00  0.99999998245E-14  0.12500000000E+03  0.12500000000E+03 0.  0.
        -13    1    3    3    0    0 -0.55487238719E+00  0.14093214602E+02 -0.18538324200E+02  0.23293930741E+02  0.10566000000E+00 0.  1.
         23    2    1    0    0    0 -0.11066980722E+02 -0.41731913704E+02 -0.69610252000E+01  0.81268014503E+02  0.68498201624E+02 0.  0.
         13    1    3    3    0    0 -0.10512108335E+02 -0.55825128305E+02  0.11577299000E+02  0.57974083763E+02  0.10566000000E+00 0. -1.
         22    1    1    0    0    0  0.11066980722E+02  0.41731913704E+02  0.69610252000E+01  0.43731985497E+02  0.00000000000E+00 0. -1.
</event>
<event>
 5    1  0.1766627E-003  0.9118800E+02  0.7818608E-02  0.1130116E+00
         25   -1    0    0    0    0  0.00000000000E+00  0.00000000000E+00  0.99999998245E-14  0.12500000000E+03  0.12500000000E+03 0.  0.
        -13    1    3    3    0    0 -0.76365385140E+01 -0.26478210119E+02  0.23336174266E+02  0.36110947440E+02  0.10566000000E+00 0.  1.
         23    2    1    0    0    0  0.35016454749E+00  0.76234431640E+01 -0.26724327898E+02  0.97207389426E+02  0.93149596653E+02 0.  0.
         13    1    3    3    0    0  0.79867030615E+01  0.34101653283E+02 -0.50060502164E+02  0.61096441987E+02  0.10566000000E+00 0. -1.
         22    1    1    0    0    0 -0.35016454749E+00 -0.76234431640E+01  0.26724327898E+02  0.27792610574E+02  0.00000000000E+00 0. -1.
</event>
<event>
 5    1  0.1766627E-003  0.9118800E+02  0.7818608E-02  0.1130116E+00
         25   -1    0    0    0    0  0.00000000000E+00  0.00000000000E+00  0.99999998245E-14  0.12500000000E+03  0.12500000000E+03 0.  0.
        -13    1    3    3    0    0  0.45927709071E+02 -0.31907483599E+02  0.11413937002E+02  0.57076537141E+02  0.10566000000E+00 0.  1.
         23    2    1    0    0    0  0.15424868246E+02 -0.12130237757E+02  0.22559482590E+02  0.95100175867E+02  0.90277593935E+02 0.  0.
         13    1    3    3    0    0 -0.30502840825E+02  0.19777245842E+02  0.11145545588E+02  0.38023638726E+02  0.10566000000E+00 0. -1.
         22    1    1    0    0    0 -0.15424868246E+02  0.12130237757E+02 -0.22559482590E+02  0.29899824133E+02  0.00000000000E+00 0.  1.
</event>
<event>
 5    1  0.1766627E-003  0.9118800E+02  0.7818608E-02  0.1130116E+00
         25   -1    0    0    0    0  0.00000000000E+00  0.00000000000E+00  0.99999998245E-14  0.12500000000E+03  0.12500000000E+03 0.  0.
        -13    1    3    3    0    0  0.29457715090E+02 -0.30527424161E+02 -0.29010017290E+02  0.51393315436E+02  0.10566000000E+00 0.  1.
         23    2    1    0    0    0  0.89825591098E+01  0.89505599259E+01 -0.26126646326E+02  0.95958640882E+02  0.91458516392E+02 0.  0.
         13    1    3    3    0    0 -0.20475155980E+02  0.39477984087E+02  0.28833709639E+01  0.44565325446E+02  0.10566000000E+00 0. -1.
         22    1    1    0    0    0 -0.89825591098E+01 -0.89505599259E+01  0.26126646326E+02  0.29041359118E+02  0.00000000000E+00 0. -1.
</event>
<event>
 5    1  0.1766627E-003  0.9118800E+02  0.7818608E-02  0.1130116E+00
         25   -1    0    0    0    0  0.00000000000E+00  0.00000000000E+00  0.99999998245E-14  0.12500000000E+03  0.12500000000E+03 0.  0.
        -13    1    3    3    0    0  0.27345125690E+02 -0.48427575185E+02  0.17638583839E+02  0.58344809034E+02  0.10566000000E+00 0.  1.
         23    2    1    0    0    0  0.18830257920E+02 -0.10960733997E+02  0.17952812193E+02  0.96768461453E+02  0.92558713060E+02 0.  0.
         13    1    3    3    0    0 -0.85148677698E+01  0.37466841188E+02  0.31422835365E+00  0.38423652419E+02  0.10566000000E+00 0. -1.
         22    1    1    0    0    0 -0.18830257920E+02  0.10960733997E+02 -0.17952812193E+02  0.28231538547E+02  0.00000000000E+00 0.  1.
</event>
<event>
 5    1  0.1766627E-003  0.9118800E+02  0.7818608E-02  0.1130116E+00
         25   -1    0    0    0    0  0.00000000000E+00  0.00000000000E+00  0.99999998245E-14  0.12500000000E+03  0.12500000000E+03 0.  0.
        -13    1    3    3    0    0  0.22156684789E+01 -0.28606102509E+01  0.32666829822E+02  0.32866779770E+02  0.10566000000E+00 0.  1.
         23    2    1    0    0    0  0.51268468125E+01  0.11459207888E+01 -0.29401698976E+02  0.95132666751E+02  0.90322570201E+02 0.  0.
         13    1    3    3    0    0  0.29111783336E+01  0.40065310398E+01 -0.62068528799E+02  0.62265886981E+02  0.10566000000E+00 0. -1.
         22    1    1    0    0    0 -0.51268468125E+01 -0.11459207888E+01  0.29401698976E+02  0.29867333249E+02  0.00000000000E+00 0. -1.
</event>
<event>
 5    1  0.1766627E-003  0.9118800E+02  0.7818608E-02  0.1130116E+00
         25   -1    0    0    0    0  0.00000000000E+00  0.00000000000E+00  0.99999998245E-14  0.12500000000E+03  0.12500000000E+03 0.  0.
        -13    1    3    3    0    0 -0.40514633789E+02 -0.16421400477E+02 -0.43913447761E+02  0.61963699075E+02  0.10566000000E+00 0.  1.
         23    2    1    0    0    0 -0.15220795578E+02 -0.11888781427E+02 -0.21897896219E+02  0.95801821963E+02  0.91243933995E+02 0.  0.
         13    1    3    3    0    0  0.25293838211E+02  0.45326190500E+01  0.22015551542E+02  0.33838122889E+02  0.10566000000E+00 0. -1.
         22    1    1    0    0    0  0.15220795578E+02  0.11888781427E+02  0.21897896219E+02  0.29198178037E+02  0.00000000000E+00 0.  1.
</event>
<event>
 5    1  0.1766627E-003  0.9118800E+02  0.7818608E-02  0.1130116E+00
         25   -1    0    0    0    0  0.00000000000E+00  0.00000000000E+00  0.99999998245E-14  0.12500000000E+03  0.12500000000E+03 0.  0.
        -13    1    3    3    0    0 -0.36587275754E+02 -0.26098102308E+02  0.19008775258E+02  0.48796356340E+02  0.10566000000E+00 0.  1.
         23    2    1    0    0    0 -0.19173068919E+02 -0.69696469692E+01 -0.20537837290E+02  0.96052024057E+02  0.91586057969E+02 0.  0.
         13    1    3    3    0    0  0.17414206835E+02  0.19128455339E+02 -0.39546612548E+02  0.47255667717E+02  0.10566000000E+00 0. -1.
         22    1    1    0    0    0  0.19173068919E+02  0.69696469692E+01  0.20537837290E+02  0.28947975943E+02  0.00000000000E+00 0.  1.
</event>
<event>
 5    1  0.1766627E-003  0.9118800E+02  0.7818608E-02  0.1130116E+00
         25   -1    0    0    0    0  0.00000000000E+00  0.00000000000E+00  0.99999998245E-14  0.12500000000E+03  0.12500000000E+03 0.  0.
        -13    1    3    3    0    0  0.45475782791E+02  0.77460531951E+01  0.19715165224E+02  0.50167191115E+02  0.10566000000E+00 0.  1.
         23    2    1    0    0    0  0.13800316091E+02 -0.23660861343E+02  0.48699362000E+01  0.97179120030E+02  0.93111653446E+02 0.  0.
         13    1    3    3    0    0 -0.31675466699E+02 -0.31406914538E+02 -0.14845229024E+02  0.47011928915E+02  0.10566000000E+00 0. -1.
         22    1    1    0    0    0 -0.13800316091E+02  0.23660861343E+02 -0.48699362000E+01  0.27820879970E+02  0.00000000000E+00 0.  1.
</event>
<event>
 5    1  0.1766627E-003  0.9118800E+02  0.7818608E-02  0.1130116E+00
         25   -1    0    0    0    0  0.00000000000E+00  0.00000000000E+00  0.99999998245E-14  0.12500000000E+03  0.12500000000E+03 0.  0.
        -13    1    3    3    0    0  0.34576548971E+02  0.46535447714E+02 -0.16115223973E+02  0.60173060753E+02  0.10566000000E+00 0.  1.
         23    2    1    0    0    0  0.36571582750E+01  0.22136007631E+02 -0.11376877166E+02  0.99844265573E+02  0.96623322202E+02 0.  0.
         13    1    3    3    0    0 -0.30919390696E+02 -0.24399440083E+02  0.47383468064E+01  0.39671204820E+02  0.10566000000E+00 0. -1.
         22    1    1    0    0    0 -0.36571582750E+01 -0.22136007631E+02  0.11376877166E+02  0.25155734427E+02  0.00000000000E+00 0.  1.
</event>
<event>
 5    1  0.1766627E-003  0.9118800E+02  0.7818608E-02  0.1130116E+00
         25   -1    0    0    0    0  0.00000000000E+00  0.00000000000E+00  0.99999998245E-14  0.12500000000E+03  0.12500000000E+03 0.  0.
        -13    1    3    3    0    0  0.17982850368E+02  0.13384306208E+02  0.32672989750E+02  0.39623957188E+02  0.10566000000E+00 0. -1.
         23    2    1    0    0    0 -0.14728792011E+02  0.19680808967E+02 -0.13804861772E+02  0.96806990862E+02  0.92610732184E+02 0.  0.
         13    1    3    3    0    0 -0.32711642379E+02  0.62965027591E+01 -0.46477851521E+02  0.57183033674E+02  0.10566000000E+00 0.  1.
         22    1    1    0    0    0  0.14728792011E+02 -0.19680808967E+02  0.13804861772E+02  0.28193009138E+02  0.00000000000E+00 0.  1.
</event>
<event>
 5    1  0.1766627E-003  0.9118800E+02  0.7818608E-02  0.1130116E+00
         25   -1    0    0    0    0  0.00000000000E+00  0.00000000000E+00  0.99999998245E-14  0.12500000000E+03  0.12500000000E+03 0.  0.
        -13    1    3    3    0    0 -0.34381562818E+02  0.19220309318E+02 -0.69874410341E+01  0.40004345368E+02  0.10566000000E+00 0.  1.
         23    2    1    0    0    0 -0.34083387164E+00 -0.45788217802E+01  0.29411824580E+02  0.95231943265E+02  0.90459857485E+02 0.  0.
         13    1    3    3    0    0  0.34040728946E+02 -0.23799131098E+02  0.36399265615E+02  0.55227597897E+02  0.10566000000E+00 0. -1.
         22    1    1    0    0    0  0.34083387164E+00  0.45788217802E+01 -0.29411824580E+02  0.29768056735E+02  0.00000000000E+00 0. -1.
</event>
<event>
 5    1  0.1766627E-003  0.9118800E+02  0.7818608E-02  0.1130116E+00
         25   -1    0    0    0    0  0.00000000000E+00  0.00000000000E+00  0.99999998245E-14  0.12500000000E+03  0.12500000000E+03 0.  0.
        -13    1    3    3    0    0 -0.27768213261E+02  0.46022357421E+02  0.27135585954E+02  0.60211977541E+02  0.10566000000E+00 0.  1.
         23    2    1    0    0    0 -0.15849283730E+02  0.27234719074E+02  0.25265032557E+01  0.93388088692E+02  0.87875037258E+02 0.  0.
         13    1    3    3    0    0  0.11918929531E+02 -0.18787638347E+02 -0.24609082698E+02  0.33176111151E+02  0.10566000000E+00 0. -1.
         22    1    1    0    0    0  0.15849283730E+02 -0.27234719074E+02 -0.25265032557E+01  0.31611911308E+02  0.00000000000E+00 0.  1.
</event>
<event>
 5    1  0.1766627E-003  0.9118800E+02  0.7818608E-02  0.1130116E+00
         25   -1    0    0    0    0  0.00000000000E+00  0.00000000000E+00  0.99999998245E-14  0.12500000000E+03  0.12500000000E+03 0.  0.
        -13    1    3    3    0    0  0.24480016556E+02 -0.46877081557E+02  0.24462727665E+02  0.58268071829E+02  0.10566000000E+00 0. -1.
         23    2    1    0    0    0  0.24009879110E+02 -0.15204558012E+02  0.32398551075E+01  0.96396686550E+02  0.92055264040E+02 0.  0.
         13    1    3    3    0    0 -0.47013744618E+00  0.31672523545E+02 -0.21222872557E+02  0.38128614721E+02  0.10566000000E+00 0.  1.
         22    1    1    0    0    0 -0.24009879110E+02  0.15204558012E+02 -0.32398551075E+01  0.28603313450E+02  0.00000000000E+00 0. -1.
</event>
<event>
 5    1  0.1766627E-003  0.9118800E+02  0.7818608E-02  0.1130116E+00
         25   -1    0    0    0    0  0.00000000000E+00  0.00000000000E+00  0.99999998245E-14  0.12500000000E+03  0.12500000000E+03 0.  0.
        -13    1    3    3    0    0  0.18648630645E+02  0.31997141272E+02 -0.13490180830E+02  0.39415537766E+02  0.10566000000E+00 0.  1.
         23    2    1    0    0    0  0.72655328779E+01  0.74157548037E+01  0.31445511435E+02  0.91885024888E+02  0.85710304059E+02 0.  0.
         13    1    3    3    0    0 -0.11383097767E+02 -0.24581386468E+02  0.44935692265E+02  0.52469487122E+02  0.10566000000E+00 0. -1.
         22    1    1    0    0    0 -0.72655328779E+01 -0.74157548037E+01 -0.31445511435E+02  0.33114975112E+02  0.00000000000E+00 0. -1.
</event>
<event>
 5    1  0.1766627E-003  0.9118800E+02  0.7818608E-02  0.1130116E+00
         25   -1    0    0    0    0  0.00000000000E+00  0.00000000000E+00  0.99999998245E-14  0.12500000000E+03  0.12500000000E+03 0.  0.
        -13    1    3    3    0    0  0.49053901270E+02  0.18351840758E+01 -0.94163219488E+01  0.49983311350E+02  0.10566000000E+00 0. -1.
         23    2    1    0    0    0  0.89720934635E+01 -0.24223992335E+02 -0.85164514122E+01  0.97800179956E+02  0.93941710592E+02 0.  0.
         13    1    3    3    0    0 -0.40081807807E+02 -0.26059176411E+02  0.89987053668E+00  0.47816868606E+02  0.10566000000E+00 0.  1.
         22    1    1    0    0    0 -0.89720934635E+01  0.24223992335E+02  0.85164514122E+01  0.27199820044E+02  0.00000000000E+00 0. -1.
</event>
<event>
 5    1  0.1766627E-003  0.9118800E+02  0.7818608E-02  0.1130116E+00
         25   -1    0    0    0    0  0.00000000000E+00  0.00000000000E+00  0.99999998245E-14  0.12500000000E+03  0.12500000000E+03 0.  0.
        -13    1    3    3    0    0  0.82661166081E+01  0.25852227192E+02  0.18067555900E+02  0.32605430143E+02  0.10566000000E+00 0. -1.
         23    2    1    0    0    0  0.22706929780E+02 -0.23911888872E+02 -0.86553838152E+01  0.90907497035E+02  0.84272618677E+02 0.  0.
         13    1    3    3    0    0  0.14440813172E+02 -0.49764116065E+02 -0.26722939715E+02  0.58302066891E+02  0.10566000000E+00 0.  1.
         22    1    1    0    0    0 -0.22706929780E+02  0.23911888872E+02  0.86553838152E+01  0.34092502965E+02  0.00000000000E+00 0.  1.
</event>
<event>
 5    1  0.1766627E-003  0.9118800E+02  0.7818608E-02  0.1130116E+00
         25   -1    0    0    0    0  0.00000000000E+00  0.00000000000E+00  0.99999998245E-14  0.12500000000E+03  0.12500000000E+03 0.  0.
        -13    1    3    3    0    0 -0.31168085714E+02 -0.43490151444E+02  0.61625016025E+00  0.53509193303E+02  0.10566000000E+00 0. -1.
         23    2    1    0    0    0 -0.29268679946E+02 -0.13445959326E+01  0.18433134664E+00  0.95699871296E+02  0.91104159203E+02 0.  0.
         13    1    3    3    0    0  0.18994057673E+01  0.42145555511E+02 -0.43191881361E+00  0.42190677993E+02  0.10566000000E+00 0.  1.
         22    1    1    0    0    0  0.29268679946E+02  0.13445959326E+01 -0.18433134664E+00  0.29300128704E+02  0.00000000000E+00 0. -1.
</event>
<event>
 5    1  0.1766627E-003  0.9118800E+02  0.7818608E-02  0.1130116E+00
         25   -1    0    0    0    0  0.00000000000E+00  0.00000000000E+00  0.99999998245E-14  0.12500000000E+03  0.12500000000E+03 0.  0.
        -13    1    3    3    0    0 -0.34064784949E+02  0.60248370049E+00 -0.34489695753E+02  0.48480128274E+02  0.10566000000E+00 0.  1.
         23    2    1    0    0    0 -0.11191391760E+02  0.29187434650E+02 -0.11596452885E+02  0.91658864589E+02  0.85379834547E+02 0.  0.
         13    1    3    3    0    0  0.22873393189E+02  0.28584950949E+02  0.22893242868E+02  0.43178736315E+02  0.10566000000E+00 0. -1.
         22    1    1    0    0    0  0.11191391760E+02 -0.29187434650E+02  0.11596452885E+02  0.33341135411E+02  0.00000000000E+00 0.  1.
</event>
<event>
 5    1  0.1766627E-003  0.9118800E+02  0.7818608E-02  0.1130116E+00
         25   -1    0    0    0    0  0.00000000000E+00  0.00000000000E+00  0.99999998245E-14  0.12500000000E+03  0.12500000000E+03 0.  0.
        -13    1    3    3    0    0 -0.22336046777E+02 -0.17782805891E+02 -0.17944084851E+02  0.33721336215E+02  0.10566000000E+00 0.  1.
         23    2    1    0    0    0  0.28638385829E+02  0.71152513037E+01  0.52819568813E+01  0.95021957828E+02  0.90169226773E+02 0.  0.
         13    1    3    3    0    0  0.50974432606E+02  0.24898057194E+02  0.23226041732E+02  0.61300621613E+02  0.10566000000E+00 0. -1.
         22    1    1    0    0    0 -0.28638385829E+02 -0.71152513037E+01 -0.52819568813E+01  0.29978042172E+02  0.00000000000E+00 0. -1.
</event>
<event>
 5    1  0.1766627E-003  0.9118800E+02  0.7818608E-02  0.1130116E+00
         25   -1    0    0    0    0  0.00000000000E+00  0.00000000000E+00  0.99999998245E-14  0.12500000000E+03  0.12500000000E+03 0.  0.
        -13    1    3    3    0    0  0.66729578481E+01  0.52792117492E+02 -0.23287040090E+02  0.58084709140E+02  0.10566000000E+00 0.  1.
         23    2    1    0    0    0  0.17065283505E+02  0.19650008240E+02 -0.18323063351E+02  0.93171060723E+02  0.87565776310E+02 0.  0.
         13    1    3    3    0    0  0.10392325657E+02 -0.33142109253E+02  0.49639767390E+01  0.35086351583E+02  0.10566000000E+00 0. -1.
         22    1    1    0    0    0 -0.17065283505E+02 -0.19650008240E+02  0.18323063351E+02  0.31828939277E+02  0.00000000000E+00 0.  1.
</event>
<event>
 5    1  0.1766627E-003  0.9118800E+02  0.7818608E-02  0.1130116E+00
         25   -1    0    0    0    0  0.00000000000E+00  0.00000000000E+00  0.99999998245E-14  0.12500000000E+03  0.12500000000E+03 0.  0.
        -13    1    3    3    0    0 -0.32110628856E+02  0.38679933415E+02 -0.77429188154E+01  0.50864463924E+02  0.10566000000E+00 0. -1.
         23    2    1    0    0    0  0.83176365684E+01  0.26748304431E+02  0.80122323894E+01  0.95864956910E+02  0.91330385018E+02 0.  0.
         13    1    3    3    0    0  0.40428265424E+02 -0.11931628984E+02  0.15755151205E+02  0.45000492986E+02  0.10566000000E+00 0.  1.
         22    1    1    0    0    0 -0.83176365684E+01 -0.26748304431E+02 -0.80122323894E+01  0.29135043090E+02  0.00000000000E+00 0. -1.
</event>
<event>
 5    1  0.1766627E-003  0.9118800E+02  0.7818608E-02  0.1130116E+00
         25   -1    0    0    0    0  0.00000000000E+00  0.00000000000E+00  0.99999998245E-14  0.12500000000E+03  0.12500000000E+03 0.  0.
        -13    1    3    3    0    0  0.49275499641E+01  0.40065247441E+02 -0.37825769781E+02  0.55320021916E+02  0.10566000000E+00 0. -1.
         23    2    1    0    0    0  0.22032078454E+02  0.16328868182E+02 -0.96785678976E+01  0.95918750136E+02  0.91403979859E+02 0.  0.
         13    1    3    3    0    0  0.17104528490E+02 -0.23736379259E+02  0.28147201884E+02  0.40598728220E+02  0.10566000000E+00 0.  1.
         22    1    1    0    0    0 -0.22032078454E+02 -0.16328868182E+02  0.96785678976E+01  0.29081249864E+02  0.00000000000E+00 0. -1.
</event>
<event>
 5    1  0.1766627E-003  0.9118800E+02  0.7818608E-02  0.1130116E+00
         25   -1    0    0    0    0  0.00000000000E+00  0.00000000000E+00  0.99999998245E-14  0.12500000000E+03  0.12500000000E+03 0.  0.
        -13    1    3    3    0    0 -0.88553487858E+01 -0.28071755812E+02  0.20135781216E+02  0.35663728432E+02  0.10566000000E+00 0. -1.
         23    2    1    0    0    0  0.23752835319E+02  0.15503875949E+02 -0.59500184356E+01  0.96017762776E+02  0.91539284976E+02 0.  0.
         13    1    3    3    0    0  0.32608184105E+02  0.43575631761E+02 -0.26085799651E+02  0.60354034343E+02  0.10566000000E+00 0.  1.
         22    1    1    0    0    0 -0.23752835319E+02 -0.15503875949E+02  0.59500184356E+01  0.28982237224E+02  0.00000000000E+00 0.  1.
</event>
<event>
 5    1  0.1766627E-003  0.9118800E+02  0.7818608E-02  0.1130116E+00
         25   -1    0    0    0    0  0.00000000000E+00  0.00000000000E+00  0.99999998245E-14  0.12500000000E+03  0.12500000000E+03 0.  0.
        -13    1    3    3    0    0 -0.12619547379E+01 -0.48519201084E+01 -0.35968917597E+02  0.36316770996E+02  0.10566000000E+00 0. -1.
         23    2    1    0    0    0  0.26129263031E+01 -0.26442907448E+02  0.16868067366E+02  0.93526416873E+02  0.88071585760E+02 0.  0.
         13    1    3    3    0    0  0.38748810410E+01 -0.21590987339E+02  0.52836984963E+02  0.57209645877E+02  0.10566000000E+00 0.  1.
         22    1    1    0    0    0 -0.26129263031E+01  0.26442907448E+02 -0.16868067366E+02  0.31473583127E+02  0.00000000000E+00 0.  1.
</event>
<event>
 5    1  0.1766627E-003  0.9118800E+02  0.7818608E-02  0.1130116E+00
         25   -1    0    0    0    0  0.00000000000E+00  0.00000000000E+00  0.99999998245E-14  0.12500000000E+03  0.12500000000E+03 0.  0.
        -13    1    3    3    0    0 -0.73847220986E+01  0.32429879406E+02  0.45756741824E+01  0.33573488901E+02  0.10566000000E+00 0. -1.
         23    2    1    0    0    0  0.65955496348E+01 -0.28190465808E+02 -0.97175003656E+00  0.96031949745E+02  0.91558655715E+02 0.  0.
         13    1    3    3    0    0  0.13980271733E+02 -0.60620345213E+02 -0.55474242190E+01  0.62458460844E+02  0.10566000000E+00 0.  1.
         22    1    1    0    0    0 -0.65955496348E+01  0.28190465808E+02  0.97175003656E+00  0.28968050255E+02  0.00000000000E+00 0.  1.
</event>
<event>
 5    1  0.1766627E-003  0.9118800E+02  0.7818608E-02  0.1130116E+00
         25   -1    0    0    0    0  0.00000000000E+00  0.00000000000E+00  0.99999998245E-14  0.12500000000E+03  0.12500000000E+03 0.  0.
        -13    1    3    3    0    0 -0.14795566504E+02 -0.13339858039E+02 -0.19874206863E+02  0.28139933602E+02  0.10566000000E+00 0.  1.
         23    2    1    0    0    0  0.24904503008E+02  0.16649502988E+02  0.17443866241E+02  0.90334041348E+02  0.83417685996E+02 0.  0.
         13    1    3    3    0    0  0.39700069512E+02  0.29989361027E+02  0.37318073104E+02  0.62194107746E+02  0.10566000000E+00 0. -1.
         22    1    1    0    0    0 -0.24904503008E+02 -0.16649502988E+02 -0.17443866241E+02  0.34665958652E+02  0.00000000000E+00 0. -1.
</event>
<event>
 5    1  0.1766627E-003  0.9118800E+02  0.7818608E-02  0.1130116E+00
         25   -1    0    0    0    0  0.00000000000E+00  0.00000000000E+00  0.99999998245E-14  0.12500000000E+03  0.12500000000E+03 0.  0.
        -13    1    3    3    0    0 -0.11700275961E+01  0.37977764182E+02  0.19496935578E+02  0.42706219662E+02  0.10566000000E+00 0. -1.
         23    2    1    0    0    0  0.24922937036E+02 -0.75554916031E+01  0.13889162200E+02  0.95484799332E+02  0.90808588983E+02 0.  0.
         13    1    3    3    0    0  0.26092964632E+02 -0.45533255785E+02 -0.56077733783E+01  0.52778579670E+02  0.10566000000E+00 0.  1.
         22    1    1    0    0    0 -0.24922937036E+02  0.75554916031E+01 -0.13889162200E+02  0.29515200668E+02  0.00000000000E+00 0.  1.
</event>
<event>
 5    1  0.1766627E-003  0.9118800E+02  0.7818608E-02  0.1130116E+00
         25   -1    0    0    0    0  0.00000000000E+00  0.00000000000E+00  0.99999998245E-14  0.12500000000E+03  0.12500000000E+03 0.  0.
        -13    1    3    3    0    0  0.16085596515E+02  0.12043260952E+02 -0.42994919816E+02  0.47459043855E+02  0.10566000000E+00 0.  1.
         23    2    1    0    0    0 -0.20243337290E+02  0.11543388815E+02 -0.29810410850E+01  0.10150682789E+03  0.98750731500E+02 0.  0.
         13    1    3    3    0    0 -0.36328933805E+02 -0.49987213738E+00  0.40013878731E+02  0.54047784032E+02  0.10566000000E+00 0. -1.
         22    1    1    0    0    0  0.20243337290E+02 -0.11543388815E+02  0.29810410850E+01  0.23493172113E+02  0.00000000000E+00 0. -1.
</event>
<event>
 5    1  0.1766627E-003  0.9118800E+02  0.7818608E-02  0.1130116E+00
         25   -1    0    0    0    0  0.00000000000E+00  0.00000000000E+00  0.99999998245E-14  0.12500000000E+03  0.12500000000E+03 0.  0.
        -13    1    3    3    0    0 -0.18644334183E+02 -0.46869840895E+02 -0.32196138831E+02  0.59841421293E+02  0.10566000000E+00 0.  1.
         23    2    1    0    0    0 -0.18308545288E+01 -0.17115635161E+02 -0.24804603101E+02  0.94807859793E+02  0.89871936378E+02 0.  0.
         13    1    3    3    0    0  0.16813479654E+02  0.29754205734E+02  0.73915357306E+01  0.34966438501E+02  0.10566000000E+00 0. -1.
         22    1    1    0    0    0  0.18308545288E+01  0.17115635161E+02  0.24804603101E+02  0.30192140207E+02  0.00000000000E+00 0.  1.
</event>
<event>
 5    1  0.1766627E-003  0.9118800E+02  0.7818608E-02  0.1130116E+00
         25   -1    0    0    0    0  0.00000000000E+00  0.00000000000E+00  0.99999998245E-14  0.12500000000E+03  0.12500000000E+03 0.  0.
        -13    1    3    3    0    0  0.29508158181E+02 -0.12789136804E+02 -0.59607721152E+01  0.32708338198E+02  0.10566000000E+00 0. -1.
         23    2    1    0    0    0 -0.29625152364E+02  0.45093073436E+01  0.26406555086E+01  0.94917503979E+02  0.90024307800E+02 0.  0.
         13    1    3    3    0    0 -0.59133310545E+02  0.17298444148E+02  0.86014276238E+01  0.62209165781E+02  0.10566000000E+00 0.  1.
         22    1    1    0    0    0  0.29625152364E+02 -0.45093073436E+01 -0.26406555086E+01  0.30082496021E+02  0.00000000000E+00 0.  1.
</event>
<event>
 5    1  0.1766627E-003  0.9118800E+02  0.7818608E-02  0.1130116E+00
         25   -1    0    0    0    0  0.00000000000E+00  0.00000000000E+00  0.99999998245E-14  0.12500000000E+03  0.12500000000E+03 0.  0.
        -13    1    3    3    0    0  0.29794998105E+02  0.45306929573E+01 -0.16938726807E+02  0.34571675120E+02  0.10566000000E+00 0.  1.
         23    2    1    0    0    0 -0.68654240720E+01 -0.97524680294E+01  0.28158686203E+02  0.94419674805E+02  0.89330390692E+02 0.  0.
         13    1    3    3    0    0 -0.36660422177E+02 -0.14283160987E+02  0.45097413010E+02  0.59847999684E+02  0.10566000000E+00 0. -1.
         22    1    1    0    0    0  0.68654240720E+01  0.97524680294E+01 -0.28158686203E+02  0.30580325195E+02  0.00000000000E+00 0. -1.
</event>
<event>
 5    1  0.1766627E-003  0.9118800E+02  0.7818608E-02  0.1130116E+00
         25   -1    0    0    0    0  0.00000000000E+00  0.00000000000E+00  0.99999998245E-14  0.12500000000E+03  0.12500000000E+03 0.  0.
        -13    1    3    3    0    0  0.53153882745E+01 -0.38519342562E+02  0.91647239894E+01  0.39949924077E+02  0.10566000000E+00 0. -1.
         23    2    1    0    0    0  0.26025456663E+02  0.12315939653E+02  0.89708045253E+01  0.94842379108E+02  0.89919935370E+02 0.  0.
         13    1    3    3    0    0  0.20710068388E+02  0.50835282215E+02 -0.19391946416E+00  0.54892455031E+02  0.10566000000E+00 0.  1.
         22    1    1    0    0    0 -0.26025456663E+02 -0.12315939653E+02 -0.89708045253E+01  0.30157620892E+02  0.00000000000E+00 0.  1.
</event>
<event>
 5    1  0.1766627E-003  0.9118800E+02  0.7818608E-02  0.1130116E+00
         25   -1    0    0    0    0  0.00000000000E+00  0.00000000000E+00  0.99999998245E-14  0.12500000000E+03  0.12500000000E+03 0.  0.
        -13    1    3    3    0    0 -0.99187946035E+01 -0.21492034344E+02  0.35249609812E+02  0.42459818447E+02  0.10566000000E+00 0.  1.
         23    2    1    0    0    0 -0.31221206138E+02  0.23079193664E+00 -0.54820821393E+01  0.93300312269E+02  0.87750088703E+02 0.  0.
         13    1    3    3    0    0 -0.21302411535E+02  0.21722826281E+02 -0.40731691952E+02  0.50840493822E+02  0.10566000000E+00 0. -1.
         22    1    1    0    0    0  0.31221206138E+02 -0.23079193664E+00  0.54820821393E+01  0.31699687731E+02  0.00000000000E+00 0. -1.
</event>
<event>
 5    1  0.1766627E-003  0.9118800E+02  0.7818608E-02  0.1130116E+00
         25   -1    0    0    0    0  0.00000000000E+00  0.00000000000E+00  0.99999998245E-14  0.12500000000E+03  0.12500000000E+03 0.  0.
        -13    1    3    3    0    0  0.40186442500E+02  0.36504642700E+02 -0.18669874905E+02  0.57411797503E+02  0.10566000000E+00 0. -1.
         23    2    1    0    0    0  0.11880745321E+02  0.88989254729E+01 -0.23458725406E+02  0.97239330311E+02  0.93192449145E+02 0.  0.
         13    1    3    3    0    0 -0.28305697179E+02 -0.27605717227E+02 -0.47888505003E+01  0.39827532808E+02  0.10566000000E+00 0.  1.
         22    1    1    0    0    0 -0.11880745321E+02 -0.88989254729E+01  0.23458725406E+02  0.27760669689E+02  0.00000000000E+00 0. -1.
</event>
<event>
 5    1  0.1766627E-003  0.9118800E+02  0.7818608E-02  0.1130116E+00
         25   -1    0    0    0    0  0.00000000000E+00  0.00000000000E+00  0.99999998245E-14  0.12500000000E+03  0.12500000000E+03 0.  0.
        -13    1    3    3    0    0  0.95369743380E+01  0.48288350915E+02  0.15080207796E+02  0.51479535204E+02  0.10566000000E+00 0.  1.
         23    2    1    0    0    0 -0.19997917313E+02  0.12002216982E+02 -0.26790539388E+01  0.10152347472E+03  0.98771801033E+02 0.  0.
         13    1    3    3    0    0 -0.29534891651E+02 -0.36286133933E+02 -0.17759261735E+02  0.50043939513E+02  0.10566000000E+00 0. -1.
         22    1    1    0    0    0  0.19997917313E+02 -0.12002216982E+02  0.26790539388E+01  0.23476525283E+02  0.00000000000E+00 0. -1.
</event>
<event>
 5    1  0.1766627E-003  0.9118800E+02  0.7818608E-02  0.1130116E+00
         25   -1    0    0    0    0  0.00000000000E+00  0.00000000000E+00  0.99999998245E-14  0.12500000000E+03  0.12500000000E+03 0.  0.
        -13    1    3    3    0    0 -0.22379078532E+02 -0.10716576001E+02  0.25688741694E+02  0.35715413633E+02  0.10566000000E+00 0.  1.
         23    2    1    0    0    0  0.10178849572E+01  0.23156157244E+02 -0.17931720687E+02  0.95694875621E+02  0.91097304599E+02 0.  0.
         13    1    3    3    0    0  0.23396963489E+02  0.33872733245E+02 -0.43620462381E+02  0.59979461988E+02  0.10566000000E+00 0. -1.
         22    1    1    0    0    0 -0.10178849572E+01 -0.23156157244E+02  0.17931720687E+02  0.29305124379E+02  0.00000000000E+00 0. -1.
</event>
<event>
 5    1  0.1766627E-003  0.9118800E+02  0.7818608E-02  0.1130116E+00
         25   -1    0    0    0    0  0.00000000000E+00  0.00000000000E+00  0.99999998245E-14  0.12500000000E+03  0.12500000000E+03 0.  0.
        -13    1    3    3    0    0  0.10208920483E+01  0.39123875545E+02 -0.13205569566E+00  0.39137558189E+02  0.10566000000E+00 0. -1.
         23    2    1    0    0    0 -0.20047196501E+02 -0.11328614030E+02 -0.17025486322E+02  0.96362703202E+02  0.92009107160E+02 0.  0.
         13    1    3    3    0    0 -0.21068088550E+02 -0.50452489575E+02 -0.16893430626E+02  0.57225145013E+02  0.10566000000E+00 0.  1.
         22    1    1    0    0    0  0.20047196501E+02  0.11328614030E+02  0.17025486322E+02  0.28637296798E+02  0.00000000000E+00 0.  1.
</event>
<event>
 5    1  0.1766627E-003  0.9118800E+02  0.7818608E-02  0.1130116E+00
         25   -1    0    0    0    0  0.00000000000E+00  0.00000000000E+00  0.99999998245E-14  0.12500000000E+03  0.12500000000E+03 0.  0.
        -13    1    3    3    0    0 -0.30305590416E+02  0.45731927149E+02 -0.13950024836E+02  0.56607882209E+02  0.10566000000E+00 0.  1.
         23    2    1    0    0    0 -0.21057316619E+02  0.15692172186E+02  0.10790621128E+02  0.96608234372E+02  0.92342073797E+02 0.  0.
         13    1    3    3    0    0  0.92482737964E+01 -0.30039754963E+02  0.24740645964E+02  0.40000352163E+02  0.10566000000E+00 0. -1.
         22    1    1    0    0    0  0.21057316619E+02 -0.15692172186E+02 -0.10790621128E+02  0.28391765628E+02  0.00000000000E+00 0.  1.
</event>
<event>
 5    1  0.1766627E-003  0.9118800E+02  0.7818608E-02  0.1130116E+00
         25   -1    0    0    0    0  0.00000000000E+00  0.00000000000E+00  0.99999998245E-14  0.12500000000E+03  0.12500000000E+03 0.  0.
        -13    1    3    3    0    0 -0.36131910554E+02  0.27838307499E+02 -0.15181101831E+02  0.48072480085E+02  0.10566000000E+00 0. -1.
         23    2    1    0    0    0  0.11419245557E+00  0.36748809904E-01 -0.29156639275E+02  0.95843113949E+02  0.91300484595E+02 0.  0.
         13    1    3    3    0    0  0.36246103010E+02 -0.27801558689E+02 -0.13975537444E+02  0.47770633864E+02  0.10566000000E+00 0.  1.
         22    1    1    0    0    0 -0.11419245557E+00 -0.36748809904E-01  0.29156639275E+02  0.29156886051E+02  0.00000000000E+00 0.  1.
</event>
<event>
 5    1  0.1766627E-003  0.9118800E+02  0.7818608E-02  0.1130116E+00
         25   -1    0    0    0    0  0.00000000000E+00  0.00000000000E+00  0.99999998245E-14  0.12500000000E+03  0.12500000000E+03 0.  0.
        -13    1    3    3    0    0 -0.26586194641E+02 -0.17028865094E+02  0.29748139464E+02  0.43379384015E+02  0.10566000000E+00 0.  1.
         23    2    1    0    0    0  0.15370995363E+01 -0.25400963969E+02 -0.13922805044E+02  0.95992825960E+02  0.91505226571E+02 0.  0.
         13    1    3    3    0    0  0.28123294178E+02 -0.83720988748E+01 -0.43670944508E+02  0.52613441944E+02  0.10566000000E+00 0. -1.
         22    1    1    0    0    0 -0.15370995363E+01  0.25400963969E+02  0.13922805044E+02  0.29007174040E+02  0.00000000000E+00 0. -1.
</event>
<event>
 4    1  0.1766627E-003  0.9118800E+02  0.7818608E-02  0.1130116E+00
         25   -1    0    0    0    0  0.00000000000E+00  0.00000000000E+00  0.99999998245E-14  0.12500000000E+03  0.12500000000E+03 0.  0.
        -13    1    1    0    0    0 -0.13350984971E+02 -0.57712013201E+01 -0.16160515482E+02  0.21742331730E+02  0.10566000000E+00 0. -1.
         13    1    1    0    0    0 -0.25369132361E+02  0.39567121334E+02 -0.58185979258E+01  0.47360502671E+02  0.10566000000E+00 0.  1.
         22    1    1    0    0    0  0.38720117332E+02 -0.33795920014E+02  0.21979113408E+02  0.55897165599E+02  0.00000000000E+00 0.  1.
</event>
<event>
 5    1  0.1766627E-003  0.9118800E+02  0.7818608E-02  0.1130116E+00
         25   -1    0    0    0    0  0.00000000000E+00  0.00000000000E+00  0.99999998245E-14  0.12500000000E+03  0.12500000000E+03 0.  0.
        -13    1    3    3    0    0  0.11359292375E+02 -0.35946349474E+02 -0.21697552014E+02  0.43496764146E+02  0.10566000000E+00 0.  1.
         23    2    1    0    0    0  0.46187577215E+01  0.16973487554E+02 -0.21983413424E+02  0.96845024092E+02  0.92662052767E+02 0.  0.
         13    1    3    3    0    0 -0.67405346535E+01  0.52919837028E+02 -0.28586140938E+00  0.53348259946E+02  0.10566000000E+00 0. -1.
         22    1    1    0    0    0 -0.46187577215E+01 -0.16973487554E+02  0.21983413424E+02  0.28154975908E+02  0.00000000000E+00 0. -1.
</event>
<event>
 5    1  0.1766627E-003  0.9118800E+02  0.7818608E-02  0.1130116E+00
         25   -1    0    0    0    0  0.00000000000E+00  0.00000000000E+00  0.99999998245E-14  0.12500000000E+03  0.12500000000E+03 0.  0.
        -13    1    3    3    0    0  0.26775730033E+02  0.36241823640E+02 -0.24478017642E+02  0.51279567191E+02  0.10566000000E+00 0. -1.
         23    2    1    0    0    0  0.14969914175E+02  0.26745926417E+02  0.13001800941E+02  0.91706010482E+02  0.85448830422E+02 0.  0.
         13    1    3    3    0    0 -0.11805815858E+02 -0.94958972237E+01  0.37479818583E+02  0.40426443291E+02  0.10566000000E+00 0.  1.
         22    1    1    0    0    0 -0.14969914175E+02 -0.26745926417E+02 -0.13001800941E+02  0.33293989518E+02  0.00000000000E+00 0. -1.
</event>
<event>
 5    1  0.1766627E-003  0.9118800E+02  0.7818608E-02  0.1130116E+00
         25   -1    0    0    0    0  0.00000000000E+00  0.00000000000E+00  0.99999998245E-14  0.12500000000E+03  0.12500000000E+03 0.  0.
        -13    1    3    3    0    0  0.64244712723E+01 -0.23546349869E+02 -0.24443370354E+02  0.34542639470E+02  0.10566000000E+00 0.  1.
         23    2    1    0    0    0  0.40882583009E+00  0.41627503758E+01  0.29351027132E+02  0.95352429729E+02  0.90626196171E+02 0.  0.
         13    1    3    3    0    0 -0.60156454422E+01  0.27709100245E+02  0.53794397486E+02  0.60809790259E+02  0.10566000000E+00 0. -1.
         22    1    1    0    0    0 -0.40882583009E+00 -0.41627503758E+01 -0.29351027132E+02  0.29647570271E+02  0.00000000000E+00 0. -1.
</event>
<event>
 5    1  0.1766627E-003  0.9118800E+02  0.7818608E-02  0.1130116E+00
         25   -1    0    0    0    0  0.00000000000E+00  0.00000000000E+00  0.99999998245E-14  0.12500000000E+03  0.12500000000E+03 0.  0.
        -13    1    3    3    0    0 -0.36931137327E+02 -0.24749019563E+02 -0.40533325781E+02  0.60161320934E+02  0.10566000000E+00 0. -1.
         23    2    1    0    0    0 -0.38057678680E+01 -0.79170488350E+01 -0.21211567201E+02  0.10204146968E+03  0.99425185039E+02 0.  0.
         13    1    3    3    0    0  0.33125369459E+02  0.16831970728E+02  0.19321758579E+02  0.41880148746E+02  0.10566000000E+00 0.  1.
         22    1    1    0    0    0  0.38057678680E+01  0.79170488350E+01  0.21211567201E+02  0.22958530320E+02  0.00000000000E+00 0. -1.
</event>
<event>
 5    1  0.1766627E-003  0.9118800E+02  0.7818608E-02  0.1130116E+00
         25   -1    0    0    0    0  0.00000000000E+00  0.00000000000E+00  0.99999998245E-14  0.12500000000E+03  0.12500000000E+03 0.  0.
        -13    1    3    3    0    0 -0.28079394882E+01  0.34795032880E+02  0.35230733574E+02  0.49596316290E+02  0.10566000000E+00 0. -1.
         23    2    1    0    0    0 -0.21094442912E+02  0.21204301975E+02 -0.38598021142E+01  0.94842148346E+02  0.89919614581E+02 0.  0.
         13    1    3    3    0    0 -0.18286503424E+02 -0.13590730905E+02 -0.39090535688E+02  0.45245832056E+02  0.10566000000E+00 0.  1.
         22    1    1    0    0    0  0.21094442912E+02 -0.21204301975E+02  0.38598021142E+01  0.30157851654E+02  0.00000000000E+00 0. -1.
</event>
<event>
 5    1  0.1766627E-003  0.9118800E+02  0.7818608E-02  0.1130116E+00
         25   -1    0    0    0    0  0.00000000000E+00  0.00000000000E+00  0.99999998245E-14  0.12500000000E+03  0.12500000000E+03 0.  0.
        -13    1    3    3    0    0  0.31540950437E+00 -0.11652866496E+02 -0.42465987013E+02  0.44037029847E+02  0.10566000000E+00 0.  1.
         23    2    1    0    0    0 -0.29783406355E+02  0.39073806782E+01 -0.50069318843E+01  0.94546949500E+02  0.89508308972E+02 0.  0.
         13    1    3    3    0    0 -0.30098815859E+02  0.15560247174E+02  0.37459055128E+02  0.50509919653E+02  0.10566000000E+00 0. -1.
         22    1    1    0    0    0  0.29783406355E+02 -0.39073806782E+01  0.50069318843E+01  0.30453050500E+02  0.00000000000E+00 0. -1.
</event>
<event>
 4    1  0.1766627E-003  0.9118800E+02  0.7818608E-02  0.1130116E+00
         25   -1    0    0    0    0  0.00000000000E+00  0.00000000000E+00  0.99999998245E-14  0.12500000000E+03  0.12500000000E+03 0.  0.
        -13    1    1    0    0    0 -0.52021345357E+02 -0.13551363128E+02  0.80317324370E+01  0.54354205958E+02  0.10566000000E+00 0. -1.
         13    1    1    0    0    0  0.93788815567E+01 -0.15379238808E+02  0.20781344158E+01  0.18133235019E+02  0.10566000000E+00 0.  1.
         22    1    1    0    0    0  0.42642463800E+02  0.28930601936E+02 -0.10109866853E+02  0.52512559023E+02  0.00000000000E+00 0. -1.
</event>
<event>
 5    1  0.1766627E-003  0.9118800E+02  0.7818608E-02  0.1130116E+00
         25   -1    0    0    0    0  0.00000000000E+00  0.00000000000E+00  0.99999998245E-14  0.12500000000E+03  0.12500000000E+03 0.  0.
        -13    1    3    3    0    0  0.16995191233E+02 -0.38033548704E+02  0.34509377284E+02  0.54095245970E+02  0.10566000000E+00 0.  1.
         23    2    1    0    0    0  0.22381862707E+02 -0.20130515527E+02 -0.17027710906E+01  0.94848965806E+02  0.89929091241E+02 0.  0.
         13    1    3    3    0    0  0.53866714734E+01  0.17903033177E+02 -0.36212148374E+02  0.40753719835E+02  0.10566000000E+00 0. -1.
         22    1    1    0    0    0 -0.22381862707E+02  0.20130515527E+02  0.17027710906E+01  0.30151034194E+02  0.00000000000E+00 0. -1.
</event>
<event>
 5    1  0.1766627E-003  0.9118800E+02  0.7818608E-02  0.1130116E+00
         25   -1    0    0    0    0  0.00000000000E+00  0.00000000000E+00  0.99999998245E-14  0.12500000000E+03  0.12500000000E+03 0.  0.
        -13    1    3    3    0    0  0.54888996108E+02  0.88270356215E+01 -0.21950785041E+02  0.59770950967E+02  0.10566000000E+00 0. -1.
         23    2    1    0    0    0  0.26612737016E+02 -0.12426444912E+01 -0.22997742593E+02  0.89805140984E+02  0.82621336505E+02 0.  0.
         13    1    3    3    0    0 -0.28276259092E+02 -0.10069680113E+02 -0.10469575525E+01  0.30034190017E+02  0.10566000000E+00 0.  1.
         22    1    1    0    0    0 -0.26612737016E+02  0.12426444912E+01  0.22997742593E+02  0.35194859016E+02  0.00000000000E+00 0. -1.
</event>
<event>
 5    1  0.1766627E-003  0.9118800E+02  0.7818608E-02  0.1130116E+00
         25   -1    0    0    0    0  0.00000000000E+00  0.00000000000E+00  0.99999998245E-14  0.12500000000E+03  0.12500000000E+03 0.  0.
        -13    1    3    3    0    0  0.37858143593E+02 -0.21536029049E+01  0.10274501559E+02  0.39286811885E+02  0.10566000000E+00 0. -1.
         23    2    1    0    0    0 -0.31690990236E+01  0.13846343960E+02 -0.25358365342E+02  0.95934365266E+02  0.91425331919E+02 0.  0.
         13    1    3    3    0    0 -0.41027242616E+02  0.15999946865E+02 -0.35632866901E+02  0.56647553381E+02  0.10566000000E+00 0.  1.
         22    1    1    0    0    0  0.31690990236E+01 -0.13846343960E+02  0.25358365342E+02  0.29065634734E+02  0.00000000000E+00 0.  1.
</event>
<event>
 5    1  0.1766627E-003  0.9118800E+02  0.7818608E-02  0.1130116E+00
         25   -1    0    0    0    0  0.00000000000E+00  0.00000000000E+00  0.99999998245E-14  0.12500000000E+03  0.12500000000E+03 0.  0.
        -13    1    3    3    0    0 -0.31267856774E+02 -0.39517986916E+02 -0.30031284492E+02  0.58662077780E+02  0.10566000000E+00 0. -1.
         23    2    1    0    0    0 -0.21848543543E+02 -0.41976646428E+01 -0.14891150562E+02  0.98228268482E+02  0.94509613905E+02 0.  0.
         13    1    3    3    0    0  0.94193132311E+01  0.35320322273E+02  0.15140133930E+02  0.39566190702E+02  0.10566000000E+00 0.  1.
         22    1    1    0    0    0  0.21848543543E+02  0.41976646428E+01  0.14891150562E+02  0.26771731518E+02  0.00000000000E+00 0. -1.
</event>
<event>
 5    1  0.1766627E-003  0.9118800E+02  0.7818608E-02  0.1130116E+00
         25   -1    0    0    0    0  0.00000000000E+00  0.00000000000E+00  0.99999998245E-14  0.12500000000E+03  0.12500000000E+03 0.  0.
        -13    1    3    3    0    0  0.18681137452E+02 -0.12403812048E+02  0.22510591860E+02  0.31773847104E+02  0.10566000000E+00 0. -1.
         23    2    1    0    0    0  0.20880206760E+02 -0.44738462523E+02 -0.64144687571E+01  0.75213872689E+02  0.56377905000E+02 0.  0.
         13    1    3    3    0    0  0.21990693081E+01 -0.32334650474E+02 -0.28925060617E+02  0.43440025585E+02  0.10566000000E+00 0.  1.
         22    1    1    0    0    0 -0.20880206760E+02  0.44738462523E+02  0.64144687571E+01  0.49786127311E+02  0.00000000000E+00 0.  1.
</event>
<event>
 5    1  0.1766627E-003  0.9118800E+02  0.7818608E-02  0.1130116E+00
         25   -1    0    0    0    0  0.00000000000E+00  0.00000000000E+00  0.99999998245E-14  0.12500000000E+03  0.12500000000E+03 0.  0.
        -13    1    3    3    0    0 -0.38702282616E+02  0.13316351588E+02 -0.10761031708E+02  0.42320241809E+02  0.10566000000E+00 0.  1.
         23    2    1    0    0    0 -0.28696611545E+01 -0.12712665192E+02  0.23374764171E+02  0.98237593317E+02  0.94521946284E+02 0.  0.
         13    1    3    3    0    0  0.35832621462E+02 -0.26029016780E+02  0.34135795879E+02  0.55917351508E+02  0.10566000000E+00 0. -1.
         22    1    1    0    0    0  0.28696611545E+01  0.12712665192E+02 -0.23374764171E+02  0.26762406683E+02  0.00000000000E+00 0. -1.
</event>
<event>
 5    1  0.1766627E-003  0.9118800E+02  0.7818608E-02  0.1130116E+00
         25   -1    0    0    0    0  0.00000000000E+00  0.00000000000E+00  0.99999998245E-14  0.12500000000E+03  0.12500000000E+03 0.  0.
        -13    1    3    3    0    0  0.29414048609E+02 -0.98244509923E+01 -0.14050572897E+02  0.34046084292E+02  0.10566000000E+00 0. -1.
         23    2    1    0    0    0 -0.21444753948E+02  0.21226066932E+02 -0.26955997886E+01  0.94706607197E+02  0.89730996870E+02 0.  0.
         13    1    3    3    0    0 -0.50858802556E+02  0.31050517924E+02  0.11354973109E+02  0.60660522905E+02  0.10566000000E+00 0.  1.
         22    1    1    0    0    0  0.21444753948E+02 -0.21226066932E+02  0.26955997886E+01  0.30293392803E+02  0.00000000000E+00 0.  1.
</event>
<event>
 5    1  0.1766627E-003  0.9118800E+02  0.7818608E-02  0.1130116E+00
         25   -1    0    0    0    0  0.00000000000E+00  0.00000000000E+00  0.99999998245E-14  0.12500000000E+03  0.12500000000E+03 0.  0.
        -13    1    3    3    0    0 -0.71167458155E+01 -0.47053771162E+02 -0.21111817159E+02  0.52061746411E+02  0.10566000000E+00 0.  1.
         23    2    1    0    0    0  0.86308114003E+01 -0.23707691510E+02  0.13260984763E+02  0.96497381540E+02  0.92191894357E+02 0.  0.
         13    1    3    3    0    0  0.15747557216E+02  0.23346079651E+02  0.34372801922E+02  0.44435635129E+02  0.10566000000E+00 0. -1.
         22    1    1    0    0    0 -0.86308114003E+01  0.23707691510E+02 -0.13260984763E+02  0.28502618460E+02  0.00000000000E+00 0.  1.
</event>
<event>
 5    1  0.1766627E-003  0.9118800E+02  0.7818608E-02  0.1130116E+00
         25   -1    0    0    0    0  0.00000000000E+00  0.00000000000E+00  0.99999998245E-14  0.12500000000E+03  0.12500000000E+03 0.  0.
        -13    1    3    3    0    0 -0.75333011422E+01 -0.37839961571E+02 -0.99127252280E+00  0.38595428525E+02  0.10566000000E+00 0. -1.
         23    2    1    0    0    0 -0.18884928707E+02  0.19734114097E+02  0.35617464845E+01  0.97454368232E+02  0.93480436767E+02 0.  0.
         13    1    3    3    0    0 -0.11351627565E+02  0.57574075668E+02  0.45530190073E+01  0.58858939707E+02  0.10566000000E+00 0.  1.
         22    1    1    0    0    0  0.18884928707E+02 -0.19734114097E+02 -0.35617464845E+01  0.27545631768E+02  0.00000000000E+00 0.  1.
</event>
<event>
 5    1  0.1766627E-003  0.9118800E+02  0.7818608E-02  0.1130116E+00
         25   -1    0    0    0    0  0.00000000000E+00  0.00000000000E+00  0.99999998245E-14  0.12500000000E+03  0.12500000000E+03 0.  0.
        -13    1    3    3    0    0  0.13190632412E+01 -0.42155623106E+02 -0.87862536549E+01  0.43081851220E+02  0.10566000000E+00 0. -1.
         23    2    1    0    0    0 -0.19043039413E+02 -0.13756589438E+01  0.20283837910E+02  0.97143871985E+02  0.93064321823E+02 0.  0.
         13    1    3    3    0    0 -0.20362102654E+02  0.40779964162E+02  0.29070091565E+02  0.54062020765E+02  0.10566000000E+00 0.  1.
         22    1    1    0    0    0  0.19043039413E+02  0.13756589438E+01 -0.20283837910E+02  0.27856128015E+02  0.00000000000E+00 0.  1.
</event>
<event>
 5    1  0.1766627E-003  0.9118800E+02  0.7818608E-02  0.1130116E+00
         25   -1    0    0    0    0  0.00000000000E+00  0.00000000000E+00  0.99999998245E-14  0.12500000000E+03  0.12500000000E+03 0.  0.
        -13    1    3    3    0    0  0.67522425832E+00 -0.30742354677E+02 -0.11947245082E+02  0.32989333549E+02  0.10566000000E+00 0.  1.
         23    2    1    0    0    0 -0.83885721254E+01  0.19876264137E+02  0.21666289397E+02  0.94424485048E+02  0.89337121411E+02 0.  0.
         13    1    3    3    0    0 -0.90637963837E+01  0.50618618814E+02  0.33613534479E+02  0.61435151499E+02  0.10566000000E+00 0. -1.
         22    1    1    0    0    0  0.83885721254E+01 -0.19876264137E+02 -0.21666289397E+02  0.30575514952E+02  0.00000000000E+00 0. -1.
</event>
<event>
 5    1  0.1766627E-003  0.9118800E+02  0.7818608E-02  0.1130116E+00
         25   -1    0    0    0    0  0.00000000000E+00  0.00000000000E+00  0.99999998245E-14  0.12500000000E+03  0.12500000000E+03 0.  0.
        -13    1    3    3    0    0  0.27661458764E+02  0.17021155061E+02 -0.34131227134E+02  0.47115049085E+02  0.10566000000E+00 0.  1.
         23    2    1    0    0    0  0.26730149295E+02 -0.82490365056E+00  0.11325048737E+02  0.95957994624E+02  0.91457633121E+02 0.  0.
         13    1    3    3    0    0 -0.93130946974E+00 -0.17846058711E+02  0.45456275871E+02  0.48842945539E+02  0.10566000000E+00 0. -1.
         22    1    1    0    0    0 -0.26730149295E+02  0.82490365056E+00 -0.11325048737E+02  0.29042005376E+02  0.00000000000E+00 0. -1.
</event>
<event>
 5    1  0.1766627E-003  0.9118800E+02  0.7818608E-02  0.1130116E+00
         25   -1    0    0    0    0  0.00000000000E+00  0.00000000000E+00  0.99999998245E-14  0.12500000000E+03  0.12500000000E+03 0.  0.
        -13    1    3    3    0    0 -0.56448551794E+02 -0.18677313976E+02 -0.77330084211E+01  0.59959083050E+02  0.10566000000E+00 0.  1.
         23    2    1    0    0    0 -0.19709062271E+02 -0.17044302116E+02 -0.10650634676E+02  0.96850552595E+02  0.92669510351E+02 0.  0.
         13    1    3    3    0    0  0.36739489523E+02  0.16330118598E+01 -0.29176262551E+01  0.36891469544E+02  0.10566000000E+00 0. -1.
         22    1    1    0    0    0  0.19709062271E+02  0.17044302116E+02  0.10650634676E+02  0.28149447405E+02  0.00000000000E+00 0.  1.
</event>
<event>
 5    1  0.1766627E-003  0.9118800E+02  0.7818608E-02  0.1130116E+00
         25   -1    0    0    0    0  0.00000000000E+00  0.00000000000E+00  0.99999998245E-14  0.12500000000E+03  0.12500000000E+03 0.  0.
        -13    1    3    3    0    0  0.18901581747E+02 -0.30018946545E+02  0.11979473597E+02  0.37442300890E+02  0.10566000000E+00 0. -1.
         23    2    1    0    0    0  0.13106385442E+02  0.26043449220E+02 -0.28038071470E+01  0.95710071336E+02  0.91118153153E+02 0.  0.
         13    1    3    3    0    0 -0.57951963052E+01  0.56062395765E+02 -0.14783280744E+02  0.58267770446E+02  0.10566000000E+00 0.  1.
         22    1    1    0    0    0 -0.13106385442E+02 -0.26043449220E+02  0.28038071470E+01  0.29289928664E+02  0.00000000000E+00 0.  1.
</event>
<event>
 5    1  0.1766627E-003  0.9118800E+02  0.7818608E-02  0.1130116E+00
         25   -1    0    0    0    0  0.00000000000E+00  0.00000000000E+00  0.99999998245E-14  0.12500000000E+03  0.12500000000E+03 0.  0.
        -13    1    3    3    0    0 -0.32909982081E+02  0.27075477455E+02 -0.22159038185E+02  0.48033139990E+02  0.10566000000E+00 0. -1.
         23    2    1    0    0    0 -0.26339210513E+02 -0.15419440994E+02 -0.65063966917E+01  0.93793488357E+02  0.88449828091E+02 0.  0.
         13    1    3    3    0    0  0.65707715677E+01 -0.42494918449E+02  0.15652641493E+02  0.45760348367E+02  0.10566000000E+00 0.  1.
         22    1    1    0    0    0  0.26339210513E+02  0.15419440994E+02  0.65063966917E+01  0.31206511643E+02  0.00000000000E+00 0.  1.
</event>
<event>
 5    1  0.1766627E-003  0.9118800E+02  0.7818608E-02  0.1130116E+00
         25   -1    0    0    0    0  0.00000000000E+00  0.00000000000E+00  0.99999998245E-14  0.12500000000E+03  0.12500000000E+03 0.  0.
        -13    1    3    3    0    0  0.27052557321E+02  0.32377440661E+02 -0.13646976063E+02  0.44344003440E+02  0.10566000000E+00 0.  1.
         23    2    1    0    0    0 -0.15772672054E+02  0.29158871420E+02  0.55531338759E+01  0.91386695164E+02  0.84980431812E+02 0.  0.
         13    1    3    3    0    0 -0.42825229375E+02 -0.32185692411E+01  0.19200109939E+02  0.47042691724E+02  0.10566000000E+00 0. -1.
         22    1    1    0    0    0  0.15772672054E+02 -0.29158871420E+02 -0.55531338759E+01  0.33613304836E+02  0.00000000000E+00 0.  1.
</event>
<event>
 5    1  0.1766627E-003  0.9118800E+02  0.7818608E-02  0.1130116E+00
         25   -1    0    0    0    0  0.00000000000E+00  0.00000000000E+00  0.99999998245E-14  0.12500000000E+03  0.12500000000E+03 0.  0.
        -13    1    3    3    0    0 -0.17542204807E+02 -0.35341024449E+02  0.34396934989E+01  0.39605045310E+02  0.10566000000E+00 0. -1.
         23    2    1    0    0    0  0.97722566678E+01  0.19989005483E+02 -0.58215143277E+01  0.10200114417E+03  0.99374473793E+02 0.  0.
         13    1    3    3    0    0  0.27314461475E+02  0.55330029932E+02 -0.92612078266E+01  0.62396098856E+02  0.10566000000E+00 0.  1.
         22    1    1    0    0    0 -0.97722566678E+01 -0.19989005483E+02  0.58215143277E+01  0.22998855834E+02  0.00000000000E+00 0.  1.
</event>
<event>
 5    1  0.1766627E-003  0.9118800E+02  0.7818608E-02  0.1130116E+00
         25   -1    0    0    0    0  0.00000000000E+00  0.00000000000E+00  0.99999998245E-14  0.12500000000E+03  0.12500000000E+03 0.  0.
        -13    1    3    3    0    0  0.38458431899E+02  0.38706803000E+02  0.99623068256E+01  0.55466443043E+02  0.10566000000E+00 0.  1.
         23    2    1    0    0    0  0.95280664326E+01  0.97114932981E+01  0.22850421090E+02  0.98406036474E+02  0.94744441096E+02 0.  0.
         13    1    3    3    0    0 -0.28930365466E+02 -0.28995309702E+02  0.12888114264E+02  0.42939593431E+02  0.10566000000E+00 0. -1.
         22    1    1    0    0    0 -0.95280664326E+01 -0.97114932981E+01 -0.22850421090E+02  0.26593963526E+02  0.00000000000E+00 0.  1.
</event>
<event>
 5    1  0.1766627E-003  0.9118800E+02  0.7818608E-02  0.1130116E+00
         25   -1    0    0    0    0  0.00000000000E+00  0.00000000000E+00  0.99999998245E-14  0.12500000000E+03  0.12500000000E+03 0.  0.
        -13    1    3    3    0    0 -0.17752310220E+02 -0.57522277473E+02 -0.10232918116E+02  0.61062924111E+02  0.10566000000E+00 0. -1.
         23    2    1    0    0    0 -0.15513949735E+02 -0.24654805571E+02  0.95497393598E+00  0.95854605006E+02  0.91316215710E+02 0.  0.
         13    1    3    3    0    0  0.22383604845E+01  0.32867471902E+02  0.11187892052E+02  0.34791680895E+02  0.10566000000E+00 0.  1.
         22    1    1    0    0    0  0.15513949735E+02  0.24654805571E+02 -0.95497393598E+00  0.29145394994E+02  0.00000000000E+00 0. -1.
</event>
<event>
 5    1  0.1766627E-003  0.9118800E+02  0.7818608E-02  0.1130116E+00
         25   -1    0    0    0    0  0.00000000000E+00  0.00000000000E+00  0.99999998245E-14  0.12500000000E+03  0.12500000000E+03 0.  0.
        -13    1    3    3    0    0  0.40349247652E+02  0.16817484534E+02 -0.20517130422E+02  0.48289267720E+02  0.10566000000E+00 0. -1.
         23    2    1    0    0    0  0.20431133278E+02 -0.56127633762E+01  0.18061695234E+02  0.97158319834E+02  0.93083725530E+02 0.  0.
         13    1    3    3    0    0 -0.19918114374E+02 -0.22430247910E+02  0.38578825656E+02  0.48869052114E+02  0.10566000000E+00 0.  1.
         22    1    1    0    0    0 -0.20431133278E+02  0.56127633762E+01 -0.18061695234E+02  0.27841680166E+02  0.00000000000E+00 0. -1.
</event>
<event>
 5    1  0.1766627E-003  0.9118800E+02  0.7818608E-02  0.1130116E+00
         25   -1    0    0    0    0  0.00000000000E+00  0.00000000000E+00  0.99999998245E-14  0.12500000000E+03  0.12500000000E+03 0.  0.
        -13    1    3    3    0    0  0.27109964668E+02  0.27388147298E+02 -0.48958339675E+02  0.62305625625E+02  0.10566000000E+00 0.  1.
         23    2    1    0    0    0  0.17699381940E+02  0.12966402021E+02 -0.27583685014E+02  0.89754356562E+02  0.82544467655E+02 0.  0.
         13    1    3    3    0    0 -0.94105827283E+01 -0.14421745278E+02  0.21374654661E+02  0.27448730937E+02  0.10566000000E+00 0. -1.
         22    1    1    0    0    0 -0.17699381940E+02 -0.12966402021E+02  0.27583685014E+02  0.35245643438E+02  0.00000000000E+00 0.  1.
</event>
<event>
 5    1  0.1766627E-003  0.9118800E+02  0.7818608E-02  0.1130116E+00
         25   -1    0    0    0    0  0.00000000000E+00  0.00000000000E+00  0.99999998245E-14  0.12500000000E+03  0.12500000000E+03 0.  0.
        -13    1    3    3    0    0  0.39007508589E+02 -0.44173767776E+02  0.12988319010E+02  0.60345795882E+02  0.10566000000E+00 0. -1.
         23    2    1    0    0    0  0.30682986659E+02 -0.18717505596E+02  0.29893978873E+01  0.88934404403E+02  0.81293302927E+02 0.  0.
         13    1    3    3    0    0 -0.83245219305E+01  0.25456262180E+02 -0.99989211230E+01  0.28588608521E+02  0.10566000000E+00 0.  1.
         22    1    1    0    0    0 -0.30682986659E+02  0.18717505596E+02 -0.29893978873E+01  0.36065595597E+02  0.00000000000E+00 0. -1.
</event>
<event>
 5    1  0.1766627E-003  0.9118800E+02  0.7818608E-02  0.1130116E+00
         25   -1    0    0    0    0  0.00000000000E+00  0.00000000000E+00  0.99999998245E-14  0.12500000000E+03  0.12500000000E+03 0.  0.
        -13    1    3    3    0    0 -0.10720797231E+02 -0.43890689402E+01 -0.33350392769E+02  0.35305230226E+02  0.10566000000E+00 0.  1.
         23    2    1    0    0    0  0.96164922009E+01  0.92371271807E+00  0.25465055098E+02  0.97764009131E+02  0.93893568911E+02 0.  0.
         13    1    3    3    0    0  0.20337289432E+02  0.53127816582E+01  0.58815447868E+02  0.62458778905E+02  0.10566000000E+00 0. -1.
         22    1    1    0    0    0 -0.96164922009E+01 -0.92371271807E+00 -0.25465055098E+02  0.27235990869E+02  0.00000000000E+00 0. -1.
</event>
<event>
 5    1  0.1766627E-003  0.9118800E+02  0.7818608E-02  0.1130116E+00
         25   -1    0    0    0    0  0.00000000000E+00  0.00000000000E+00  0.99999998245E-14  0.12500000000E+03  0.12500000000E+03 0.  0.
        -13    1    3    3    0    0  0.91478254333E+01 -0.42287918513E+02 -0.12407803266E+02  0.45010171164E+02  0.10566000000E+00 0. -1.
         23    2    1    0    0    0  0.28924405282E+02 -0.33192055139E+00  0.69167358054E+01  0.95258234309E+02  0.90496179905E+02 0.  0.
         13    1    3    3    0    0  0.19776579849E+02  0.41955997961E+02  0.19324539072E+02  0.50248063145E+02  0.10566000000E+00 0.  1.
         22    1    1    0    0    0 -0.28924405282E+02  0.33192055139E+00 -0.69167358054E+01  0.29741765691E+02  0.00000000000E+00 0. -1.
</event>
<event>
 5    1  0.1766627E-003  0.9118800E+02  0.7818608E-02  0.1130116E+00
         25   -1    0    0    0    0  0.00000000000E+00  0.00000000000E+00  0.99999998245E-14  0.12500000000E+03  0.12500000000E+03 0.  0.
        -13    1    3    3    0    0 -0.28744489002E+02 -0.74502771946E+01  0.34124335486E+02  0.45235314906E+02  0.10566000000E+00 0.  1.
         23    2    1    0    0    0  0.79074023671E+01 -0.28351336567E+02  0.95848592727E+01  0.94045277830E+02  0.88804951763E+02 0.  0.
         13    1    3    3    0    0  0.36651891369E+02 -0.20901059372E+02 -0.24539476213E+02  0.48809962924E+02  0.10566000000E+00 0. -1.
         22    1    1    0    0    0 -0.79074023671E+01  0.28351336567E+02 -0.95848592727E+01  0.30954722170E+02  0.00000000000E+00 0. -1.
</event>
<event>
 5    1  0.1766627E-003  0.9118800E+02  0.7818608E-02  0.1130116E+00
         25   -1    0    0    0    0  0.00000000000E+00  0.00000000000E+00  0.99999998245E-14  0.12500000000E+03  0.12500000000E+03 0.  0.
        -13    1    3    3    0    0  0.37615762111E+02  0.13864796436E+01 -0.39993435473E+02  0.54921343119E+02  0.10566000000E+00 0.  1.
         23    2    1    0    0    0  0.30559911109E+02  0.58864557203E+01 -0.20126574555E+01  0.93813315053E+02  0.88477843347E+02 0.  0.
         13    1    3    3    0    0 -0.70558510022E+01  0.44999760767E+01  0.37980778018E+02  0.38891971934E+02  0.10566000000E+00 0. -1.
         22    1    1    0    0    0 -0.30559911109E+02 -0.58864557203E+01  0.20126574555E+01  0.31186684947E+02  0.00000000000E+00 0.  1.
</event>
<event>
 5    1  0.1766627E-003  0.9118800E+02  0.7818608E-02  0.1130116E+00
         25   -1    0    0    0    0  0.00000000000E+00  0.00000000000E+00  0.99999998245E-14  0.12500000000E+03  0.12500000000E+03 0.  0.
        -13    1    3    3    0    0  0.86147681035E+01 -0.31468815410E+02 -0.80230049888E+01  0.33598814650E+02  0.10566000000E+00 0.  1.
         23    2    1    0    0    0 -0.11331494015E+02  0.26952224244E+02 -0.43550561053E+01  0.95440032781E+02  0.90746945928E+02 0.  0.
         13    1    3    3    0    0 -0.19946262118E+02  0.58421039655E+02  0.36679488835E+01  0.61841218131E+02  0.10566000000E+00 0. -1.
         22    1    1    0    0    0  0.11331494015E+02 -0.26952224244E+02  0.43550561053E+01  0.29559967219E+02  0.00000000000E+00 0. -1.
</event>
<event>
 5    1  0.1766627E-003  0.9118800E+02  0.7818608E-02  0.1130116E+00
         25   -1    0    0    0    0  0.00000000000E+00  0.00000000000E+00  0.99999998245E-14  0.12500000000E+03  0.12500000000E+03 0.  0.
        -13    1    3    3    0    0 -0.69467771816E+01  0.68667802775E+01  0.36758021072E+02  0.38033848895E+02  0.10566000000E+00 0. -1.
         23    2    1    0    0    0 -0.67291562636E+01 -0.25467444424E+02 -0.11608901024E+02  0.96213912171E+02  0.91806742905E+02 0.  0.
         13    1    3    3    0    0  0.21762091799E+00 -0.32334224701E+02 -0.48366922095E+02  0.58180063277E+02  0.10566000000E+00 0.  1.
         22    1    1    0    0    0  0.67291562636E+01  0.25467444424E+02  0.11608901024E+02  0.28786087829E+02  0.00000000000E+00 0.  1.
</event>
<event>
 5    1  0.1766627E-003  0.9118800E+02  0.7818608E-02  0.1130116E+00
         25   -1    0    0    0    0  0.00000000000E+00  0.00000000000E+00  0.99999998245E-14  0.12500000000E+03  0.12500000000E+03 0.  0.
        -13    1    3    3    0    0  0.26186752366E+02 -0.15714949296E+02  0.22503467757E+02  0.37935772774E+02  0.10566000000E+00 0.  1.
         23    2    1    0    0    0  0.73541654310E+01  0.78834075699E+01 -0.27004083089E+02  0.95923336375E+02  0.91410251579E+02 0.  0.
         13    1    3    3    0    0 -0.18832586935E+02  0.23598356866E+02 -0.49507550846E+02  0.57987563600E+02  0.10566000000E+00 0. -1.
         22    1    1    0    0    0 -0.73541654310E+01 -0.78834075699E+01  0.27004083089E+02  0.29076663625E+02  0.00000000000E+00 0. -1.
</event>
<event>
 5    1  0.1766627E-003  0.9118800E+02  0.7818608E-02  0.1130116E+00
         25   -1    0    0    0    0  0.00000000000E+00  0.00000000000E+00  0.99999998245E-14  0.12500000000E+03  0.12500000000E+03 0.  0.
        -13    1    3    3    0    0  0.35430916706E+02 -0.34425801553E+02  0.30617919264E+02  0.58120167027E+02  0.10566000000E+00 0. -1.
         23    2    1    0    0    0  0.22456293365E+02 -0.90847799693E+00  0.17979178639E+02  0.96218733375E+02  0.91813307009E+02 0.  0.
         13    1    3    3    0    0 -0.12974623341E+02  0.33517323556E+02 -0.12638740624E+02  0.38098566348E+02  0.10566000000E+00 0.  1.
         22    1    1    0    0    0 -0.22456293365E+02  0.90847799693E+00 -0.17979178639E+02  0.28781266625E+02  0.00000000000E+00 0. -1.
</event>
<event>
 5    1  0.1766627E-003  0.9118800E+02  0.7818608E-02  0.1130116E+00
         25   -1    0    0    0    0  0.00000000000E+00  0.00000000000E+00  0.99999998245E-14  0.12500000000E+03  0.12500000000E+03 0.  0.
        -13    1    3    3    0    0  0.29402189537E+02  0.47943269212E+02  0.11678439243E+02  0.57440777497E+02  0.10566000000E+00 0. -1.
         23    2    1    0    0    0  0.57408172105E+01  0.19507556635E+02  0.21184445596E+02  0.95635353172E+02  0.91015593681E+02 0.  0.
         13    1    3    3    0    0 -0.23661372327E+02 -0.28435712577E+02  0.95060063533E+01  0.38194575675E+02  0.10566000000E+00 0.  1.
         22    1    1    0    0    0 -0.57408172105E+01 -0.19507556635E+02 -0.21184445596E+02  0.29364646828E+02  0.00000000000E+00 0. -1.
</event>
<event>
 5    1  0.1766627E-003  0.9118800E+02  0.7818608E-02  0.1130116E+00
         25   -1    0    0    0    0  0.00000000000E+00  0.00000000000E+00  0.99999998245E-14  0.12500000000E+03  0.12500000000E+03 0.  0.
        -13    1    3    3    0    0  0.23293619775E+02 -0.35788196291E+02 -0.43382450432E+02  0.60872291607E+02  0.10566000000E+00 0.  1.
         23    2    1    0    0    0  0.14131030151E+02 -0.21988190650E+02 -0.12256963912E+02  0.96131336963E+02  0.91694243226E+02 0.  0.
         13    1    3    3    0    0 -0.91625896240E+01  0.13800005640E+02  0.31125486520E+02  0.35259045356E+02  0.10566000000E+00 0. -1.
         22    1    1    0    0    0 -0.14131030151E+02  0.21988190650E+02  0.12256963912E+02  0.28868663037E+02  0.00000000000E+00 0.  1.
</event>
<event>
 5    1  0.1766627E-003  0.9118800E+02  0.7818608E-02  0.1130116E+00
         25   -1    0    0    0    0  0.00000000000E+00  0.00000000000E+00  0.99999998245E-14  0.12500000000E+03  0.12500000000E+03 0.  0.
        -13    1    3    3    0    0 -0.17912835271E+02  0.51934483953E+01  0.58713325789E+02  0.61604442720E+02  0.10566000000E+00 0. -1.
         23    2    1    0    0    0 -0.82158347469E+01  0.98466675293E+01  0.26625099331E+02  0.95447458376E+02  0.90757173789E+02 0.  0.
         13    1    3    3    0    0  0.96970005238E+01  0.46532191341E+01 -0.32088226458E+02  0.33843015656E+02  0.10566000000E+00 0.  1.
         22    1    1    0    0    0  0.82158347469E+01 -0.98466675293E+01 -0.26625099331E+02  0.29552541624E+02  0.00000000000E+00 0. -1.
</event>
<event>
 5    1  0.1766627E-003  0.9118800E+02  0.7818608E-02  0.1130116E+00
         25   -1    0    0    0    0  0.00000000000E+00  0.00000000000E+00  0.99999998245E-14  0.12500000000E+03  0.12500000000E+03 0.  0.
        -13    1    3    3    0    0  0.43085659067E+02 -0.14381945565E+02  0.45064416637E+01  0.45645739735E+02  0.10566000000E+00 0.  1.
         23    2    1    0    0    0  0.10397481929E+02  0.22702882924E+02 -0.11363269425E+02  0.97565488604E+02  0.93628906600E+02 0.  0.
         13    1    3    3    0    0 -0.32688177138E+02  0.37084828488E+02 -0.15869711089E+02  0.51919748870E+02  0.10566000000E+00 0. -1.
         22    1    1    0    0    0 -0.10397481929E+02 -0.22702882924E+02  0.11363269425E+02  0.27434511396E+02  0.00000000000E+00 0. -1.
</event>
<event>
 5    1  0.1766627E-003  0.9118800E+02  0.7818608E-02  0.1130116E+00
         25   -1    0    0    0    0  0.00000000000E+00  0.00000000000E+00  0.99999998245E-14  0.12500000000E+03  0.12500000000E+03 0.  0.
        -13    1    3    3    0    0  0.26622764894E+01 -0.37909309855E+02 -0.48030177760E+02  0.61246327477E+02  0.10566000000E+00 0.  1.
         23    2    1    0    0    0  0.99850581354E+01 -0.16521995516E+02 -0.22910262540E+02  0.95040730125E+02  0.90195246722E+02 0.  0.
         13    1    3    3    0    0  0.73227816459E+01  0.21387314338E+02  0.25119915220E+02  0.33794402648E+02  0.10566000000E+00 0. -1.
         22    1    1    0    0    0 -0.99850581354E+01  0.16521995516E+02  0.22910262540E+02  0.29959269875E+02  0.00000000000E+00 0.  1.
</event>
<event>
 5    1  0.1766627E-003  0.9118800E+02  0.7818608E-02  0.1130116E+00
         25   -1    0    0    0    0  0.00000000000E+00  0.00000000000E+00  0.99999998245E-14  0.12500000000E+03  0.12500000000E+03 0.  0.
        -13    1    3    3    0    0  0.16631303672E+02 -0.50058489302E+00 -0.33840273255E+02  0.37709761403E+02  0.10566000000E+00 0. -1.
         23    2    1    0    0    0 -0.22764250461E+02  0.15576291094E+02  0.68445292915E+01  0.96580296896E+02  0.92304248136E+02 0.  0.
         13    1    3    3    0    0 -0.39395554133E+02  0.16076875987E+02  0.40684802546E+02  0.58870535493E+02  0.10566000000E+00 0.  1.
         22    1    1    0    0    0  0.22764250461E+02 -0.15576291094E+02 -0.68445292915E+01  0.28419703104E+02  0.00000000000E+00 0.  1.
</event>
<event>
 5    1  0.1766627E-003  0.9118800E+02  0.7818608E-02  0.1130116E+00
         25   -1    0    0    0    0  0.00000000000E+00  0.00000000000E+00  0.99999998245E-14  0.12500000000E+03  0.12500000000E+03 0.  0.
        -13    1    3    3    0    0  0.24992190430E+02  0.15246788610E+02  0.18126799630E+02  0.34433503660E+02  0.10566000000E+00 0.  1.
         23    2    1    0    0    0 -0.22030611020E+02 -0.20148006078E+02  0.51037562741E+01  0.94712406848E+02  0.89739075725E+02 0.  0.
         13    1    3    3    0    0 -0.47022801450E+02 -0.35394794689E+02 -0.13023043356E+02  0.60278903188E+02  0.10566000000E+00 0. -1.
         22    1    1    0    0    0  0.22030611020E+02  0.20148006078E+02 -0.51037562741E+01  0.30287593152E+02  0.00000000000E+00 0. -1.
</event>
<event>
 5    1  0.1766627E-003  0.9118800E+02  0.7818608E-02  0.1130116E+00
         25   -1    0    0    0    0  0.00000000000E+00  0.00000000000E+00  0.99999998245E-14  0.12500000000E+03  0.12500000000E+03 0.  0.
        -13    1    3    3    0    0  0.42126658437E+02  0.15090600654E+02  0.43264584868E+01  0.44956767969E+02  0.10566000000E+00 0. -1.
         23    2    1    0    0    0  0.26278892431E+01  0.11916509649E+02 -0.26934988953E+02  0.95429700137E+02  0.90732712041E+02 0.  0.
         13    1    3    3    0    0 -0.39498769194E+02 -0.31740910058E+01 -0.31261447440E+02  0.50472932168E+02  0.10566000000E+00 0.  1.
         22    1    1    0    0    0 -0.26278892431E+01 -0.11916509649E+02  0.26934988953E+02  0.29570299863E+02  0.00000000000E+00 0.  1.
</event>
<event>
 5    1  0.1766627E-003  0.9118800E+02  0.7818608E-02  0.1130116E+00
         25   -1    0    0    0    0  0.00000000000E+00  0.00000000000E+00  0.99999998245E-14  0.12500000000E+03  0.12500000000E+03 0.  0.
        -13    1    3    3    0    0  0.61092337959E+02 -0.71797312393E+01 -0.73363207526E+00  0.61517246996E+02  0.10566000000E+00 0.  1.
         23    2    1    0    0    0  0.26852390973E+02 -0.10199320479E+02  0.31259450924E+01  0.96106253757E+02  0.91660042763E+02 0.  0.
         13    1    3    3    0    0 -0.34239946986E+02 -0.30195892400E+01  0.38595771677E+01  0.34589006761E+02  0.10566000000E+00 0. -1.
         22    1    1    0    0    0 -0.26852390973E+02  0.10199320479E+02 -0.31259450924E+01  0.28893746243E+02  0.00000000000E+00 0.  1.
</event>
<event>
 5    1  0.1766627E-003  0.9118800E+02  0.7818608E-02  0.1130116E+00
         25   -1    0    0    0    0  0.00000000000E+00  0.00000000000E+00  0.99999998245E-14  0.12500000000E+03  0.12500000000E+03 0.  0.
        -13    1    3    3    0    0  0.16070376657E+02 -0.82755070138E+01 -0.32668420385E+02  0.37336013134E+02  0.10566000000E+00 0. -1.
         23    2    1    0    0    0  0.70889281209E+01 -0.17148565816E+02  0.23585825882E+02  0.94989711865E+02  0.90124513680E+02 0.  0.
         13    1    3    3    0    0 -0.89814485362E+01 -0.88730588023E+01  0.56254246266E+02  0.57653698731E+02  0.10566000000E+00 0.  1.
         22    1    1    0    0    0 -0.70889281209E+01  0.17148565816E+02 -0.23585825882E+02  0.30010288135E+02  0.00000000000E+00 0.  1.
</event>
<event>
 5    1  0.1766627E-003  0.9118800E+02  0.7818608E-02  0.1130116E+00
         25   -1    0    0    0    0  0.00000000000E+00  0.00000000000E+00  0.99999998245E-14  0.12500000000E+03  0.12500000000E+03 0.  0.
        -13    1    3    3    0    0  0.38362774401E+01  0.25241897510E+02 -0.23101794862E+02  0.34432172519E+02  0.10566000000E+00 0.  1.
         23    2    1    0    0    0 -0.12289364982E+01 -0.10061601419E+02  0.27130328321E+02  0.96037941668E+02  0.91566835792E+02 0.  0.
         13    1    3    3    0    0 -0.50652139383E+01 -0.35303498929E+02  0.50232123183E+02  0.61605769149E+02  0.10566000000E+00 0. -1.
         22    1    1    0    0    0  0.12289364982E+01  0.10061601419E+02 -0.27130328321E+02  0.28962058332E+02  0.00000000000E+00 0. -1.
</event>
<event>
 5    1  0.1766627E-003  0.9118800E+02  0.7818608E-02  0.1130116E+00
         25   -1    0    0    0    0  0.00000000000E+00  0.00000000000E+00  0.99999998245E-14  0.12500000000E+03  0.12500000000E+03 0.  0.
        -13    1    3    3    0    0  0.35205501735E+01  0.26654647894E+02  0.24300109279E+02  0.36240460854E+02  0.10566000000E+00 0.  1.
         23    2    1    0    0    0 -0.91049785387E+01 -0.25343177714E+02 -0.55395155694E+01  0.97507027742E+02  0.93550825414E+02 0.  0.
         13    1    3    3    0    0 -0.12625528712E+02 -0.51997825608E+02 -0.29839624849E+02  0.61266566889E+02  0.10566000000E+00 0. -1.
         22    1    1    0    0    0  0.91049785387E+01  0.25343177714E+02  0.55395155694E+01  0.27492972258E+02  0.00000000000E+00 0. -1.
</event>
<event>
 5    1  0.1766627E-003  0.9118800E+02  0.7818608E-02  0.1130116E+00
         25   -1    0    0    0    0  0.00000000000E+00  0.00000000000E+00  0.99999998245E-14  0.12500000000E+03  0.12500000000E+03 0.  0.
        -13    1    3    3    0    0 -0.58224715631E+01  0.54589642880E+01 -0.38129303288E+02  0.38955826258E+02  0.10566000000E+00 0.  1.
         23    2    1    0    0    0  0.17364573542E+02 -0.22633495956E+02  0.56618214507E+01  0.95916331462E+02  0.91400672128E+02 0.  0.
         13    1    3    3    0    0  0.23187045105E+02 -0.28092460244E+02  0.43791124738E+02  0.56960505204E+02  0.10566000000E+00 0. -1.
         22    1    1    0    0    0 -0.17364573542E+02  0.22633495956E+02 -0.56618214507E+01  0.29083668538E+02  0.00000000000E+00 0. -1.
</event>
<event>
 5    1  0.1766627E-003  0.9118800E+02  0.7818608E-02  0.1130116E+00
         25   -1    0    0    0    0  0.00000000000E+00  0.00000000000E+00  0.99999998245E-14  0.12500000000E+03  0.12500000000E+03 0.  0.
        -13    1    3    3    0    0 -0.17114317875E+02 -0.15240490793E+02  0.47978395160E+02  0.53170574588E+02  0.10566000000E+00 0. -1.
         23    2    1    0    0    0  0.92947361761E+01 -0.22488479454E+02  0.13598945673E+02  0.97124291001E+02  0.93038017769E+02 0.  0.
         13    1    3    3    0    0  0.26409054051E+02 -0.72479886616E+01 -0.34379449487E+02  0.43953716413E+02  0.10566000000E+00 0.  1.
         22    1    1    0    0    0 -0.92947361761E+01  0.22488479454E+02 -0.13598945673E+02  0.27875708999E+02  0.00000000000E+00 0. -1.
</event>
<event>
 5    1  0.1766627E-003  0.9118800E+02  0.7818608E-02  0.1130116E+00
         25   -1    0    0    0    0  0.00000000000E+00  0.00000000000E+00  0.99999998245E-14  0.12500000000E+03  0.12500000000E+03 0.  0.
        -13    1    3    3    0    0  0.47428095503E+02  0.74570047558E+01  0.17162598477E+02  0.50986244356E+02  0.10566000000E+00 0. -1.
         23    2    1    0    0    0  0.22268322634E+02 -0.10871583688E+01 -0.18894108216E+02  0.95775910082E+02  0.91208428999E+02 0.  0.
         13    1    3    3    0    0 -0.25159772869E+02 -0.85441631246E+01 -0.36056706693E+02  0.44789665727E+02  0.10566000000E+00 0.  1.
         22    1    1    0    0    0 -0.22268322634E+02  0.10871583688E+01  0.18894108216E+02  0.29224089918E+02  0.00000000000E+00 0.  1.
</event>
<event>
 5    1  0.1766627E-003  0.9118800E+02  0.7818608E-02  0.1130116E+00
         25   -1    0    0    0    0  0.00000000000E+00  0.00000000000E+00  0.99999998245E-14  0.12500000000E+03  0.12500000000E+03 0.  0.
        -13    1    3    3    0    0  0.38500371351E+02 -0.10423535118E+02 -0.40807037657E+02  0.57062721324E+02  0.10566000000E+00 0.  1.
         23    2    1    0    0    0  0.53563083008E+01  0.39826351802E+00 -0.31356233726E+02  0.93187077375E+02  0.87588637070E+02 0.  0.
         13    1    3    3    0    0 -0.33144063050E+02  0.10821798636E+02  0.94508039311E+01  0.36124356052E+02  0.10566000000E+00 0. -1.
         22    1    1    0    0    0 -0.53563083008E+01 -0.39826351802E+00  0.31356233726E+02  0.31812922625E+02  0.00000000000E+00 0.  1.
</event>
<event>
 5    1  0.1766627E-003  0.9118800E+02  0.7818608E-02  0.1130116E+00
         25   -1    0    0    0    0  0.00000000000E+00  0.00000000000E+00  0.99999998245E-14  0.12500000000E+03  0.12500000000E+03 0.  0.
        -13    1    3    3    0    0 -0.14309512231E+02  0.17506358211E+02  0.53688243283E+02  0.58255243103E+02  0.10566000000E+00 0.  1.
         23    2    1    0    0    0 -0.19750125724E+02 -0.10307691393E+01  0.21573094522E+02  0.95733494257E+02  0.91150280111E+02 0.  0.
         13    1    3    3    0    0 -0.54406134932E+01 -0.18537127351E+02 -0.32115148761E+02  0.37478251154E+02  0.10566000000E+00 0. -1.
         22    1    1    0    0    0  0.19750125724E+02  0.10307691393E+01 -0.21573094522E+02  0.29266505743E+02  0.00000000000E+00 0.  1.
</event>
<event>
 5    1  0.1766627E-003  0.9118800E+02  0.7818608E-02  0.1130116E+00
         25   -1    0    0    0    0  0.00000000000E+00  0.00000000000E+00  0.99999998245E-14  0.12500000000E+03  0.12500000000E+03 0.  0.
        -13    1    3    3    0    0  0.36419291911E+01 -0.36988288765E+02  0.41318976088E+02  0.55575769027E+02  0.10566000000E+00 0. -1.
         23    2    1    0    0    0  0.21322051839E+02 -0.10480568912E+02  0.15005987949E+02  0.96899254571E+02  0.92735180179E+02 0.  0.
         13    1    3    3    0    0  0.17680122648E+02  0.26507719853E+02 -0.26312988139E+02  0.41323485544E+02  0.10566000000E+00 0.  1.
         22    1    1    0    0    0 -0.21322051839E+02  0.10480568912E+02 -0.15005987949E+02  0.28100745429E+02  0.00000000000E+00 0. -1.
</event>
<event>
 5    1  0.1766627E-003  0.9118800E+02  0.7818608E-02  0.1130116E+00
         25   -1    0    0    0    0  0.00000000000E+00  0.00000000000E+00  0.99999998245E-14  0.12500000000E+03  0.12500000000E+03 0.  0.
        -13    1    3    3    0    0 -0.23851816526E+02 -0.45842430968E+02  0.12280576346E+02  0.53115547141E+02  0.10566000000E+00 0.  1.
         23    2    1    0    0    0  0.78447076479E+01 -0.18213121699E+02  0.21062381870E+02  0.96071101470E+02  0.91612091820E+02 0.  0.
         13    1    3    3    0    0  0.31696524174E+02  0.27629309270E+02  0.87818055241E+01  0.42955554329E+02  0.10566000000E+00 0. -1.
         22    1    1    0    0    0 -0.78447076479E+01  0.18213121699E+02 -0.21062381870E+02  0.28928898530E+02  0.00000000000E+00 0.  1.
</event>
<event>
 5    1  0.1766627E-003  0.9118800E+02  0.7818608E-02  0.1130116E+00
         25   -1    0    0    0    0  0.00000000000E+00  0.00000000000E+00  0.99999998245E-14  0.12500000000E+03  0.12500000000E+03 0.  0.
        -13    1    3    3    0    0 -0.55666457100E+02 -0.25810215912E+02 -0.38324967219E+00  0.61360245565E+02  0.10566000000E+00 0. -1.
         23    2    1    0    0    0 -0.25675881397E+02 -0.14325588790E+02  0.79576006500E+01  0.94540243143E+02  0.89498942931E+02 0.  0.
         13    1    3    3    0    0  0.29990575703E+02  0.11484627123E+02  0.83408503221E+01  0.33179997578E+02  0.10566000000E+00 0.  1.
         22    1    1    0    0    0  0.25675881397E+02  0.14325588790E+02 -0.79576006500E+01  0.30459756857E+02  0.00000000000E+00 0. -1.
</event>
<event>
 5    1  0.1766627E-003  0.9118800E+02  0.7818608E-02  0.1130116E+00
         25   -1    0    0    0    0  0.00000000000E+00  0.00000000000E+00  0.99999998245E-14  0.12500000000E+03  0.12500000000E+03 0.  0.
        -13    1    3    3    0    0  0.11985957578E+02  0.23126276030E+02  0.54571542128E+02  0.60469431917E+02  0.10566000000E+00 0. -1.
         23    2    1    0    0    0  0.49688171741E+00  0.21450784389E+01  0.30552268429E+02  0.94368490747E+02  0.89258740114E+02 0.  0.
         13    1    3    3    0    0 -0.11489075861E+02 -0.20981197591E+02 -0.24019273699E+02  0.33899058830E+02  0.10566000000E+00 0.  1.
         22    1    1    0    0    0 -0.49688171741E+00 -0.21450784389E+01 -0.30552268429E+02  0.30631509253E+02  0.00000000000E+00 0. -1.
</event>
<event>
 5    1  0.1766627E-003  0.9118800E+02  0.7818608E-02  0.1130116E+00
         25   -1    0    0    0    0  0.00000000000E+00  0.00000000000E+00  0.99999998245E-14  0.12500000000E+03  0.12500000000E+03 0.  0.
        -13    1    3    3    0    0  0.14119408719E+01  0.31154743296E+02  0.21629298008E+02  0.37953251551E+02  0.10566000000E+00 0.  1.
         23    2    1    0    0    0  0.18481953615E+02 -0.28690323449E+01 -0.22177863199E+02  0.95988423481E+02  0.91499212403E+02 0.  0.
         13    1    3    3    0    0  0.17070012743E+02 -0.34023775641E+02 -0.43807161208E+02  0.58035171931E+02  0.10566000000E+00 0. -1.
         22    1    1    0    0    0 -0.18481953615E+02  0.28690323449E+01  0.22177863199E+02  0.29011576519E+02  0.00000000000E+00 0. -1.
</event>
<event>
 5    1  0.1766627E-003  0.9118800E+02  0.7818608E-02  0.1130116E+00
         25   -1    0    0    0    0  0.00000000000E+00  0.00000000000E+00  0.99999998245E-14  0.12500000000E+03  0.12500000000E+03 0.  0.
        -13    1    3    3    0    0  0.26605790042E+02  0.61224159519E+01 -0.21257389721E+02  0.34601153487E+02  0.10566000000E+00 0. -1.
         23    2    1    0    0    0 -0.20908816234E+02 -0.14004588869E+02  0.13133872262E+02  0.96613282925E+02  0.92348907581E+02 0.  0.
         13    1    3    3    0    0 -0.47514606277E+02 -0.20127004821E+02  0.34391261982E+02  0.62012129438E+02  0.10566000000E+00 0.  1.
         22    1    1    0    0    0  0.20908816234E+02  0.14004588869E+02 -0.13133872262E+02  0.28386717075E+02  0.00000000000E+00 0.  1.
</event>
<event>
 5    1  0.1766627E-003  0.9118800E+02  0.7818608E-02  0.1130116E+00
         25   -1    0    0    0    0  0.00000000000E+00  0.00000000000E+00  0.99999998245E-14  0.12500000000E+03  0.12500000000E+03 0.  0.
        -13    1    3    3    0    0 -0.44412621887E+01  0.42781337519E+02  0.76602208614E+01  0.43688188306E+02  0.10566000000E+00 0. -1.
         23    2    1    0    0    0  0.19443699253E+02  0.68614770651E+01 -0.21072671374E+02  0.95517890392E+02  0.90854128128E+02 0.  0.
         13    1    3    3    0    0  0.23884961441E+02 -0.35919860454E+02 -0.28732892235E+02  0.51829702086E+02  0.10566000000E+00 0.  1.
         22    1    1    0    0    0 -0.19443699253E+02 -0.68614770651E+01  0.21072671374E+02  0.29482109608E+02  0.00000000000E+00 0.  1.
</event>
<event>
 5    1  0.1766627E-003  0.9118800E+02  0.7818608E-02  0.1130116E+00
         25   -1    0    0    0    0  0.00000000000E+00  0.00000000000E+00  0.99999998245E-14  0.12500000000E+03  0.12500000000E+03 0.  0.
        -13    1    3    3    0    0 -0.43913458567E+02 -0.14707189236E+02  0.23602774445E+02  0.51978797447E+02  0.10566000000E+00 0.  1.
         23    2    1    0    0    0 -0.23724780895E+01 -0.18833711076E+02  0.24833326810E+02  0.93742497770E+02  0.88377737257E+02 0.  0.
         13    1    3    3    0    0  0.41540980477E+02 -0.41265218400E+01  0.12305523652E+01  0.41763700323E+02  0.10566000000E+00 0. -1.
         22    1    1    0    0    0  0.23724780895E+01  0.18833711076E+02 -0.24833326810E+02  0.31257502230E+02  0.00000000000E+00 0.  1.
</event>
<event>
 5    1  0.1766627E-003  0.9118800E+02  0.7818608E-02  0.1130116E+00
         25   -1    0    0    0    0  0.00000000000E+00  0.00000000000E+00  0.99999998245E-14  0.12500000000E+03  0.12500000000E+03 0.  0.
        -13    1    3    3    0    0 -0.84566079318E+01  0.33061301678E+01  0.35005720456E+02  0.36164296524E+02  0.10566000000E+00 0.  1.
         23    2    1    0    0    0  0.45326897937E+01  0.17974762624E+02 -0.21876009046E+02  0.96326019810E+02  0.91959257025E+02 0.  0.
         13    1    3    3    0    0  0.12989297726E+02  0.14668632456E+02 -0.56881729502E+02  0.60161723286E+02  0.10566000000E+00 0. -1.
         22    1    1    0    0    0 -0.45326897937E+01 -0.17974762624E+02  0.21876009046E+02  0.28673980190E+02  0.00000000000E+00 0. -1.
</event>
<event>
 5    1  0.1766627E-003  0.9118800E+02  0.7818608E-02  0.1130116E+00
         25   -1    0    0    0    0  0.00000000000E+00  0.00000000000E+00  0.99999998245E-14  0.12500000000E+03  0.12500000000E+03 0.  0.
        -13    1    3    3    0    0  0.47394702050E+02 -0.31301785860E+01  0.25667007295E+02  0.53989464045E+02  0.10566000000E+00 0.  1.
         23    2    1    0    0    0  0.84401693367E+01  0.14940095693E+02  0.22016794918E+02  0.97086165147E+02  0.92986780172E+02 0.  0.
         13    1    3    3    0    0 -0.38954532713E+02  0.18070274279E+02 -0.36502123767E+01  0.43096701102E+02  0.10566000000E+00 0. -1.
         22    1    1    0    0    0 -0.84401693367E+01 -0.14940095693E+02 -0.22016794918E+02  0.27913834853E+02  0.00000000000E+00 0.  1.
</event>
<event>
 5    1  0.1766627E-003  0.9118800E+02  0.7818608E-02  0.1130116E+00
         25   -1    0    0    0    0  0.00000000000E+00  0.00000000000E+00  0.99999998245E-14  0.12500000000E+03  0.12500000000E+03 0.  0.
        -13    1    3    3    0    0  0.35987063958E+02 -0.96060584284E+01  0.28896052010E+02  0.47141681309E+02  0.10566000000E+00 0.  1.
         23    2    1    0    0    0 -0.15270698512E+02 -0.39376396988E+01  0.20091968081E+02  0.99458143748E+02  0.96122504841E+02 0.  0.
         13    1    3    3    0    0 -0.51257762469E+02  0.56684187296E+01 -0.88040839285E+01  0.52316462439E+02  0.10566000000E+00 0. -1.
         22    1    1    0    0    0  0.15270698512E+02  0.39376396988E+01 -0.20091968081E+02  0.25541856252E+02  0.00000000000E+00 0. -1.
</event>
<event>
 5    1  0.1766627E-003  0.9118800E+02  0.7818608E-02  0.1130116E+00
         25   -1    0    0    0    0  0.00000000000E+00  0.00000000000E+00  0.99999998245E-14  0.12500000000E+03  0.12500000000E+03 0.  0.
        -13    1    3    3    0    0 -0.21998953142E+02  0.81653252854E+01 -0.54017647246E+02  0.58894344842E+02  0.10566000000E+00 0. -1.
         23    2    1    0    0    0 -0.14051285954E+01 -0.78326071208E+01 -0.28613059303E+02  0.95300988512E+02  0.90555215908E+02 0.  0.
         13    1    3    3    0    0  0.20593824546E+02 -0.15997932406E+02  0.25404587943E+02  0.36406643670E+02  0.10566000000E+00 0.  1.
         22    1    1    0    0    0  0.14051285954E+01  0.78326071208E+01  0.28613059303E+02  0.29699011488E+02  0.00000000000E+00 0. -1.
</event>
<event>
 5    1  0.1766627E-003  0.9118800E+02  0.7818608E-02  0.1130116E+00
         25   -1    0    0    0    0  0.00000000000E+00  0.00000000000E+00  0.99999998245E-14  0.12500000000E+03  0.12500000000E+03 0.  0.
        -13    1    3    3    0    0  0.12666982213E+02 -0.41379214268E+02  0.32687360611E+02  0.54232522711E+02  0.10566000000E+00 0. -1.
         23    2    1    0    0    0  0.81109025082E+01 -0.16021747712E+01  0.29462525437E+02  0.94399442674E+02  0.89302075388E+02 0.  0.
         13    1    3    3    0    0 -0.45560797053E+01  0.39777039497E+02 -0.32248351732E+01  0.40166919963E+02  0.10566000000E+00 0.  1.
         22    1    1    0    0    0 -0.81109025082E+01  0.16021747712E+01 -0.29462525437E+02  0.30600557326E+02  0.00000000000E+00 0. -1.
</event>
<event>
 5    1  0.1766627E-003  0.9118800E+02  0.7818608E-02  0.1130116E+00
         25   -1    0    0    0    0  0.00000000000E+00  0.00000000000E+00  0.99999998245E-14  0.12500000000E+03  0.12500000000E+03 0.  0.
        -13    1    3    3    0    0 -0.44174740047E+02  0.52168006986E+01  0.22635337749E+02  0.49909842184E+02  0.10566000000E+00 0.  1.
         23    2    1    0    0    0 -0.11658024855E+02 -0.24651147088E+02  0.60987022070E+01  0.97057509688E+02  0.92948251312E+02 0.  0.
         13    1    3    3    0    0  0.32516715193E+02 -0.29867947786E+02 -0.16536635543E+02  0.47147667503E+02  0.10566000000E+00 0. -1.
         22    1    1    0    0    0  0.11658024855E+02  0.24651147088E+02 -0.60987022070E+01  0.27942490312E+02  0.00000000000E+00 0. -1.
</event>
<event>
 5    1  0.1766627E-003  0.9118800E+02  0.7818608E-02  0.1130116E+00
         25   -1    0    0    0    0  0.00000000000E+00  0.00000000000E+00  0.99999998245E-14  0.12500000000E+03  0.12500000000E+03 0.  0.
        -13    1    3    3    0    0  0.46141543814E+02 -0.64840996192E+01  0.15166935051E+02  0.49001354025E+02  0.10566000000E+00 0. -1.
         23    2    1    0    0    0  0.25386907192E+01 -0.26153956642E+02  0.18334493519E+01  0.98659234348E+02  0.95077907986E+02 0.  0.
         13    1    3    3    0    0 -0.43602853095E+02 -0.19669857023E+02 -0.13333485699E+02  0.49657880323E+02  0.10566000000E+00 0.  1.
         22    1    1    0    0    0 -0.25386907192E+01  0.26153956642E+02 -0.18334493519E+01  0.26340765652E+02  0.00000000000E+00 0. -1.
</event>
<event>
 5    1  0.1766627E-003  0.9118800E+02  0.7818608E-02  0.1130116E+00
         25   -1    0    0    0    0  0.00000000000E+00  0.00000000000E+00  0.99999998245E-14  0.12500000000E+03  0.12500000000E+03 0.  0.
        -13    1    3    3    0    0  0.57612580537E+02  0.16772452353E+02  0.17991962559E+01  0.60031432311E+02  0.10566000000E+00 0.  1.
         23    2    1    0    0    0  0.26797962450E+02  0.33285413806E+01  0.12403155092E+02  0.95283872469E+02  0.90531586296E+02 0.  0.
         13    1    3    3    0    0 -0.30814618087E+02 -0.13443910972E+02  0.10603958836E+02  0.35252440159E+02  0.10566000000E+00 0. -1.
         22    1    1    0    0    0 -0.26797962450E+02 -0.33285413806E+01 -0.12403155092E+02  0.29716127531E+02  0.00000000000E+00 0.  1.
</event>
<event>
 5    1  0.1766627E-003  0.9118800E+02  0.7818608E-02  0.1130116E+00
         25   -1    0    0    0    0  0.00000000000E+00  0.00000000000E+00  0.99999998245E-14  0.12500000000E+03  0.12500000000E+03 0.  0.
        -13    1    3    3    0    0 -0.15800180867E+02 -0.16988055299E+02 -0.28583291242E+02  0.36813794161E+02  0.10566000000E+00 0.  1.
         23    2    1    0    0    0 -0.82647950832E+00  0.26352586514E+02  0.10060470255E+02  0.96780238376E+02  0.92574616359E+02 0.  0.
         13    1    3    3    0    0  0.14973701358E+02  0.43340641814E+02  0.38643761496E+02  0.59966444215E+02  0.10566000000E+00 0. -1.
         22    1    1    0    0    0  0.82647950832E+00 -0.26352586514E+02 -0.10060470255E+02  0.28219761624E+02  0.00000000000E+00 0. -1.
</event>
<event>
 5    1  0.1766627E-003  0.9118800E+02  0.7818608E-02  0.1130116E+00
         25   -1    0    0    0    0  0.00000000000E+00  0.00000000000E+00  0.99999998245E-14  0.12500000000E+03  0.12500000000E+03 0.  0.
        -13    1    3    3    0    0  0.29943972489E+02 -0.22108607845E+02 -0.43984791987E+00  0.37224140816E+02  0.10566000000E+00 0. -1.
         23    2    1    0    0    0 -0.14809077881E+02  0.13497213037E+02 -0.19037146029E+02  0.97361322818E+02  0.93355935561E+02 0.  0.
         13    1    3    3    0    0 -0.44753050370E+02  0.35605820882E+02 -0.18597298109E+02  0.60137182002E+02  0.10566000000E+00 0.  1.
         22    1    1    0    0    0  0.14809077881E+02 -0.13497213037E+02  0.19037146029E+02  0.27638677182E+02  0.00000000000E+00 0.  1.
</event>
<event>
 5    1  0.1766627E-003  0.9118800E+02  0.7818608E-02  0.1130116E+00
         25   -1    0    0    0    0  0.00000000000E+00  0.00000000000E+00  0.99999998245E-14  0.12500000000E+03  0.12500000000E+03 0.  0.
        -13    1    3    3    0    0 -0.28286876163E+02  0.20391935232E+02 -0.22004359934E+02  0.41233256065E+02  0.10566000000E+00 0.  1.
         23    2    1    0    0    0  0.22608329372E+02  0.96544711361E-01 -0.17870413513E+02  0.96181645485E+02  0.91762799495E+02 0.  0.
         13    1    3    3    0    0  0.50895205534E+02 -0.20295390521E+02  0.41339464211E+01  0.54948389420E+02  0.10566000000E+00 0. -1.
         22    1    1    0    0    0 -0.22608329372E+02 -0.96544711361E-01  0.17870413513E+02  0.28818354515E+02  0.00000000000E+00 0. -1.
</event>
<event>
 5    1  0.1766627E-003  0.9118800E+02  0.7818608E-02  0.1130116E+00
         25   -1    0    0    0    0  0.00000000000E+00  0.00000000000E+00  0.99999998245E-14  0.12500000000E+03  0.12500000000E+03 0.  0.
        -13    1    3    3    0    0  0.33161144253E+02  0.22960168756E+02  0.43038771911E+02  0.58984556361E+02  0.10566000000E+00 0. -1.
         23    2    1    0    0    0  0.17780802034E+02  0.21069888345E+02  0.96571389454E+01  0.95787717507E+02  0.91224609491E+02 0.  0.
         13    1    3    3    0    0 -0.15380342219E+02 -0.18902804105E+01 -0.33381632966E+02  0.36803161146E+02  0.10566000000E+00 0.  1.
         22    1    1    0    0    0 -0.17780802034E+02 -0.21069888345E+02 -0.96571389454E+01  0.29212282493E+02  0.00000000000E+00 0. -1.
</event>
<event>
 5    1  0.1766627E-003  0.9118800E+02  0.7818608E-02  0.1130116E+00
         25   -1    0    0    0    0  0.00000000000E+00  0.00000000000E+00  0.99999998245E-14  0.12500000000E+03  0.12500000000E+03 0.  0.
        -13    1    3    3    0    0  0.40236888803E+02 -0.42095712812E+02 -0.20479050815E+02  0.61728914975E+02  0.10566000000E+00 0. -1.
         23    2    1    0    0    0  0.13752258076E+02 -0.22525471549E+02 -0.49068385323E+01  0.98156033544E+02  0.94414026426E+02 0.  0.
         13    1    3    3    0    0 -0.26484630727E+02  0.19570241263E+02  0.15572212283E+02  0.36427118569E+02  0.10566000000E+00 0.  1.
         22    1    1    0    0    0 -0.13752258076E+02  0.22525471549E+02  0.49068385323E+01  0.26843966456E+02  0.00000000000E+00 0. -1.
</event>
<event>
 5    1  0.1766627E-003  0.9118800E+02  0.7818608E-02  0.1130116E+00
         25   -1    0    0    0    0  0.00000000000E+00  0.00000000000E+00  0.99999998245E-14  0.12500000000E+03  0.12500000000E+03 0.  0.
        -13    1    3    3    0    0 -0.37774339912E+02  0.94481910193E+01 -0.24106939763E+02  0.45796558584E+02  0.10566000000E+00 0. -1.
         23    2    1    0    0    0 -0.32155248577E+02  0.31551416481E+02  0.12917520276E+01  0.79932045573E+02  0.66015236068E+02 0.  0.
         13    1    3    3    0    0  0.56190913352E+01  0.22103225461E+02  0.25398691791E+02  0.34135486989E+02  0.10566000000E+00 0.  1.
         22    1    1    0    0    0  0.32155248577E+02 -0.31551416481E+02 -0.12917520276E+01  0.45067954427E+02  0.00000000000E+00 0. -1.
</event>
<event>
 5    1  0.1766627E-003  0.9118800E+02  0.7818608E-02  0.1130116E+00
         25   -1    0    0    0    0  0.00000000000E+00  0.00000000000E+00  0.99999998245E-14  0.12500000000E+03  0.12500000000E+03 0.  0.
        -13    1    3    3    0    0  0.43091703423E+02  0.10840932777E+02  0.29310128309E+02  0.53230775994E+02  0.10566000000E+00 0.  1.
         23    2    1    0    0    0  0.41386293093E+01 -0.55787448660E+01  0.28662114450E+02  0.95508179921E+02  0.90840767171E+02 0.  0.
         13    1    3    3    0    0 -0.38953074113E+02 -0.16419677643E+02 -0.64801385904E+00  0.42277403927E+02  0.10566000000E+00 0. -1.
         22    1    1    0    0    0 -0.41386293093E+01  0.55787448660E+01 -0.28662114450E+02  0.29491820079E+02  0.00000000000E+00 0.  1.
</event>
<event>
 5    1  0.1766627E-003  0.9118800E+02  0.7818608E-02  0.1130116E+00
         25   -1    0    0    0    0  0.00000000000E+00  0.00000000000E+00  0.99999998245E-14  0.12500000000E+03  0.12500000000E+03 0.  0.
        -13    1    3    3    0    0  0.41620300191E+01  0.79306816690E+01  0.59480558736E+02  0.60151194811E+02  0.10566000000E+00 0.  1.
         23    2    1    0    0    0  0.84374516020E+00 -0.80343062779E+01  0.30950953207E+02  0.93012135306E+02  0.87338615895E+02 0.  0.
         13    1    3    3    0    0 -0.33182848589E+01 -0.15964987947E+02 -0.28529605529E+02  0.32860940495E+02  0.10566000000E+00 0. -1.
         22    1    1    0    0    0 -0.84374516020E+00  0.80343062779E+01 -0.30950953207E+02  0.31987864694E+02  0.00000000000E+00 0.  1.
</event>
<event>
 5    1  0.1766627E-003  0.9118800E+02  0.7818608E-02  0.1130116E+00
         25   -1    0    0    0    0  0.00000000000E+00  0.00000000000E+00  0.99999998245E-14  0.12500000000E+03  0.12500000000E+03 0.  0.
        -13    1    3    3    0    0 -0.98442683748E+01  0.24645367735E+02 -0.25379920191E+02  0.36721319197E+02  0.10566000000E+00 0. -1.
         23    2    1    0    0    0  0.28510162599E+02 -0.11021095173E+02 -0.11960771649E+01  0.94410385573E+02  0.89317391325E+02 0.  0.
         13    1    3    3    0    0  0.38354430974E+02 -0.35666462908E+02  0.24183843026E+02  0.57689066375E+02  0.10566000000E+00 0.  1.
         22    1    1    0    0    0 -0.28510162599E+02  0.11021095173E+02  0.11960771649E+01  0.30589614427E+02  0.00000000000E+00 0.  1.
</event>
<event>
 5    1  0.1766627E-003  0.9118800E+02  0.7818608E-02  0.1130116E+00
         25   -1    0    0    0    0  0.00000000000E+00  0.00000000000E+00  0.99999998245E-14  0.12500000000E+03  0.12500000000E+03 0.  0.
        -13    1    3    3    0    0  0.68997679525E+01 -0.61316595183E+02 -0.20509742246E+01  0.61737746168E+02  0.10566000000E+00 0.  1.
         23    2    1    0    0    0  0.47366859279E+01 -0.29975017875E+02 -0.77787967041E+01  0.93671936409E+02  0.88277880029E+02 0.  0.
         13    1    3    3    0    0 -0.21630820247E+01  0.31341577308E+02 -0.57278224795E+01  0.31934190242E+02  0.10566000000E+00 0. -1.
         22    1    1    0    0    0 -0.47366859279E+01  0.29975017875E+02  0.77787967041E+01  0.31328063591E+02  0.00000000000E+00 0.  1.
</event>
<event>
 5    1  0.1766627E-003  0.9118800E+02  0.7818608E-02  0.1130116E+00
         25   -1    0    0    0    0  0.00000000000E+00  0.00000000000E+00  0.99999998245E-14  0.12500000000E+03  0.12500000000E+03 0.  0.
        -13    1    3    3    0    0 -0.33879820518E+02 -0.20620978834E+02  0.89013244010E+01  0.40648637696E+02  0.10566000000E+00 0. -1.
         23    2    1    0    0    0  0.20757188340E+02 -0.20138514857E+02 -0.41308652049E+00  0.96076112141E+02  0.91618928367E+02 0.  0.
         13    1    3    3    0    0  0.54637008858E+02  0.48246397723E+00 -0.93144109215E+01  0.55427474444E+02  0.10566000000E+00 0.  1.
         22    1    1    0    0    0 -0.20757188340E+02  0.20138514857E+02  0.41308652049E+00  0.28923887859E+02  0.00000000000E+00 0.  1.
</event>
<event>
 5    1  0.1766627E-003  0.9118800E+02  0.7818608E-02  0.1130116E+00
         25   -1    0    0    0    0  0.00000000000E+00  0.00000000000E+00  0.99999998245E-14  0.12500000000E+03  0.12500000000E+03 0.  0.
        -13    1    3    3    0    0 -0.12836140144E+02 -0.70565854572E+01 -0.45427351645E+02  0.47730674975E+02  0.10566000000E+00 0. -1.
         23    2    1    0    0    0 -0.13668511259E+02 -0.22153642188E+02  0.33098006815E+01  0.98759442788E+02  0.95209562004E+02 0.  0.
         13    1    3    3    0    0 -0.83237111517E+00 -0.15097056731E+02  0.48737152326E+02  0.51028767813E+02  0.10566000000E+00 0.  1.
         22    1    1    0    0    0  0.13668511259E+02  0.22153642188E+02 -0.33098006815E+01  0.26240557212E+02  0.00000000000E+00 0. -1.
</event>
<event>
 5    1  0.1766627E-003  0.9118800E+02  0.7818608E-02  0.1130116E+00
         25   -1    0    0    0    0  0.00000000000E+00  0.00000000000E+00  0.99999998245E-14  0.12500000000E+03  0.12500000000E+03 0.  0.
        -13    1    3    3    0    0 -0.20186444624E+01  0.16428877945E+02  0.36312273775E+02  0.39907083917E+02  0.10566000000E+00 0.  1.
         23    2    1    0    0    0  0.27164367492E+02 -0.11522758731E+02 -0.17779860512E+01  0.95439247905E+02  0.90745864789E+02 0.  0.
         13    1    3    3    0    0  0.29183011954E+02 -0.27951636677E+02 -0.38090259826E+02  0.55532163989E+02  0.10566000000E+00 0. -1.
         22    1    1    0    0    0 -0.27164367492E+02  0.11522758731E+02  0.17779860512E+01  0.29560752095E+02  0.00000000000E+00 0. -1.
</event>
<event>
 5    1  0.1766627E-003  0.9118800E+02  0.7818608E-02  0.1130116E+00
         25   -1    0    0    0    0  0.00000000000E+00  0.00000000000E+00  0.99999998245E-14  0.12500000000E+03  0.12500000000E+03 0.  0.
        -13    1    3    3    0    0  0.26961632100E+02  0.34285988974E+02 -0.23160095133E+02  0.49384813618E+02  0.10566000000E+00 0. -1.
         23    2    1    0    0    0 -0.13253137877E+01 -0.34897270856E+01 -0.27933224806E+02  0.96818451074E+02  0.92626199148E+02 0.  0.
         13    1    3    3    0    0 -0.28286945888E+02 -0.37775716060E+02 -0.47731296731E+01  0.47433637457E+02  0.10566000000E+00 0.  1.
         22    1    1    0    0    0  0.13253137877E+01  0.34897270856E+01  0.27933224806E+02  0.28181548926E+02  0.00000000000E+00 0. -1.
</event>
<event>
 5    1  0.1766627E-003  0.9118800E+02  0.7818608E-02  0.1130116E+00
         25   -1    0    0    0    0  0.00000000000E+00  0.00000000000E+00  0.99999998245E-14  0.12500000000E+03  0.12500000000E+03 0.  0.
        -13    1    3    3    0    0 -0.26197650238E+02 -0.26173489073E+02 -0.76750663541E+01  0.37819125001E+02  0.10566000000E+00 0.  1.
         23    2    1    0    0    0 -0.28343473095E+02  0.20207449753E+02 -0.18621554317E+02  0.85522718207E+02  0.75866195053E+02 0.  0.
         13    1    3    3    0    0 -0.21458228569E+01  0.46380938825E+02 -0.10946487963E+02  0.47703593206E+02  0.10566000000E+00 0. -1.
         22    1    1    0    0    0  0.28343473095E+02 -0.20207449753E+02  0.18621554317E+02  0.39477281793E+02  0.00000000000E+00 0. -1.
</event>
<event>
 5    1  0.1766627E-003  0.9118800E+02  0.7818608E-02  0.1130116E+00
         25   -1    0    0    0    0  0.00000000000E+00  0.00000000000E+00  0.99999998245E-14  0.12500000000E+03  0.12500000000E+03 0.  0.
        -13    1    3    3    0    0  0.31418489355E+02  0.86725000187E+01 -0.12119051587E+02  0.34773787618E+02  0.10566000000E+00 0.  1.
         23    2    1    0    0    0 -0.19669866409E+02 -0.41987419443E+01  0.20128976655E+02  0.96544617739E+02  0.92255918155E+02 0.  0.
         13    1    3    3    0    0 -0.51088355764E+02 -0.12871241963E+02  0.32248028241E+02  0.61770830121E+02  0.10566000000E+00 0. -1.
         22    1    1    0    0    0  0.19669866409E+02  0.41987419443E+01 -0.20128976655E+02  0.28455382261E+02  0.00000000000E+00 0. -1.
</event>
<event>
 5    1  0.1766627E-003  0.9118800E+02  0.7818608E-02  0.1130116E+00
         25   -1    0    0    0    0  0.00000000000E+00  0.00000000000E+00  0.99999998245E-14  0.12500000000E+03  0.12500000000E+03 0.  0.
        -13    1    3    3    0    0  0.28323248069E+01 -0.16598711776E+01 -0.37147259863E+02  0.37292188398E+02  0.10566000000E+00 0.  1.
         23    2    1    0    0    0  0.15226978134E+02  0.66196183754E+01  0.21517630888E+02  0.97821172771E+02  0.93969639739E+02 0.  0.
         13    1    3    3    0    0  0.12394653327E+02  0.82794895530E+01  0.58664890751E+02  0.60528984373E+02  0.10566000000E+00 0. -1.
         22    1    1    0    0    0 -0.15226978134E+02 -0.66196183754E+01 -0.21517630888E+02  0.27178827229E+02  0.00000000000E+00 0. -1.
</event>
<event>
 5    1  0.1766627E-003  0.9118800E+02  0.7818608E-02  0.1130116E+00
         25   -1    0    0    0    0  0.00000000000E+00  0.00000000000E+00  0.99999998245E-14  0.12500000000E+03  0.12500000000E+03 0.  0.
        -13    1    3    3    0    0 -0.34088695167E+02  0.44136372011E+02 -0.10199389999E+02  0.56693008324E+02  0.10566000000E+00 0. -1.
         23    2    1    0    0    0 -0.11045523944E+02  0.16407780149E+02 -0.22736330330E+02  0.94864314086E+02  0.89950422575E+02 0.  0.
         13    1    3    3    0    0  0.23043171224E+02 -0.27728591861E+02 -0.12536940331E+02  0.38171305762E+02  0.10566000000E+00 0.  1.
         22    1    1    0    0    0  0.11045523944E+02 -0.16407780149E+02  0.22736330330E+02  0.30135685914E+02  0.00000000000E+00 0. -1.
</event>
<event>
 5    1  0.1766627E-003  0.9118800E+02  0.7818608E-02  0.1130116E+00
         25   -1    0    0    0    0  0.00000000000E+00  0.00000000000E+00  0.99999998245E-14  0.12500000000E+03  0.12500000000E+03 0.  0.
        -13    1    3    3    0    0 -0.29668070972E+01  0.44392280339E+02 -0.43206810389E+02  0.62018675623E+02  0.10566000000E+00 0.  1.
         23    2    1    0    0    0  0.32916806019E+01  0.22159923242E+02 -0.17540922027E+02  0.96546857734E+02  0.92258953134E+02 0.  0.
         13    1    3    3    0    0  0.62584876991E+01 -0.22232357097E+02  0.25665888363E+02  0.34528182110E+02  0.10566000000E+00 0. -1.
         22    1    1    0    0    0 -0.32916806019E+01 -0.22159923242E+02  0.17540922027E+02  0.28453142266E+02  0.00000000000E+00 0.  1.
</event>
<event>
 5    1  0.1766627E-003  0.9118800E+02  0.7818608E-02  0.1130116E+00
         25   -1    0    0    0    0  0.00000000000E+00  0.00000000000E+00  0.99999998245E-14  0.12500000000E+03  0.12500000000E+03 0.  0.
        -13    1    3    3    0    0 -0.13816642954E+02 -0.18323397023E+02  0.31243555186E+02  0.38766188950E+02  0.10566000000E+00 0.  1.
         23    2    1    0    0    0 -0.14817083239E+02 -0.38758523763E+01 -0.24360295596E+02  0.96225146589E+02  0.91822037917E+02 0.  0.
         13    1    3    3    0    0 -0.10004402842E+01  0.14447544647E+02 -0.55603850782E+02  0.57458957638E+02  0.10566000000E+00 0. -1.
         22    1    1    0    0    0  0.14817083239E+02  0.38758523763E+01  0.24360295596E+02  0.28774853411E+02  0.00000000000E+00 0. -1.
</event>
<event>
 5    1  0.1766627E-003  0.9118800E+02  0.7818608E-02  0.1130116E+00
         25   -1    0    0    0    0  0.00000000000E+00  0.00000000000E+00  0.99999998245E-14  0.12500000000E+03  0.12500000000E+03 0.  0.
        -13    1    3    3    0    0 -0.10669959125E+02 -0.32711512355E+01  0.37645763069E+02  0.39265291278E+02  0.10566000000E+00 0. -1.
         23    2    1    0    0    0 -0.23071245319E+02  0.82707382381E+01 -0.16138591497E+02  0.95654785619E+02  0.91042278117E+02 0.  0.
         13    1    3    3    0    0 -0.12401286194E+02  0.11541889474E+02 -0.53784354566E+02  0.56389494341E+02  0.10566000000E+00 0.  1.
         22    1    1    0    0    0  0.23071245319E+02 -0.82707382381E+01  0.16138591497E+02  0.29345214381E+02  0.00000000000E+00 0.  1.
</event>
<event>
 5    1  0.1766627E-003  0.9118800E+02  0.7818608E-02  0.1130116E+00
         25   -1    0    0    0    0  0.00000000000E+00  0.00000000000E+00  0.99999998245E-14  0.12500000000E+03  0.12500000000E+03 0.  0.
        -13    1    3    3    0    0 -0.11204257919E+02  0.35456723564E+02 -0.80412177218E+01  0.38044539528E+02  0.10566000000E+00 0.  1.
         23    2    1    0    0    0  0.49334956866E+01 -0.24079240229E+01  0.30246417502E+02  0.94259420150E+02  0.89105864215E+02 0.  0.
         13    1    3    3    0    0  0.16137753606E+02 -0.37864647587E+02  0.38287635224E+02  0.56214880622E+02  0.10566000000E+00 0. -1.
         22    1    1    0    0    0 -0.49334956866E+01  0.24079240229E+01 -0.30246417502E+02  0.30740579850E+02  0.00000000000E+00 0. -1.
</event>
<event>
 5    1  0.1766627E-003  0.9118800E+02  0.7818608E-02  0.1130116E+00
         25   -1    0    0    0    0  0.00000000000E+00  0.00000000000E+00  0.99999998245E-14  0.12500000000E+03  0.12500000000E+03 0.  0.
        -13    1    3    3    0    0 -0.36202103197E+02 -0.69216392962E+01 -0.94876877909E+01  0.38059542168E+02  0.10566000000E+00 0.  1.
         23    2    1    0    0    0  0.74527788899E+01 -0.14080346539E+01  0.28077926721E+02  0.95915701079E+02  0.91399810009E+02 0.  0.
         13    1    3    3    0    0  0.43654882087E+02  0.55136046423E+01  0.37565614512E+02  0.57856158910E+02  0.10566000000E+00 0. -1.
         22    1    1    0    0    0 -0.74527788899E+01  0.14080346539E+01 -0.28077926721E+02  0.29084298921E+02  0.00000000000E+00 0. -1.
</event>
<event>
 5    1  0.1766627E-003  0.9118800E+02  0.7818608E-02  0.1130116E+00
         25   -1    0    0    0    0  0.00000000000E+00  0.00000000000E+00  0.99999998245E-14  0.12500000000E+03  0.12500000000E+03 0.  0.
        -13    1    3    3    0    0  0.58777656483E+01 -0.88475038552E+01  0.55818721166E+02  0.56820482664E+02  0.10566000000E+00 0.  1.
         23    2    1    0    0    0  0.90379230159E+01 -0.20476680084E+02  0.18741306827E+02  0.95807277254E+02  0.91251407187E+02 0.  0.
         13    1    3    3    0    0  0.31601573676E+01 -0.11629176229E+02 -0.37077414339E+02  0.38986794590E+02  0.10566000000E+00 0. -1.
         22    1    1    0    0    0 -0.90379230159E+01  0.20476680084E+02 -0.18741306827E+02  0.29192722746E+02  0.00000000000E+00 0.  1.
</event>
<event>
 5    1  0.1766627E-003  0.9118800E+02  0.7818608E-02  0.1130116E+00
         25   -1    0    0    0    0  0.00000000000E+00  0.00000000000E+00  0.99999998245E-14  0.12500000000E+03  0.12500000000E+03 0.  0.
        -13    1    3    3    0    0  0.30780033303E+02 -0.22938568466E+02  0.48324800848E+01  0.38690469126E+02  0.10566000000E+00 0.  1.
         23    2    1    0    0    0  0.53998505727E+01  0.28060455860E+02 -0.33049447422E+01  0.96234217740E+02  0.91834385907E+02 0.  0.
         13    1    3    3    0    0 -0.25380182730E+02  0.50999024326E+02 -0.81374248270E+01  0.57543748614E+02  0.10566000000E+00 0. -1.
         22    1    1    0    0    0 -0.53998505727E+01 -0.28060455860E+02  0.33049447422E+01  0.28765782260E+02  0.00000000000E+00 0. -1.
</event>
<event>
 5    1  0.1766627E-003  0.9118800E+02  0.7818608E-02  0.1130116E+00
         25   -1    0    0    0    0  0.00000000000E+00  0.00000000000E+00  0.99999998245E-14  0.12500000000E+03  0.12500000000E+03 0.  0.
        -13    1    3    3    0    0  0.37206612405E+02  0.25790375171E+02 -0.16996987189E+01  0.45303152185E+02  0.10566000000E+00 0.  1.
         23    2    1    0    0    0  0.29603234100E+01  0.17580764564E+02  0.28291327288E+02  0.91559814637E+02  0.85234697508E+02 0.  0.
         13    1    3    3    0    0 -0.34246288995E+02 -0.82096106068E+01  0.29991026007E+02  0.46256662452E+02  0.10566000000E+00 0. -1.
         22    1    1    0    0    0 -0.29603234100E+01 -0.17580764564E+02 -0.28291327288E+02  0.33440185363E+02  0.00000000000E+00 0. -1.
</event>
<event>
 5    1  0.1766627E-003  0.9118800E+02  0.7818608E-02  0.1130116E+00
         25   -1    0    0    0    0  0.00000000000E+00  0.00000000000E+00  0.99999998245E-14  0.12500000000E+03  0.12500000000E+03 0.  0.
        -13    1    3    3    0    0 -0.53671436103E+01 -0.13817387594E+02 -0.54361975273E+02  0.56346800709E+02  0.10566000000E+00 0.  1.
         23    2    1    0    0    0 -0.13961622432E+02 -0.22202001241E+02 -0.22332586079E+02  0.90552936830E+02  0.83745054825E+02 0.  0.
         13    1    3    3    0    0 -0.85944788218E+01 -0.83846136462E+01  0.32029389194E+02  0.34206136122E+02  0.10566000000E+00 0. -1.
         22    1    1    0    0    0  0.13961622432E+02  0.22202001241E+02  0.22332586079E+02  0.34447063170E+02  0.00000000000E+00 0.  1.
</event>
<event>
 5    1  0.1766627E-003  0.9118800E+02  0.7818608E-02  0.1130116E+00
         25   -1    0    0    0    0  0.00000000000E+00  0.00000000000E+00  0.99999998245E-14  0.12500000000E+03  0.12500000000E+03 0.  0.
        -13    1    3    3    0    0  0.31640150639E+02  0.13252942111E+02  0.71205305422E+00  0.34311190458E+02  0.10566000000E+00 0.  1.
         23    2    1    0    0    0 -0.27221889898E+02 -0.15427493431E+01  0.10488333085E+02  0.95786706861E+02  0.91223224648E+02 0.  0.
         13    1    3    3    0    0 -0.58862040536E+02 -0.14795691454E+02  0.97762800308E+01  0.61475516403E+02  0.10566000000E+00 0. -1.
         22    1    1    0    0    0  0.27221889898E+02  0.15427493431E+01 -0.10488333085E+02  0.29213293139E+02  0.00000000000E+00 0. -1.
</event>
<event>
 5    1  0.1766627E-003  0.9118800E+02  0.7818608E-02  0.1130116E+00
         25   -1    0    0    0    0  0.00000000000E+00  0.00000000000E+00  0.99999998245E-14  0.12500000000E+03  0.12500000000E+03 0.  0.
        -13    1    3    3    0    0  0.92030746038E+01 -0.42048239693E+02 -0.11987593994E+02  0.44681815286E+02  0.10566000000E+00 0. -1.
         23    2    1    0    0    0  0.28413684784E+02  0.29978518760E+01  0.38946471707E+01  0.96164381826E+02  0.91739279791E+02 0.  0.
         13    1    3    3    0    0  0.19210610180E+02  0.45046091569E+02  0.15882241165E+02  0.51482566540E+02  0.10566000000E+00 0.  1.
         22    1    1    0    0    0 -0.28413684784E+02 -0.29978518760E+01 -0.38946471707E+01  0.28835618174E+02  0.00000000000E+00 0.  1.
</event>
<event>
 5    1  0.1766627E-003  0.9118800E+02  0.7818608E-02  0.1130116E+00
         25   -1    0    0    0    0  0.00000000000E+00  0.00000000000E+00  0.99999998245E-14  0.12500000000E+03  0.12500000000E+03 0.  0.
        -13    1    3    3    0    0  0.29272527328E+02  0.42117492740E+01  0.21068170889E+02  0.36311137090E+02  0.10566000000E+00 0.  1.
         23    2    1    0    0    0 -0.27968097796E+02  0.53751221789E+01  0.11143792832E+02  0.94417479643E+02  0.89327318949E+02 0.  0.
         13    1    3    3    0    0 -0.57240625123E+02  0.11633729049E+01 -0.99243780578E+01  0.58106342553E+02  0.10566000000E+00 0. -1.
         22    1    1    0    0    0  0.27968097796E+02 -0.53751221789E+01 -0.11143792832E+02  0.30582520357E+02  0.00000000000E+00 0. -1.
</event>
<event>
 5    1  0.1766627E-003  0.9118800E+02  0.7818608E-02  0.1130116E+00
         25   -1    0    0    0    0  0.00000000000E+00  0.00000000000E+00  0.99999998245E-14  0.12500000000E+03  0.12500000000E+03 0.  0.
        -13    1    3    3    0    0 -0.30510428864E+02  0.19189041065E+02 -0.10883749296E+02  0.37650667049E+02  0.10566000000E+00 0.  1.
         23    2    1    0    0    0 -0.72466547817E+00 -0.18707388351E+02 -0.30109704974E+02  0.89544593464E+02  0.82226202430E+02 0.  0.
         13    1    3    3    0    0  0.29785763386E+02 -0.37896429416E+02 -0.19225955678E+02  0.51893926415E+02  0.10566000000E+00 0. -1.
         22    1    1    0    0    0  0.72466547817E+00  0.18707388351E+02  0.30109704974E+02  0.35455406536E+02  0.00000000000E+00 0. -1.
</event>
<event>
 5    1  0.1766627E-003  0.9118800E+02  0.7818608E-02  0.1130116E+00
         25   -1    0    0    0    0  0.00000000000E+00  0.00000000000E+00  0.99999998245E-14  0.12500000000E+03  0.12500000000E+03 0.  0.
        -13    1    3    3    0    0  0.15818656143E+02  0.10775822965E+02  0.40169143603E+02  0.44496286414E+02  0.10566000000E+00 0. -1.
         23    2    1    0    0    0  0.21434172958E+01 -0.27614231355E+02  0.87545021071E+01  0.95952085820E+02  0.91449556888E+02 0.  0.
         13    1    3    3    0    0 -0.13675238847E+02 -0.38390054320E+02 -0.31414641496E+02  0.51455799407E+02  0.10566000000E+00 0.  1.
         22    1    1    0    0    0 -0.21434172958E+01  0.27614231355E+02 -0.87545021071E+01  0.29047914180E+02  0.00000000000E+00 0.  1.
</event>
<event>
 5    1  0.1766627E-003  0.9118800E+02  0.7818608E-02  0.1130116E+00
         25   -1    0    0    0    0  0.00000000000E+00  0.00000000000E+00  0.99999998245E-14  0.12500000000E+03  0.12500000000E+03 0.  0.
        -13    1    3    3    0    0 -0.29347963586E+02 -0.75223166650E+01 -0.19629083383E+02  0.36099865556E+02  0.10566000000E+00 0.  1.
         23    2    1    0    0    0  0.12971122832E+02  0.24986605513E+02  0.73602651082E+01  0.95900962472E+02  0.91379651006E+02 0.  0.
         13    1    3    3    0    0  0.42319086417E+02  0.32508922178E+02  0.26989348491E+02  0.59801096916E+02  0.10566000000E+00 0. -1.
         22    1    1    0    0    0 -0.12971122832E+02 -0.24986605513E+02 -0.73602651082E+01  0.29099037528E+02  0.00000000000E+00 0. -1.
</event>
<event>
 5    1  0.1766627E-003  0.9118800E+02  0.7818608E-02  0.1130116E+00
         25   -1    0    0    0    0  0.00000000000E+00  0.00000000000E+00  0.99999998245E-14  0.12500000000E+03  0.12500000000E+03 0.  0.
        -13    1    3    3    0    0 -0.11693989251E+02 -0.63809974744E+01  0.43827468954E+02  0.45807474416E+02  0.10566000000E+00 0.  1.
         23    2    1    0    0    0 -0.13866165077E+02  0.23216081864E+02  0.96501140330E+00  0.97941022967E+02  0.94128931480E+02 0.  0.
         13    1    3    3    0    0 -0.21721758257E+01  0.29597079339E+02 -0.42862457551E+02  0.52133548551E+02  0.10566000000E+00 0. -1.
         22    1    1    0    0    0  0.13866165077E+02 -0.23216081864E+02 -0.96501140330E+00  0.27058977033E+02  0.00000000000E+00 0.  1.
</event>
<event>
 5    1  0.1766627E-003  0.9118800E+02  0.7818608E-02  0.1130116E+00
         25   -1    0    0    0    0  0.00000000000E+00  0.00000000000E+00  0.99999998245E-14  0.12500000000E+03  0.12500000000E+03 0.  0.
        -13    1    3    3    0    0 -0.25501399904E+02  0.34991053702E+02  0.14152719856E+01  0.43321004087E+02  0.10566000000E+00 0. -1.
         23    2    1    0    0    0  0.15909510391E+02  0.14859767839E+02 -0.21193858031E+02  0.94617359572E+02  0.89606583983E+02 0.  0.
         13    1    3    3    0    0  0.41410910295E+02 -0.20131285863E+02 -0.22609130017E+02  0.51296355486E+02  0.10566000000E+00 0.  1.
         22    1    1    0    0    0 -0.15909510391E+02 -0.14859767839E+02  0.21193858031E+02  0.30382640428E+02  0.00000000000E+00 0.  1.
</event>
<event>
 5    1  0.1766627E-003  0.9118800E+02  0.7818608E-02  0.1130116E+00
         25   -1    0    0    0    0  0.00000000000E+00  0.00000000000E+00  0.99999998245E-14  0.12500000000E+03  0.12500000000E+03 0.  0.
        -13    1    3    3    0    0 -0.29976098520E+02  0.20787799583E+02 -0.63009725218E+01  0.37019083088E+02  0.10566000000E+00 0.  1.
         23    2    1    0    0    0 -0.18211134421E+01 -0.14667033676E+02  0.27676118901E+02  0.93624756759E+02  0.88211049136E+02 0.  0.
         13    1    3    3    0    0  0.28154985078E+02 -0.35454833258E+02  0.33977091423E+02  0.56605673670E+02  0.10566000000E+00 0. -1.
         22    1    1    0    0    0  0.18211134421E+01  0.14667033676E+02 -0.27676118901E+02  0.31375243241E+02  0.00000000000E+00 0. -1.
</event>
<event>
 5    1  0.1766627E-003  0.9118800E+02  0.7818608E-02  0.1130116E+00
         25   -1    0    0    0    0  0.00000000000E+00  0.00000000000E+00  0.99999998245E-14  0.12500000000E+03  0.12500000000E+03 0.  0.
        -13    1    3    3    0    0 -0.51662361523E+02 -0.17377915466E+02 -0.22804759426E+02  0.59085190704E+02  0.10566000000E+00 0.  1.
         23    2    1    0    0    0 -0.22755445998E+02 -0.18043078661E+02  0.78156734813E-01  0.95959181854E+02  0.91459255756E+02 0.  0.
         13    1    3    3    0    0  0.28906915525E+02 -0.66516319532E+00  0.22882916160E+02  0.36873991149E+02  0.10566000000E+00 0. -1.
         22    1    1    0    0    0  0.22755445998E+02  0.18043078661E+02 -0.78156734813E-01  0.29040818146E+02  0.00000000000E+00 0.  1.
</event>
<event>
 5    1  0.1766627E-003  0.9118800E+02  0.7818608E-02  0.1130116E+00
         25   -1    0    0    0    0  0.00000000000E+00  0.00000000000E+00  0.99999998245E-14  0.12500000000E+03  0.12500000000E+03 0.  0.
        -13    1    3    3    0    0  0.72838357116E+01  0.12788827872E+02 -0.38240757647E+02  0.40975298541E+02  0.10566000000E+00 0. -1.
         23    2    1    0    0    0 -0.14324236026E+02 -0.24651632587E+02 -0.38193631973E+01  0.96234147637E+02  0.91834290487E+02 0.  0.
         13    1    3    3    0    0 -0.21608071738E+02 -0.37440460458E+02  0.34421394450E+02  0.55258849097E+02  0.10566000000E+00 0.  1.
         22    1    1    0    0    0  0.14324236026E+02  0.24651632587E+02  0.38193631973E+01  0.28765852363E+02  0.00000000000E+00 0.  1.
</event>
<event>
 5    1  0.1766627E-003  0.9118800E+02  0.7818608E-02  0.1130116E+00
         25   -1    0    0    0    0  0.00000000000E+00  0.00000000000E+00  0.99999998245E-14  0.12500000000E+03  0.12500000000E+03 0.  0.
        -13    1    3    3    0    0 -0.35532721363E+02 -0.20707838929E+02 -0.12638379062E+02  0.43024744856E+02  0.10566000000E+00 0. -1.
         23    2    1    0    0    0 -0.51212361616E+01  0.21842803813E+02 -0.18854615128E+02  0.95694170378E+02  0.91096336888E+02 0.  0.
         13    1    3    3    0    0  0.30411485202E+02  0.42550642742E+02 -0.62162360658E+01  0.52669425521E+02  0.10566000000E+00 0.  1.
         22    1    1    0    0    0  0.51212361616E+01 -0.21842803813E+02  0.18854615128E+02  0.29305829622E+02  0.00000000000E+00 0.  1.
</event>
<event>
 5    1  0.1766627E-003  0.9118800E+02  0.7818608E-02  0.1130116E+00
         25   -1    0    0    0    0  0.00000000000E+00  0.00000000000E+00  0.99999998245E-14  0.12500000000E+03  0.12500000000E+03 0.  0.
        -13    1    3    3    0    0 -0.66393977676E+01 -0.10678893342E+02  0.58000625680E+02  0.59348160115E+02  0.10566000000E+00 0.  1.
         23    2    1    0    0    0  0.37527527307E+01 -0.16663746781E+02  0.22967779810E+02  0.96376888373E+02  0.92028376565E+02 0.  0.
         13    1    3    3    0    0  0.10392150498E+02 -0.59848534383E+01 -0.35032845869E+02  0.37028728258E+02  0.10566000000E+00 0. -1.
         22    1    1    0    0    0 -0.37527527307E+01  0.16663746781E+02 -0.22967779810E+02  0.28623111627E+02  0.00000000000E+00 0.  1.
</event>
<event>
 5    1  0.1766627E-003  0.9118800E+02  0.7818608E-02  0.1130116E+00
         25   -1    0    0    0    0  0.00000000000E+00  0.00000000000E+00  0.99999998245E-14  0.12500000000E+03  0.12500000000E+03 0.  0.
        -13    1    3    3    0    0  0.33898429335E+02 -0.44035785384E+02 -0.63732819717E+01  0.55936426351E+02  0.10566000000E+00 0.  1.
         23    2    1    0    0    0 -0.22463960410E+01 -0.28117742602E+02 -0.86480491771E+01  0.95496737489E+02  0.90825020629E+02 0.  0.
         13    1    3    3    0    0 -0.36144825376E+02  0.15918042782E+02 -0.22747672054E+01  0.39560311138E+02  0.10566000000E+00 0. -1.
         22    1    1    0    0    0  0.22463960410E+01  0.28117742602E+02  0.86480491771E+01  0.29503262511E+02  0.00000000000E+00 0.  1.
</event>
<event>
 5    1  0.1766627E-003  0.9118800E+02  0.7818608E-02  0.1130116E+00
         25   -1    0    0    0    0  0.00000000000E+00  0.00000000000E+00  0.99999998245E-14  0.12500000000E+03  0.12500000000E+03 0.  0.
        -13    1    3    3    0    0 -0.18517330636E+02 -0.23749075923E+02  0.17028852510E+02  0.34596287704E+02  0.10566000000E+00 0. -1.
         23    2    1    0    0    0  0.15129116127E+02  0.23758589765E+01 -0.25796512692E+02  0.95000084538E+02  0.90138899120E+02 0.  0.
         13    1    3    3    0    0  0.33646446763E+02  0.26124934899E+02 -0.42825365201E+02  0.60403796834E+02  0.10566000000E+00 0.  1.
         22    1    1    0    0    0 -0.15129116127E+02 -0.23758589765E+01  0.25796512692E+02  0.29999915462E+02  0.00000000000E+00 0.  1.
</event>
<event>
 5    1  0.1766627E-003  0.9118800E+02  0.7818608E-02  0.1130116E+00
         25   -1    0    0    0    0  0.00000000000E+00  0.00000000000E+00  0.99999998245E-14  0.12500000000E+03  0.12500000000E+03 0.  0.
        -13    1    3    3    0    0  0.11155794328E+02 -0.40571982158E+02  0.35721171387E+01  0.42229239494E+02  0.10566000000E+00 0.  1.
         23    2    1    0    0    0 -0.25891424395E+02 -0.50028908914E+01 -0.12185358932E+02  0.95950426048E+02  0.91447288161E+02 0.  0.
         13    1    3    3    0    0 -0.37047218723E+02  0.35569091267E+02 -0.15757476070E+02  0.53721186554E+02  0.10566000000E+00 0. -1.
         22    1    1    0    0    0  0.25891424395E+02  0.50028908914E+01  0.12185358932E+02  0.29049573952E+02  0.00000000000E+00 0. -1.
</event>
<event>
 5    1  0.1766627E-003  0.9118800E+02  0.7818608E-02  0.1130116E+00
         25   -1    0    0    0    0  0.00000000000E+00  0.00000000000E+00  0.99999998245E-14  0.12500000000E+03  0.12500000000E+03 0.  0.
        -13    1    3    3    0    0  0.46530435141E+02 -0.23619310769E+02 -0.27384272498E+02  0.58931000160E+02  0.10566000000E+00 0.  1.
         23    2    1    0    0    0  0.10908871137E+02 -0.20108591520E+02 -0.17877203861E+02  0.95966341252E+02  0.91469040189E+02 0.  0.
         13    1    3    3    0    0 -0.35621564004E+02  0.35107192485E+01  0.95070686368E+01  0.37035341092E+02  0.10566000000E+00 0. -1.
         22    1    1    0    0    0 -0.10908871137E+02  0.20108591520E+02  0.17877203861E+02  0.29033658748E+02  0.00000000000E+00 0.  1.
</event>
<event>
 5    1  0.1766627E-003  0.9118800E+02  0.7818608E-02  0.1130116E+00
         25   -1    0    0    0    0  0.00000000000E+00  0.00000000000E+00  0.99999998245E-14  0.12500000000E+03  0.12500000000E+03 0.  0.
        -13    1    3    3    0    0 -0.14942645954E+02 -0.10370352066E+02 -0.39456911078E+02  0.43447507016E+02  0.10566000000E+00 0.  1.
         23    2    1    0    0    0 -0.10681735558E+02 -0.25223689563E+02  0.10442481420E+02  0.95684826319E+02  0.91083514314E+02 0.  0.
         13    1    3    3    0    0  0.42609103963E+01 -0.14853337498E+02  0.49899392498E+02  0.52237319303E+02  0.10566000000E+00 0. -1.
         22    1    1    0    0    0  0.10681735558E+02  0.25223689563E+02 -0.10442481420E+02  0.29315173681E+02  0.00000000000E+00 0. -1.
</event>
<event>
 5    1  0.1766627E-003  0.9118800E+02  0.7818608E-02  0.1130116E+00
         25   -1    0    0    0    0  0.00000000000E+00  0.00000000000E+00  0.99999998245E-14  0.12500000000E+03  0.12500000000E+03 0.  0.
        -13    1    3    3    0    0  0.55355655473E+02  0.10437478168E+02  0.18858587605E+02  0.59404099470E+02  0.10566000000E+00 0.  1.
         23    2    1    0    0    0  0.22195968053E+02 -0.60650526612E+01  0.16817469349E+02  0.96499594092E+02  0.92194894235E+02 0.  0.
         13    1    3    3    0    0 -0.33159687419E+02 -0.16502530830E+02 -0.20411182556E+01  0.37095494623E+02  0.10566000000E+00 0. -1.
         22    1    1    0    0    0 -0.22195968053E+02  0.60650526612E+01 -0.16817469349E+02  0.28500405908E+02  0.00000000000E+00 0.  1.
</event>
<event>
 5    1  0.1766627E-003  0.9118800E+02  0.7818608E-02  0.1130116E+00
         25   -1    0    0    0    0  0.00000000000E+00  0.00000000000E+00  0.99999998245E-14  0.12500000000E+03  0.12500000000E+03 0.  0.
        -13    1    3    3    0    0 -0.74399205552E+01  0.36014144226E+02  0.39102871783E+02  0.53678829606E+02  0.10566000000E+00 0. -1.
         23    2    1    0    0    0 -0.32013738042E+01 -0.36985907355E+01  0.29950682414E+02  0.94652483714E+02  0.89655568308E+02 0.  0.
         13    1    3    3    0    0  0.42385467510E+01 -0.39712734962E+02 -0.91521893689E+01  0.40973654108E+02  0.10566000000E+00 0.  1.
         22    1    1    0    0    0  0.32013738042E+01  0.36985907355E+01 -0.29950682414E+02  0.30347516286E+02  0.00000000000E+00 0. -1.
</event>
<event>
 5    1  0.1766627E-003  0.9118800E+02  0.7818608E-02  0.1130116E+00
         25   -1    0    0    0    0  0.00000000000E+00  0.00000000000E+00  0.99999998245E-14  0.12500000000E+03  0.12500000000E+03 0.  0.
        -13    1    3    3    0    0 -0.42465895884E+02  0.27835093399E+02  0.24058614407E+02  0.56186945361E+02  0.10566000000E+00 0.  1.
         23    2    1    0    0    0 -0.10451107900E+02  0.51510442407E+01  0.27059777020E+02  0.95538322426E+02  0.90882234823E+02 0.  0.
         13    1    3    3    0    0  0.32014787984E+02 -0.22684049158E+02  0.30011626133E+01  0.39351377065E+02  0.10566000000E+00 0. -1.
         22    1    1    0    0    0  0.10451107900E+02 -0.51510442407E+01 -0.27059777020E+02  0.29461677574E+02  0.00000000000E+00 0.  1.
</event>
<event>
 5    1  0.1766627E-003  0.9118800E+02  0.7818608E-02  0.1130116E+00
         25   -1    0    0    0    0  0.00000000000E+00  0.00000000000E+00  0.99999998245E-14  0.12500000000E+03  0.12500000000E+03 0.  0.
        -13    1    3    3    0    0 -0.33926594539E+02  0.97841449089E+01 -0.74581718402E+01  0.36088485696E+02  0.10566000000E+00 0. -1.
         23    2    1    0    0    0  0.11810302157E+02 -0.27207442063E+02 -0.37403117023E+00  0.95337430321E+02  0.90605505242E+02 0.  0.
         13    1    3    3    0    0  0.45736896696E+02 -0.36991586972E+02  0.70841406700E+01  0.59248944625E+02  0.10566000000E+00 0.  1.
         22    1    1    0    0    0 -0.11810302157E+02  0.27207442063E+02  0.37403117023E+00  0.29662569679E+02  0.00000000000E+00 0.  1.
</event>
<event>
 5    1  0.1766627E-003  0.9118800E+02  0.7818608E-02  0.1130116E+00
         25   -1    0    0    0    0  0.00000000000E+00  0.00000000000E+00  0.99999998245E-14  0.12500000000E+03  0.12500000000E+03 0.  0.
        -13    1    3    3    0    0 -0.51004767579E+01  0.19904053061E+02 -0.34582318795E+02  0.40226037944E+02  0.10566000000E+00 0. -1.
         23    2    1    0    0    0 -0.17457178069E+02 -0.23629738369E+02 -0.28779571017E+01  0.95480510868E+02  0.90802685626E+02 0.  0.
         13    1    3    3    0    0 -0.12356701311E+02 -0.43533791431E+02  0.31704361693E+02  0.55254472923E+02  0.10566000000E+00 0.  1.
         22    1    1    0    0    0  0.17457178069E+02  0.23629738369E+02  0.28779571017E+01  0.29519489132E+02  0.00000000000E+00 0.  1.
</event>
<event>
 5    1  0.1766627E-003  0.9118800E+02  0.7818608E-02  0.1130116E+00
         25   -1    0    0    0    0  0.00000000000E+00  0.00000000000E+00  0.99999998245E-14  0.12500000000E+03  0.12500000000E+03 0.  0.
        -13    1    3    3    0    0  0.18971435535E+02 -0.14910850050E+02  0.47715710414E+02  0.53470075742E+02  0.10566000000E+00 0.  1.
         23    2    1    0    0    0  0.46195027982E+01  0.17114666168E+02  0.20620030930E+02  0.97807403955E+02  0.93951322443E+02 0.  0.
         13    1    3    3    0    0 -0.14351932737E+02  0.32025516217E+02 -0.27095679485E+02  0.44337328213E+02  0.10566000000E+00 0. -1.
         22    1    1    0    0    0 -0.46195027982E+01 -0.17114666168E+02 -0.20620030930E+02  0.27192596045E+02  0.00000000000E+00 0.  1.
</event>
<event>
 5    1  0.1766627E-003  0.9118800E+02  0.7818608E-02  0.1130116E+00
         25   -1    0    0    0    0  0.00000000000E+00  0.00000000000E+00  0.99999998245E-14  0.12500000000E+03  0.12500000000E+03 0.  0.
        -13    1    3    3    0    0  0.30894706989E+02  0.79314500670E+00  0.50698505179E+02  0.59375597600E+02  0.10566000000E+00 0. -1.
         23    2    1    0    0    0  0.20921754587E+02 -0.10657969598E+02  0.18046615617E+02  0.95385941409E+02  0.90672406786E+02 0.  0.
         13    1    3    3    0    0 -0.99729524012E+01 -0.11451114604E+02 -0.32651889562E+02  0.36010343809E+02  0.10566000000E+00 0.  1.
         22    1    1    0    0    0 -0.20921754587E+02  0.10657969598E+02 -0.18046615617E+02  0.29614058591E+02  0.00000000000E+00 0. -1.
</event>
<event>
 5    1  0.1766627E-003  0.9118800E+02  0.7818608E-02  0.1130116E+00
         25   -1    0    0    0    0  0.00000000000E+00  0.00000000000E+00  0.99999998245E-14  0.12500000000E+03  0.12500000000E+03 0.  0.
        -13    1    3    3    0    0  0.18936077745E+02  0.12961546301E+02  0.25035170980E+02  0.33960972791E+02  0.10566000000E+00 0.  1.
         23    2    1    0    0    0 -0.16042730568E+02 -0.23330842150E+01 -0.23958305669E+02  0.96072281518E+02  0.91613701920E+02 0.  0.
         13    1    3    3    0    0 -0.34978808313E+02 -0.15294630516E+02 -0.48993476649E+02  0.62111308727E+02  0.10566000000E+00 0. -1.
         22    1    1    0    0    0  0.16042730568E+02  0.23330842150E+01  0.23958305669E+02  0.28927718482E+02  0.00000000000E+00 0. -1.
</event>
<event>
 5    1  0.1766627E-003  0.9118800E+02  0.7818608E-02  0.1130116E+00
         25   -1    0    0    0    0  0.00000000000E+00  0.00000000000E+00  0.99999998245E-14  0.12500000000E+03  0.12500000000E+03 0.  0.
        -13    1    3    3    0    0 -0.28642478709E+02  0.19109494264E+00  0.16788188532E+02  0.33200640688E+02  0.10566000000E+00 0. -1.
         23    2    1    0    0    0  0.15690828191E+02  0.98563603684E+01 -0.24318357731E+02  0.94426605492E+02  0.89340088274E+02 0.  0.
         13    1    3    3    0    0  0.44333306900E+02  0.96652654257E+01 -0.41106546263E+02  0.61225964804E+02  0.10566000000E+00 0.  1.
         22    1    1    0    0    0 -0.15690828191E+02 -0.98563603684E+01  0.24318357731E+02  0.30573394508E+02  0.00000000000E+00 0.  1.
</event>
<event>
 5    1  0.1766627E-003  0.9118800E+02  0.7818608E-02  0.1130116E+00
         25   -1    0    0    0    0  0.00000000000E+00  0.00000000000E+00  0.99999998245E-14  0.12500000000E+03  0.12500000000E+03 0.  0.
        -13    1    3    3    0    0 -0.27765564576E+02  0.18859517637E+02 -0.44658618450E+02  0.55866012455E+02  0.10566000000E+00 0. -1.
         23    2    1    0    0    0  0.60955985637E+01  0.15668585683E+01 -0.26056687634E+02  0.98193986905E+02  0.94464261635E+02 0.  0.
         13    1    3    3    0    0  0.33861163140E+02 -0.17292659069E+02  0.18601930816E+02  0.42327974449E+02  0.10566000000E+00 0.  1.
         22    1    1    0    0    0 -0.60955985637E+01 -0.15668585683E+01  0.26056687634E+02  0.26806013095E+02  0.00000000000E+00 0. -1.
</event>
<event>
 5    1  0.1766627E-003  0.9118800E+02  0.7818608E-02  0.1130116E+00
         25   -1    0    0    0    0  0.00000000000E+00  0.00000000000E+00  0.99999998245E-14  0.12500000000E+03  0.12500000000E+03 0.  0.
        -13    1    3    3    0    0  0.14761987583E+02  0.11377577123E+02  0.30363698146E+02  0.35627669974E+02  0.10566000000E+00 0. -1.
         23    2    1    0    0    0  0.91939350995E+01 -0.21596882090E+02 -0.18689679935E+02  0.94995702063E+02  0.90132821523E+02 0.  0.
         13    1    3    3    0    0 -0.55680524838E+01 -0.32974459214E+02 -0.49053378081E+02  0.59368032089E+02  0.10566000000E+00 0.  1.
         22    1    1    0    0    0 -0.91939350995E+01  0.21596882090E+02  0.18689679935E+02  0.30004297937E+02  0.00000000000E+00 0.  1.
</event>
<event>
 5    1  0.1766627E-003  0.9118800E+02  0.7818608E-02  0.1130116E+00
         25   -1    0    0    0    0  0.00000000000E+00  0.00000000000E+00  0.99999998245E-14  0.12500000000E+03  0.12500000000E+03 0.  0.
        -13    1    3    3    0    0  0.37739834361E+02  0.11257475423E+02  0.11969605133E+02  0.41161978348E+02  0.10566000000E+00 0.  1.
         23    2    1    0    0    0 -0.16355530489E+01 -0.26856133569E+02  0.10892388791E+02  0.95972925094E+02  0.91478037109E+02 0.  0.
         13    1    3    3    0    0 -0.39375387410E+02 -0.38113608992E+02 -0.10772163420E+01  0.54810946745E+02  0.10566000000E+00 0. -1.
         22    1    1    0    0    0  0.16355530489E+01  0.26856133569E+02 -0.10892388791E+02  0.29027074906E+02  0.00000000000E+00 0. -1.
</event>
<event>
 5    1  0.1766627E-003  0.9118800E+02  0.7818608E-02  0.1130116E+00
         25   -1    0    0    0    0  0.00000000000E+00  0.00000000000E+00  0.99999998245E-14  0.12500000000E+03  0.12500000000E+03 0.  0.
        -13    1    3    3    0    0 -0.75102108337E+01 -0.11554054915E+02 -0.36861350427E+02  0.39353141820E+02  0.10566000000E+00 0. -1.
         23    2    1    0    0    0 -0.24298273482E+02 -0.79222475381E+01  0.15940853988E+02  0.94878928869E+02  0.89970729780E+02 0.  0.
         13    1    3    3    0    0 -0.16788062648E+02  0.36318073767E+01  0.52802204415E+02  0.55525787049E+02  0.10566000000E+00 0.  1.
         22    1    1    0    0    0  0.24298273482E+02  0.79222475381E+01 -0.15940853988E+02  0.30121071131E+02  0.00000000000E+00 0.  1.
</event>
<event>
 5    1  0.1766627E-003  0.9118800E+02  0.7818608E-02  0.1130116E+00
         25   -1    0    0    0    0  0.00000000000E+00  0.00000000000E+00  0.99999998245E-14  0.12500000000E+03  0.12500000000E+03 0.  0.
        -13    1    3    3    0    0 -0.38209154296E+02 -0.20019983198E+02 -0.17744991494E+02  0.46643703610E+02  0.10566000000E+00 0.  1.
         23    2    1    0    0    0 -0.56734687544E+01 -0.26423823442E+02  0.15702984250E+02  0.93743154232E+02  0.88378665740E+02 0.  0.
         13    1    3    3    0    0  0.32535685542E+02 -0.64038402446E+01  0.33447975743E+02  0.47099450622E+02  0.10566000000E+00 0. -1.
         22    1    1    0    0    0  0.56734687544E+01  0.26423823442E+02 -0.15702984250E+02  0.31256845768E+02  0.00000000000E+00 0. -1.
</event>
<event>
 5    1  0.1766627E-003  0.9118800E+02  0.7818608E-02  0.1130116E+00
         25   -1    0    0    0    0  0.00000000000E+00  0.00000000000E+00  0.99999998245E-14  0.12500000000E+03  0.12500000000E+03 0.  0.
        -13    1    3    3    0    0  0.15887259313E+02 -0.39038378709E+02 -0.15628993744E+02  0.44951936890E+02  0.10566000000E+00 0.  1.
         23    2    1    0    0    0 -0.17600037190E+02 -0.12706211666E+02  0.16019261561E+02  0.98021752003E+02  0.94236075899E+02 0.  0.
         13    1    3    3    0    0 -0.33487296504E+02  0.26332167042E+02  0.31648255305E+02  0.53069815113E+02  0.10566000000E+00 0. -1.
         22    1    1    0    0    0  0.17600037190E+02  0.12706211666E+02 -0.16019261561E+02  0.26978247997E+02  0.00000000000E+00 0. -1.
</event>
<event>
 5    1  0.1766627E-003  0.9118800E+02  0.7818608E-02  0.1130116E+00
         25   -1    0    0    0    0  0.00000000000E+00  0.00000000000E+00  0.99999998245E-14  0.12500000000E+03  0.12500000000E+03 0.  0.
        -13    1    3    3    0    0 -0.35771243079E+02  0.75842715592E+01  0.14993207468E+02  0.39521012648E+02  0.10566000000E+00 0. -1.
         23    2    1    0    0    0  0.64136441024E+01 -0.28141810124E+02  0.57669676183E+01  0.95566104179E+02  0.90920437992E+02 0.  0.
         13    1    3    3    0    0  0.42184887181E+02 -0.35726081683E+02 -0.92262398496E+01  0.56045091531E+02  0.10566000000E+00 0.  1.
         22    1    1    0    0    0 -0.64136441024E+01  0.28141810124E+02 -0.57669676183E+01  0.29433895821E+02  0.00000000000E+00 0.  1.
</event>
<event>
 5    1  0.1766627E-003  0.9118800E+02  0.7818608E-02  0.1130116E+00
         25   -1    0    0    0    0  0.00000000000E+00  0.00000000000E+00  0.99999998245E-14  0.12500000000E+03  0.12500000000E+03 0.  0.
        -13    1    3    3    0    0 -0.22470814097E+02  0.12647747317E+02 -0.24026242270E+02  0.35244495741E+02  0.10566000000E+00 0.  1.
         23    2    1    0    0    0  0.20671395214E+02 -0.13976532004E+02  0.11875049504E+02  0.97365477611E+02  0.93361498504E+02 0.  0.
         13    1    3    3    0    0  0.43142209310E+02 -0.26624279321E+02  0.35901291773E+02  0.62120981871E+02  0.10566000000E+00 0. -1.
         22    1    1    0    0    0 -0.20671395214E+02  0.13976532004E+02 -0.11875049504E+02  0.27634522389E+02  0.00000000000E+00 0. -1.
</event>
<event>
 5    1  0.1766627E-003  0.9118800E+02  0.7818608E-02  0.1130116E+00
         25   -1    0    0    0    0  0.00000000000E+00  0.00000000000E+00  0.99999998245E-14  0.12500000000E+03  0.12500000000E+03 0.  0.
        -13    1    3    3    0    0 -0.31203908369E+02  0.19297327844E+02  0.13177463841E+02  0.38983682185E+02  0.10566000000E+00 0.  1.
         23    2    1    0    0    0  0.15780844613E+02  0.19012889873E+02 -0.17164082751E+02  0.94914608616E+02  0.90020287458E+02 0.  0.
         13    1    3    3    0    0  0.46984752982E+02 -0.28443797051E+00 -0.30341546593E+02  0.55930926431E+02  0.10566000000E+00 0. -1.
         22    1    1    0    0    0 -0.15780844613E+02 -0.19012889873E+02  0.17164082751E+02  0.30085391384E+02  0.00000000000E+00 0. -1.
</event>
<event>
 5    1  0.1766627E-003  0.9118800E+02  0.7818608E-02  0.1130116E+00
         25   -1    0    0    0    0  0.00000000000E+00  0.00000000000E+00  0.99999998245E-14  0.12500000000E+03  0.12500000000E+03 0.  0.
        -13    1    3    3    0    0  0.10753965057E+02  0.43419928323E+02 -0.12459961174E+01  0.44749319664E+02  0.10566000000E+00 0. -1.
         23    2    1    0    0    0  0.20976461988E+02 -0.51821358026E+01  0.16840137611E+02  0.97605534797E+02  0.93682355324E+02 0.  0.
         13    1    3    3    0    0  0.10222496932E+02 -0.48602064126E+02  0.18086133729E+02  0.52856215132E+02  0.10566000000E+00 0.  1.
         22    1    1    0    0    0 -0.20976461988E+02  0.51821358026E+01 -0.16840137611E+02  0.27394465203E+02  0.00000000000E+00 0.  1.
</event>
<event>
 5    1  0.1766627E-003  0.9118800E+02  0.7818608E-02  0.1130116E+00
         25   -1    0    0    0    0  0.00000000000E+00  0.00000000000E+00  0.99999998245E-14  0.12500000000E+03  0.12500000000E+03 0.  0.
        -13    1    3    3    0    0  0.41174734915E+01 -0.32993425185E+02  0.42967326133E+02  0.54329752184E+02  0.10566000000E+00 0.  1.
         23    2    1    0    0    0  0.18052513741E+02 -0.22578946752E+02  0.55920364380E+01  0.95555595433E+02  0.90905989122E+02 0.  0.
         13    1    3    3    0    0  0.13935040249E+02  0.10414478432E+02 -0.37375289695E+02  0.41225843249E+02  0.10566000000E+00 0. -1.
         22    1    1    0    0    0 -0.18052513741E+02  0.22578946752E+02 -0.55920364380E+01  0.29444404567E+02  0.00000000000E+00 0. -1.
</event>
<event>
 5    1  0.1766627E-003  0.9118800E+02  0.7818608E-02  0.1130116E+00
         25   -1    0    0    0    0  0.00000000000E+00  0.00000000000E+00  0.99999998245E-14  0.12500000000E+03  0.12500000000E+03 0.  0.
        -13    1    3    3    0    0  0.35432579927E+02  0.14434711085E+02 -0.16456806444E+01  0.38295535422E+02  0.10566000000E+00 0.  1.
         23    2    1    0    0    0 -0.71852067828E+01 -0.17579179643E+02  0.21418940885E+02  0.96374385909E+02  0.92024977464E+02 0.  0.
         13    1    3    3    0    0 -0.42617786710E+02 -0.32013890728E+02  0.23064621529E+02  0.58078850488E+02  0.10566000000E+00 0. -1.
         22    1    1    0    0    0  0.71852067828E+01  0.17579179643E+02 -0.21418940885E+02  0.28625614091E+02  0.00000000000E+00 0. -1.
</event>
<event>
 5    1  0.1766627E-003  0.9118800E+02  0.7818608E-02  0.1130116E+00
         25   -1    0    0    0    0  0.00000000000E+00  0.00000000000E+00  0.99999998245E-14  0.12500000000E+03  0.12500000000E+03 0.  0.
        -13    1    3    3    0    0  0.48544953369E+02 -0.69608312728E+01  0.34769340411E+02  0.60116419274E+02  0.10566000000E+00 0.  1.
         23    2    1    0    0    0  0.21462720781E+02 -0.14813702454E+02  0.12328721592E+02  0.96154003054E+02  0.91725137032E+02 0.  0.
         13    1    3    3    0    0 -0.27082232588E+02 -0.78528711808E+01 -0.22440618819E+02  0.36037583781E+02  0.10566000000E+00 0. -1.
         22    1    1    0    0    0 -0.21462720781E+02  0.14813702454E+02 -0.12328721592E+02  0.28845996946E+02  0.00000000000E+00 0.  1.
</event>
<event>
 5    1  0.1766627E-003  0.9118800E+02  0.7818608E-02  0.1130116E+00
         25   -1    0    0    0    0  0.00000000000E+00  0.00000000000E+00  0.99999998245E-14  0.12500000000E+03  0.12500000000E+03 0.  0.
        -13    1    3    3    0    0  0.69448707072E+01  0.61247703115E+02  0.68495181608E+01  0.62019669695E+02  0.10566000000E+00 0. -1.
         23    2    1    0    0    0  0.70771030010E+01  0.28798340932E+02 -0.70180062081E+00  0.95336514847E+02  0.90604242239E+02 0.  0.
         13    1    3    3    0    0  0.13223229373E+00 -0.32449362183E+02 -0.75513187816E+01  0.33316845152E+02  0.10566000000E+00 0.  1.
         22    1    1    0    0    0 -0.70771030010E+01 -0.28798340932E+02  0.70180062081E+00  0.29663485153E+02  0.00000000000E+00 0. -1.
</event>
<event>
 5    1  0.1766627E-003  0.9118800E+02  0.7818608E-02  0.1130116E+00
         25   -1    0    0    0    0  0.00000000000E+00  0.00000000000E+00  0.99999998245E-14  0.12500000000E+03  0.12500000000E+03 0.  0.
        -13    1    3    3    0    0 -0.56537773027E+02 -0.18163789117E+02  0.13685333335E+02  0.60940483478E+02  0.10566000000E+00 0.  1.
         23    2    1    0    0    0 -0.22799334927E+02  0.25978356735E+01  0.57789485909E+01  0.10133663866E+03  0.98535068193E+02 0.  0.
         13    1    3    3    0    0  0.33738438100E+02  0.20761624791E+02 -0.79063847445E+01  0.40396155177E+02  0.10566000000E+00 0. -1.
         22    1    1    0    0    0  0.22799334927E+02 -0.25978356735E+01 -0.57789485909E+01  0.23663361345E+02  0.00000000000E+00 0.  1.
</event>
<event>
 5    1  0.1766627E-003  0.9118800E+02  0.7818608E-02  0.1130116E+00
         25   -1    0    0    0    0  0.00000000000E+00  0.00000000000E+00  0.99999998245E-14  0.12500000000E+03  0.12500000000E+03 0.  0.
        -13    1    3    3    0    0 -0.13546598098E+02 -0.35171768748E+02 -0.21264172568E+02  0.43275164193E+02  0.10566000000E+00 0.  1.
         23    2    1    0    0    0 -0.24535527847E+02 -0.12828310841E+00  0.16089350253E+02  0.95659315365E+02  0.91048497193E+02 0.  0.
         13    1    3    3    0    0 -0.10988929749E+02  0.35043485639E+02  0.37353522821E+02  0.52384151172E+02  0.10566000000E+00 0. -1.
         22    1    1    0    0    0  0.24535527847E+02  0.12828310841E+00 -0.16089350253E+02  0.29340684635E+02  0.00000000000E+00 0. -1.
</event>
<event>
 5    1  0.1766627E-003  0.9118800E+02  0.7818608E-02  0.1130116E+00
         25   -1    0    0    0    0  0.00000000000E+00  0.00000000000E+00  0.99999998245E-14  0.12500000000E+03  0.12500000000E+03 0.  0.
        -13    1    3    3    0    0  0.38092716004E+02  0.25236456369E+02 -0.90605304844E+00  0.45703017830E+02  0.10566000000E+00 0. -1.
         23    2    1    0    0    0  0.16755643289E+02 -0.18246370559E+02 -0.14864280791E+02  0.96110062928E+02  0.91665237315E+02 0.  0.
         13    1    3    3    0    0 -0.21337072716E+02 -0.43482826928E+02 -0.13958227743E+02  0.50407045098E+02  0.10566000000E+00 0.  1.
         22    1    1    0    0    0 -0.16755643289E+02  0.18246370559E+02  0.14864280791E+02  0.28889937072E+02  0.00000000000E+00 0.  1.
</event>
<event>
 5    1  0.1766627E-003  0.9118800E+02  0.7818608E-02  0.1130116E+00
         25   -1    0    0    0    0  0.00000000000E+00  0.00000000000E+00  0.99999998245E-14  0.12500000000E+03  0.12500000000E+03 0.  0.
        -13    1    3    3    0    0  0.28032407380E+02 -0.17806345332E+02 -0.23557056995E+02  0.40716432750E+02  0.10566000000E+00 0. -1.
         23    2    1    0    0    0  0.20868375019E+02  0.20226632605E+02  0.12268374070E+02  0.93454497233E+02  0.87969450995E+02 0.  0.
         13    1    3    3    0    0 -0.71640323614E+01  0.38032977937E+02  0.35825431065E+02  0.52738064483E+02  0.10566000000E+00 0.  1.
         22    1    1    0    0    0 -0.20868375019E+02 -0.20226632605E+02 -0.12268374070E+02  0.31545502767E+02  0.00000000000E+00 0.  1.
</event>
<event>
 5    1  0.1766627E-003  0.9118800E+02  0.7818608E-02  0.1130116E+00
         25   -1    0    0    0    0  0.00000000000E+00  0.00000000000E+00  0.99999998245E-14  0.12500000000E+03  0.12500000000E+03 0.  0.
        -13    1    3    3    0    0 -0.32141392265E+02 -0.84240598953E+01  0.56908215794E+01  0.33710984800E+02  0.10566000000E+00 0. -1.
         23    2    1    0    0    0  0.29227652749E+02 -0.42364312553E+01  0.21433291801E+00  0.95466138525E+02  0.90782898342E+02 0.  0.
         13    1    3    3    0    0  0.61369045014E+02  0.41876286400E+01 -0.54764886614E+01  0.61755153726E+02  0.10566000000E+00 0.  1.
         22    1    1    0    0    0 -0.29227652749E+02  0.42364312553E+01 -0.21433291801E+00  0.29533861475E+02  0.00000000000E+00 0.  1.
</event>
<event>
 5    1  0.1766627E-003  0.9118800E+02  0.7818608E-02  0.1130116E+00
         25   -1    0    0    0    0  0.00000000000E+00  0.00000000000E+00  0.99999998245E-14  0.12500000000E+03  0.12500000000E+03 0.  0.
        -13    1    3    3    0    0  0.41085610000E+02  0.35979942004E+02 -0.24918951618E+02  0.60029566794E+02  0.10566000000E+00 0.  1.
         23    2    1    0    0    0  0.93392975516E+01  0.23650381331E+02 -0.14895761519E+02  0.95530579797E+02  0.90871584939E+02 0.  0.
         13    1    3    3    0    0 -0.31746312448E+02 -0.12329560674E+02  0.10023190099E+02  0.35501013003E+02  0.10566000000E+00 0. -1.
         22    1    1    0    0    0 -0.93392975516E+01 -0.23650381331E+02  0.14895761519E+02  0.29469420203E+02  0.00000000000E+00 0.  1.
</event>
<event>
 5    1  0.1766627E-003  0.9118800E+02  0.7818608E-02  0.1130116E+00
         25   -1    0    0    0    0  0.00000000000E+00  0.00000000000E+00  0.99999998245E-14  0.12500000000E+03  0.12500000000E+03 0.  0.
        -13    1    3    3    0    0  0.14118578215E+02 -0.60281617760E+02  0.11514633160E+01  0.61923700813E+02  0.10566000000E+00 0. -1.
         23    2    1    0    0    0  0.10271620293E+02 -0.28622668592E+02  0.54548063108E+01  0.94104721191E+02  0.88888583619E+02 0.  0.
         13    1    3    3    0    0 -0.38469579228E+01  0.31658949167E+02  0.43033429948E+01  0.32181020379E+02  0.10566000000E+00 0.  1.
         22    1    1    0    0    0 -0.10271620293E+02  0.28622668592E+02 -0.54548063108E+01  0.30895278809E+02  0.00000000000E+00 0. -1.
</event>
<event>
 5    1  0.1766627E-003  0.9118800E+02  0.7818608E-02  0.1130116E+00
         25   -1    0    0    0    0  0.00000000000E+00  0.00000000000E+00  0.99999998245E-14  0.12500000000E+03  0.12500000000E+03 0.  0.
        -13    1    3    3    0    0 -0.14194866468E+02 -0.19942052474E+02  0.26256664113E+02  0.35897120571E+02  0.10566000000E+00 0. -1.
         23    2    1    0    0    0 -0.23908891046E+02 -0.78516267315E+01 -0.25047388041E+02  0.89494299598E+02  0.82149710282E+02 0.  0.
         13    1    3    3    0    0 -0.97140245780E+01  0.12090425742E+02 -0.51304052154E+02  0.53597179026E+02  0.10566000000E+00 0.  1.
         22    1    1    0    0    0  0.23908891046E+02  0.78516267315E+01  0.25047388041E+02  0.35505700402E+02  0.00000000000E+00 0.  1.
</event>
<event>
 5    1  0.1766627E-003  0.9118800E+02  0.7818608E-02  0.1130116E+00
         25   -1    0    0    0    0  0.00000000000E+00  0.00000000000E+00  0.99999998245E-14  0.12500000000E+03  0.12500000000E+03 0.  0.
        -13    1    3    3    0    0  0.34175353943E+02 -0.35422280836E+02 -0.18731828465E+02  0.52664839869E+02  0.10566000000E+00 0. -1.
         23    2    1    0    0    0 -0.72842912270E+01 -0.25499780397E+02 -0.12258273414E+02  0.95784165833E+02  0.91219742700E+02 0.  0.
         13    1    3    3    0    0 -0.41459645170E+02  0.99225004388E+01  0.64735550503E+01  0.43119325964E+02  0.10566000000E+00 0.  1.
         22    1    1    0    0    0  0.72842912270E+01  0.25499780397E+02  0.12258273414E+02  0.29215834167E+02  0.00000000000E+00 0. -1.
</event>
<event>
 5    1  0.1766627E-003  0.9118800E+02  0.7818608E-02  0.1130116E+00
         25   -1    0    0    0    0  0.00000000000E+00  0.00000000000E+00  0.99999998245E-14  0.12500000000E+03  0.12500000000E+03 0.  0.
        -13    1    3    3    0    0 -0.17292305955E+01  0.35540620503E+02 -0.15688510533E+02  0.38887870486E+02  0.10566000000E+00 0.  1.
         23    2    1    0    0    0 -0.10247120382E+02 -0.19767394384E+02 -0.20076311500E+02  0.95019812537E+02  0.90166252746E+02 0.  0.
         13    1    3    3    0    0 -0.85178897867E+01 -0.55308014886E+02 -0.43878009674E+01  0.56131942051E+02  0.10566000000E+00 0. -1.
         22    1    1    0    0    0  0.10247120382E+02  0.19767394384E+02  0.20076311500E+02  0.29980187463E+02  0.00000000000E+00 0. -1.
</event>
<event>
 5    1  0.1766627E-003  0.9118800E+02  0.7818608E-02  0.1130116E+00
         25   -1    0    0    0    0  0.00000000000E+00  0.00000000000E+00  0.99999998245E-14  0.12500000000E+03  0.12500000000E+03 0.  0.
        -13    1    3    3    0    0 -0.66484542383E+01  0.41020255034E+02  0.19490507731E+02  0.45899393487E+02  0.10566000000E+00 0.  1.
         23    2    1    0    0    0  0.12123042984E+02  0.16443843536E+02 -0.20236533461E+02  0.96244384062E+02  0.91848222713E+02 0.  0.
         13    1    3    3    0    0  0.18771497222E+02 -0.24576411498E+02 -0.39727041192E+02  0.50344990575E+02  0.10566000000E+00 0. -1.
         22    1    1    0    0    0 -0.12123042984E+02 -0.16443843536E+02  0.20236533461E+02  0.28755615938E+02  0.00000000000E+00 0. -1.
</event>
<event>
 5    1  0.1766627E-003  0.9118800E+02  0.7818608E-02  0.1130116E+00
         25   -1    0    0    0    0  0.00000000000E+00  0.00000000000E+00  0.99999998245E-14  0.12500000000E+03  0.12500000000E+03 0.  0.
        -13    1    3    3    0    0 -0.18025540002E+01  0.33355478153E+02  0.12130379008E+02  0.35538632256E+02  0.10566000000E+00 0.  1.
         23    2    1    0    0    0 -0.19641059526E+02 -0.21401393840E+02 -0.47840642542E+01  0.95560602106E+02  0.90912873272E+02 0.  0.
         13    1    3    3    0    0 -0.17838505525E+02 -0.54756871992E+02 -0.16914443262E+02  0.60021969850E+02  0.10566000000E+00 0. -1.
         22    1    1    0    0    0  0.19641059526E+02  0.21401393840E+02  0.47840642542E+01  0.29439397894E+02  0.00000000000E+00 0. -1.
</event>
<event>
 5    1  0.1766627E-003  0.9118800E+02  0.7818608E-02  0.1130116E+00
         25   -1    0    0    0    0  0.00000000000E+00  0.00000000000E+00  0.99999998245E-14  0.12500000000E+03  0.12500000000E+03 0.  0.
        -13    1    3    3    0    0  0.66844020757E+01  0.13766444754E+02  0.29329094762E+02  0.33081765308E+02  0.10566000000E+00 0.  1.
         23    2    1    0    0    0 -0.58305043608E+01 -0.16918188575E+02 -0.23510976461E+02  0.95453665203E+02  0.90765722059E+02 0.  0.
         13    1    3    3    0    0 -0.12514906437E+02 -0.30684633330E+02 -0.52840071223E+02  0.62371899896E+02  0.10566000000E+00 0. -1.
         22    1    1    0    0    0  0.58305043608E+01  0.16918188575E+02  0.23510976461E+02  0.29546334797E+02  0.00000000000E+00 0. -1.
</event>
<event>
 5    1  0.1766627E-003  0.9118800E+02  0.7818608E-02  0.1130116E+00
         25   -1    0    0    0    0  0.00000000000E+00  0.00000000000E+00  0.99999998245E-14  0.12500000000E+03  0.12500000000E+03 0.  0.
        -13    1    3    3    0    0  0.95046598350E+01 -0.41792812948E+02  0.10343844171E+02  0.44090634482E+02  0.10566000000E+00 0. -1.
         23    2    1    0    0    0 -0.28046404140E+02 -0.75197213479E+01  0.48192310703E-01  0.95962966459E+02  0.91464428139E+02 0.  0.
         13    1    3    3    0    0 -0.37551063975E+02  0.34273091600E+02 -0.10295651860E+02  0.51872331978E+02  0.10566000000E+00 0.  1.
         22    1    1    0    0    0  0.28046404140E+02  0.75197213479E+01 -0.48192310703E-01  0.29037033541E+02  0.00000000000E+00 0. -1.
</event>
<event>
 5    1  0.1766627E-003  0.9118800E+02  0.7818608E-02  0.1130116E+00
         25   -1    0    0    0    0  0.00000000000E+00  0.00000000000E+00  0.99999998245E-14  0.12500000000E+03  0.12500000000E+03 0.  0.
        -13    1    3    3    0    0 -0.34101870256E+02  0.47882824568E+02  0.20631023057E+02  0.62300503369E+02  0.10566000000E+00 0. -1.
         23    2    1    0    0    0 -0.18343388473E+02  0.19737424331E+02  0.89488382607E+01  0.96607614998E+02  0.92341235369E+02 0.  0.
         13    1    3    3    0    0  0.15758481783E+02 -0.28145400238E+02 -0.11682184797E+02  0.34307111629E+02  0.10566000000E+00 0.  1.
         22    1    1    0    0    0  0.18343388473E+02 -0.19737424331E+02 -0.89488382607E+01  0.28392385002E+02  0.00000000000E+00 0. -1.
</event>
<event>
 5    1  0.1766627E-003  0.9118800E+02  0.7818608E-02  0.1130116E+00
         25   -1    0    0    0    0  0.00000000000E+00  0.00000000000E+00  0.99999998245E-14  0.12500000000E+03  0.12500000000E+03 0.  0.
        -13    1    3    3    0    0 -0.21955282070E+02 -0.37232770350E+02  0.28934377882E+02  0.52014642036E+02  0.10566000000E+00 0. -1.
         23    2    1    0    0    0  0.12203834233E+02 -0.26782527055E+02  0.46659400590E+01  0.95200531513E+02  0.90416441416E+02 0.  0.
         13    1    3    3    0    0  0.34159116303E+02  0.10450243295E+02 -0.24268437823E+02  0.43185889477E+02  0.10566000000E+00 0.  1.
         22    1    1    0    0    0 -0.12203834233E+02  0.26782527055E+02 -0.46659400590E+01  0.29799468487E+02  0.00000000000E+00 0.  1.
</event>
<event>
 5    1  0.1766627E-003  0.9118800E+02  0.7818608E-02  0.1130116E+00
         25   -1    0    0    0    0  0.00000000000E+00  0.00000000000E+00  0.99999998245E-14  0.12500000000E+03  0.12500000000E+03 0.  0.
        -13    1    3    3    0    0  0.37618897784E+02 -0.16605321975E+02 -0.16314526713E+02  0.44239045359E+02  0.10566000000E+00 0.  1.
         23    2    1    0    0    0 -0.33011060183E+01  0.13530594319E+02 -0.25559047070E+02  0.95892626868E+02  0.91368247859E+02 0.  0.
         13    1    3    3    0    0 -0.40920003802E+02  0.30135916294E+02 -0.92445203561E+01  0.51653581509E+02  0.10566000000E+00 0. -1.
         22    1    1    0    0    0  0.33011060183E+01 -0.13530594319E+02  0.25559047070E+02  0.29107373132E+02  0.00000000000E+00 0. -1.
</event>
<event>
 5    1  0.1766627E-003  0.9118800E+02  0.7818608E-02  0.1130116E+00
         25   -1    0    0    0    0  0.00000000000E+00  0.00000000000E+00  0.99999998245E-14  0.12500000000E+03  0.12500000000E+03 0.  0.
        -13    1    3    3    0    0 -0.24658463391E+02 -0.19963824213E+02 -0.52837666418E+01  0.32164008580E+02  0.10566000000E+00 0.  1.
         23    2    1    0    0    0  0.21142601200E+02  0.11278203153E+02 -0.24392292843E+02  0.90806559080E+02  0.84122766062E+02 0.  0.
         13    1    3    3    0    0  0.45801064590E+02  0.31242027365E+02 -0.19108526201E+02  0.58642550500E+02  0.10566000000E+00 0. -1.
         22    1    1    0    0    0 -0.21142601200E+02 -0.11278203153E+02  0.24392292843E+02  0.34193440920E+02  0.00000000000E+00 0. -1.
</event>
<event>
 5    1  0.1766627E-003  0.9118800E+02  0.7818608E-02  0.1130116E+00
         25   -1    0    0    0    0  0.00000000000E+00  0.00000000000E+00  0.99999998245E-14  0.12500000000E+03  0.12500000000E+03 0.  0.
        -13    1    3    3    0    0 -0.29167215172E+02  0.35899532662E+02  0.23637235383E+02  0.51944517967E+02  0.10566000000E+00 0. -1.
         23    2    1    0    0    0 -0.29028895630E+02  0.24577165536E+01 -0.43393678768E+01  0.95545844678E+02  0.90892580387E+02 0.  0.
         13    1    3    3    0    0  0.13831954129E+00 -0.33441816108E+02 -0.27976603260E+02  0.43601326711E+02  0.10566000000E+00 0.  1.
         22    1    1    0    0    0  0.29028895630E+02 -0.24577165536E+01  0.43393678768E+01  0.29454155322E+02  0.00000000000E+00 0. -1.
</event>
<event>
 5    1  0.1766627E-003  0.9118800E+02  0.7818608E-02  0.1130116E+00
         25   -1    0    0    0    0  0.00000000000E+00  0.00000000000E+00  0.99999998245E-14  0.12500000000E+03  0.12500000000E+03 0.  0.
        -13    1    3    3    0    0  0.27137756105E+02 -0.24295782557E+02  0.32950052967E+01  0.36573365724E+02  0.10566000000E+00 0.  1.
         23    2    1    0    0    0 -0.26380121265E+02 -0.12047552307E+01  0.12839313763E+02  0.95636583799E+02  0.91017283796E+02 0.  0.
         13    1    3    3    0    0 -0.53517877370E+02  0.23091027326E+02  0.95443084665E+01  0.59063218074E+02  0.10566000000E+00 0. -1.
         22    1    1    0    0    0  0.26380121265E+02  0.12047552307E+01 -0.12839313763E+02  0.29363416201E+02  0.00000000000E+00 0. -1.
</event>
<event>
 5    1  0.1766627E-003  0.9118800E+02  0.7818608E-02  0.1130116E+00
         25   -1    0    0    0    0  0.00000000000E+00  0.00000000000E+00  0.99999998245E-14  0.12500000000E+03  0.12500000000E+03 0.  0.
        -13    1    3    3    0    0  0.48618084922E+01  0.32883053952E+02 -0.48195212692E+02  0.58546751485E+02  0.10566000000E+00 0. -1.
         23    2    1    0    0    0 -0.13381837513E+02  0.14013440150E+02 -0.22950326352E+02  0.94963895730E+02  0.90088700360E+02 0.  0.
         13    1    3    3    0    0 -0.18243646005E+02 -0.18869613801E+02  0.25244886341E+02  0.36417144245E+02  0.10566000000E+00 0.  1.
         22    1    1    0    0    0  0.13381837513E+02 -0.14013440150E+02  0.22950326352E+02  0.30036104270E+02  0.00000000000E+00 0. -1.
</event>
<event>
 5    1  0.1766627E-003  0.9118800E+02  0.7818608E-02  0.1130116E+00
         25   -1    0    0    0    0  0.00000000000E+00  0.00000000000E+00  0.99999998245E-14  0.12500000000E+03  0.12500000000E+03 0.  0.
        -13    1    3    3    0    0  0.26147283602E+02  0.24631285180E+02  0.13257631283E+02  0.38290424399E+02  0.10566000000E+00 0. -1.
         23    2    1    0    0    0 -0.23873696935E+02  0.90165670571E+01 -0.12389678104E+02  0.96631778160E+02  0.92373938641E+02 0.  0.
         13    1    3    3    0    0 -0.50020980536E+02 -0.15614718123E+02 -0.25647309387E+02  0.58341353761E+02  0.10566000000E+00 0.  1.
         22    1    1    0    0    0  0.23873696935E+02 -0.90165670571E+01  0.12389678104E+02  0.28368221840E+02  0.00000000000E+00 0.  1.
</event>
<event>
 5    1  0.1766627E-003  0.9118800E+02  0.7818608E-02  0.1130116E+00
         25   -1    0    0    0    0  0.00000000000E+00  0.00000000000E+00  0.99999998245E-14  0.12500000000E+03  0.12500000000E+03 0.  0.
        -13    1    3    3    0    0  0.49500046551E+02 -0.28788376478E+02 -0.81914632622E+01  0.57845799011E+02  0.10566000000E+00 0. -1.
         23    2    1    0    0    0  0.15178935938E+02 -0.26057034228E+02  0.44391699614E+01  0.94519262493E+02  0.89469635203E+02 0.  0.
         13    1    3    3    0    0 -0.34321110612E+02  0.27313422494E+01  0.12630633224E+02  0.36673463483E+02  0.10566000000E+00 0.  1.
         22    1    1    0    0    0 -0.15178935938E+02  0.26057034228E+02 -0.44391699614E+01  0.30480737507E+02  0.00000000000E+00 0. -1.
</event>
<event>
 5    1  0.1766627E-003  0.9118800E+02  0.7818608E-02  0.1130116E+00
         25   -1    0    0    0    0  0.00000000000E+00  0.00000000000E+00  0.99999998245E-14  0.12500000000E+03  0.12500000000E+03 0.  0.
        -13    1    3    3    0    0  0.37051039066E+02 -0.39251164282E+02  0.14880422482E+02  0.55989923474E+02  0.10566000000E+00 0. -1.
         23    2    1    0    0    0  0.19252593978E+02 -0.19036482729E+02 -0.13182276173E+02  0.94886507100E+02  0.89981257909E+02 0.  0.
         13    1    3    3    0    0 -0.17798445088E+02  0.20214681554E+02 -0.28062698656E+02  0.38896583625E+02  0.10566000000E+00 0.  1.
         22    1    1    0    0    0 -0.19252593978E+02  0.19036482729E+02  0.13182276173E+02  0.30113492900E+02  0.00000000000E+00 0. -1.
</event>
<event>
 5    1  0.1766627E-003  0.9118800E+02  0.7818608E-02  0.1130116E+00
         25   -1    0    0    0    0  0.00000000000E+00  0.00000000000E+00  0.99999998245E-14  0.12500000000E+03  0.12500000000E+03 0.  0.
        -13    1    3    3    0    0 -0.26095927375E+02 -0.19753445260E+01  0.31356416396E+02  0.40842813624E+02  0.10566000000E+00 0.  1.
         23    2    1    0    0    0  0.77887737409E+01  0.28805506520E+02  0.22832324285E+01  0.95072832533E+02  0.90239725916E+02 0.  0.
         13    1    3    3    0    0  0.33884701116E+02  0.30780851046E+02 -0.29073183967E+02  0.54230018909E+02  0.10566000000E+00 0. -1.
         22    1    1    0    0    0 -0.77887737409E+01 -0.28805506520E+02 -0.22832324285E+01  0.29927167467E+02  0.00000000000E+00 0.  1.
</event>
<event>
 5    1  0.1766627E-003  0.9118800E+02  0.7818608E-02  0.1130116E+00
         25   -1    0    0    0    0  0.00000000000E+00  0.00000000000E+00  0.99999998245E-14  0.12500000000E+03  0.12500000000E+03 0.  0.
        -13    1    3    3    0    0 -0.17024301975E+02  0.40047985212E+02 -0.34181135497E+02  0.55335604860E+02  0.10566000000E+00 0.  1.
         23    2    1    0    0    0  0.11607137329E+02  0.25625953020E+02 -0.11491526533E+02  0.94611346078E+02  0.89598194845E+02 0.  0.
         13    1    3    3    0    0  0.28631439304E+02 -0.14422032193E+02  0.22689608965E+02  0.39275741218E+02  0.10566000000E+00 0. -1.
         22    1    1    0    0    0 -0.11607137329E+02 -0.25625953020E+02  0.11491526533E+02  0.30388653922E+02  0.00000000000E+00 0.  1.
</event>
<event>
 5    1  0.1766627E-003  0.9118800E+02  0.7818608E-02  0.1130116E+00
         25   -1    0    0    0    0  0.00000000000E+00  0.00000000000E+00  0.99999998245E-14  0.12500000000E+03  0.12500000000E+03 0.  0.
        -13    1    3    3    0    0 -0.12077903715E+02  0.29638787032E+02 -0.19910862535E+02  0.37693329195E+02  0.10566000000E+00 0. -1.
         23    2    1    0    0    0 -0.13734275704E+02 -0.25608669963E+02 -0.16893350551E+01  0.95891785363E+02  0.91367096599E+02 0.  0.
         13    1    3    3    0    0 -0.16563719889E+01 -0.55247456995E+02  0.18221527480E+02  0.58198456168E+02  0.10566000000E+00 0.  1.
         22    1    1    0    0    0  0.13734275704E+02  0.25608669963E+02  0.16893350551E+01  0.29108214637E+02  0.00000000000E+00 0.  1.
</event>
<event>
 5    1  0.1766627E-003  0.9118800E+02  0.7818608E-02  0.1130116E+00
         25   -1    0    0    0    0  0.00000000000E+00  0.00000000000E+00  0.99999998245E-14  0.12500000000E+03  0.12500000000E+03 0.  0.
        -13    1    3    3    0    0 -0.24714402110E+01  0.17676283018E+02 -0.35732225917E+02  0.39941984566E+02  0.10566000000E+00 0.  1.
         23    2    1    0    0    0  0.69687037262E+00  0.19808300580E+02  0.20605489748E+02  0.96409081723E+02  0.92072093659E+02 0.  0.
         13    1    3    3    0    0  0.31683105836E+01  0.21320175621E+01  0.56337715666E+02  0.56467097157E+02  0.10566000000E+00 0. -1.
         22    1    1    0    0    0 -0.69687037262E+00 -0.19808300580E+02 -0.20605489748E+02  0.28590918277E+02  0.00000000000E+00 0.  1.
</event>
<event>
 5    1  0.1766627E-003  0.9118800E+02  0.7818608E-02  0.1130116E+00
         25   -1    0    0    0    0  0.00000000000E+00  0.00000000000E+00  0.99999998245E-14  0.12500000000E+03  0.12500000000E+03 0.  0.
        -13    1    3    3    0    0  0.12504903475E+02 -0.26014831996E+02 -0.17040213399E+02  0.33519011492E+02  0.10566000000E+00 0.  1.
         23    2    1    0    0    0 -0.89919304395E+01  0.27280944956E+02  0.63789109833E+01  0.95575600668E+02  0.90933493098E+02 0.  0.
         13    1    3    3    0    0 -0.21496833915E+02  0.53295776952E+02  0.23419124382E+02  0.62056589176E+02  0.10566000000E+00 0. -1.
         22    1    1    0    0    0  0.89919304395E+01 -0.27280944956E+02 -0.63789109833E+01  0.29424399332E+02  0.00000000000E+00 0. -1.
</event>
<event>
 5    1  0.1766627E-003  0.9118800E+02  0.7818608E-02  0.1130116E+00
         25   -1    0    0    0    0  0.00000000000E+00  0.00000000000E+00  0.99999998245E-14  0.12500000000E+03  0.12500000000E+03 0.  0.
        -13    1    3    3    0    0 -0.31403786783E+02 -0.12802153122E+02  0.20857010558E+02  0.39813552998E+02  0.10566000000E+00 0.  1.
         23    2    1    0    0    0  0.19740389692E+02 -0.20892151420E+02 -0.15082432878E+01  0.96217370274E+02  0.91811451184E+02 0.  0.
         13    1    3    3    0    0  0.51144176474E+02 -0.80899982982E+01 -0.22365253846E+02  0.56403817276E+02  0.10566000000E+00 0. -1.
         22    1    1    0    0    0 -0.19740389692E+02  0.20892151420E+02  0.15082432878E+01  0.28782629726E+02  0.00000000000E+00 0. -1.
</event>
<event>
 5    1  0.1766627E-003  0.9118800E+02  0.7818608E-02  0.1130116E+00
         25   -1    0    0    0    0  0.00000000000E+00  0.00000000000E+00  0.99999998245E-14  0.12500000000E+03  0.12500000000E+03 0.  0.
        -13    1    3    3    0    0 -0.11829432556E+02 -0.16505340426E+01  0.55232072127E+02  0.56508872690E+02  0.10566000000E+00 0.  1.
         23    2    1    0    0    0 -0.17868117551E+02 -0.13741311623E+02  0.17886963088E+02  0.96224372840E+02  0.91820984584E+02 0.  0.
         13    1    3    3    0    0 -0.60386849944E+01 -0.12090777581E+02 -0.37345109039E+02  0.39715500150E+02  0.10566000000E+00 0. -1.
         22    1    1    0    0    0  0.17868117551E+02  0.13741311623E+02 -0.17886963088E+02  0.28775627160E+02  0.00000000000E+00 0.  1.
</event>
<event>
 5    1  0.1766627E-003  0.9118800E+02  0.7818608E-02  0.1130116E+00
         25   -1    0    0    0    0  0.00000000000E+00  0.00000000000E+00  0.99999998245E-14  0.12500000000E+03  0.12500000000E+03 0.  0.
        -13    1    3    3    0    0 -0.29410109822E+02  0.44017923657E+02 -0.24964374455E+02  0.58530020663E+02  0.10566000000E+00 0.  1.
         23    2    1    0    0    0 -0.15313454208E+02  0.10403136109E+02 -0.23598124778E+02  0.95006690517E+02  0.90148059487E+02 0.  0.
         13    1    3    3    0    0  0.14096655614E+02 -0.33614787548E+02  0.13662496765E+01  0.36476669854E+02  0.10566000000E+00 0. -1.
         22    1    1    0    0    0  0.15313454208E+02 -0.10403136109E+02  0.23598124778E+02  0.29993309483E+02  0.00000000000E+00 0.  1.
</event>
<event>
 5    1  0.1766627E-003  0.9118800E+02  0.7818608E-02  0.1130116E+00
         25   -1    0    0    0    0  0.00000000000E+00  0.00000000000E+00  0.99999998245E-14  0.12500000000E+03  0.12500000000E+03 0.  0.
        -13    1    3    3    0    0 -0.17003678274E+02  0.45162463528E+01 -0.33498351982E+02  0.37837445811E+02  0.10566000000E+00 0. -1.
         23    2    1    0    0    0  0.17447322473E+02 -0.20486664451E+02  0.76314929009E+01  0.97029441091E+02  0.92910496031E+02 0.  0.
         13    1    3    3    0    0  0.34451000747E+02 -0.25002910803E+02  0.41129844883E+02  0.59191995280E+02  0.10566000000E+00 0.  1.
         22    1    1    0    0    0 -0.17447322473E+02  0.20486664451E+02 -0.76314929009E+01  0.27970558909E+02  0.00000000000E+00 0.  1.
</event>
<event>
 5    1  0.1766627E-003  0.9118800E+02  0.7818608E-02  0.1130116E+00
         25   -1    0    0    0    0  0.00000000000E+00  0.00000000000E+00  0.99999998245E-14  0.12500000000E+03  0.12500000000E+03 0.  0.
        -13    1    3    3    0    0  0.31717425041E+02  0.20206228585E+02 -0.26444197176E+02  0.45973834440E+02  0.10566000000E+00 0.  1.
         23    2    1    0    0    0 -0.80423515262E+00 -0.16908818072E+02 -0.24321804600E+02  0.95367161766E+02  0.90646513676E+02 0.  0.
         13    1    3    3    0    0 -0.32521660193E+02 -0.37115046657E+02  0.21223925755E+01  0.49393327326E+02  0.10566000000E+00 0. -1.
         22    1    1    0    0    0  0.80423515262E+00  0.16908818072E+02  0.24321804600E+02  0.29632838234E+02  0.00000000000E+00 0. -1.
</event>
<event>
 5    1  0.1766627E-003  0.9118800E+02  0.7818608E-02  0.1130116E+00
         25   -1    0    0    0    0  0.00000000000E+00  0.00000000000E+00  0.99999998245E-14  0.12500000000E+03  0.12500000000E+03 0.  0.
        -13    1    3    3    0    0  0.34876837995E+02  0.47387330063E+01  0.12401373243E+02  0.37318288297E+02  0.10566000000E+00 0.  1.
         23    2    1    0    0    0 -0.30261881440E+01 -0.13507499729E+02 -0.26811047990E+02  0.94826457651E+02  0.89897799821E+02 0.  0.
         13    1    3    3    0    0 -0.37903026139E+02 -0.18246232735E+02 -0.39212421232E+02  0.57508169354E+02  0.10566000000E+00 0. -1.
         22    1    1    0    0    0  0.30261881440E+01  0.13507499729E+02  0.26811047990E+02  0.30173542349E+02  0.00000000000E+00 0. -1.
</event>
<event>
 5    1  0.1766627E-003  0.9118800E+02  0.7818608E-02  0.1130116E+00
         25   -1    0    0    0    0  0.00000000000E+00  0.00000000000E+00  0.99999998245E-14  0.12500000000E+03  0.12500000000E+03 0.  0.
        -13    1    3    3    0    0  0.14574681070E+02  0.46141700282E+02 -0.31294386727E+02  0.57626622649E+02  0.10566000000E+00 0.  1.
         23    2    1    0    0    0  0.10771202334E+02  0.24143862341E+02  0.28370383927E+01  0.98410647332E+02  0.94750524183E+02 0.  0.
         13    1    3    3    0    0 -0.38034787357E+01 -0.21997837941E+02  0.34131425120E+02  0.40784024683E+02  0.10566000000E+00 0. -1.
         22    1    1    0    0    0 -0.10771202334E+02 -0.24143862341E+02 -0.28370383927E+01  0.26589352668E+02  0.00000000000E+00 0.  1.
</event>
<event>
 5    1  0.1766627E-003  0.9118800E+02  0.7818608E-02  0.1130116E+00
         25   -1    0    0    0    0  0.00000000000E+00  0.00000000000E+00  0.99999998245E-14  0.12500000000E+03  0.12500000000E+03 0.  0.
        -13    1    3    3    0    0 -0.21193706122E+02  0.13467082012E+02  0.56636406578E+02  0.61953443740E+02  0.10566000000E+00 0. -1.
         23    2    1    0    0    0 -0.44486785943E+01  0.55619314029E+01  0.28402736385E+02  0.95717902119E+02  0.91128895142E+02 0.  0.
         13    1    3    3    0    0  0.16745027528E+02 -0.79051506086E+01 -0.28233670193E+02  0.33764458379E+02  0.10566000000E+00 0.  1.
         22    1    1    0    0    0  0.44486785943E+01 -0.55619314029E+01 -0.28402736385E+02  0.29282097881E+02  0.00000000000E+00 0. -1.
</event>
<event>
 5    1  0.1766627E-003  0.9118800E+02  0.7818608E-02  0.1130116E+00
         25   -1    0    0    0    0  0.00000000000E+00  0.00000000000E+00  0.99999998245E-14  0.12500000000E+03  0.12500000000E+03 0.  0.
        -13    1    3    3    0    0 -0.82940729047E+01  0.16807128152E+02 -0.28068013873E+02  0.33750492868E+02  0.10566000000E+00 0.  1.
         23    2    1    0    0    0  0.13899837377E+02 -0.14870543134E+02  0.20682303974E+02  0.95981105640E+02  0.91489214719E+02 0.  0.
         13    1    3    3    0    0  0.22193910281E+02 -0.31677671286E+02  0.48750317847E+02  0.62230612771E+02  0.10566000000E+00 0. -1.
         22    1    1    0    0    0 -0.13899837377E+02  0.14870543134E+02 -0.20682303974E+02  0.29018894360E+02  0.00000000000E+00 0. -1.
</event>
<event>
 5    1  0.1766627E-003  0.9118800E+02  0.7818608E-02  0.1130116E+00
         25   -1    0    0    0    0  0.00000000000E+00  0.00000000000E+00  0.99999998245E-14  0.12500000000E+03  0.12500000000E+03 0.  0.
        -13    1    3    3    0    0 -0.30129086828E+02  0.18769448198E+02  0.50947114477E+02  0.62094071346E+02  0.10566000000E+00 0. -1.
         23    2    1    0    0    0 -0.16110927164E+02  0.99522810593E+01  0.18483894745E+02  0.98537493745E+02  0.94917719295E+02 0.  0.
         13    1    3    3    0    0  0.14018159664E+02 -0.88171671391E+01 -0.32463219732E+02  0.36443422399E+02  0.10566000000E+00 0.  1.
         22    1    1    0    0    0  0.16110927164E+02 -0.99522810593E+01 -0.18483894745E+02  0.26462506255E+02  0.00000000000E+00 0. -1.
</event>
<event>
 5    1  0.1766627E-003  0.9118800E+02  0.7818608E-02  0.1130116E+00
         25   -1    0    0    0    0  0.00000000000E+00  0.00000000000E+00  0.99999998245E-14  0.12500000000E+03  0.12500000000E+03 0.  0.
        -13    1    3    3    0    0 -0.34186053517E+02 -0.24505919385E+00  0.40493116891E+02  0.52994810960E+02  0.10566000000E+00 0.  1.
         23    2    1    0    0    0 -0.26875683994E+02  0.12989825510E+02  0.11675599638E+01  0.95126915907E+02  0.90314611093E+02 0.  0.
         13    1    3    3    0    0  0.73103695230E+01  0.13234884704E+02 -0.39325556927E+02  0.42132104948E+02  0.10566000000E+00 0. -1.
         22    1    1    0    0    0  0.26875683994E+02 -0.12989825510E+02 -0.11675599638E+01  0.29873084093E+02  0.00000000000E+00 0.  1.
</event>
<event>
 5    1  0.1766627E-003  0.9118800E+02  0.7818608E-02  0.1130116E+00
         25   -1    0    0    0    0  0.00000000000E+00  0.00000000000E+00  0.99999998245E-14  0.12500000000E+03  0.12500000000E+03 0.  0.
        -13    1    3    3    0    0 -0.78595867561E+01 -0.37874132830E+02  0.17467619729E+02  0.42442336701E+02  0.10566000000E+00 0.  1.
         23    2    1    0    0    0  0.26997562194E+02 -0.72936811804E+01 -0.87329814440E+01  0.95702711482E+02  0.91108056014E+02 0.  0.
         13    1    3    3    0    0  0.34857148950E+02  0.30580451650E+02 -0.26200601173E+02  0.53260374782E+02  0.10566000000E+00 0. -1.
         22    1    1    0    0    0 -0.26997562194E+02  0.72936811804E+01  0.87329814440E+01  0.29297288518E+02  0.00000000000E+00 0. -1.
</event>
<event>
 5    1  0.1766627E-003  0.9118800E+02  0.7818608E-02  0.1130116E+00
         25   -1    0    0    0    0  0.00000000000E+00  0.00000000000E+00  0.99999998245E-14  0.12500000000E+03  0.12500000000E+03 0.  0.
        -13    1    3    3    0    0  0.23634478819E+01 -0.81691196577E+01  0.48346352469E+02  0.49088709119E+02  0.10566000000E+00 0.  1.
         23    2    1    0    0    0 -0.57123941438E+01  0.24036862787E+02  0.15269526740E+02  0.95955884135E+02  0.91454748558E+02 0.  0.
         13    1    3    3    0    0 -0.80758420257E+01  0.32205982445E+02 -0.33076825729E+02  0.46867175016E+02  0.10566000000E+00 0. -1.
         22    1    1    0    0    0  0.57123941438E+01 -0.24036862787E+02 -0.15269526740E+02  0.29044115865E+02  0.00000000000E+00 0. -1.
</event>
<event>
 5    1  0.1766627E-003  0.9118800E+02  0.7818608E-02  0.1130116E+00
         25   -1    0    0    0    0  0.00000000000E+00  0.00000000000E+00  0.99999998245E-14  0.12500000000E+03  0.12500000000E+03 0.  0.
        -13    1    3    3    0    0  0.22843758648E+02 -0.13348577555E+02  0.26374797476E+02  0.37358572481E+02  0.10566000000E+00 0.  1.
         23    2    1    0    0    0 -0.10469019793E+02  0.15396229681E+02 -0.17465891311E+02  0.99471552669E+02  0.96139940542E+02 0.  0.
         13    1    3    3    0    0 -0.33312778442E+02  0.28744807236E+02 -0.43840688787E+02  0.62112980188E+02  0.10566000000E+00 0. -1.
         22    1    1    0    0    0  0.10469019793E+02 -0.15396229681E+02  0.17465891311E+02  0.25528447331E+02  0.00000000000E+00 0. -1.
</event>
<event>
 5    1  0.1766627E-003  0.9118800E+02  0.7818608E-02  0.1130116E+00
         25   -1    0    0    0    0  0.00000000000E+00  0.00000000000E+00  0.99999998245E-14  0.12500000000E+03  0.12500000000E+03 0.  0.
        -13    1    3    3    0    0 -0.17162228740E+02  0.73263821818E+01  0.58980817800E+02  0.61862476540E+02  0.10566000000E+00 0.  1.
         23    2    1    0    0    0 -0.43484816822E+01  0.85645234566E+01  0.27324543365E+02  0.96036384461E+02  0.91564709988E+02 0.  0.
         13    1    3    3    0    0  0.12813747057E+02  0.12381412747E+01 -0.31656274435E+02  0.34173907921E+02  0.10566000000E+00 0. -1.
         22    1    1    0    0    0  0.43484816822E+01 -0.85645234566E+01 -0.27324543365E+02  0.28963615539E+02  0.00000000000E+00 0.  1.
</event>
<event>
 5    1  0.1766627E-003  0.9118800E+02  0.7818608E-02  0.1130116E+00
         25   -1    0    0    0    0  0.00000000000E+00  0.00000000000E+00  0.99999998245E-14  0.12500000000E+03  0.12500000000E+03 0.  0.
        -13    1    3    3    0    0  0.16886442874E+02 -0.22299879710E+02  0.33981717443E+02  0.44013689603E+02  0.10566000000E+00 0. -1.
         23    2    1    0    0    0 -0.98456195895E+01 -0.16685554626E+02 -0.15269228982E+02  0.10033234280E+03  0.97252689931E+02 0.  0.
         13    1    3    3    0    0 -0.26732062464E+02  0.56143250843E+01 -0.49250946425E+02  0.56318653193E+02  0.10566000000E+00 0.  1.
         22    1    1    0    0    0  0.98456195895E+01  0.16685554626E+02  0.15269228982E+02  0.24667657204E+02  0.00000000000E+00 0. -1.
</event>
<event>
 5    1  0.1766627E-003  0.9118800E+02  0.7818608E-02  0.1130116E+00
         25   -1    0    0    0    0  0.00000000000E+00  0.00000000000E+00  0.99999998245E-14  0.12500000000E+03  0.12500000000E+03 0.  0.
        -13    1    3    3    0    0  0.54027619590E+01  0.20509657874E+02  0.26518881830E+02  0.33957299074E+02  0.10566000000E+00 0.  1.
         23    2    1    0    0    0 -0.17018037301E+02 -0.72854620604E+01 -0.23292499598E+02  0.95247149909E+02  0.90480868018E+02 0.  0.
         13    1    3    3    0    0 -0.22420799260E+02 -0.27795119935E+02 -0.49811381427E+02  0.61289850835E+02  0.10566000000E+00 0. -1.
         22    1    1    0    0    0  0.17018037301E+02  0.72854620604E+01  0.23292499598E+02  0.29752850091E+02  0.00000000000E+00 0. -1.
</event>
<event>
 5    1  0.1766627E-003  0.9118800E+02  0.7818608E-02  0.1130116E+00
         25   -1    0    0    0    0  0.00000000000E+00  0.00000000000E+00  0.99999998245E-14  0.12500000000E+03  0.12500000000E+03 0.  0.
        -13    1    3    3    0    0  0.25219278089E+02  0.32485199171E+02  0.15091499109E+02  0.43807130263E+02  0.10566000000E+00 0.  1.
         23    2    1    0    0    0  0.60102085517E+01 -0.18410958621E+02  0.18370176745E+02  0.98306379080E+02  0.94612867887E+02 0.  0.
         13    1    3    3    0    0 -0.19209069537E+02 -0.50896157792E+02  0.32786776358E+01  0.54499248816E+02  0.10566000000E+00 0. -1.
         22    1    1    0    0    0 -0.60102085517E+01  0.18410958621E+02 -0.18370176745E+02  0.26693620920E+02  0.00000000000E+00 0. -1.
</event>
<event>
 5    1  0.1766627E-003  0.9118800E+02  0.7818608E-02  0.1130116E+00
         25   -1    0    0    0    0  0.00000000000E+00  0.00000000000E+00  0.99999998245E-14  0.12500000000E+03  0.12500000000E+03 0.  0.
        -13    1    3    3    0    0  0.16335113868E+02 -0.24398709856E+02  0.11448117153E+02  0.31515131891E+02  0.10566000000E+00 0.  1.
         23    2    1    0    0    0 -0.15849767373E+02  0.26589973006E+02 -0.40730121817E+01  0.93777712792E+02  0.88427530769E+02 0.  0.
         13    1    3    3    0    0 -0.32184881242E+02  0.50988682862E+02 -0.15521129335E+02  0.62262580901E+02  0.10566000000E+00 0. -1.
         22    1    1    0    0    0  0.15849767373E+02 -0.26589973006E+02  0.40730121817E+01  0.31222287208E+02  0.00000000000E+00 0. -1.
</event>
<event>
 5    1  0.1766627E-003  0.9118800E+02  0.7818608E-02  0.1130116E+00
         25   -1    0    0    0    0  0.00000000000E+00  0.00000000000E+00  0.99999998245E-14  0.12500000000E+03  0.12500000000E+03 0.  0.
        -13    1    3    3    0    0 -0.40857160882E+02  0.10214917016E+02  0.33420322688E+02  0.53764126121E+02  0.10566000000E+00 0.  1.
         23    2    1    0    0    0 -0.11029170041E+01  0.18513192977E+02  0.22546329142E+02  0.95805964686E+02  0.91249609158E+02 0.  0.
         13    1    3    3    0    0  0.39754243878E+02  0.82982759605E+01 -0.10873993546E+02  0.42041838565E+02  0.10566000000E+00 0. -1.
         22    1    1    0    0    0  0.11029170041E+01 -0.18513192977E+02 -0.22546329142E+02  0.29194035314E+02  0.00000000000E+00 0.  1.
</event>
<event>
 5    1  0.1766627E-003  0.9118800E+02  0.7818608E-02  0.1130116E+00
         25   -1    0    0    0    0  0.00000000000E+00  0.00000000000E+00  0.99999998245E-14  0.12500000000E+03  0.12500000000E+03 0.  0.
        -13    1    3    3    0    0 -0.46642651975E+02  0.81922774088E+01  0.25492618822E+02  0.53782294213E+02  0.10566000000E+00 0. -1.
         23    2    1    0    0    0 -0.89692341974E+01 -0.89950717452E+01  0.26938782796E+02  0.95216506311E+02  0.90438523749E+02 0.  0.
         13    1    3    3    0    0  0.37673417777E+02 -0.17187349154E+02  0.14461639740E+01  0.41434212099E+02  0.10566000000E+00 0.  1.
         22    1    1    0    0    0  0.89692341974E+01  0.89950717452E+01 -0.26938782796E+02  0.29783493689E+02  0.00000000000E+00 0. -1.
</event>
<event>
 5    1  0.1766627E-003  0.9118800E+02  0.7818608E-02  0.1130116E+00
         25   -1    0    0    0    0  0.00000000000E+00  0.00000000000E+00  0.99999998245E-14  0.12500000000E+03  0.12500000000E+03 0.  0.
        -13    1    3    3    0    0  0.40448800236E+02 -0.28771768680E+02 -0.28646574545E+02  0.57311059236E+02  0.10566000000E+00 0.  1.
         23    2    1    0    0    0  0.88720573027E+01 -0.96735282386E+01 -0.27837503786E+02  0.94223106616E+02  0.89054908084E+02 0.  0.
         13    1    3    3    0    0 -0.31576742933E+02  0.19098240441E+02  0.80907075952E+00  0.36912047380E+02  0.10566000000E+00 0. -1.
         22    1    1    0    0    0 -0.88720573027E+01  0.96735282386E+01  0.27837503786E+02  0.30776893384E+02  0.00000000000E+00 0.  1.
</event>
<event>
 5    1  0.1766627E-003  0.9118800E+02  0.7818608E-02  0.1130116E+00
         25   -1    0    0    0    0  0.00000000000E+00  0.00000000000E+00  0.99999998245E-14  0.12500000000E+03  0.12500000000E+03 0.  0.
        -13    1    3    3    0    0 -0.31464598808E+02  0.31153666197E+02  0.16054577103E+02  0.47099177335E+02  0.10566000000E+00 0. -1.
         23    2    1    0    0    0 -0.16475954325E+02 -0.32668274366E+01 -0.19815648437E+02  0.99023295910E+02  0.95555345102E+02 0.  0.
         13    1    3    3    0    0  0.14988644483E+02 -0.34420493634E+02 -0.35870225540E+02  0.51924118575E+02  0.10566000000E+00 0.  1.
         22    1    1    0    0    0  0.16475954325E+02  0.32668274366E+01  0.19815648437E+02  0.25976704090E+02  0.00000000000E+00 0. -1.
</event>
<event>
 5    1  0.1766627E-003  0.9118800E+02  0.7818608E-02  0.1130116E+00
         25   -1    0    0    0    0  0.00000000000E+00  0.00000000000E+00  0.99999998245E-14  0.12500000000E+03  0.12500000000E+03 0.  0.
        -13    1    3    3    0    0  0.10356548939E+02  0.20055014624E+02 -0.43710933683E+01  0.22990853371E+02  0.10566000000E+00 0. -1.
         23    2    1    0    0    0 -0.19737006759E+02 -0.24614748488E+02 -0.28936310329E+02  0.82189424970E+02  0.70159505718E+02 0.  0.
         13    1    3    3    0    0 -0.30093555697E+02 -0.44669763112E+02 -0.24565216960E+02  0.59198571599E+02  0.10566000000E+00 0.  1.
         22    1    1    0    0    0  0.19737006759E+02  0.24614748488E+02  0.28936310329E+02  0.42810575030E+02  0.00000000000E+00 0.  1.
</event>
<event>
 5    1  0.1766627E-003  0.9118800E+02  0.7818608E-02  0.1130116E+00
         25   -1    0    0    0    0  0.00000000000E+00  0.00000000000E+00  0.99999998245E-14  0.12500000000E+03  0.12500000000E+03 0.  0.
        -13    1    3    3    0    0 -0.25296242332E+02 -0.18958030546E+02 -0.10809049157E+02  0.33408883639E+02  0.10566000000E+00 0.  1.
         23    2    1    0    0    0  0.20197423301E+02  0.78802191320E+01  0.20792413131E+02  0.94960722289E+02  0.90084297035E+02 0.  0.
         13    1    3    3    0    0  0.45493665633E+02  0.26838249678E+02  0.31601462287E+02  0.61551838650E+02  0.10566000000E+00 0. -1.
         22    1    1    0    0    0 -0.20197423301E+02 -0.78802191320E+01 -0.20792413131E+02  0.30039277711E+02  0.00000000000E+00 0. -1.
</event>
<event>
 5    1  0.1766627E-003  0.9118800E+02  0.7818608E-02  0.1130116E+00
         25   -1    0    0    0    0  0.00000000000E+00  0.00000000000E+00  0.99999998245E-14  0.12500000000E+03  0.12500000000E+03 0.  0.
        -13    1    3    3    0    0 -0.20563585097E+02 -0.50849830091E+01  0.39403886256E+02  0.44736958997E+02  0.10566000000E+00 0.  1.
         23    2    1    0    0    0  0.16775637265E+02  0.18971521980E+02  0.17122583127E+02  0.94430022819E+02  0.89344869494E+02 0.  0.
         13    1    3    3    0    0  0.37339222362E+02  0.24056504989E+02 -0.22281303129E+02  0.49693063822E+02  0.10566000000E+00 0. -1.
         22    1    1    0    0    0 -0.16775637265E+02 -0.18971521980E+02 -0.17122583127E+02  0.30569977181E+02  0.00000000000E+00 0. -1.
</event>
<event>
 5    1  0.1766627E-003  0.9118800E+02  0.7818608E-02  0.1130116E+00
         25   -1    0    0    0    0  0.00000000000E+00  0.00000000000E+00  0.99999998245E-14  0.12500000000E+03  0.12500000000E+03 0.  0.
        -13    1    3    3    0    0 -0.28519872768E+02 -0.13412653767E+02  0.22716210503E+02  0.38849965346E+02  0.10566000000E+00 0. -1.
         23    2    1    0    0    0  0.21391907995E+02 -0.15207834557E+02 -0.80947966695E+01  0.97533334882E+02  0.93585969677E+02 0.  0.
         13    1    3    3    0    0  0.49911780763E+02 -0.17951807904E+01 -0.30811007172E+02  0.58683369535E+02  0.10566000000E+00 0.  1.
         22    1    1    0    0    0 -0.21391907995E+02  0.15207834557E+02  0.80947966695E+01  0.27466665118E+02  0.00000000000E+00 0.  1.
</event>
<event>
 5    1  0.1766627E-003  0.9118800E+02  0.7818608E-02  0.1130116E+00
         25   -1    0    0    0    0  0.00000000000E+00  0.00000000000E+00  0.99999998245E-14  0.12500000000E+03  0.12500000000E+03 0.  0.
        -13    1    3    3    0    0  0.12323987583E+02 -0.20708703142E+02 -0.25298800640E+02  0.34939541120E+02  0.10566000000E+00 0. -1.
         23    2    1    0    0    0 -0.59298240772E+01  0.26416954683E+02  0.95091665063E+01  0.96304311196E+02  0.91929743821E+02 0.  0.
         13    1    3    3    0    0 -0.18253811660E+02  0.47125657825E+02  0.34807967147E+02  0.61364770076E+02  0.10566000000E+00 0.  1.
         22    1    1    0    0    0  0.59298240772E+01 -0.26416954683E+02 -0.95091665063E+01  0.28695688804E+02  0.00000000000E+00 0.  1.
</event>
<event>
 5    1  0.1766627E-003  0.9118800E+02  0.7818608E-02  0.1130116E+00
         25   -1    0    0    0    0  0.00000000000E+00  0.00000000000E+00  0.99999998245E-14  0.12500000000E+03  0.12500000000E+03 0.  0.
        -13    1    3    3    0    0  0.50237289618E+01 -0.27142738117E+02  0.15584571047E+02  0.31699465357E+02  0.10566000000E+00 0.  1.
         23    2    1    0    0    0 -0.22867071570E+02  0.11709415573E+02 -0.20922668297E+02  0.91867366179E+02  0.85684546709E+02 0.  0.
         13    1    3    3    0    0 -0.27890800532E+02  0.38852153690E+02 -0.36507239344E+02  0.60167900822E+02  0.10566000000E+00 0. -1.
         22    1    1    0    0    0  0.22867071570E+02 -0.11709415573E+02  0.20922668297E+02  0.33132633821E+02  0.00000000000E+00 0. -1.
</event>
<event>
 5    1  0.1766627E-003  0.9118800E+02  0.7818608E-02  0.1130116E+00
         25   -1    0    0    0    0  0.00000000000E+00  0.00000000000E+00  0.99999998245E-14  0.12500000000E+03  0.12500000000E+03 0.  0.
        -13    1    3    3    0    0  0.44122299697E+01 -0.39611375985E+02 -0.57553282476E+01  0.40269887608E+02  0.10566000000E+00 0.  1.
         23    2    1    0    0    0 -0.18706906806E+02 -0.37489386596E+01  0.25493697153E+02  0.93157708973E+02  0.87546714634E+02 0.  0.
         13    1    3    3    0    0 -0.23119136775E+02  0.35862437325E+02  0.31249025401E+02  0.52887821365E+02  0.10566000000E+00 0. -1.
         22    1    1    0    0    0  0.18706906806E+02  0.37489386596E+01 -0.25493697153E+02  0.31842291027E+02  0.00000000000E+00 0. -1.
</event>
<event>
 5    1  0.1766627E-003  0.9118800E+02  0.7818608E-02  0.1130116E+00
         25   -1    0    0    0    0  0.00000000000E+00  0.00000000000E+00  0.99999998245E-14  0.12500000000E+03  0.12500000000E+03 0.  0.
        -13    1    3    3    0    0 -0.21149520715E+02 -0.68872487030E+01  0.44709701714E+02  0.49937010449E+02  0.10566000000E+00 0.  1.
         23    2    1    0    0    0 -0.34851129413E+02 -0.12132553996E+01  0.84409282951E+01  0.89120723523E+02  0.81579291985E+02 0.  0.
         13    1    3    3    0    0 -0.13701608698E+02  0.56739933035E+01 -0.36268773419E+02  0.39183713074E+02  0.10566000000E+00 0. -1.
         22    1    1    0    0    0  0.34851129413E+02  0.12132553996E+01 -0.84409282951E+01  0.35879276477E+02  0.00000000000E+00 0.  1.
</event>
<event>
 5    1  0.1766627E-003  0.9118800E+02  0.7818608E-02  0.1130116E+00
         25   -1    0    0    0    0  0.00000000000E+00  0.00000000000E+00  0.99999998245E-14  0.12500000000E+03  0.12500000000E+03 0.  0.
        -13    1    3    3    0    0  0.41008795246E+02 -0.10525593941E+02  0.41768802896E+02  0.59473973087E+02  0.10566000000E+00 0. -1.
         23    2    1    0    0    0  0.28145268213E+02 -0.52334681503E+01  0.91325770945E+01  0.94950885603E+02  0.90070646721E+02 0.  0.
         13    1    3    3    0    0 -0.12863527033E+02  0.52921257902E+01 -0.32636225801E+02  0.35476912516E+02  0.10566000000E+00 0.  1.
         22    1    1    0    0    0 -0.28145268213E+02  0.52334681503E+01 -0.91325770945E+01  0.30049114397E+02  0.00000000000E+00 0. -1.
</event>
<event>
 5    1  0.1766627E-003  0.9118800E+02  0.7818608E-02  0.1130116E+00
         25   -1    0    0    0    0  0.00000000000E+00  0.00000000000E+00  0.99999998245E-14  0.12500000000E+03  0.12500000000E+03 0.  0.
        -13    1    3    3    0    0 -0.25191911724E+02  0.28117522187E+02  0.29050884878E+02  0.47636042515E+02  0.10566000000E+00 0.  1.
         23    2    1    0    0    0 -0.25043319377E+02 -0.14564082265E+02  0.10331609981E+02  0.94242521195E+02  0.89082154772E+02 0.  0.
         13    1    3    3    0    0  0.14859234729E+00 -0.42681604452E+02 -0.18719274897E+02  0.46606478680E+02  0.10566000000E+00 0. -1.
         22    1    1    0    0    0  0.25043319377E+02  0.14564082265E+02 -0.10331609981E+02  0.30757478805E+02  0.00000000000E+00 0.  1.
</event>
<event>
 5    1  0.1766627E-003  0.9118800E+02  0.7818608E-02  0.1130116E+00
         25   -1    0    0    0    0  0.00000000000E+00  0.00000000000E+00  0.99999998245E-14  0.12500000000E+03  0.12500000000E+03 0.  0.
        -13    1    3    3    0    0  0.11185958443E+01 -0.41657542909E+02 -0.10852494070E+02  0.43062627990E+02  0.10566000000E+00 0.  1.
         23    2    1    0    0    0 -0.27911822312E+02 -0.19088189739E+01  0.82052145131E+01  0.95844572377E+02  0.91302481315E+02 0.  0.
         13    1    3    3    0    0 -0.29030418157E+02  0.39748723935E+02  0.19057708583E+02  0.52781944387E+02  0.10566000000E+00 0. -1.
         22    1    1    0    0    0  0.27911822312E+02  0.19088189739E+01 -0.82052145131E+01  0.29155427623E+02  0.00000000000E+00 0.  1.
</event>
<event>
 5    1  0.1766627E-003  0.9118800E+02  0.7818608E-02  0.1130116E+00
         25   -1    0    0    0    0  0.00000000000E+00  0.00000000000E+00  0.99999998245E-14  0.12500000000E+03  0.12500000000E+03 0.  0.
        -13    1    3    3    0    0 -0.15812537781E+02  0.37358398874E+01 -0.28908643430E+02  0.33161931183E+02  0.10566000000E+00 0. -1.
         23    2    1    0    0    0  0.12689261505E+02 -0.13806016896E+02  0.23247515710E+02  0.95132451611E+02  0.90322272463E+02 0.  0.
         13    1    3    3    0    0  0.28501799286E+02 -0.17541856783E+02  0.52156159140E+02  0.61970520429E+02  0.10566000000E+00 0.  1.
         22    1    1    0    0    0 -0.12689261505E+02  0.13806016896E+02 -0.23247515710E+02  0.29867548389E+02  0.00000000000E+00 0.  1.
</event>
<event>
 5    1  0.1766627E-003  0.9118800E+02  0.7818608E-02  0.1130116E+00
         25   -1    0    0    0    0  0.00000000000E+00  0.00000000000E+00  0.99999998245E-14  0.12500000000E+03  0.12500000000E+03 0.  0.
        -13    1    3    3    0    0  0.45634052630E+02  0.55267768791E+01 -0.30407621037E+02  0.55114849209E+02  0.10566000000E+00 0.  1.
         23    2    1    0    0    0  0.29069468244E+02 -0.41900652339E+01  0.48200691536E+01  0.95237209518E+02  0.90467134250E+02 0.  0.
         13    1    3    3    0    0 -0.16564584386E+02 -0.97168421131E+01  0.35227690191E+02  0.40122360309E+02  0.10566000000E+00 0. -1.
         22    1    1    0    0    0 -0.29069468244E+02  0.41900652339E+01 -0.48200691536E+01  0.29762790482E+02  0.00000000000E+00 0.  1.
</event>
<event>
 5    1  0.1766627E-003  0.9118800E+02  0.7818608E-02  0.1130116E+00
         25   -1    0    0    0    0  0.00000000000E+00  0.00000000000E+00  0.99999998245E-14  0.12500000000E+03  0.12500000000E+03 0.  0.
        -13    1    3    3    0    0 -0.39897684708E+02 -0.62201831218E+01  0.20074562354E+01  0.40429654558E+02  0.10566000000E+00 0. -1.
         23    2    1    0    0    0  0.10961311655E+02 -0.24181544889E+02 -0.11552513024E+02  0.96045587148E+02  0.91577272219E+02 0.  0.
         13    1    3    3    0    0  0.50858996363E+02 -0.17961361767E+02 -0.13559969259E+02  0.55615932590E+02  0.10566000000E+00 0.  1.
         22    1    1    0    0    0 -0.10961311655E+02  0.24181544889E+02  0.11552513024E+02  0.28954412852E+02  0.00000000000E+00 0.  1.
</event>
<event>
 5    1  0.1766627E-003  0.9118800E+02  0.7818608E-02  0.1130116E+00
         25   -1    0    0    0    0  0.00000000000E+00  0.00000000000E+00  0.99999998245E-14  0.12500000000E+03  0.12500000000E+03 0.  0.
        -13    1    3    3    0    0  0.38734166277E+02 -0.33747814586E+02 -0.79447224945E+01  0.51984424648E+02  0.10566000000E+00 0. -1.
         23    2    1    0    0    0  0.49672228685E+01 -0.23101980159E+02  0.17509145793E+02  0.95590053100E+02  0.90953357689E+02 0.  0.
         13    1    3    3    0    0 -0.33766943408E+02  0.10645834427E+02  0.25453868288E+02  0.43605628451E+02  0.10566000000E+00 0.  1.
         22    1    1    0    0    0 -0.49672228685E+01  0.23101980159E+02 -0.17509145793E+02  0.29409946900E+02  0.00000000000E+00 0.  1.
</event>
<event>
 5    1  0.1766627E-003  0.9118800E+02  0.7818608E-02  0.1130116E+00
         25   -1    0    0    0    0  0.00000000000E+00  0.00000000000E+00  0.99999998245E-14  0.12500000000E+03  0.12500000000E+03 0.  0.
        -13    1    3    3    0    0 -0.41683492215E+02 -0.15212309478E+02  0.35561014898E+01  0.44514996403E+02  0.10566000000E+00 0.  1.
         23    2    1    0    0    0 -0.38277418381E+01 -0.84511670066E+01 -0.28781954506E+02  0.94759716660E+02  0.89804950670E+02 0.  0.
         13    1    3    3    0    0  0.37855750377E+02  0.67611424718E+01 -0.32338055995E+02  0.50244720257E+02  0.10566000000E+00 0. -1.
         22    1    1    0    0    0  0.38277418381E+01  0.84511670066E+01  0.28781954506E+02  0.30240283340E+02  0.00000000000E+00 0. -1.
</event>
<event>
 5    1  0.1766627E-003  0.9118800E+02  0.7818608E-02  0.1130116E+00
         25   -1    0    0    0    0  0.00000000000E+00  0.00000000000E+00  0.99999998245E-14  0.12500000000E+03  0.12500000000E+03 0.  0.
        -13    1    3    3    0    0 -0.22009507009E+02  0.53568289428E+02  0.19870023566E+02  0.61227518581E+02  0.10566000000E+00 0.  1.
         23    2    1    0    0    0 -0.18538079165E+02  0.23220402185E+02  0.13168068638E+02  0.92500069409E+02  0.86602640562E+02 0.  0.
         13    1    3    3    0    0  0.34714278434E+01 -0.30347887244E+02 -0.67019549281E+01  0.31272550828E+02  0.10566000000E+00 0. -1.
         22    1    1    0    0    0  0.18538079165E+02 -0.23220402185E+02 -0.13168068638E+02  0.32499930591E+02  0.00000000000E+00 0.  1.
</event>
<event>
 5    1  0.1766627E-003  0.9118800E+02  0.7818608E-02  0.1130116E+00
         25   -1    0    0    0    0  0.00000000000E+00  0.00000000000E+00  0.99999998245E-14  0.12500000000E+03  0.12500000000E+03 0.  0.
        -13    1    3    3    0    0 -0.85203243038E+01  0.48796152347E+02 -0.29571089776E+02  0.57689868475E+02  0.10566000000E+00 0.  1.
         23    2    1    0    0    0 -0.13320889948E+02  0.75771098218E+01 -0.19143866925E+02  0.10047763586E+03  0.97439257820E+02 0.  0.
         13    1    3    3    0    0 -0.48005656444E+01 -0.41219042525E+02  0.10427222851E+02  0.42787767383E+02  0.10566000000E+00 0. -1.
         22    1    1    0    0    0  0.13320889948E+02 -0.75771098218E+01  0.19143866925E+02  0.24522364142E+02  0.00000000000E+00 0.  1.
</event>
<event>
 5    1  0.1766627E-003  0.9118800E+02  0.7818608E-02  0.1130116E+00
         25   -1    0    0    0    0  0.00000000000E+00  0.00000000000E+00  0.99999998245E-14  0.12500000000E+03  0.12500000000E+03 0.  0.
        -13    1    3    3    0    0  0.43856473234E+01  0.29708241424E+02 -0.22148340434E+02  0.37314523432E+02  0.10566000000E+00 0.  1.
         23    2    1    0    0    0  0.12886703181E+02 -0.57678072868E+00  0.26661258098E+02  0.95382058169E+02  0.90667053235E+02 0.  0.
         13    1    3    3    0    0  0.85010558576E+01 -0.30285022153E+02  0.48809598533E+02  0.58067534737E+02  0.10566000000E+00 0. -1.
         22    1    1    0    0    0 -0.12886703181E+02  0.57678072868E+00 -0.26661258098E+02  0.29617941831E+02  0.00000000000E+00 0. -1.
</event>
<event>
 5    1  0.1766627E-003  0.9118800E+02  0.7818608E-02  0.1130116E+00
         25   -1    0    0    0    0  0.00000000000E+00  0.00000000000E+00  0.99999998245E-14  0.12500000000E+03  0.12500000000E+03 0.  0.
        -13    1    3    3    0    0 -0.39472762085E+01 -0.24800352199E+02 -0.37127838877E+02  0.44823275676E+02  0.10566000000E+00 0.  1.
         23    2    1    0    0    0  0.28219772760E+02  0.33189229357E+00 -0.60275352341E+01  0.96141779194E+02  0.91708477244E+02 0.  0.
         13    1    3    3    0    0  0.32167048968E+02  0.25132244492E+02  0.31100303643E+02  0.51318503517E+02  0.10566000000E+00 0. -1.
         22    1    1    0    0    0 -0.28219772760E+02 -0.33189229357E+00  0.60275352341E+01  0.28858220806E+02  0.00000000000E+00 0. -1.
</event>
<event>
 5    1  0.1766627E-003  0.9118800E+02  0.7818608E-02  0.1130116E+00
         25   -1    0    0    0    0  0.00000000000E+00  0.00000000000E+00  0.99999998245E-14  0.12500000000E+03  0.12500000000E+03 0.  0.
        -13    1    3    3    0    0 -0.35586460600E+02 -0.26504083795E+02 -0.25854593037E+02  0.51354978152E+02  0.10566000000E+00 0. -1.
         23    2    1    0    0    0  0.48456913139E+01 -0.96271622582E+01 -0.27771786531E+02  0.95210150981E+02  0.90429739274E+02 0.  0.
         13    1    3    3    0    0  0.40432151914E+02  0.16876921537E+02 -0.19171934938E+01  0.43855172829E+02  0.10566000000E+00 0.  1.
         22    1    1    0    0    0 -0.48456913139E+01  0.96271622582E+01  0.27771786531E+02  0.29789849019E+02  0.00000000000E+00 0. -1.
</event>
<event>
 5    1  0.1766627E-003  0.9118800E+02  0.7818608E-02  0.1130116E+00
         25   -1    0    0    0    0  0.00000000000E+00  0.00000000000E+00  0.99999998245E-14  0.12500000000E+03  0.12500000000E+03 0.  0.
        -13    1    3    3    0    0  0.36800230381E+02  0.24794490649E+02  0.14407363776E+02  0.46654121122E+02  0.10566000000E+00 0. -1.
         23    2    1    0    0    0  0.10356125071E+02 -0.20402556348E+02  0.12211121690E+02  0.99064982651E+02  0.95609861744E+02 0.  0.
         13    1    3    3    0    0 -0.26444105310E+02 -0.45197046997E+02 -0.21962420865E+01  0.52410861529E+02  0.10566000000E+00 0.  1.
         22    1    1    0    0    0 -0.10356125071E+02  0.20402556348E+02 -0.12211121690E+02  0.25935017349E+02  0.00000000000E+00 0.  1.
</event>
<event>
 5    1  0.1766627E-003  0.9118800E+02  0.7818608E-02  0.1130116E+00
         25   -1    0    0    0    0  0.00000000000E+00  0.00000000000E+00  0.99999998245E-14  0.12500000000E+03  0.12500000000E+03 0.  0.
        -13    1    3    3    0    0  0.42357857994E+02  0.13384098011E+02  0.16483366191E+02  0.47381797543E+02  0.10566000000E+00 0.  1.
         23    2    1    0    0    0  0.86700100114E+01  0.22781842657E+02 -0.16587385271E+02  0.95515719806E+02  0.90851141718E+02 0.  0.
         13    1    3    3    0    0 -0.33687847983E+02  0.93977446457E+01 -0.33070751462E+02  0.48133922263E+02  0.10566000000E+00 0. -1.
         22    1    1    0    0    0 -0.86700100114E+01 -0.22781842657E+02  0.16587385271E+02  0.29484280194E+02  0.00000000000E+00 0.  1.
</event>
<event>
 5    1  0.1766627E-003  0.9118800E+02  0.7818608E-02  0.1130116E+00
         25   -1    0    0    0    0  0.00000000000E+00  0.00000000000E+00  0.99999998245E-14  0.12500000000E+03  0.12500000000E+03 0.  0.
        -13    1    3    3    0    0 -0.10199325947E+02  0.22915953815E+01 -0.36524492614E+02  0.37991148757E+02  0.10566000000E+00 0.  1.
         23    2    1    0    0    0  0.78651721692E+00  0.23524565630E+02  0.16566695078E+02  0.96216685681E+02  0.91810519116E+02 0.  0.
         13    1    3    3    0    0  0.10985843164E+02  0.21232970248E+02  0.53091187691E+02  0.58225536924E+02  0.10566000000E+00 0. -1.
         22    1    1    0    0    0 -0.78651721692E+00 -0.23524565630E+02 -0.16566695078E+02  0.28783314319E+02  0.00000000000E+00 0. -1.
</event>
<event>
 5    1  0.1766627E-003  0.9118800E+02  0.7818608E-02  0.1130116E+00
         25   -1    0    0    0    0  0.00000000000E+00  0.00000000000E+00  0.99999998245E-14  0.12500000000E+03  0.12500000000E+03 0.  0.
        -13    1    3    3    0    0 -0.15670732112E+02  0.13511311188E+02 -0.57885617871E+02  0.61472622323E+02  0.10566000000E+00 0.  1.
         23    2    1    0    0    0 -0.41815380652E+01 -0.51003552975E+00 -0.29822544046E+02  0.94881408894E+02  0.89974175314E+02 0.  0.
         13    1    3    3    0    0  0.11489194047E+02 -0.14021346718E+02  0.28063073825E+02  0.33408786571E+02  0.10566000000E+00 0. -1.
         22    1    1    0    0    0  0.41815380652E+01  0.51003552975E+00  0.29822544046E+02  0.30118591106E+02  0.00000000000E+00 0.  1.
</event>
<event>
 5    1  0.1766627E-003  0.9118800E+02  0.7818608E-02  0.1130116E+00
         25   -1    0    0    0    0  0.00000000000E+00  0.00000000000E+00  0.99999998245E-14  0.12500000000E+03  0.12500000000E+03 0.  0.
        -13    1    3    3    0    0 -0.15940554210E+02  0.22574533638E+02 -0.73373124376E+01  0.28592973881E+02  0.10566000000E+00 0.  1.
         23    2    1    0    0    0  0.29624958163E+02 -0.18378330135E+02 -0.27273056994E+01  0.90030879893E+02  0.82962159887E+02 0.  0.
         13    1    3    3    0    0  0.45565512373E+02 -0.40952863772E+02  0.46100067383E+01  0.61437906012E+02  0.10566000000E+00 0. -1.
         22    1    1    0    0    0 -0.29624958163E+02  0.18378330135E+02  0.27273056994E+01  0.34969120107E+02  0.00000000000E+00 0. -1.
</event>
<event>
 5    1  0.1766627E-003  0.9118800E+02  0.7818608E-02  0.1130116E+00
         25   -1    0    0    0    0  0.00000000000E+00  0.00000000000E+00  0.99999998245E-14  0.12500000000E+03  0.12500000000E+03 0.  0.
        -13    1    3    3    0    0  0.24171843012E+02 -0.47831795739E+02  0.68384646934E+00  0.53596991410E+02  0.10566000000E+00 0. -1.
         23    2    1    0    0    0  0.26316389537E+00 -0.23714667063E+02 -0.20524968134E+02  0.93635545500E+02  0.88226336063E+02 0.  0.
         13    1    3    3    0    0 -0.23908679116E+02  0.24117128676E+02 -0.21208814604E+02  0.40038554090E+02  0.10566000000E+00 0.  1.
         22    1    1    0    0    0 -0.26316389537E+00  0.23714667063E+02  0.20524968134E+02  0.31364454500E+02  0.00000000000E+00 0.  1.
</event>
<event>
 5    1  0.1766627E-003  0.9118800E+02  0.7818608E-02  0.1130116E+00
         25   -1    0    0    0    0  0.00000000000E+00  0.00000000000E+00  0.99999998245E-14  0.12500000000E+03  0.12500000000E+03 0.  0.
        -13    1    3    3    0    0 -0.13629583846E+02 -0.40128856422E+02  0.32185188492E+02  0.53216427876E+02  0.10566000000E+00 0. -1.
         23    2    1    0    0    0  0.16264100413E+02 -0.11885171168E+02  0.21138987505E+02  0.95800084783E+02  0.91241554106E+02 0.  0.
         13    1    3    3    0    0  0.29893684259E+02  0.28243685254E+02 -0.11046200987E+02  0.42583656907E+02  0.10566000000E+00 0.  1.
         22    1    1    0    0    0 -0.16264100413E+02  0.11885171168E+02 -0.21138987505E+02  0.29199915217E+02  0.00000000000E+00 0. -1.
</event>
<event>
 5    1  0.1766627E-003  0.9118800E+02  0.7818608E-02  0.1130116E+00
         25   -1    0    0    0    0  0.00000000000E+00  0.00000000000E+00  0.99999998245E-14  0.12500000000E+03  0.12500000000E+03 0.  0.
        -13    1    3    3    0    0 -0.21748747157E+02 -0.87894961116E+01 -0.46018643243E+02  0.51652588849E+02  0.10566000000E+00 0. -1.
         23    2    1    0    0    0  0.76137735823E+01  0.15859439899E+02 -0.21751163870E+02  0.97024930532E+02  0.92904427413E+02 0.  0.
         13    1    3    3    0    0  0.29362520739E+02  0.24648936010E+02  0.24267479374E+02  0.45372341683E+02  0.10566000000E+00 0.  1.
         22    1    1    0    0    0 -0.76137735823E+01 -0.15859439899E+02  0.21751163870E+02  0.27975069468E+02  0.00000000000E+00 0.  1.
</event>
<event>
 5    1  0.1766627E-003  0.9118800E+02  0.7818608E-02  0.1130116E+00
         25   -1    0    0    0    0  0.00000000000E+00  0.00000000000E+00  0.99999998245E-14  0.12500000000E+03  0.12500000000E+03 0.  0.
        -13    1    3    3    0    0  0.41395708406E+02  0.35024215284E+02 -0.11408600288E+02  0.55411800686E+02  0.10566000000E+00 0. -1.
         23    2    1    0    0    0  0.10493638256E+02  0.23906984716E+02  0.12518924758E+02  0.96045141355E+02  0.91576663723E+02 0.  0.
         13    1    3    3    0    0 -0.30902070150E+02 -0.11117230567E+02  0.23927525046E+02  0.40633340669E+02  0.10566000000E+00 0.  1.
         22    1    1    0    0    0 -0.10493638256E+02 -0.23906984716E+02 -0.12518924758E+02  0.28954858645E+02  0.00000000000E+00 0. -1.
</event>
<event>
 5    1  0.1766627E-003  0.9118800E+02  0.7818608E-02  0.1130116E+00
         25   -1    0    0    0    0  0.00000000000E+00  0.00000000000E+00  0.99999998245E-14  0.12500000000E+03  0.12500000000E+03 0.  0.
        -13    1    3    3    0    0 -0.34997961653E+01  0.39574813886E+01 -0.34241691830E+02  0.34647003558E+02  0.10566000000E+00 0.  1.
         23    2    1    0    0    0  0.85953388799E+01 -0.14665204677E+02  0.23204355815E+02  0.96235608690E+02  0.91836279173E+02 0.  0.
         13    1    3    3    0    0  0.12095135045E+02 -0.18622686065E+02  0.57446047645E+02  0.61588605132E+02  0.10566000000E+00 0. -1.
         22    1    1    0    0    0 -0.85953388799E+01  0.14665204677E+02 -0.23204355815E+02  0.28764391310E+02  0.00000000000E+00 0. -1.
</event>
<event>
 5    1  0.1766627E-003  0.9118800E+02  0.7818608E-02  0.1130116E+00
         25   -1    0    0    0    0  0.00000000000E+00  0.00000000000E+00  0.99999998245E-14  0.12500000000E+03  0.12500000000E+03 0.  0.
        -13    1    3    3    0    0 -0.15478172014E+02 -0.73206192732E+01 -0.53027283482E+02  0.55723148089E+02  0.10566000000E+00 0.  1.
         23    2    1    0    0    0 -0.19776992329E+02  0.12093583671E+02 -0.19482211288E+02  0.94718970489E+02  0.89748217934E+02 0.  0.
         13    1    3    3    0    0 -0.42988203150E+01  0.19414202944E+02  0.33545072195E+02  0.38995822400E+02  0.10566000000E+00 0. -1.
         22    1    1    0    0    0  0.19776992329E+02 -0.12093583671E+02  0.19482211288E+02  0.30281029511E+02  0.00000000000E+00 0.  1.
</event>
<event>
 5    1  0.1766627E-003  0.9118800E+02  0.7818608E-02  0.1130116E+00
         25   -1    0    0    0    0  0.00000000000E+00  0.00000000000E+00  0.99999998245E-14  0.12500000000E+03  0.12500000000E+03 0.  0.
        -13    1    3    3    0    0 -0.30907101519E+02 -0.21583954614E+02  0.21187975967E+02  0.43244161579E+02  0.10566000000E+00 0. -1.
         23    2    1    0    0    0  0.16833764504E+02 -0.23153375645E+02 -0.19255194796E+01  0.96309199098E+02  0.91936389827E+02 0.  0.
         13    1    3    3    0    0  0.47740866023E+02 -0.15694210309E+01 -0.23113495446E+02  0.53065037518E+02  0.10566000000E+00 0.  1.
         22    1    1    0    0    0 -0.16833764504E+02  0.23153375645E+02  0.19255194796E+01  0.28690800902E+02  0.00000000000E+00 0.  1.
</event>
<event>
 5    1  0.1766627E-003  0.9118800E+02  0.7818608E-02  0.1130116E+00
         25   -1    0    0    0    0  0.00000000000E+00  0.00000000000E+00  0.99999998245E-14  0.12500000000E+03  0.12500000000E+03 0.  0.
        -13    1    3    3    0    0  0.24541320085E+02 -0.37173407848E+02  0.31715316488E+02  0.54680994016E+02  0.10566000000E+00 0.  1.
         23    2    1    0    0    0 -0.54252929160E+01 -0.97997109255E+01  0.27279976641E+02  0.95509912463E+02  0.90843151176E+02 0.  0.
         13    1    3    3    0    0 -0.29966613001E+02  0.27373696923E+02 -0.44353398474E+01  0.40828918447E+02  0.10566000000E+00 0. -1.
         22    1    1    0    0    0  0.54252929160E+01  0.97997109255E+01 -0.27279976641E+02  0.29490087537E+02  0.00000000000E+00 0.  1.
</event>
<event>
 5    1  0.1766627E-003  0.9118800E+02  0.7818608E-02  0.1130116E+00
         25   -1    0    0    0    0  0.00000000000E+00  0.00000000000E+00  0.99999998245E-14  0.12500000000E+03  0.12500000000E+03 0.  0.
        -13    1    3    3    0    0  0.84001779016E+01  0.28200080297E+02  0.16672803264E+02  0.33820127886E+02  0.10566000000E+00 0.  1.
         23    2    1    0    0    0 -0.39636009930E+01 -0.26171116533E+02 -0.11319813442E+02  0.96211536168E+02  0.91803507787E+02 0.  0.
         13    1    3    3    0    0 -0.12363778895E+02 -0.54371196830E+02 -0.27992616706E+02  0.62391408282E+02  0.10566000000E+00 0. -1.
         22    1    1    0    0    0  0.39636009930E+01  0.26171116533E+02  0.11319813442E+02  0.28788463832E+02  0.00000000000E+00 0. -1.
</event>
<event>
 5    1  0.1766627E-003  0.9118800E+02  0.7818608E-02  0.1130116E+00
         25   -1    0    0    0    0  0.00000000000E+00  0.00000000000E+00  0.99999998245E-14  0.12500000000E+03  0.12500000000E+03 0.  0.
        -13    1    3    3    0    0  0.18303618613E+02 -0.39527555180E+02 -0.11057824277E+02  0.44941481002E+02  0.10566000000E+00 0.  1.
         23    2    1    0    0    0  0.27160737749E+02  0.94809132963E+01  0.11165050736E+01  0.96210418975E+02  0.91801986601E+02 0.  0.
         13    1    3    3    0    0  0.88571191359E+01  0.49008468476E+02  0.12174329351E+02  0.51268937974E+02  0.10566000000E+00 0. -1.
         22    1    1    0    0    0 -0.27160737749E+02 -0.94809132963E+01 -0.11165050736E+01  0.28789581025E+02  0.00000000000E+00 0.  1.
</event>
<event>
 5    1  0.1766627E-003  0.9118800E+02  0.7818608E-02  0.1130116E+00
         25   -1    0    0    0    0  0.00000000000E+00  0.00000000000E+00  0.99999998245E-14  0.12500000000E+03  0.12500000000E+03 0.  0.
        -13    1    3    3    0    0  0.15650195004E+02  0.52807624463E+02  0.22322327981E+02  0.59429549011E+02  0.10566000000E+00 0.  1.
         23    2    1    0    0    0 -0.20428099412E+01  0.30097550326E+02  0.18093564561E+01  0.94778991101E+02  0.89831774864E+02 0.  0.
         13    1    3    3    0    0 -0.17693004946E+02 -0.22710074137E+02 -0.20512971525E+02  0.35349442090E+02  0.10566000000E+00 0. -1.
         22    1    1    0    0    0  0.20428099412E+01 -0.30097550326E+02 -0.18093564561E+01  0.30221008899E+02  0.00000000000E+00 0.  1.
</event>
<event>
 5    1  0.1766627E-003  0.9118800E+02  0.7818608E-02  0.1130116E+00
         25   -1    0    0    0    0  0.00000000000E+00  0.00000000000E+00  0.99999998245E-14  0.12500000000E+03  0.12500000000E+03 0.  0.
        -13    1    3    3    0    0 -0.64489630165E+01  0.38510504949E+02 -0.29222557601E+01  0.39156083284E+02  0.10566000000E+00 0. -1.
         23    2    1    0    0    0 -0.56025406878E+01 -0.66490165581E+01  0.29168623981E+02  0.94563073277E+02  0.89530823292E+02 0.  0.
         13    1    3    3    0    0  0.84642232875E+00 -0.45159521507E+02  0.32090879742E+02  0.55406989993E+02  0.10566000000E+00 0.  1.
         22    1    1    0    0    0  0.56025406878E+01  0.66490165581E+01 -0.29168623981E+02  0.30436926723E+02  0.00000000000E+00 0.  1.
</event>
<event>
 5    1  0.1766627E-003  0.9118800E+02  0.7818608E-02  0.1130116E+00
         25   -1    0    0    0    0  0.00000000000E+00  0.00000000000E+00  0.99999998245E-14  0.12500000000E+03  0.12500000000E+03 0.  0.
        -13    1    3    3    0    0 -0.43409421666E+02 -0.20335461539E+02 -0.31156146178E+02  0.57171894267E+02  0.10566000000E+00 0.  1.
         23    2    1    0    0    0 -0.16596996777E+02 -0.22623175172E+02 -0.19668586859E+01  0.96872844261E+02  0.92699574246E+02 0.  0.
         13    1    3    3    0    0  0.26812424889E+02 -0.22877136323E+01  0.29189287492E+02  0.39700949994E+02  0.10566000000E+00 0. -1.
         22    1    1    0    0    0  0.16596996777E+02  0.22623175172E+02  0.19668586859E+01  0.28127155739E+02  0.00000000000E+00 0.  1.
</event>
<event>
 5    1  0.1766627E-003  0.9118800E+02  0.7818608E-02  0.1130116E+00
         25   -1    0    0    0    0  0.00000000000E+00  0.00000000000E+00  0.99999998245E-14  0.12500000000E+03  0.12500000000E+03 0.  0.
        -13    1    3    3    0    0 -0.11719314555E+02  0.41192125738E+01  0.46029391681E+02  0.47676265672E+02  0.10566000000E+00 0. -1.
         23    2    1    0    0    0 -0.40433222877E+01 -0.28405858805E+02  0.22243162373E+02  0.88695736588E+02  0.80925485151E+02 0.  0.
         13    1    3    3    0    0  0.76759922671E+01 -0.32525071378E+02 -0.23786229308E+02  0.41019470915E+02  0.10566000000E+00 0.  1.
         22    1    1    0    0    0  0.40433222877E+01  0.28405858805E+02 -0.22243162373E+02  0.36304263412E+02  0.00000000000E+00 0. -1.
</event>
<event>
 5    1  0.1766627E-003  0.9118800E+02  0.7818608E-02  0.1130116E+00
         25   -1    0    0    0    0  0.00000000000E+00  0.00000000000E+00  0.99999998245E-14  0.12500000000E+03  0.12500000000E+03 0.  0.
        -13    1    3    3    0    0  0.15036701467E+02 -0.23643119084E+02  0.12388989192E+02  0.30636541715E+02  0.10566000000E+00 0. -1.
         23    2    1    0    0    0 -0.21619235535E+02  0.22321428321E+02 -0.80848917138E+01  0.92890764858E+02  0.87164736072E+02 0.  0.
         13    1    3    3    0    0 -0.36655937002E+02  0.45964547405E+02 -0.20473880906E+02  0.62254223142E+02  0.10566000000E+00 0.  1.
         22    1    1    0    0    0  0.21619235535E+02 -0.22321428321E+02  0.80848917138E+01  0.32109235142E+02  0.00000000000E+00 0.  1.
</event>
<event>
 5    1  0.1766627E-003  0.9118800E+02  0.7818608E-02  0.1130116E+00
         25   -1    0    0    0    0  0.00000000000E+00  0.00000000000E+00  0.99999998245E-14  0.12500000000E+03  0.12500000000E+03 0.  0.
        -13    1    3    3    0    0 -0.20214231026E+02  0.44034829864E+02  0.47579342084E+00  0.48455329124E+02  0.10566000000E+00 0.  1.
         23    2    1    0    0    0 -0.14396028059E+02  0.39131635096E+01  0.25036231175E+02  0.95856023882E+02  0.91318157945E+02 0.  0.
         13    1    3    3    0    0  0.58182029668E+01 -0.40121666354E+02  0.24560437754E+02  0.47400694758E+02  0.10566000000E+00 0. -1.
         22    1    1    0    0    0  0.14396028059E+02 -0.39131635096E+01 -0.25036231175E+02  0.29143976118E+02  0.00000000000E+00 0. -1.
</event>
<event>
 5    1  0.1766627E-003  0.9118800E+02  0.7818608E-02  0.1130116E+00
         25   -1    0    0    0    0  0.00000000000E+00  0.00000000000E+00  0.99999998245E-14  0.12500000000E+03  0.12500000000E+03 0.  0.
        -13    1    3    3    0    0 -0.10837097941E+02 -0.51909355494E+02  0.74400643966E+01  0.53548012119E+02  0.10566000000E+00 0.  1.
         23    2    1    0    0    0  0.14844272213E+02 -0.23299146310E+02 -0.98063808437E+01  0.95685025302E+02  0.91083787391E+02 0.  0.
         13    1    3    3    0    0  0.25681370154E+02  0.28610209184E+02 -0.17246445240E+02  0.42137013183E+02  0.10566000000E+00 0. -1.
         22    1    1    0    0    0 -0.14844272213E+02  0.23299146310E+02  0.98063808437E+01  0.29314974698E+02  0.00000000000E+00 0.  1.
</event>
<event>
 5    1  0.1766627E-003  0.9118800E+02  0.7818608E-02  0.1130116E+00
         25   -1    0    0    0    0  0.00000000000E+00  0.00000000000E+00  0.99999998245E-14  0.12500000000E+03  0.12500000000E+03 0.  0.
        -13    1    3    3    0    0  0.39776622413E+02 -0.30948582678E+01  0.47071549739E+02  0.61704941432E+02  0.10566000000E+00 0. -1.
         23    2    1    0    0    0  0.13162011940E+02 -0.71355377422E+01  0.21239209531E+02  0.99014263938E+02  0.95543529266E+02 0.  0.
         13    1    3    3    0    0 -0.26614610473E+02 -0.40406794744E+01 -0.25832340208E+02  0.37309322506E+02  0.10566000000E+00 0.  1.
         22    1    1    0    0    0 -0.13162011940E+02  0.71355377422E+01 -0.21239209531E+02  0.25985736062E+02  0.00000000000E+00 0. -1.
</event>
<event>
 5    1  0.1766627E-003  0.9118800E+02  0.7818608E-02  0.1130116E+00
         25   -1    0    0    0    0  0.00000000000E+00  0.00000000000E+00  0.99999998245E-14  0.12500000000E+03  0.12500000000E+03 0.  0.
        -13    1    3    3    0    0  0.29324928340E+02  0.15837362119E+02 -0.12654400735E+02  0.35649943661E+02  0.10566000000E+00 0.  1.
         23    2    1    0    0    0 -0.26639616036E+02 -0.38002011619E+01 -0.13343691612E+02  0.94963942048E+02  0.90088764628E+02 0.  0.
         13    1    3    3    0    0 -0.55964544376E+02 -0.19637563281E+02 -0.68929087765E+00  0.59313998388E+02  0.10566000000E+00 0. -1.
         22    1    1    0    0    0  0.26639616036E+02  0.38002011619E+01  0.13343691612E+02  0.30036057952E+02  0.00000000000E+00 0. -1.
</event>
<event>
 5    1  0.1766627E-003  0.9118800E+02  0.7818608E-02  0.1130116E+00
         25   -1    0    0    0    0  0.00000000000E+00  0.00000000000E+00  0.99999998245E-14  0.12500000000E+03  0.12500000000E+03 0.  0.
        -13    1    3    3    0    0 -0.18845358217E+02  0.55736230672E+02 -0.48458049818E+00  0.58838090708E+02  0.10566000000E+00 0.  1.
         23    2    1    0    0    0 -0.83592518078E+01  0.26560964352E+02 -0.15332039221E+02  0.93212685789E+02  0.87625175876E+02 0.  0.
         13    1    3    3    0    0  0.10486106409E+02 -0.29175266320E+02 -0.14847458722E+02  0.34374595081E+02  0.10566000000E+00 0. -1.
         22    1    1    0    0    0  0.83592518078E+01 -0.26560964352E+02  0.15332039221E+02  0.31787314211E+02  0.00000000000E+00 0.  1.
</event>
<event>
 5    1  0.1766627E-003  0.9118800E+02  0.7818608E-02  0.1130116E+00
         25   -1    0    0    0    0  0.00000000000E+00  0.00000000000E+00  0.99999998245E-14  0.12500000000E+03  0.12500000000E+03 0.  0.
        -13    1    3    3    0    0  0.31432903008E+02  0.10255614428E+02 -0.49244150010E+02  0.59314437476E+02  0.10566000000E+00 0.  1.
         23    2    1    0    0    0  0.64247385471E+01 -0.67037807763E+01 -0.25862948034E+02  0.97520734670E+02  0.93569138435E+02 0.  0.
         13    1    3    3    0    0 -0.25008164461E+02 -0.16959395205E+02  0.23381201976E+02  0.38206297194E+02  0.10566000000E+00 0. -1.
         22    1    1    0    0    0 -0.64247385471E+01  0.67037807763E+01  0.25862948034E+02  0.27479265330E+02  0.00000000000E+00 0.  1.
</event>
<event>
 5    1  0.1766627E-003  0.9118800E+02  0.7818608E-02  0.1130116E+00
         25   -1    0    0    0    0  0.00000000000E+00  0.00000000000E+00  0.99999998245E-14  0.12500000000E+03  0.12500000000E+03 0.  0.
        -13    1    3    3    0    0  0.16966500852E+02 -0.20149035612E+02  0.37147178208E+02  0.45538662696E+02  0.10566000000E+00 0.  1.
         23    2    1    0    0    0 -0.23917943691E+02 -0.28779026744E+01  0.48572173453E+01  0.10042474996E+03  0.97371389483E+02 0.  0.
         13    1    3    3    0    0 -0.40884444543E+02  0.17271132938E+02 -0.32289960863E+02  0.54886087264E+02  0.10566000000E+00 0. -1.
         22    1    1    0    0    0  0.23917943691E+02  0.28779026744E+01 -0.48572173453E+01  0.24575250041E+02  0.00000000000E+00 0. -1.
</event>
<event>
 5    1  0.1766627E-003  0.9118800E+02  0.7818608E-02  0.1130116E+00
         25   -1    0    0    0    0  0.00000000000E+00  0.00000000000E+00  0.99999998245E-14  0.12500000000E+03  0.12500000000E+03 0.  0.
        -13    1    3    3    0    0  0.32030909566E+02 -0.48682295502E+02  0.63306066425E+00  0.58278272047E+02  0.10566000000E+00 0. -1.
         23    2    1    0    0    0  0.20287438758E+02 -0.17665820724E+02 -0.14167613146E+02  0.94596338124E+02  0.89577254541E+02 0.  0.
         13    1    3    3    0    0 -0.11743470808E+02  0.31016474778E+02 -0.14800673811E+02  0.36318066077E+02  0.10566000000E+00 0.  1.
         22    1    1    0    0    0 -0.20287438758E+02  0.17665820724E+02  0.14167613146E+02  0.30403661876E+02  0.00000000000E+00 0. -1.
</event>
<event>
 5    1  0.1766627E-003  0.9118800E+02  0.7818608E-02  0.1130116E+00
         25   -1    0    0    0    0  0.00000000000E+00  0.00000000000E+00  0.99999998245E-14  0.12500000000E+03  0.12500000000E+03 0.  0.
        -13    1    3    3    0    0 -0.14104393822E+02  0.41607910315E+02  0.43549115404E+02  0.61860235551E+02  0.10566000000E+00 0.  1.
         23    2    1    0    0    0 -0.26445942970E+01  0.17143871719E+02  0.24764510138E+02  0.94764471579E+02  0.89811568825E+02 0.  0.
         13    1    3    3    0    0  0.11459799525E+02 -0.24464038596E+02 -0.18784605266E+02  0.32904236028E+02  0.10566000000E+00 0. -1.
         22    1    1    0    0    0  0.26445942970E+01 -0.17143871719E+02 -0.24764510138E+02  0.30235528421E+02  0.00000000000E+00 0.  1.
</event>
<event>
 5    1  0.1766627E-003  0.9118800E+02  0.7818608E-02  0.1130116E+00
         25   -1    0    0    0    0  0.00000000000E+00  0.00000000000E+00  0.99999998245E-14  0.12500000000E+03  0.12500000000E+03 0.  0.
        -13    1    3    3    0    0 -0.46697652905E+02 -0.30466387639E+02 -0.23443490299E+02  0.60485369835E+02  0.10566000000E+00 0. -1.
         23    2    1    0    0    0 -0.27587808623E+02 -0.24201669807E+02 -0.46552450107E+01  0.88007036991E+02  0.79854613191E+02 0.  0.
         13    1    3    3    0    0  0.19109844282E+02  0.62647178318E+01  0.18788245289E+02  0.27521667156E+02  0.10566000000E+00 0.  1.
         22    1    1    0    0    0  0.27587808623E+02  0.24201669807E+02  0.46552450107E+01  0.36992963009E+02  0.00000000000E+00 0. -1.
</event>
<event>
 5    1  0.1766627E-003  0.9118800E+02  0.7818608E-02  0.1130116E+00
         25   -1    0    0    0    0  0.00000000000E+00  0.00000000000E+00  0.99999998245E-14  0.12500000000E+03  0.12500000000E+03 0.  0.
        -13    1    3    3    0    0 -0.47190092436E+02  0.10564959326E+01 -0.39520568467E+01  0.47367192498E+02  0.10566000000E+00 0.  1.
         23    2    1    0    0    0 -0.42030369808E+01 -0.12149173086E+02 -0.24900366394E+02  0.96976863611E+02  0.92839732349E+02 0.  0.
         13    1    3    3    0    0  0.42987055456E+02 -0.13205669018E+02 -0.20948309547E+02  0.49609671113E+02  0.10566000000E+00 0. -1.
         22    1    1    0    0    0  0.42030369808E+01  0.12149173086E+02  0.24900366394E+02  0.28023136389E+02  0.00000000000E+00 0.  1.
</event>
<event>
 5    1  0.1766627E-003  0.9118800E+02  0.7818608E-02  0.1130116E+00
         25   -1    0    0    0    0  0.00000000000E+00  0.00000000000E+00  0.99999998245E-14  0.12500000000E+03  0.12500000000E+03 0.  0.
        -13    1    3    3    0    0  0.26461561496E+02 -0.39525490802E+02  0.23023677923E+01  0.47621326330E+02  0.10566000000E+00 0.  1.
         23    2    1    0    0    0  0.10136245090E+02 -0.10681909596E+02 -0.28533401258E+02  0.92890785676E+02  0.87164765927E+02 0.  0.
         13    1    3    3    0    0 -0.16325316406E+02  0.28843581206E+02 -0.30835769050E+02  0.45269459346E+02  0.10566000000E+00 0. -1.
         22    1    1    0    0    0 -0.10136245090E+02  0.10681909596E+02  0.28533401258E+02  0.32109214324E+02  0.00000000000E+00 0. -1.
</event>
<event>
 5    1  0.1766627E-003  0.9118800E+02  0.7818608E-02  0.1130116E+00
         25   -1    0    0    0    0  0.00000000000E+00  0.00000000000E+00  0.99999998245E-14  0.12500000000E+03  0.12500000000E+03 0.  0.
        -13    1    3    3    0    0 -0.53145188928E+01 -0.32017729839E+02 -0.95316964678E+01  0.33826669015E+02  0.10566000000E+00 0.  1.
         23    2    1    0    0    0  0.81530286721E+00  0.23734057930E+02  0.16921741019E+02  0.95839829498E+02  0.91295987724E+02 0.  0.
         13    1    3    3    0    0  0.61298217600E+01  0.55751787768E+02  0.26453437487E+02  0.62013160483E+02  0.10566000000E+00 0. -1.
         22    1    1    0    0    0 -0.81530286721E+00 -0.23734057930E+02 -0.16921741019E+02  0.29160170502E+02  0.00000000000E+00 0. -1.
</event>
<event>
 5    1  0.1766627E-003  0.9118800E+02  0.7818608E-02  0.1130116E+00
         25   -1    0    0    0    0  0.00000000000E+00  0.00000000000E+00  0.99999998245E-14  0.12500000000E+03  0.12500000000E+03 0.  0.
        -13    1    3    3    0    0  0.85008661736E+01  0.38213252131E+02 -0.39328693294E+02  0.55491212317E+02  0.10566000000E+00 0.  1.
         23    2    1    0    0    0 -0.70783772866E+01  0.37037781224E+02 -0.14971933952E+02  0.84428341551E+02  0.74041106068E+02 0.  0.
         13    1    3    3    0    0 -0.15579243460E+02 -0.11754709065E+01  0.24356759342E+02  0.28937129234E+02  0.10566000000E+00 0. -1.
         22    1    1    0    0    0  0.70783772866E+01 -0.37037781224E+02  0.14971933952E+02  0.40571658449E+02  0.00000000000E+00 0.  1.
</event>
<event>
 5    1  0.1766627E-003  0.9118800E+02  0.7818608E-02  0.1130116E+00
         25   -1    0    0    0    0  0.00000000000E+00  0.00000000000E+00  0.99999998245E-14  0.12500000000E+03  0.12500000000E+03 0.  0.
        -13    1    3    3    0    0  0.24535161848E+02  0.39997938972E+02  0.20504446161E+02  0.51207936546E+02  0.10566000000E+00 0.  1.
         23    2    1    0    0    0  0.11284492774E+02  0.20204141077E+02 -0.17449012587E+02  0.96016985420E+02  0.91538223465E+02 0.  0.
         13    1    3    3    0    0 -0.13250669074E+02 -0.19793797895E+02 -0.37953458748E+02  0.44809048874E+02  0.10566000000E+00 0. -1.
         22    1    1    0    0    0 -0.11284492774E+02 -0.20204141077E+02  0.17449012587E+02  0.28983014580E+02  0.00000000000E+00 0.  1.
</event>
<event>
 5    1  0.1766627E-003  0.9118800E+02  0.7818608E-02  0.1130116E+00
         25   -1    0    0    0    0  0.00000000000E+00  0.00000000000E+00  0.99999998245E-14  0.12500000000E+03  0.12500000000E+03 0.  0.
        -13    1    3    3    0    0 -0.23370918046E+02 -0.32781301459E+02 -0.36038304374E+02  0.54033175752E+02  0.10566000000E+00 0.  1.
         23    2    1    0    0    0  0.26254070674E+00 -0.34943098826E+02 -0.11397606719E+02  0.88244122618E+02  0.80224875535E+02 0.  0.
         13    1    3    3    0    0  0.23633458753E+02 -0.21617973666E+01  0.24640697655E+02  0.34210946866E+02  0.10566000000E+00 0. -1.
         22    1    1    0    0    0 -0.26254070674E+00  0.34943098826E+02  0.11397606719E+02  0.36755877382E+02  0.00000000000E+00 0.  1.
</event>
<event>
 5    1  0.1766627E-003  0.9118800E+02  0.7818608E-02  0.1130116E+00
         25   -1    0    0    0    0  0.00000000000E+00  0.00000000000E+00  0.99999998245E-14  0.12500000000E+03  0.12500000000E+03 0.  0.
        -13    1    3    3    0    0 -0.75921507616E+01  0.21542470459E+02  0.28000098828E+02  0.36134962088E+02  0.10566000000E+00 0. -1.
         23    2    1    0    0    0  0.16897069280E+02 -0.22139542687E+02 -0.57986402514E+01  0.96551897613E+02  0.92265781323E+02 0.  0.
         13    1    3    3    0    0  0.24489220042E+02 -0.43682013146E+02 -0.33798739080E+02  0.60416935525E+02  0.10566000000E+00 0.  1.
         22    1    1    0    0    0 -0.16897069280E+02  0.22139542687E+02  0.57986402514E+01  0.28448102387E+02  0.00000000000E+00 0.  1.
</event>
<event>
 5    1  0.1766627E-003  0.9118800E+02  0.7818608E-02  0.1130116E+00
         25   -1    0    0    0    0  0.00000000000E+00  0.00000000000E+00  0.99999998245E-14  0.12500000000E+03  0.12500000000E+03 0.  0.
        -13    1    3    3    0    0  0.34841680190E+02 -0.14663862969E+02  0.45243857992E+02  0.58957522045E+02  0.10566000000E+00 0.  1.
         23    2    1    0    0    0  0.69415209550E+01 -0.18448823383E+02  0.21933736440E+02  0.95510466406E+02  0.90843913398E+02 0.  0.
         13    1    3    3    0    0 -0.27900159235E+02 -0.37849604134E+01 -0.23310121551E+02  0.36552944361E+02  0.10566000000E+00 0. -1.
         22    1    1    0    0    0 -0.69415209550E+01  0.18448823383E+02 -0.21933736440E+02  0.29489533594E+02  0.00000000000E+00 0.  1.
</event>
<event>
 5    1  0.1766627E-003  0.9118800E+02  0.7818608E-02  0.1130116E+00
         25   -1    0    0    0    0  0.00000000000E+00  0.00000000000E+00  0.99999998245E-14  0.12500000000E+03  0.12500000000E+03 0.  0.
        -13    1    3    3    0    0 -0.16350120723E+02 -0.27075893829E+02 -0.17435718287E+02  0.36117113818E+02  0.10566000000E+00 0.  1.
         23    2    1    0    0    0  0.28815709037E+02  0.18765643138E+01  0.73315258841E+01  0.95207083850E+02  0.90425499514E+02 0.  0.
         13    1    3    3    0    0  0.45165829761E+02  0.28952458143E+02  0.24767244171E+02  0.59089970032E+02  0.10566000000E+00 0. -1.
         22    1    1    0    0    0 -0.28815709037E+02 -0.18765643138E+01 -0.73315258841E+01  0.29792916150E+02  0.00000000000E+00 0. -1.
</event>
<event>
 5    1  0.1766627E-003  0.9118800E+02  0.7818608E-02  0.1130116E+00
         25   -1    0    0    0    0  0.00000000000E+00  0.00000000000E+00  0.99999998245E-14  0.12500000000E+03  0.12500000000E+03 0.  0.
        -13    1    3    3    0    0 -0.15723602105E+01  0.19280851765E+02 -0.37445988467E+02  0.42147796831E+02  0.10566000000E+00 0. -1.
         23    2    1    0    0    0 -0.26939897230E+02  0.14049328769E+01  0.77134625233E+01  0.96942391348E+02  0.92793307071E+02 0.  0.
         13    1    3    3    0    0 -0.25367537019E+02 -0.17875918888E+02  0.45159450990E+02  0.54794594517E+02  0.10566000000E+00 0.  1.
         22    1    1    0    0    0  0.26939897230E+02 -0.14049328769E+01 -0.77134625233E+01  0.28057608652E+02  0.00000000000E+00 0.  1.
</event>
<event>
 5    1  0.1766627E-003  0.9118800E+02  0.7818608E-02  0.1130116E+00
         25   -1    0    0    0    0  0.00000000000E+00  0.00000000000E+00  0.99999998245E-14  0.12500000000E+03  0.12500000000E+03 0.  0.
        -13    1    3    3    0    0  0.55290976938E+01 -0.30214397814E+02  0.11566092879E+02  0.32821737082E+02  0.10566000000E+00 0.  1.
         23    2    1    0    0    0 -0.13068356500E+02  0.27052521685E+02 -0.31105158984E+01  0.94795758902E+02  0.89855104059E+02 0.  0.
         13    1    3    3    0    0 -0.18597454194E+02  0.57266919499E+02 -0.14676608777E+02  0.61974021821E+02  0.10566000000E+00 0. -1.
         22    1    1    0    0    0  0.13068356500E+02 -0.27052521685E+02  0.31105158984E+01  0.30204241098E+02  0.00000000000E+00 0. -1.
</event>
<event>
 5    1  0.1766627E-003  0.9118800E+02  0.7818608E-02  0.1130116E+00
         25   -1    0    0    0    0  0.00000000000E+00  0.00000000000E+00  0.99999998245E-14  0.12500000000E+03  0.12500000000E+03 0.  0.
        -13    1    3    3    0    0  0.35653671303E+01 -0.32033035504E+02  0.73142740825E+01  0.33050521565E+02  0.10566000000E+00 0. -1.
         23    2    1    0    0    0 -0.30501479826E+01  0.29551573771E+02  0.30237437970E+01  0.95137951484E+02  0.90329883598E+02 0.  0.
         13    1    3    3    0    0 -0.66155151129E+01  0.61584609274E+02 -0.42905302855E+01  0.62087429918E+02  0.10566000000E+00 0.  1.
         22    1    1    0    0    0  0.30501479826E+01 -0.29551573771E+02 -0.30237437970E+01  0.29862048516E+02  0.00000000000E+00 0.  1.
</event>
<event>
 5    1  0.1766627E-003  0.9118800E+02  0.7818608E-02  0.1130116E+00
         25   -1    0    0    0    0  0.00000000000E+00  0.00000000000E+00  0.99999998245E-14  0.12500000000E+03  0.12500000000E+03 0.  0.
        -13    1    3    3    0    0 -0.18709259624E+02 -0.31593442379E+02 -0.12839472255E+02  0.38897881804E+02  0.10566000000E+00 0.  1.
         23    2    1    0    0    0  0.27935081036E+02 -0.38552818017E+01  0.56686880539E+01  0.96236029924E+02  0.91836852521E+02 0.  0.
         13    1    3    3    0    0  0.46644340660E+02  0.27738160577E+02  0.18508160309E+02  0.57338148120E+02  0.10566000000E+00 0. -1.
         22    1    1    0    0    0 -0.27935081036E+02  0.38552818017E+01 -0.56686880539E+01  0.28763970076E+02  0.00000000000E+00 0. -1.
</event>
<event>
 5    1  0.1766627E-003  0.9118800E+02  0.7818608E-02  0.1130116E+00
         25   -1    0    0    0    0  0.00000000000E+00  0.00000000000E+00  0.99999998245E-14  0.12500000000E+03  0.12500000000E+03 0.  0.
        -13    1    3    3    0    0 -0.12309042167E+02  0.23191312777E+02 -0.30974967635E+02  0.40605532768E+02  0.10566000000E+00 0. -1.
         23    2    1    0    0    0  0.24507746678E+02  0.40722500875E+01  0.93453521051E+01  0.98456667994E+02  0.94811217683E+02 0.  0.
         13    1    3    3    0    0  0.36816788845E+02 -0.19119062690E+02  0.40320319740E+02  0.57851135226E+02  0.10566000000E+00 0.  1.
         22    1    1    0    0    0 -0.24507746678E+02 -0.40722500875E+01 -0.93453521051E+01  0.26543332006E+02  0.00000000000E+00 0.  1.
</event>
<event>
 5    1  0.1766627E-003  0.9118800E+02  0.7818608E-02  0.1130116E+00
         25   -1    0    0    0    0  0.00000000000E+00  0.00000000000E+00  0.99999998245E-14  0.12500000000E+03  0.12500000000E+03 0.  0.
        -13    1    3    3    0    0  0.15121648083E+02 -0.19220876207E+02  0.28073091805E+02  0.37231921391E+02  0.10566000000E+00 0.  1.
         23    2    1    0    0    0 -0.59604063115E+01  0.28527242674E+02  0.14604030683E+01  0.95820164580E+02  0.91269059079E+02 0.  0.
         13    1    3    3    0    0 -0.21082054394E+02  0.47748118881E+02 -0.26612688737E+02  0.58588243190E+02  0.10566000000E+00 0. -1.
         22    1    1    0    0    0  0.59604063115E+01 -0.28527242674E+02 -0.14604030683E+01  0.29179835420E+02  0.00000000000E+00 0. -1.
</event>
<event>
 5    1  0.1766627E-003  0.9118800E+02  0.7818608E-02  0.1130116E+00
         25   -1    0    0    0    0  0.00000000000E+00  0.00000000000E+00  0.99999998245E-14  0.12500000000E+03  0.12500000000E+03 0.  0.
        -13    1    3    3    0    0  0.16980564203E+02  0.91810265375E+01 -0.54128037517E+02  0.57467263885E+02  0.10566000000E+00 0.  1.
         23    2    1    0    0    0  0.40821285376E+01  0.21380502623E+02 -0.22787995100E+02  0.93486790286E+02  0.88015325776E+02 0.  0.
         13    1    3    3    0    0 -0.12898435665E+02  0.12199476086E+02  0.31340042417E+02  0.36019526401E+02  0.10566000000E+00 0. -1.
         22    1    1    0    0    0 -0.40821285376E+01 -0.21380502623E+02  0.22787995100E+02  0.31513209714E+02  0.00000000000E+00 0.  1.
</event>
<event>
 5    1  0.1766627E-003  0.9118800E+02  0.7818608E-02  0.1130116E+00
         25   -1    0    0    0    0  0.00000000000E+00  0.00000000000E+00  0.99999998245E-14  0.12500000000E+03  0.12500000000E+03 0.  0.
        -13    1    3    3    0    0  0.47400728653E+01 -0.34205154456E+02 -0.42073756640E+02  0.54430442254E+02  0.10566000000E+00 0. -1.
         23    2    1    0    0    0 -0.18261634748E+02 -0.19623054398E+02 -0.10288870889E+02  0.96287416840E+02  0.91906769119E+02 0.  0.
         13    1    3    3    0    0 -0.23001707613E+02  0.14582100058E+02  0.31784885751E+02  0.41856974586E+02  0.10566000000E+00 0.  1.
         22    1    1    0    0    0  0.18261634748E+02  0.19623054398E+02  0.10288870889E+02  0.28712583160E+02  0.00000000000E+00 0. -1.
</event>
<event>
 5    1  0.1766627E-003  0.9118800E+02  0.7818608E-02  0.1130116E+00
         25   -1    0    0    0    0  0.00000000000E+00  0.00000000000E+00  0.99999998245E-14  0.12500000000E+03  0.12500000000E+03 0.  0.
        -13    1    3    3    0    0 -0.46310495404E+01 -0.52921554447E+02 -0.18590243459E+02  0.56282731462E+02  0.10566000000E+00 0.  1.
         23    2    1    0    0    0 -0.42879993943E+01 -0.15507080617E+02 -0.25999048707E+02  0.94425385992E+02  0.89338381998E+02 0.  0.
         13    1    3    3    0    0  0.34305014606E+00  0.37414473830E+02 -0.74088052486E+01  0.38142654530E+02  0.10566000000E+00 0. -1.
         22    1    1    0    0    0  0.42879993943E+01  0.15507080617E+02  0.25999048707E+02  0.30574614008E+02  0.00000000000E+00 0.  1.
</event>
<event>
 5    1  0.1766627E-003  0.9118800E+02  0.7818608E-02  0.1130116E+00
         25   -1    0    0    0    0  0.00000000000E+00  0.00000000000E+00  0.99999998245E-14  0.12500000000E+03  0.12500000000E+03 0.  0.
        -13    1    3    3    0    0 -0.18910987726E+02 -0.74950791547E+01  0.58667084261E+02  0.62093796857E+02  0.10566000000E+00 0.  1.
         23    2    1    0    0    0 -0.76845842393E+01  0.13526098880E+01  0.28079050211E+02  0.95856982840E+02  0.91319470597E+02 0.  0.
         13    1    3    3    0    0  0.11226403487E+02  0.88476890427E+01 -0.30588034051E+02  0.33763185984E+02  0.10566000000E+00 0. -1.
         22    1    1    0    0    0  0.76845842393E+01 -0.13526098880E+01 -0.28079050211E+02  0.29143017160E+02  0.00000000000E+00 0.  1.
</event>
<event>
 5    1  0.1766627E-003  0.9118800E+02  0.7818608E-02  0.1130116E+00
         25   -1    0    0    0    0  0.00000000000E+00  0.00000000000E+00  0.99999998245E-14  0.12500000000E+03  0.12500000000E+03 0.  0.
        -13    1    3    3    0    0 -0.30831255959E+02 -0.35115275071E+02  0.20077840630E+01  0.46772761819E+02  0.10566000000E+00 0. -1.
         23    2    1    0    0    0 -0.16301944119E+02  0.36487301522E+01  0.25607973500E+02  0.94424929754E+02  0.89337743639E+02 0.  0.
         13    1    3    3    0    0  0.14529311840E+02  0.38764005223E+02  0.23600189437E+02  0.47652167935E+02  0.10566000000E+00 0.  1.
         22    1    1    0    0    0  0.16301944119E+02 -0.36487301522E+01 -0.25607973500E+02  0.30575070246E+02  0.00000000000E+00 0.  1.
</event>
<event>
 5    1  0.1766627E-003  0.9118800E+02  0.7818608E-02  0.1130116E+00
         25   -1    0    0    0    0  0.00000000000E+00  0.00000000000E+00  0.99999998245E-14  0.12500000000E+03  0.12500000000E+03 0.  0.
        -13    1    3    3    0    0  0.24634019738E+02 -0.43359444437E+01 -0.55968062562E+02  0.61303103785E+02  0.10566000000E+00 0.  1.
         23    2    1    0    0    0  0.18941972246E+02 -0.34405047210E+01 -0.21960296761E+02  0.95795719164E+02  0.91235573057E+02 0.  0.
         13    1    3    3    0    0 -0.56920474922E+01  0.89543972275E+00  0.34007765800E+02  0.34492615379E+02  0.10566000000E+00 0. -1.
         22    1    1    0    0    0 -0.18941972246E+02  0.34405047210E+01  0.21960296761E+02  0.29204280836E+02  0.00000000000E+00 0.  1.
</event>
<event>
 5    1  0.1766627E-003  0.9118800E+02  0.7818608E-02  0.1130116E+00
         25   -1    0    0    0    0  0.00000000000E+00  0.00000000000E+00  0.99999998245E-14  0.12500000000E+03  0.12500000000E+03 0.  0.
        -13    1    3    3    0    0  0.17063399765E+02 -0.54891069113E+02  0.11602825071E+02  0.58641502314E+02  0.10566000000E+00 0.  1.
         23    2    1    0    0    0 -0.64030132902E+01 -0.31024897667E+02  0.81499681891E+01  0.92289683035E+02  0.86298440072E+02 0.  0.
         13    1    3    3    0    0 -0.23466413056E+02  0.23866171446E+02 -0.34528568820E+01  0.33648180722E+02  0.10566000000E+00 0. -1.
         22    1    1    0    0    0  0.64030132902E+01  0.31024897667E+02 -0.81499681891E+01  0.32710316965E+02  0.00000000000E+00 0.  1.
</event>
<event>
 5    1  0.1766627E-003  0.9118800E+02  0.7818608E-02  0.1130116E+00
         25   -1    0    0    0    0  0.00000000000E+00  0.00000000000E+00  0.99999998245E-14  0.12500000000E+03  0.12500000000E+03 0.  0.
        -13    1    3    3    0    0  0.88176759255E+01  0.33532370602E+02 -0.26416791834E+02  0.43589326007E+02  0.10566000000E+00 0.  1.
         23    2    1    0    0    0  0.12463962009E+01  0.18134192379E+02  0.22874983664E+02  0.95782414296E+02  0.91217342507E+02 0.  0.
         13    1    3    3    0    0 -0.75712797245E+01 -0.15398178223E+02  0.49291775499E+02  0.52193088289E+02  0.10566000000E+00 0. -1.
         22    1    1    0    0    0 -0.12463962009E+01 -0.18134192379E+02 -0.22874983664E+02  0.29217585704E+02  0.00000000000E+00 0. -1.
</event>
<event>
 5    1  0.1766627E-003  0.9118800E+02  0.7818608E-02  0.1130116E+00
         25   -1    0    0    0    0  0.00000000000E+00  0.00000000000E+00  0.99999998245E-14  0.12500000000E+03  0.12500000000E+03 0.  0.
        -13    1    3    3    0    0  0.32390045365E-01 -0.20263942708E+01  0.46803996030E+02  0.46847972542E+02  0.10566000000E+00 0. -1.
         23    2    1    0    0    0  0.62038866379E+00 -0.27366431233E+02  0.29924326816E+01  0.97463458934E+02  0.93492591864E+02 0.  0.
         13    1    3    3    0    0  0.58799861843E+00 -0.25340036962E+02 -0.43811563348E+02  0.50615486392E+02  0.10566000000E+00 0.  1.
         22    1    1    0    0    0 -0.62038866379E+00  0.27366431233E+02 -0.29924326816E+01  0.27536541066E+02  0.00000000000E+00 0.  1.
</event>
<event>
 5    1  0.1766627E-003  0.9118800E+02  0.7818608E-02  0.1130116E+00
         25   -1    0    0    0    0  0.00000000000E+00  0.00000000000E+00  0.99999998245E-14  0.12500000000E+03  0.12500000000E+03 0.  0.
        -13    1    3    3    0    0  0.11605614161E+02 -0.38754350153E+02  0.44669652938E+02  0.60265902411E+02  0.10566000000E+00 0.  1.
         23    2    1    0    0    0 -0.65181014473E+01 -0.18365287624E+02  0.20543703605E+02  0.96683693853E+02  0.92444164031E+02 0.  0.
         13    1    3    3    0    0 -0.18123715608E+02  0.20389062529E+02 -0.24125949333E+02  0.36417791442E+02  0.10566000000E+00 0. -1.
         22    1    1    0    0    0  0.65181014473E+01  0.18365287624E+02 -0.20543703605E+02  0.28316306147E+02  0.00000000000E+00 0.  1.
</event>
<event>
 5    1  0.1766627E-003  0.9118800E+02  0.7818608E-02  0.1130116E+00
         25   -1    0    0    0    0  0.00000000000E+00  0.00000000000E+00  0.99999998245E-14  0.12500000000E+03  0.12500000000E+03 0.  0.
        -13    1    3    3    0    0  0.35811021302E+02 -0.25248324647E+01  0.45067039557E+02  0.57618167657E+02  0.10566000000E+00 0.  1.
         23    2    1    0    0    0  0.23131584374E+01  0.22075650595E+01  0.30300770070E+02  0.94530987671E+02  0.89486015208E+02 0.  0.
         13    1    3    3    0    0 -0.33497862865E+02  0.47323975242E+01 -0.14766269486E+02  0.36912820015E+02  0.10566000000E+00 0. -1.
         22    1    1    0    0    0 -0.23131584374E+01 -0.22075650595E+01 -0.30300770070E+02  0.30469012329E+02  0.00000000000E+00 0.  1.
</event>
<event>
 5    1  0.1766627E-003  0.9118800E+02  0.7818608E-02  0.1130116E+00
         25   -1    0    0    0    0  0.00000000000E+00  0.00000000000E+00  0.99999998245E-14  0.12500000000E+03  0.12500000000E+03 0.  0.
        -13    1    3    3    0    0  0.50707599438E+02 -0.65094161891E+01 -0.20082532672E+02  0.54926791481E+02  0.10566000000E+00 0. -1.
         23    2    1    0    0    0  0.13274324570E+02  0.82000356489E+01 -0.25087007431E+02  0.95456706018E+02  0.90769909687E+02 0.  0.
         13    1    3    3    0    0 -0.37433274868E+02  0.14709451838E+02 -0.50044747588E+01  0.40529914537E+02  0.10566000000E+00 0.  1.
         22    1    1    0    0    0 -0.13274324570E+02 -0.82000356489E+01  0.25087007431E+02  0.29543293982E+02  0.00000000000E+00 0. -1.
</event>
<event>
 5    1  0.1766627E-003  0.9118800E+02  0.7818608E-02  0.1130116E+00
         25   -1    0    0    0    0  0.00000000000E+00  0.00000000000E+00  0.99999998245E-14  0.12500000000E+03  0.12500000000E+03 0.  0.
        -13    1    3    3    0    0 -0.54321342939E+02 -0.14592583415E+01 -0.22669498934E+02  0.58880005770E+02  0.10566000000E+00 0. -1.
         23    2    1    0    0    0 -0.22414975711E+02  0.12681822749E+02 -0.26597621013E+01  0.99109188911E+02  0.95667639397E+02 0.  0.
         13    1    3    3    0    0  0.31906367227E+02  0.14141081091E+02  0.20009736833E+02  0.40229183141E+02  0.10566000000E+00 0.  1.
         22    1    1    0    0    0  0.22414975711E+02 -0.12681822749E+02  0.26597621013E+01  0.25890811089E+02  0.00000000000E+00 0. -1.
</event>
<event>
 5    1  0.1766627E-003  0.9118800E+02  0.7818608E-02  0.1130116E+00
         25   -1    0    0    0    0  0.00000000000E+00  0.00000000000E+00  0.99999998245E-14  0.12500000000E+03  0.12500000000E+03 0.  0.
        -13    1    3    3    0    0  0.10330076125E+01 -0.80872700876E+01 -0.61256450490E+02  0.61796722671E+02  0.10566000000E+00 0.  1.
         23    2    1    0    0    0  0.63383698610E+01 -0.93909164696E+00 -0.31433530842E+02  0.92920042288E+02  0.87206711736E+02 0.  0.
         13    1    3    3    0    0  0.53053622485E+01  0.71481784406E+01  0.29822919648E+02  0.31123319617E+02  0.10566000000E+00 0. -1.
         22    1    1    0    0    0 -0.63383698610E+01  0.93909164696E+00  0.31433530842E+02  0.32079957712E+02  0.00000000000E+00 0.  1.
</event>
<event>
 5    1  0.1766627E-003  0.9118800E+02  0.7818608E-02  0.1130116E+00
         25   -1    0    0    0    0  0.00000000000E+00  0.00000000000E+00  0.99999998245E-14  0.12500000000E+03  0.12500000000E+03 0.  0.
        -13    1    3    3    0    0 -0.10872922928E+01  0.24558147421E+01  0.60628882599E+02  0.60688432175E+02  0.10566000000E+00 0. -1.
         23    2    1    0    0    0 -0.10404138176E+02 -0.27471127580E+01  0.29126087858E+02  0.93949690604E+02  0.88670303095E+02 0.  0.
         13    1    3    3    0    0 -0.93168458828E+01 -0.52029275001E+01 -0.31502794741E+02  0.33261258429E+02  0.10566000000E+00 0.  1.
         22    1    1    0    0    0  0.10404138176E+02  0.27471127580E+01 -0.29126087858E+02  0.31050309396E+02  0.00000000000E+00 0. -1.
</event>
<event>
 5    1  0.1766627E-003  0.9118800E+02  0.7818608E-02  0.1130116E+00
         25   -1    0    0    0    0  0.00000000000E+00  0.00000000000E+00  0.99999998245E-14  0.12500000000E+03  0.12500000000E+03 0.  0.
        -13    1    3    3    0    0 -0.20838643275E+02 -0.37123311462E+02  0.34404218699E+01  0.42711087250E+02  0.10566000000E+00 0.  1.
         23    2    1    0    0    0  0.22006486513E+02 -0.14529125875E+02 -0.15142947614E+02  0.94591287272E+02  0.89570206084E+02 0.  0.
         13    1    3    3    0    0  0.42845129788E+02  0.22594185586E+02 -0.18583369484E+02  0.51880200022E+02  0.10566000000E+00 0. -1.
         22    1    1    0    0    0 -0.22006486513E+02  0.14529125875E+02  0.15142947614E+02  0.30408712728E+02  0.00000000000E+00 0. -1.
</event>
<event>
 5    1  0.1766627E-003  0.9118800E+02  0.7818608E-02  0.1130116E+00
         25   -1    0    0    0    0  0.00000000000E+00  0.00000000000E+00  0.99999998245E-14  0.12500000000E+03  0.12500000000E+03 0.  0.
        -13    1    3    3    0    0 -0.14895970885E+02  0.27927145794E+02 -0.47164808949E+02  0.56800931225E+02  0.10566000000E+00 0. -1.
         23    2    1    0    0    0 -0.14573596536E+02 -0.47469202386E+01 -0.22654074440E+02  0.97648033773E+02  0.93739044390E+02 0.  0.
         13    1    3    3    0    0  0.32237434847E+00 -0.32674066033E+02  0.24510734509E+02  0.40847102548E+02  0.10566000000E+00 0.  1.
         22    1    1    0    0    0  0.14573596536E+02  0.47469202386E+01  0.22654074440E+02  0.27351966227E+02  0.00000000000E+00 0. -1.
</event>
<event>
 5    1  0.1766627E-003  0.9118800E+02  0.7818608E-02  0.1130116E+00
         25   -1    0    0    0    0  0.00000000000E+00  0.00000000000E+00  0.99999998245E-14  0.12500000000E+03  0.12500000000E+03 0.  0.
        -13    1    3    3    0    0  0.29495978257E+02 -0.28443956426E+02 -0.33582237049E+02  0.52979705546E+02  0.10566000000E+00 0.  1.
         23    2    1    0    0    0  0.29747010698E+02  0.15091742746E+01 -0.42337638230E+01  0.94915335990E+02  0.90021297467E+02 0.  0.
         13    1    3    3    0    0  0.25103244143E+00  0.29953130701E+02  0.29348473226E+02  0.41935630445E+02  0.10566000000E+00 0. -1.
         22    1    1    0    0    0 -0.29747010698E+02 -0.15091742746E+01  0.42337638230E+01  0.30084664010E+02  0.00000000000E+00 0. -1.
</event>
<event>
 5    1  0.1766627E-003  0.9118800E+02  0.7818608E-02  0.1130116E+00
         25   -1    0    0    0    0  0.00000000000E+00  0.00000000000E+00  0.99999998245E-14  0.12500000000E+03  0.12500000000E+03 0.  0.
        -13    1    3    3    0    0 -0.32536354497E+01  0.49776713054E+01 -0.27379760187E+02  0.28018311641E+02  0.10566000000E+00 0.  1.
         23    2    1    0    0    0 -0.16160634548E+02 -0.65826006001E+01  0.31279006724E+02  0.89182783451E+02  0.81674328052E+02 0.  0.
         13    1    3    3    0    0 -0.12906999099E+02 -0.11560271906E+02  0.58658766911E+02  0.61164471810E+02  0.10566000000E+00 0. -1.
         22    1    1    0    0    0  0.16160634548E+02  0.65826006001E+01 -0.31279006724E+02  0.35817216549E+02  0.00000000000E+00 0. -1.
</event>
<event>
 5    1  0.1766627E-003  0.9118800E+02  0.7818608E-02  0.1130116E+00
         25   -1    0    0    0    0  0.00000000000E+00  0.00000000000E+00  0.99999998245E-14  0.12500000000E+03  0.12500000000E+03 0.  0.
        -13    1    3    3    0    0  0.39047515590E+02 -0.19709883021E+02 -0.95896952976E+01  0.44779028377E+02  0.10566000000E+00 0.  1.
         23    2    1    0    0    0  0.16865260637E+02  0.20558523320E+02  0.12304272883E+02  0.95700084835E+02  0.91104452190E+02 0.  0.
         13    1    3    3    0    0 -0.22182254953E+02  0.40268406341E+02  0.21893968181E+02  0.50921056458E+02  0.10566000000E+00 0. -1.
         22    1    1    0    0    0 -0.16865260637E+02 -0.20558523320E+02 -0.12304272883E+02  0.29299915165E+02  0.00000000000E+00 0.  1.
</event>
<event>
 5    1  0.1766627E-003  0.9118800E+02  0.7818608E-02  0.1130116E+00
         25   -1    0    0    0    0  0.00000000000E+00  0.00000000000E+00  0.99999998245E-14  0.12500000000E+03  0.12500000000E+03 0.  0.
        -13    1    3    3    0    0 -0.32589405910E+01 -0.11926924862E+01 -0.41766004837E+02  0.41910064820E+02  0.10566000000E+00 0.  1.
         23    2    1    0    0    0 -0.47764595204E+01  0.21767036874E+02  0.11492118568E+02  0.99926363467E+02  0.96729472586E+02 0.  0.
         13    1    3    3    0    0 -0.15175189295E+01  0.22959729360E+02  0.53258123405E+02  0.58016298647E+02  0.10566000000E+00 0. -1.
         22    1    1    0    0    0  0.47764595204E+01 -0.21767036874E+02 -0.11492118568E+02  0.25073636533E+02  0.00000000000E+00 0.  1.
</event>
<event>
 5    1  0.1766627E-003  0.9118800E+02  0.7818608E-02  0.1130116E+00
         25   -1    0    0    0    0  0.00000000000E+00  0.00000000000E+00  0.99999998245E-14  0.12500000000E+03  0.12500000000E+03 0.  0.
        -13    1    3    3    0    0 -0.23213074106E+02  0.39371520178E+02 -0.14923594597E+01  0.45729658990E+02  0.10566000000E+00 0. -1.
         23    2    1    0    0    0 -0.20739206508E+02 -0.38120316356E+01 -0.22796821237E+02  0.93946154340E+02  0.88665317825E+02 0.  0.
         13    1    3    3    0    0  0.24738675982E+01 -0.43183551814E+02 -0.21304461777E+02  0.48216495350E+02  0.10566000000E+00 0.  1.
         22    1    1    0    0    0  0.20739206508E+02  0.38120316356E+01  0.22796821237E+02  0.31053845660E+02  0.00000000000E+00 0.  1.
</event>
<event>
 5    1  0.1766627E-003  0.9118800E+02  0.7818608E-02  0.1130116E+00
         25   -1    0    0    0    0  0.00000000000E+00  0.00000000000E+00  0.99999998245E-14  0.12500000000E+03  0.12500000000E+03 0.  0.
        -13    1    3    3    0    0  0.30917434941E+02 -0.21080893110E+02  0.44563956362E+01  0.37685042972E+02  0.10566000000E+00 0.  1.
         23    2    1    0    0    0 -0.17247552778E+02 -0.73570577379E+01 -0.23416539803E+02  0.95001021489E+02  0.90140198425E+02 0.  0.
         13    1    3    3    0    0 -0.48164987719E+02  0.13723835372E+02 -0.27872935439E+02  0.57315978517E+02  0.10566000000E+00 0. -1.
         22    1    1    0    0    0  0.17247552778E+02  0.73570577379E+01  0.23416539803E+02  0.29998978511E+02  0.00000000000E+00 0. -1.
</event>
<event>
 5    1  0.1766627E-003  0.9118800E+02  0.7818608E-02  0.1130116E+00
         25   -1    0    0    0    0  0.00000000000E+00  0.00000000000E+00  0.99999998245E-14  0.12500000000E+03  0.12500000000E+03 0.  0.
        -13    1    3    3    0    0 -0.13181853183E+02 -0.17122278956E+02  0.54474375042E+02  0.58603774539E+02  0.10566000000E+00 0. -1.
         23    2    1    0    0    0  0.90073870856E+01 -0.50062287258E+01  0.27780628427E+02  0.95369632740E+02  0.90649921042E+02 0.  0.
         13    1    3    3    0    0  0.22189240268E+02  0.12116050230E+02 -0.26693746615E+02  0.36765858201E+02  0.10566000000E+00 0.  1.
         22    1    1    0    0    0 -0.90073870856E+01  0.50062287258E+01 -0.27780628427E+02  0.29630367260E+02  0.00000000000E+00 0. -1.
</event>
<event>
 5    1  0.1766627E-003  0.9118800E+02  0.7818608E-02  0.1130116E+00
         25   -1    0    0    0    0  0.00000000000E+00  0.00000000000E+00  0.99999998245E-14  0.12500000000E+03  0.12500000000E+03 0.  0.
        -13    1    3    3    0    0 -0.43651856244E+01  0.24656296189E+02 -0.25401896159E+02  0.35668687666E+02  0.10566000000E+00 0. -1.
         23    2    1    0    0    0  0.14202765657E+02 -0.25917898992E+02  0.48790490048E+00  0.95441683207E+02  0.90749219290E+02 0.  0.
         13    1    3    3    0    0  0.18567951281E+02 -0.50574195181E+02  0.25889801060E+02  0.59772995541E+02  0.10566000000E+00 0.  1.
         22    1    1    0    0    0 -0.14202765657E+02  0.25917898992E+02 -0.48790490048E+00  0.29558316793E+02  0.00000000000E+00 0.  1.
</event>
<event>
 5    1  0.1766627E-003  0.9118800E+02  0.7818608E-02  0.1130116E+00
         25   -1    0    0    0    0  0.00000000000E+00  0.00000000000E+00  0.99999998245E-14  0.12500000000E+03  0.12500000000E+03 0.  0.
        -13    1    3    3    0    0 -0.32522454493E+02 -0.19293332355E+02 -0.34697602758E+02  0.51321316436E+02  0.10566000000E+00 0.  1.
         23    2    1    0    0    0 -0.66757463537E+01  0.17715139223E+02 -0.16120048489E+02  0.10013541252E+03  0.96999242940E+02 0.  0.
         13    1    3    3    0    0  0.25846708139E+02  0.37008471578E+02  0.18577554269E+02  0.48814096088E+02  0.10566000000E+00 0. -1.
         22    1    1    0    0    0  0.66757463537E+01 -0.17715139223E+02  0.16120048489E+02  0.24864587476E+02  0.00000000000E+00 0.  1.
</event>
<event>
 5    1  0.1766627E-003  0.9118800E+02  0.7818608E-02  0.1130116E+00
         25   -1    0    0    0    0  0.00000000000E+00  0.00000000000E+00  0.99999998245E-14  0.12500000000E+03  0.12500000000E+03 0.  0.
        -13    1    3    3    0    0 -0.35569289868E+01 -0.90803909355E+01 -0.30597489550E+02  0.32114214519E+02  0.10566000000E+00 0. -1.
         23    2    1    0    0    0  0.19532860165E+02  0.18385308647E+01  0.24954510710E+02  0.93256647519E+02  0.87687866206E+02 0.  0.
         13    1    3    3    0    0  0.23089789151E+02  0.10918921800E+02  0.55552000260E+02  0.61142433001E+02  0.10566000000E+00 0.  1.
         22    1    1    0    0    0 -0.19532860165E+02 -0.18385308647E+01 -0.24954510710E+02  0.31743352481E+02  0.00000000000E+00 0.  1.
</event>
<event>
 5    1  0.1766627E-003  0.9118800E+02  0.7818608E-02  0.1130116E+00
         25   -1    0    0    0    0  0.00000000000E+00  0.00000000000E+00  0.99999998245E-14  0.12500000000E+03  0.12500000000E+03 0.  0.
        -13    1    3    3    0    0  0.16369426006E+02  0.37763749628E+02 -0.29394005075E+02  0.50577441534E+02  0.10566000000E+00 0.  1.
         23    2    1    0    0    0  0.23670920167E+02  0.14021742909E+02  0.87793647439E+01  0.96120959485E+02  0.91680095284E+02 0.  0.
         13    1    3    3    0    0  0.73014941607E+01 -0.23742006719E+02  0.38173369819E+02  0.45543517952E+02  0.10566000000E+00 0. -1.
         22    1    1    0    0    0 -0.23670920167E+02 -0.14021742909E+02 -0.87793647439E+01  0.28879040515E+02  0.00000000000E+00 0.  1.
</event>
<event>
 5    1  0.1766627E-003  0.9118800E+02  0.7818608E-02  0.1130116E+00
         25   -1    0    0    0    0  0.00000000000E+00  0.00000000000E+00  0.99999998245E-14  0.12500000000E+03  0.12500000000E+03 0.  0.
        -13    1    3    3    0    0  0.28622783311E+02 -0.33426528315E+02 -0.46250952085E+01  0.44249284620E+02  0.10566000000E+00 0. -1.
         23    2    1    0    0    0 -0.21354589864E+02 -0.18757055065E+02  0.37734888611E+00  0.96574870006E+02  0.92296898656E+02 0.  0.
         13    1    3    3    0    0 -0.49977373176E+02  0.14669473250E+02  0.50024440946E+01  0.52325585386E+02  0.10566000000E+00 0.  1.
         22    1    1    0    0    0  0.21354589864E+02  0.18757055065E+02 -0.37734888611E+00  0.28425129994E+02  0.00000000000E+00 0.  1.
</event>
<event>
 5    1  0.1766627E-003  0.9118800E+02  0.7818608E-02  0.1130116E+00
         25   -1    0    0    0    0  0.00000000000E+00  0.00000000000E+00  0.99999998245E-14  0.12500000000E+03  0.12500000000E+03 0.  0.
        -13    1    3    3    0    0  0.19000100450E+02  0.75617066165E+00  0.54354683318E+02  0.57584879733E+02  0.10566000000E+00 0.  1.
         23    2    1    0    0    0  0.73354338312E+01 -0.16975755058E+02  0.22298124372E+02  0.96031202997E+02  0.91557636215E+02 0.  0.
         13    1    3    3    0    0 -0.11664666618E+02 -0.17731925720E+02 -0.32056558946E+02  0.38446323264E+02  0.10566000000E+00 0. -1.
         22    1    1    0    0    0 -0.73354338312E+01  0.16975755058E+02 -0.22298124372E+02  0.28968797003E+02  0.00000000000E+00 0.  1.
</event>
<event>
 5    1  0.1766627E-003  0.9118800E+02  0.7818608E-02  0.1130116E+00
         25   -1    0    0    0    0  0.00000000000E+00  0.00000000000E+00  0.99999998245E-14  0.12500000000E+03  0.12500000000E+03 0.  0.
        -13    1    3    3    0    0  0.35376931387E+02 -0.14111009281E+01 -0.49416140838E+02  0.60790497773E+02  0.10566000000E+00 0.  1.
         23    2    1    0    0    0  0.99193013265E+01 -0.42126864451E+01 -0.30562330749E+02  0.92593282692E+02  0.86737077844E+02 0.  0.
         13    1    3    3    0    0 -0.25457630060E+02 -0.28015855170E+01  0.18853810089E+02  0.31802784919E+02  0.10566000000E+00 0. -1.
         22    1    1    0    0    0 -0.99193013265E+01  0.42126864451E+01  0.30562330749E+02  0.32406717308E+02  0.00000000000E+00 0.  1.
</event>
<event>
 5    1  0.1766627E-003  0.9118800E+02  0.7818608E-02  0.1130116E+00
         25   -1    0    0    0    0  0.00000000000E+00  0.00000000000E+00  0.99999998245E-14  0.12500000000E+03  0.12500000000E+03 0.  0.
        -13    1    3    3    0    0 -0.17960800024E+02 -0.54074516512E+02  0.73361261765E+00  0.56984147138E+02  0.10566000000E+00 0.  1.
         23    2    1    0    0    0  0.71012680156E+01 -0.26856778519E+02  0.10584628600E+02  0.95272085131E+02  0.90515309660E+02 0.  0.
         13    1    3    3    0    0  0.25062068039E+02  0.27217737993E+02  0.98510159824E+01  0.38287937994E+02  0.10566000000E+00 0. -1.
         22    1    1    0    0    0 -0.71012680156E+01  0.26856778519E+02 -0.10584628600E+02  0.29727914869E+02  0.00000000000E+00 0.  1.
</event>
<event>
 5    1  0.1766627E-003  0.9118800E+02  0.7818608E-02  0.1130116E+00
         25   -1    0    0    0    0  0.00000000000E+00  0.00000000000E+00  0.99999998245E-14  0.12500000000E+03  0.12500000000E+03 0.  0.
        -13    1    3    3    0    0  0.34973322869E+02 -0.31177570191E+02 -0.52242032051E+01  0.47143161314E+02  0.10566000000E+00 0.  1.
         23    2    1    0    0    0  0.20438309026E+02  0.65170050871E+01  0.20735368664E+02  0.95164595783E+02  0.90366746903E+02 0.  0.
         13    1    3    3    0    0 -0.14535013843E+02  0.37694575278E+02  0.25959571869E+02  0.48021434469E+02  0.10566000000E+00 0. -1.
         22    1    1    0    0    0 -0.20438309026E+02 -0.65170050871E+01 -0.20735368664E+02  0.29835404217E+02  0.00000000000E+00 0. -1.
</event>
<event>
 5    1  0.1766627E-003  0.9118800E+02  0.7818608E-02  0.1130116E+00
         25   -1    0    0    0    0  0.00000000000E+00  0.00000000000E+00  0.99999998245E-14  0.12500000000E+03  0.12500000000E+03 0.  0.
        -13    1    3    3    0    0 -0.27526520169E+02 -0.40934803763E+02  0.11799321509E+02  0.50720830275E+02  0.10566000000E+00 0. -1.
         23    2    1    0    0    0 -0.14850412924E+02  0.94646720630E+00  0.24544602755E+02  0.96296897579E+02  0.91919662721E+02 0.  0.
         13    1    3    3    0    0  0.12676107244E+02  0.41881270969E+02  0.12745281246E+02  0.45576067304E+02  0.10566000000E+00 0.  1.
         22    1    1    0    0    0  0.14850412924E+02 -0.94646720630E+00 -0.24544602755E+02  0.28703102421E+02  0.00000000000E+00 0.  1.
</event>
<event>
 5    1  0.1766627E-003  0.9118800E+02  0.7818608E-02  0.1130116E+00
         25   -1    0    0    0    0  0.00000000000E+00  0.00000000000E+00  0.99999998245E-14  0.12500000000E+03  0.12500000000E+03 0.  0.
        -13    1    3    3    0    0  0.26003096568E+02  0.84868540563E+01 -0.50714387813E+02  0.57620725595E+02  0.10566000000E+00 0. -1.
         23    2    1    0    0    0  0.24313789963E+02 -0.65854052471E+01 -0.16941151936E+02  0.94643277951E+02  0.89642732487E+02 0.  0.
         13    1    3    3    0    0 -0.16893066049E+01 -0.15072259303E+02  0.33773235876E+02  0.37022552356E+02  0.10566000000E+00 0.  1.
         22    1    1    0    0    0 -0.24313789963E+02  0.65854052471E+01  0.16941151936E+02  0.30356722049E+02  0.00000000000E+00 0. -1.
</event>
<event>
 5    1  0.1766627E-003  0.9118800E+02  0.7818608E-02  0.1130116E+00
         25   -1    0    0    0    0  0.00000000000E+00  0.00000000000E+00  0.99999998245E-14  0.12500000000E+03  0.12500000000E+03 0.  0.
        -13    1    3    3    0    0 -0.35681093820E+02  0.44113393660E+01  0.10644434545E+02  0.37495540028E+02  0.10566000000E+00 0.  1.
         23    2    1    0    0    0  0.71989435687E+01  0.21807490917E+02 -0.21261939991E+02  0.93703649721E+02  0.88322774132E+02 0.  0.
         13    1    3    3    0    0  0.42880037388E+02  0.17396151551E+02 -0.31906374536E+02  0.56208109693E+02  0.10566000000E+00 0. -1.
         22    1    1    0    0    0 -0.71989435687E+01 -0.21807490917E+02  0.21261939991E+02  0.31296350279E+02  0.00000000000E+00 0. -1.
</event>
<event>
 5    1  0.1766627E-003  0.9118800E+02  0.7818608E-02  0.1130116E+00
         25   -1    0    0    0    0  0.00000000000E+00  0.00000000000E+00  0.99999998245E-14  0.12500000000E+03  0.12500000000E+03 0.  0.
        -13    1    3    3    0    0 -0.14118377572E+02 -0.13308994675E+02 -0.58138909891E+02  0.61291124414E+02  0.10566000000E+00 0. -1.
         23    2    1    0    0    0 -0.10565058274E+02 -0.10563912370E+02 -0.18330599026E+02  0.10135200724E+03  0.98554562605E+02 0.  0.
         13    1    3    3    0    0  0.35533192983E+01  0.27450823053E+01  0.39808310865E+02  0.40060882827E+02  0.10566000000E+00 0.  1.
         22    1    1    0    0    0  0.10565058274E+02  0.10563912370E+02  0.18330599026E+02  0.23647992759E+02  0.00000000000E+00 0. -1.
</event>
<event>
 5    1  0.1766627E-003  0.9118800E+02  0.7818608E-02  0.1130116E+00
         25   -1    0    0    0    0  0.00000000000E+00  0.00000000000E+00  0.99999998245E-14  0.12500000000E+03  0.12500000000E+03 0.  0.
        -13    1    3    3    0    0 -0.15575220012E+02 -0.34402386525E+02  0.22168558694E+02  0.43790042654E+02  0.10566000000E+00 0.  1.
         23    2    1    0    0    0  0.20762916512E+01  0.11359915908E+02 -0.15526126335E+02  0.10565008332E+03  0.10386299067E+03 0.  0.
         13    1    3    3    0    0  0.17651511663E+02  0.45762302433E+02 -0.37694685029E+02  0.61860040668E+02  0.10566000000E+00 0. -1.
         22    1    1    0    0    0 -0.20762916512E+01 -0.11359915908E+02  0.15526126335E+02  0.19349916678E+02  0.00000000000E+00 0. -1.
</event>
<event>
 5    1  0.1766627E-003  0.9118800E+02  0.7818608E-02  0.1130116E+00
         25   -1    0    0    0    0  0.00000000000E+00  0.00000000000E+00  0.99999998245E-14  0.12500000000E+03  0.12500000000E+03 0.  0.
        -13    1    3    3    0    0 -0.14145412513E+01  0.11048366717E+02  0.45480468093E+02  0.46824688745E+02  0.10566000000E+00 0. -1.
         23    2    1    0    0    0 -0.23181179407E+02  0.53349138067E+01 -0.37163420423E+01  0.10092429477E+03  0.98010579496E+02 0.  0.
         13    1    3    3    0    0 -0.21766638156E+02 -0.57134529099E+01 -0.49196810135E+02  0.54099606027E+02  0.10566000000E+00 0.  1.
         22    1    1    0    0    0  0.23181179407E+02 -0.53349138067E+01  0.37163420423E+01  0.24075705228E+02  0.00000000000E+00 0.  1.
</event>
<event>
 5    1  0.1766627E-003  0.9118800E+02  0.7818608E-02  0.1130116E+00
         25   -1    0    0    0    0  0.00000000000E+00  0.00000000000E+00  0.99999998245E-14  0.12500000000E+03  0.12500000000E+03 0.  0.
        -13    1    3    3    0    0 -0.44347547498E+02  0.19835124985E+02 -0.17979508555E+02  0.51801650979E+02  0.10566000000E+00 0. -1.
         23    2    1    0    0    0 -0.77645117077E+01  0.29497029200E+02  0.16996946228E+01  0.94450837401E+02  0.89373985870E+02 0.  0.
         13    1    3    3    0    0  0.36583035791E+02  0.96619042151E+01  0.19679203178E+02  0.42649186422E+02  0.10566000000E+00 0.  1.
         22    1    1    0    0    0  0.77645117077E+01 -0.29497029200E+02 -0.16996946228E+01  0.30549162599E+02  0.00000000000E+00 0. -1.
</event>
<event>
 5    1  0.1766627E-003  0.9118800E+02  0.7818608E-02  0.1130116E+00
         25   -1    0    0    0    0  0.00000000000E+00  0.00000000000E+00  0.99999998245E-14  0.12500000000E+03  0.12500000000E+03 0.  0.
        -13    1    3    3    0    0  0.57247002131E+02 -0.48005276842E+01 -0.13006587909E+02  0.58902010255E+02  0.10566000000E+00 0.  1.
         23    2    1    0    0    0  0.21478806523E+02 -0.15455926704E+02 -0.11194620148E+02  0.96267712931E+02  0.91879966439E+02 0.  0.
         13    1    3    3    0    0 -0.35768195607E+02 -0.10655399020E+02  0.18119677614E+01  0.37365702676E+02  0.10566000000E+00 0. -1.
         22    1    1    0    0    0 -0.21478806523E+02  0.15455926704E+02  0.11194620148E+02  0.28732287069E+02  0.00000000000E+00 0.  1.
</event>
<event>
 5    1  0.1766627E-003  0.9118800E+02  0.7818608E-02  0.1130116E+00
         25   -1    0    0    0    0  0.00000000000E+00  0.00000000000E+00  0.99999998245E-14  0.12500000000E+03  0.12500000000E+03 0.  0.
        -13    1    3    3    0    0  0.19651892061E+02  0.33792653666E+02 -0.49150903187E+01  0.39399360151E+02  0.10566000000E+00 0.  1.
         23    2    1    0    0    0 -0.25069574066E+02  0.55077865627E+01 -0.17679877415E+02  0.93832752414E+02  0.88505299861E+02 0.  0.
         13    1    3    3    0    0 -0.44721466128E+02 -0.28284867103E+02 -0.12764787096E+02  0.54433392263E+02  0.10566000000E+00 0. -1.
         22    1    1    0    0    0  0.25069574066E+02 -0.55077865627E+01  0.17679877415E+02  0.31167247586E+02  0.00000000000E+00 0. -1.
</event>
<event>
 5    1  0.1766627E-003  0.9118800E+02  0.7818608E-02  0.1130116E+00
         25   -1    0    0    0    0  0.00000000000E+00  0.00000000000E+00  0.99999998245E-14  0.12500000000E+03  0.12500000000E+03 0.  0.
        -13    1    3    3    0    0  0.11939834577E+02  0.22856338974E+02 -0.30152307690E+02  0.39675492487E+02  0.10566000000E+00 0.  1.
         23    2    1    0    0    0 -0.30716390211E+02  0.22304021521E+01 -0.35906851537E+01  0.93994124085E+02  0.88732919603E+02 0.  0.
         13    1    3    3    0    0 -0.42656224788E+02 -0.20625936822E+02  0.26561622536E+02  0.54318631598E+02  0.10566000000E+00 0. -1.
         22    1    1    0    0    0  0.30716390211E+02 -0.22304021521E+01  0.35906851537E+01  0.31005875915E+02  0.00000000000E+00 0. -1.
</event>
<event>
 5    1  0.1766627E-003  0.9118800E+02  0.7818608E-02  0.1130116E+00
         25   -1    0    0    0    0  0.00000000000E+00  0.00000000000E+00  0.99999998245E-14  0.12500000000E+03  0.12500000000E+03 0.  0.
        -13    1    3    3    0    0  0.55028077195E+02 -0.76309766908E+01 -0.49303616096E+01  0.55773118208E+02  0.10566000000E+00 0. -1.
         23    2    1    0    0    0  0.24904875817E+02  0.44720931872E+01  0.16608997181E+02  0.94732670348E+02  0.89767296868E+02 0.  0.
         13    1    3    3    0    0 -0.30123201379E+02  0.12103069878E+02  0.21539358790E+02  0.38959552139E+02  0.10566000000E+00 0.  1.
         22    1    1    0    0    0 -0.24904875817E+02 -0.44720931872E+01 -0.16608997181E+02  0.30267329652E+02  0.00000000000E+00 0. -1.
</event>
<event>
 5    1  0.1766627E-003  0.9118800E+02  0.7818608E-02  0.1130116E+00
         25   -1    0    0    0    0  0.00000000000E+00  0.00000000000E+00  0.99999998245E-14  0.12500000000E+03  0.12500000000E+03 0.  0.
        -13    1    3    3    0    0 -0.25969367517E+02  0.44359896072E+02  0.34058552510E+02  0.61662019038E+02  0.10566000000E+00 0.  1.
         23    2    1    0    0    0 -0.16545594029E+02  0.16051238720E+02  0.19230969134E+02  0.94979521655E+02  0.90110379057E+02 0.  0.
         13    1    3    3    0    0  0.94237734883E+01 -0.28308657351E+02 -0.14827583376E+02  0.33317502617E+02  0.10566000000E+00 0. -1.
         22    1    1    0    0    0  0.16545594029E+02 -0.16051238720E+02 -0.19230969134E+02  0.30020478345E+02  0.00000000000E+00 0.  1.
</event>
<event>
 5    1  0.1766627E-003  0.9118800E+02  0.7818608E-02  0.1130116E+00
         25   -1    0    0    0    0  0.00000000000E+00  0.00000000000E+00  0.99999998245E-14  0.12500000000E+03  0.12500000000E+03 0.  0.
        -13    1    3    3    0    0 -0.26307226610E+02 -0.41750925732E+02 -0.76002853903E+01  0.49929805461E+02  0.10566000000E+00 0. -1.
         23    2    1    0    0    0 -0.23910836040E+02  0.47938222645E+00  0.13857523561E+02  0.97359651835E+02  0.93353698152E+02 0.  0.
         13    1    3    3    0    0  0.23963905698E+01  0.42230307958E+02  0.21457808951E+02  0.47429846374E+02  0.10566000000E+00 0.  1.
         22    1    1    0    0    0  0.23910836040E+02 -0.47938222645E+00 -0.13857523561E+02  0.27640348165E+02  0.00000000000E+00 0. -1.
</event>
<event>
 5    1  0.1766627E-003  0.9118800E+02  0.7818608E-02  0.1130116E+00
         25   -1    0    0    0    0  0.00000000000E+00  0.00000000000E+00  0.99999998245E-14  0.12500000000E+03  0.12500000000E+03 0.  0.
        -13    1    3    3    0    0 -0.89780606259E+01  0.17348912454E+02 -0.26838261936E+02  0.33194785792E+02  0.10566000000E+00 0. -1.
         23    2    1    0    0    0  0.29655661721E+02 -0.13791070903E+02  0.46527500062E+01  0.91965170026E+02  0.85827108227E+02 0.  0.
         13    1    3    3    0    0  0.38633722347E+02 -0.31139983357E+02  0.31491011942E+02  0.58770384235E+02  0.10566000000E+00 0.  1.
         22    1    1    0    0    0 -0.29655661721E+02  0.13791070903E+02 -0.46527500062E+01  0.33034829974E+02  0.00000000000E+00 0.  1.
</event>
<event>
 5    1  0.1766627E-003  0.9118800E+02  0.7818608E-02  0.1130116E+00
         25   -1    0    0    0    0  0.00000000000E+00  0.00000000000E+00  0.99999998245E-14  0.12500000000E+03  0.12500000000E+03 0.  0.
        -13    1    3    3    0    0 -0.39086482392E+02 -0.12199039170E+02  0.24004808303E+02  0.47463793023E+02  0.10566000000E+00 0.  1.
         23    2    1    0    0    0 -0.10853138617E+02  0.23834958650E+02  0.17006424382E+02  0.93773179125E+02  0.88421121806E+02 0.  0.
         13    1    3    3    0    0  0.28233343775E+02  0.36033997820E+02 -0.69983839214E+01  0.46309386102E+02  0.10566000000E+00 0. -1.
         22    1    1    0    0    0  0.10853138617E+02 -0.23834958650E+02 -0.17006424382E+02  0.31226820875E+02  0.00000000000E+00 0.  1.
</event>
<event>
 5    1  0.1766627E-003  0.9118800E+02  0.7818608E-02  0.1130116E+00
         25   -1    0    0    0    0  0.00000000000E+00  0.00000000000E+00  0.99999998245E-14  0.12500000000E+03  0.12500000000E+03 0.  0.
        -13    1    3    3    0    0  0.13035965809E+02 -0.23343217262E+02  0.22228092693E+02  0.34769835569E+02  0.10566000000E+00 0. -1.
         23    2    1    0    0    0 -0.24440483309E+02 -0.39519086142E+02  0.90681036844E+01  0.77657356450E+02  0.61557608079E+02 0.  0.
         13    1    3    3    0    0 -0.37476449118E+02 -0.16175868880E+02 -0.13159989008E+02  0.42887520880E+02  0.10566000000E+00 0.  1.
         22    1    1    0    0    0  0.24440483309E+02  0.39519086142E+02 -0.90681036844E+01  0.47342643550E+02  0.00000000000E+00 0.  1.
</event>
<event>
 5    1  0.1766627E-003  0.9118800E+02  0.7818608E-02  0.1130116E+00
         25   -1    0    0    0    0  0.00000000000E+00  0.00000000000E+00  0.99999998245E-14  0.12500000000E+03  0.12500000000E+03 0.  0.
        -13    1    3    3    0    0 -0.36935727419E+02  0.12067143649E+02  0.21264162009E+01  0.38915250555E+02  0.10566000000E+00 0.  1.
         23    2    1    0    0    0 -0.76240909236E+01 -0.14685405207E+02 -0.30507099030E+02  0.90294510813E+02  0.83358429107E+02 0.  0.
         13    1    3    3    0    0  0.29311636495E+02 -0.26752548857E+02 -0.32633515230E+02  0.51379260258E+02  0.10566000000E+00 0. -1.
         22    1    1    0    0    0  0.76240909236E+01  0.14685405207E+02  0.30507099030E+02  0.34705489187E+02  0.00000000000E+00 0.  1.
</event>
<event>
 5    1  0.1766627E-003  0.9118800E+02  0.7818608E-02  0.1130116E+00
         25   -1    0    0    0    0  0.00000000000E+00  0.00000000000E+00  0.99999998245E-14  0.12500000000E+03  0.12500000000E+03 0.  0.
        -13    1    3    3    0    0  0.44294868008E+02 -0.30009450443E+01 -0.13056647185E+01  0.44415728378E+02  0.10566000000E+00 0. -1.
         23    2    1    0    0    0  0.91217054710E+01 -0.21310619054E+02  0.24140688712E+02  0.91531793495E+02  0.85193593502E+02 0.  0.
         13    1    3    3    0    0 -0.35173162537E+02 -0.18309674009E+02  0.25446353430E+02  0.47116065117E+02  0.10566000000E+00 0.  1.
         22    1    1    0    0    0 -0.91217054710E+01  0.21310619054E+02 -0.24140688712E+02  0.33468206505E+02  0.00000000000E+00 0. -1.
</event>
<event>
 5    1  0.1766627E-003  0.9118800E+02  0.7818608E-02  0.1130116E+00
         25   -1    0    0    0    0  0.00000000000E+00  0.00000000000E+00  0.99999998245E-14  0.12500000000E+03  0.12500000000E+03 0.  0.
        -13    1    3    3    0    0  0.26028998865E+02 -0.15589169211E+02 -0.24008907845E+02  0.38690693953E+02  0.10566000000E+00 0. -1.
         23    2    1    0    0    0  0.30520254734E+01 -0.92741118701E+01  0.27701934499E+02  0.95627884219E+02  0.91005335310E+02 0.  0.
         13    1    3    3    0    0 -0.22976973392E+02  0.63150573408E+01  0.51710842344E+02  0.56937190266E+02  0.10566000000E+00 0.  1.
         22    1    1    0    0    0 -0.30520254734E+01  0.92741118701E+01 -0.27701934499E+02  0.29372115781E+02  0.00000000000E+00 0.  1.
</event>
<event>
 5    1  0.1766627E-003  0.9118800E+02  0.7818608E-02  0.1130116E+00
         25   -1    0    0    0    0  0.00000000000E+00  0.00000000000E+00  0.99999998245E-14  0.12500000000E+03  0.12500000000E+03 0.  0.
        -13    1    3    3    0    0 -0.41925757293E+02  0.36041016356E+02  0.17130051757E+02  0.57880686086E+02  0.10566000000E+00 0.  1.
         23    2    1    0    0    0 -0.81905822612E+01  0.20361776085E+02  0.20151991709E+02  0.95204189338E+02  0.90421498188E+02 0.  0.
         13    1    3    3    0    0  0.33735175032E+02 -0.15679240270E+02  0.30219399522E+01  0.37323503252E+02  0.10566000000E+00 0. -1.
         22    1    1    0    0    0  0.81905822612E+01 -0.20361776085E+02 -0.20151991709E+02  0.29795810662E+02  0.00000000000E+00 0.  1.
</event>
<event>
 5    1  0.1766627E-003  0.9118800E+02  0.7818608E-02  0.1130116E+00
         25   -1    0    0    0    0  0.00000000000E+00  0.00000000000E+00  0.99999998245E-14  0.12500000000E+03  0.12500000000E+03 0.  0.
        -13    1    3    3    0    0 -0.63211394898E+01  0.15503724904E+02 -0.28781160159E+02  0.33296976356E+02  0.10566000000E+00 0. -1.
         23    2    1    0    0    0  0.39752931029E+01 -0.26137010639E+02  0.15011635656E+02  0.94597771702E+02  0.89579254995E+02 0.  0.
         13    1    3    3    0    0  0.10296432593E+02 -0.41640735543E+02  0.43792795815E+02  0.61300795346E+02  0.10566000000E+00 0.  1.
         22    1    1    0    0    0 -0.39752931029E+01  0.26137010639E+02 -0.15011635656E+02  0.30402228298E+02  0.00000000000E+00 0.  1.
</event>
<event>
 5    1  0.1766627E-003  0.9118800E+02  0.7818608E-02  0.1130116E+00
         25   -1    0    0    0    0  0.00000000000E+00  0.00000000000E+00  0.99999998245E-14  0.12500000000E+03  0.12500000000E+03 0.  0.
        -13    1    3    3    0    0 -0.33094565931E+02  0.27149603882E+02  0.43498623644E+02  0.61028622040E+02  0.10566000000E+00 0.  1.
         23    2    1    0    0    0 -0.23179943041E+02  0.10479178643E+02  0.15105115966E+02  0.95414742307E+02  0.90712102703E+02 0.  0.
         13    1    3    3    0    0  0.99146228910E+01 -0.16670425239E+02 -0.28393507678E+02  0.34386120267E+02  0.10566000000E+00 0. -1.
         22    1    1    0    0    0  0.23179943041E+02 -0.10479178643E+02 -0.15105115966E+02  0.29585257693E+02  0.00000000000E+00 0.  1.
</event>
<event>
 5    1  0.1766627E-003  0.9118800E+02  0.7818608E-02  0.1130116E+00
         25   -1    0    0    0    0  0.00000000000E+00  0.00000000000E+00  0.99999998245E-14  0.12500000000E+03  0.12500000000E+03 0.  0.
        -13    1    3    3    0    0  0.23075144107E+01  0.28553089610E+02  0.51052001798E+02  0.58539914594E+02  0.10566000000E+00 0. -1.
         23    2    1    0    0    0  0.19132744037E+01 -0.11872286335E+01  0.29847306529E+02  0.95067879497E+02  0.90232864713E+02 0.  0.
         13    1    3    3    0    0 -0.39424000695E+00 -0.29740318244E+02 -0.21204695270E+02  0.36527964903E+02  0.10566000000E+00 0.  1.
         22    1    1    0    0    0 -0.19132744037E+01  0.11872286335E+01 -0.29847306529E+02  0.29932120503E+02  0.00000000000E+00 0. -1.
</event>
<event>
 5    1  0.1766627E-003  0.9118800E+02  0.7818608E-02  0.1130116E+00
         25   -1    0    0    0    0  0.00000000000E+00  0.00000000000E+00  0.99999998245E-14  0.12500000000E+03  0.12500000000E+03 0.  0.
        -13    1    3    3    0    0 -0.29788882159E+02 -0.31466175978E+02  0.26033916392E+02  0.50549715110E+02  0.10566000000E+00 0.  1.
         23    2    1    0    0    0  0.11131371722E+02 -0.12579349948E+02  0.24053578648E+02  0.95661933818E+02  0.91052091983E+02 0.  0.
         13    1    3    3    0    0  0.40920253881E+02  0.18886826030E+02 -0.19803377433E+01  0.45112218708E+02  0.10566000000E+00 0. -1.
         22    1    1    0    0    0 -0.11131371722E+02  0.12579349948E+02 -0.24053578648E+02  0.29338066182E+02  0.00000000000E+00 0. -1.
</event>
<event>
 5    1  0.1766627E-003  0.9118800E+02  0.7818608E-02  0.1130116E+00
         25   -1    0    0    0    0  0.00000000000E+00  0.00000000000E+00  0.99999998245E-14  0.12500000000E+03  0.12500000000E+03 0.  0.
        -13    1    3    3    0    0 -0.43719581895E+01  0.29405197355E+02 -0.18231469710E+02  0.34873733694E+02  0.10566000000E+00 0. -1.
         23    2    1    0    0    0 -0.81485651790E+01 -0.16081921908E+02  0.22582362920E+02  0.96103798835E+02  0.91656694839E+02 0.  0.
         13    1    3    3    0    0 -0.37766069894E+01 -0.45487119263E+02  0.40813832630E+02  0.61230065141E+02  0.10566000000E+00 0.  1.
         22    1    1    0    0    0  0.81485651790E+01  0.16081921908E+02 -0.22582362920E+02  0.28896201165E+02  0.00000000000E+00 0.  1.
</event>
<event>
 5    1  0.1766627E-003  0.9118800E+02  0.7818608E-02  0.1130116E+00
         25   -1    0    0    0    0  0.00000000000E+00  0.00000000000E+00  0.99999998245E-14  0.12500000000E+03  0.12500000000E+03 0.  0.
        -13    1    3    3    0    0  0.27651606914E+02  0.32179559737E+02  0.59651926199E+01  0.42845421188E+02  0.10566000000E+00 0. -1.
         23    2    1    0    0    0  0.10932962889E+02 -0.16505146512E+02  0.20668304375E+02  0.96379581683E+02  0.92032034753E+02 0.  0.
         13    1    3    3    0    0 -0.16718644025E+02 -0.48684706249E+02  0.14703111755E+02  0.53534160495E+02  0.10566000000E+00 0.  1.
         22    1    1    0    0    0 -0.10932962889E+02  0.16505146512E+02 -0.20668304375E+02  0.28620418317E+02  0.00000000000E+00 0.  1.
</event>
<event>
 5    1  0.1766627E-003  0.9118800E+02  0.7818608E-02  0.1130116E+00
         25   -1    0    0    0    0  0.00000000000E+00  0.00000000000E+00  0.99999998245E-14  0.12500000000E+03  0.12500000000E+03 0.  0.
        -13    1    3    3    0    0 -0.20457919014E+02 -0.78788027229E+01  0.37606289256E+02  0.43529830443E+02  0.10566000000E+00 0.  1.
         23    2    1    0    0    0 -0.15083248654E+02  0.26066358452E+02 -0.54596116267E+00  0.94879284429E+02  0.89971223774E+02 0.  0.
         13    1    3    3    0    0  0.53746703601E+01  0.33945161175E+02 -0.38152250419E+02  0.51349453986E+02  0.10566000000E+00 0. -1.
         22    1    1    0    0    0  0.15083248654E+02 -0.26066358452E+02  0.54596116267E+00  0.30120715571E+02  0.00000000000E+00 0. -1.
</event>
<event>
 5    1  0.1766627E-003  0.9118800E+02  0.7818608E-02  0.1130116E+00
         25   -1    0    0    0    0  0.00000000000E+00  0.00000000000E+00  0.99999998245E-14  0.12500000000E+03  0.12500000000E+03 0.  0.
        -13    1    3    3    0    0 -0.24096521074E+02 -0.26999327243E+02 -0.87134443767E+01  0.37222859594E+02  0.10566000000E+00 0.  1.
         23    2    1    0    0    0  0.27233467501E+02 -0.89740595935E+00  0.69082663383E+01  0.96889659672E+02  0.92722246079E+02 0.  0.
         13    1    3    3    0    0  0.51329988575E+02  0.26101921283E+02  0.15621710715E+02  0.59666800077E+02  0.10566000000E+00 0. -1.
         22    1    1    0    0    0 -0.27233467501E+02  0.89740595935E+00 -0.69082663383E+01  0.28110340328E+02  0.00000000000E+00 0. -1.
</event>
<event>
 5    1  0.1766627E-003  0.9118800E+02  0.7818608E-02  0.1130116E+00
         25   -1    0    0    0    0  0.00000000000E+00  0.00000000000E+00  0.99999998245E-14  0.12500000000E+03  0.12500000000E+03 0.  0.
        -13    1    3    3    0    0  0.41350037200E+02  0.24770225354E+02  0.13980106151E+02  0.50188087955E+02  0.10566000000E+00 0. -1.
         23    2    1    0    0    0  0.25129157556E+02 -0.15845564938E+02  0.42893063397E+01  0.94984093608E+02  0.90116720990E+02 0.  0.
         13    1    3    3    0    0 -0.16220879644E+02 -0.40615790292E+02 -0.96907998116E+01  0.44796005653E+02  0.10566000000E+00 0.  1.
         22    1    1    0    0    0 -0.25129157556E+02  0.15845564938E+02 -0.42893063397E+01  0.30015906392E+02  0.00000000000E+00 0.  1.
</event>
<event>
 5    1  0.1766627E-003  0.9118800E+02  0.7818608E-02  0.1130116E+00
         25   -1    0    0    0    0  0.00000000000E+00  0.00000000000E+00  0.99999998245E-14  0.12500000000E+03  0.12500000000E+03 0.  0.
        -13    1    3    3    0    0 -0.17789904111E+02 -0.21642307200E+02  0.30080799727E+02  0.41106396406E+02  0.10566000000E+00 0.  1.
         23    2    1    0    0    0 -0.11532612247E+02  0.19381667883E+02 -0.11354706936E+02  0.99749662086E+02  0.96500857620E+02 0.  0.
         13    1    3    3    0    0  0.62572918641E+01  0.41023975083E+02 -0.41435506664E+02  0.58643265680E+02  0.10566000000E+00 0. -1.
         22    1    1    0    0    0  0.11532612247E+02 -0.19381667883E+02  0.11354706936E+02  0.25250337914E+02  0.00000000000E+00 0. -1.
</event>
<event>
 5    1  0.1766627E-003  0.9118800E+02  0.7818608E-02  0.1130116E+00
         25   -1    0    0    0    0  0.00000000000E+00  0.00000000000E+00  0.99999998245E-14  0.12500000000E+03  0.12500000000E+03 0.  0.
        -13    1    3    3    0    0  0.14839846926E+02 -0.24185975297E+02  0.43334943895E+02  0.51798754659E+02  0.10566000000E+00 0. -1.
         23    2    1    0    0    0 -0.40572138675E+01  0.12299276632E+02  0.25107499550E+02  0.96748987209E+02  0.92532409470E+02 0.  0.
         13    1    3    3    0    0 -0.18897060794E+02  0.36485251929E+02 -0.18227444344E+02  0.44950232550E+02  0.10566000000E+00 0.  1.
         22    1    1    0    0    0  0.40572138675E+01 -0.12299276632E+02 -0.25107499550E+02  0.28251012791E+02  0.00000000000E+00 0. -1.
</event>
<event>
 5    1  0.1766627E-003  0.9118800E+02  0.7818608E-02  0.1130116E+00
         25   -1    0    0    0    0  0.00000000000E+00  0.00000000000E+00  0.99999998245E-14  0.12500000000E+03  0.12500000000E+03 0.  0.
        -13    1    3    3    0    0 -0.31465264090E+02  0.38138062425E+01 -0.41862566732E+02  0.52508033859E+02  0.10566000000E+00 0.  1.
         23    2    1    0    0    0 -0.24310031091E+02  0.16689892832E+02 -0.15007604598E+01  0.95474038265E+02  0.90793774932E+02 0.  0.
         13    1    3    3    0    0  0.71552329988E+01  0.12876086589E+02  0.40361806272E+02  0.42966004407E+02  0.10566000000E+00 0. -1.
         22    1    1    0    0    0  0.24310031091E+02 -0.16689892832E+02  0.15007604598E+01  0.29525961735E+02  0.00000000000E+00 0.  1.
</event>
<event>
 5    1  0.1766627E-003  0.9118800E+02  0.7818608E-02  0.1130116E+00
         25   -1    0    0    0    0  0.00000000000E+00  0.00000000000E+00  0.99999998245E-14  0.12500000000E+03  0.12500000000E+03 0.  0.
        -13    1    3    3    0    0  0.53881999120E+02  0.80276741995E+01 -0.10436635737E+02  0.55467539262E+02  0.10566000000E+00 0.  1.
         23    2    1    0    0    0  0.25323747917E+02 -0.16510275584E+02  0.79416128683E+00  0.94759098880E+02  0.89804090775E+02 0.  0.
         13    1    3    3    0    0 -0.28558251203E+02 -0.24537949783E+02  0.11230797023E+02  0.39291559617E+02  0.10566000000E+00 0. -1.
         22    1    1    0    0    0 -0.25323747917E+02  0.16510275584E+02 -0.79416128683E+00  0.30240901120E+02  0.00000000000E+00 0.  1.
</event>
<event>
 5    1  0.1766627E-003  0.9118800E+02  0.7818608E-02  0.1130116E+00
         25   -1    0    0    0    0  0.00000000000E+00  0.00000000000E+00  0.99999998245E-14  0.12500000000E+03  0.12500000000E+03 0.  0.
        -13    1    3    3    0    0  0.12794308433E+02  0.28327691058E+02 -0.31230073551E+02  0.44062240830E+02  0.10566000000E+00 0. -1.
         23    2    1    0    0    0  0.10756285708E+02  0.19725187591E+02  0.19313002934E+02  0.95372769450E+02  0.90654246246E+02 0.  0.
         13    1    3    3    0    0 -0.20380227254E+01 -0.86025034668E+01  0.50543076486E+02  0.51310528619E+02  0.10566000000E+00 0.  1.
         22    1    1    0    0    0 -0.10756285708E+02 -0.19725187591E+02 -0.19313002934E+02  0.29627230550E+02  0.00000000000E+00 0.  1.
</event>
<event>
 5    1  0.1766627E-003  0.9118800E+02  0.7818608E-02  0.1130116E+00
         25   -1    0    0    0    0  0.00000000000E+00  0.00000000000E+00  0.99999998245E-14  0.12500000000E+03  0.12500000000E+03 0.  0.
        -13    1    3    3    0    0 -0.19363201970E+02  0.22104882592E+02  0.31841311159E+02  0.43329432090E+02  0.10566000000E+00 0. -1.
         23    2    1    0    0    0  0.21273219718E+02 -0.85996135969E+01  0.17197208712E+02  0.96325146580E+02  0.91958070037E+02 0.  0.
         13    1    3    3    0    0  0.40636421688E+02 -0.30704496188E+02 -0.14644102447E+02  0.52995714490E+02  0.10566000000E+00 0.  1.
         22    1    1    0    0    0 -0.21273219718E+02  0.85996135969E+01 -0.17197208712E+02  0.28674853420E+02  0.00000000000E+00 0.  1.
</event>
<event>
 5    1  0.1766627E-003  0.9118800E+02  0.7818608E-02  0.1130116E+00
         25   -1    0    0    0    0  0.00000000000E+00  0.00000000000E+00  0.99999998245E-14  0.12500000000E+03  0.12500000000E+03 0.  0.
        -13    1    3    3    0    0  0.13887993774E+02  0.29862695637E+02  0.85769070144E+01  0.34032799764E+02  0.10566000000E+00 0. -1.
         23    2    1    0    0    0 -0.15282087274E+02 -0.63653981593E+01 -0.27503507985E+02  0.92898544633E+02  0.87175892071E+02 0.  0.
         13    1    3    3    0    0 -0.29170081048E+02 -0.36228093796E+02 -0.36080414999E+02  0.58865744870E+02  0.10566000000E+00 0.  1.
         22    1    1    0    0    0  0.15282087274E+02  0.63653981593E+01  0.27503507985E+02  0.32101455367E+02  0.00000000000E+00 0.  1.
</event>
<event>
 5    1  0.1766627E-003  0.9118800E+02  0.7818608E-02  0.1130116E+00
         25   -1    0    0    0    0  0.00000000000E+00  0.00000000000E+00  0.99999998245E-14  0.12500000000E+03  0.12500000000E+03 0.  0.
        -13    1    3    3    0    0 -0.35393812315E+02  0.15545343744E+02 -0.94157418843E+01  0.39787523441E+02  0.10566000000E+00 0.  1.
         23    2    1    0    0    0 -0.41414717268E+01 -0.28627996517E+02  0.46641326958E+01  0.95700373613E+02  0.91104848406E+02 0.  0.
         13    1    3    3    0    0  0.31252340588E+02 -0.44173340261E+02  0.14079874580E+02  0.55912850171E+02  0.10566000000E+00 0. -1.
         22    1    1    0    0    0  0.41414717268E+01  0.28627996517E+02 -0.46641326958E+01  0.29299626387E+02  0.00000000000E+00 0. -1.
</event>
<event>
 5    1  0.1766627E-003  0.9118800E+02  0.7818608E-02  0.1130116E+00
         25   -1    0    0    0    0  0.00000000000E+00  0.00000000000E+00  0.99999998245E-14  0.12500000000E+03  0.12500000000E+03 0.  0.
        -13    1    3    3    0    0 -0.19704295033E+01  0.24146649962E+02  0.38804891671E+02  0.45746847743E+02  0.10566000000E+00 0.  1.
         23    2    1    0    0    0 -0.24174033682E+02 -0.11139136274E+02  0.93673658638E+01  0.96782774682E+02  0.92578040974E+02 0.  0.
         13    1    3    3    0    0 -0.22203604179E+02 -0.35285786236E+02 -0.29437525807E+02  0.51035926939E+02  0.10566000000E+00 0. -1.
         22    1    1    0    0    0  0.24174033682E+02  0.11139136274E+02 -0.93673658638E+01  0.28217225318E+02  0.00000000000E+00 0. -1.
</event>
<event>
 5    1  0.1766627E-003  0.9118800E+02  0.7818608E-02  0.1130116E+00
         25   -1    0    0    0    0  0.00000000000E+00  0.00000000000E+00  0.99999998245E-14  0.12500000000E+03  0.12500000000E+03 0.  0.
        -13    1    3    3    0    0 -0.72681822071E+01  0.28775493997E+02 -0.42768856286E+02  0.52058061426E+02  0.10566000000E+00 0.  1.
         23    2    1    0    0    0 -0.25525487169E+02  0.14510381899E+02 -0.67710717081E+01  0.94867806417E+02  0.89955275577E+02 0.  0.
         13    1    3    3    0    0 -0.18257304962E+02 -0.14265112099E+02  0.35997784578E+02  0.42809744991E+02  0.10566000000E+00 0. -1.
         22    1    1    0    0    0  0.25525487169E+02 -0.14510381899E+02  0.67710717081E+01  0.30132193583E+02  0.00000000000E+00 0.  1.
</event>
<event>
 5    1  0.1766627E-003  0.9118800E+02  0.7818608E-02  0.1130116E+00
         25   -1    0    0    0    0  0.00000000000E+00  0.00000000000E+00  0.99999998245E-14  0.12500000000E+03  0.12500000000E+03 0.  0.
        -13    1    3    3    0    0  0.99859395031E+01 -0.42282252924E+02 -0.19999298168E+02  0.47827721996E+02  0.10566000000E+00 0. -1.
         23    2    1    0    0    0  0.28857998176E+02 -0.16058444556E+01 -0.24039264348E+01  0.95997557733E+02  0.91511690145E+02 0.  0.
         13    1    3    3    0    0  0.18872058673E+02  0.40676408468E+02  0.17595371733E+02  0.48169835737E+02  0.10566000000E+00 0.  1.
         22    1    1    0    0    0 -0.28857998176E+02  0.16058444556E+01  0.24039264348E+01  0.29002442267E+02  0.00000000000E+00 0.  1.
</event>
<event>
 5    1  0.1766627E-003  0.9118800E+02  0.7818608E-02  0.1130116E+00
         25   -1    0    0    0    0  0.00000000000E+00  0.00000000000E+00  0.99999998245E-14  0.12500000000E+03  0.12500000000E+03 0.  0.
        -13    1    3    3    0    0 -0.17658331378E+01  0.22259822531E+02 -0.49807563555E+02  0.54584085750E+02  0.10566000000E+00 0.  1.
         23    2    1    0    0    0 -0.89888266828E+01  0.25423042324E+02 -0.83698050395E+01  0.96765557868E+02  0.92554791702E+02 0.  0.
         13    1    3    3    0    0 -0.72229935451E+01  0.31632197923E+01  0.41437758516E+02  0.42181472118E+02  0.10566000000E+00 0. -1.
         22    1    1    0    0    0  0.89888266828E+01 -0.25423042324E+02  0.83698050395E+01  0.28234442132E+02  0.00000000000E+00 0.  1.
</event>
<event>
 5    1  0.1766627E-003  0.9118800E+02  0.7818608E-02  0.1130116E+00
         25   -1    0    0    0    0  0.00000000000E+00  0.00000000000E+00  0.99999998245E-14  0.12500000000E+03  0.12500000000E+03 0.  0.
        -13    1    3    3    0    0  0.74711462598E+01  0.11233192754E+01  0.34093665721E+02  0.34920897453E+02  0.10566000000E+00 0.  1.
         23    2    1    0    0    0  0.76438413014E+00  0.17587633710E+02 -0.23751137282E+02  0.95436074943E+02  0.90741494013E+02 0.  0.
         13    1    3    3    0    0 -0.67067621297E+01  0.16464314435E+02 -0.57844803003E+02  0.60515177489E+02  0.10566000000E+00 0. -1.
         22    1    1    0    0    0 -0.76438413014E+00 -0.17587633710E+02  0.23751137282E+02  0.29563925057E+02  0.00000000000E+00 0. -1.
</event>
<event>
 5    1  0.1766627E-003  0.9118800E+02  0.7818608E-02  0.1130116E+00
         25   -1    0    0    0    0  0.00000000000E+00  0.00000000000E+00  0.99999998245E-14  0.12500000000E+03  0.12500000000E+03 0.  0.
        -13    1    3    3    0    0 -0.17289657296E+01 -0.29534355024E+02  0.23112534126E+02  0.37542880110E+02  0.10566000000E+00 0. -1.
         23    2    1    0    0    0 -0.22824281615E+02  0.18384723515E+02 -0.20261531224E+01  0.95622267167E+02  0.90997619703E+02 0.  0.
         13    1    3    3    0    0 -0.21095315885E+02  0.47919078539E+02 -0.25138687248E+02  0.58079387057E+02  0.10566000000E+00 0.  1.
         22    1    1    0    0    0  0.22824281615E+02 -0.18384723515E+02  0.20261531224E+01  0.29377732833E+02  0.00000000000E+00 0.  1.
</event>
<event>
 5    1  0.1766627E-003  0.9118800E+02  0.7818608E-02  0.1130116E+00
         25   -1    0    0    0    0  0.00000000000E+00  0.00000000000E+00  0.99999998245E-14  0.12500000000E+03  0.12500000000E+03 0.  0.
        -13    1    3    3    0    0 -0.30900669069E+02  0.21604341578E+02  0.32780787394E+02  0.49961886575E+02  0.10566000000E+00 0. -1.
         23    2    1    0    0    0 -0.81497421503E+01 -0.15862342534E+02  0.24701537956E+02  0.94533654876E+02  0.89489740859E+02 0.  0.
         13    1    3    3    0    0  0.22750926919E+02 -0.37466684112E+02 -0.80792494375E+01  0.44571768301E+02  0.10566000000E+00 0.  1.
         22    1    1    0    0    0  0.81497421503E+01  0.15862342534E+02 -0.24701537956E+02  0.30466345124E+02  0.00000000000E+00 0. -1.
</event>
<event>
 5    1  0.1766627E-003  0.9118800E+02  0.7818608E-02  0.1130116E+00
         25   -1    0    0    0    0  0.00000000000E+00  0.00000000000E+00  0.99999998245E-14  0.12500000000E+03  0.12500000000E+03 0.  0.
        -13    1    3    3    0    0  0.10195008672E+02  0.35555542652E+02 -0.32151062117E+01  0.37127925973E+02  0.10566000000E+00 0.  1.
         23    2    1    0    0    0 -0.27104417670E+02 -0.80624908149E+01  0.80150928344E+01  0.95607910443E+02  0.90977896276E+02 0.  0.
         13    1    3    3    0    0 -0.37299426342E+02 -0.43618033467E+02  0.11230199046E+02  0.58479984470E+02  0.10566000000E+00 0. -1.
         22    1    1    0    0    0  0.27104417670E+02  0.80624908149E+01 -0.80150928344E+01  0.29392089557E+02  0.00000000000E+00 0. -1.
</event>
<event>
 5    1  0.1766627E-003  0.9118800E+02  0.7818608E-02  0.1130116E+00
         25   -1    0    0    0    0  0.00000000000E+00  0.00000000000E+00  0.99999998245E-14  0.12500000000E+03  0.12500000000E+03 0.  0.
        -13    1    3    3    0    0 -0.71870492607E+01  0.22919863993E+02 -0.51785891582E+02  0.57085581135E+02  0.10566000000E+00 0. -1.
         23    2    1    0    0    0  0.27167387036E+01 -0.52958094413E+01 -0.30829500655E+02  0.93601204204E+02  0.88177667530E+02 0.  0.
         13    1    3    3    0    0  0.99037879643E+01 -0.28215673434E+02  0.20956390928E+02  0.36515623069E+02  0.10566000000E+00 0.  1.
         22    1    1    0    0    0 -0.27167387036E+01  0.52958094413E+01  0.30829500655E+02  0.31398795796E+02  0.00000000000E+00 0. -1.
</event>
<event>
 5    1  0.1766627E-003  0.9118800E+02  0.7818608E-02  0.1130116E+00
         25   -1    0    0    0    0  0.00000000000E+00  0.00000000000E+00  0.99999998245E-14  0.12500000000E+03  0.12500000000E+03 0.  0.
        -13    1    3    3    0    0 -0.26497025888E+02 -0.22039713633E+01  0.24133910301E+02  0.35908309082E+02  0.10566000000E+00 0. -1.
         23    2    1    0    0    0  0.12340135805E+02 -0.16836217560E+02 -0.19717685823E+02  0.96285468702E+02  0.91904119470E+02 0.  0.
         13    1    3    3    0    0  0.38837161693E+02 -0.14632246197E+02 -0.43851596124E+02  0.60377159620E+02  0.10566000000E+00 0.  1.
         22    1    1    0    0    0 -0.12340135805E+02  0.16836217560E+02  0.19717685823E+02  0.28714531298E+02  0.00000000000E+00 0.  1.
</event>
<event>
 5    1  0.1766627E-003  0.9118800E+02  0.7818608E-02  0.1130116E+00
         25   -1    0    0    0    0  0.00000000000E+00  0.00000000000E+00  0.99999998245E-14  0.12500000000E+03  0.12500000000E+03 0.  0.
        -13    1    3    3    0    0  0.15410409327E+02  0.29002477318E+02 -0.20961842930E+02  0.38961961312E+02  0.10566000000E+00 0. -1.
         23    2    1    0    0    0 -0.33662513874E+01 -0.25378222531E+02 -0.30418666448E+01  0.99219410791E+02  0.95811547832E+02 0.  0.
         13    1    3    3    0    0 -0.18776660715E+02 -0.54380699849E+02  0.17919976286E+02  0.60257449480E+02  0.10566000000E+00 0.  1.
         22    1    1    0    0    0  0.33662513874E+01  0.25378222531E+02  0.30418666448E+01  0.25780589209E+02  0.00000000000E+00 0.  1.
</event>
<event>
 5    1  0.1766627E-003  0.9118800E+02  0.7818608E-02  0.1130116E+00
         25   -1    0    0    0    0  0.00000000000E+00  0.00000000000E+00  0.99999998245E-14  0.12500000000E+03  0.12500000000E+03 0.  0.
        -13    1    3    3    0    0  0.38975959316E+02  0.28923453553E+02  0.13573761979E+02  0.50397914126E+02  0.10566000000E+00 0.  1.
         23    2    1    0    0    0  0.20959867840E+01  0.25267159397E+02 -0.13482426694E+02  0.96284179723E+02  0.91902366296E+02 0.  0.
         13    1    3    3    0    0 -0.36879972532E+02 -0.36562941554E+01 -0.27056188673E+02  0.45886265597E+02  0.10566000000E+00 0. -1.
         22    1    1    0    0    0 -0.20959867840E+01 -0.25267159397E+02  0.13482426694E+02  0.28715820277E+02  0.00000000000E+00 0.  1.
</event>
<event>
 5    1  0.1766627E-003  0.9118800E+02  0.7818608E-02  0.1130116E+00
         25   -1    0    0    0    0  0.00000000000E+00  0.00000000000E+00  0.99999998245E-14  0.12500000000E+03  0.12500000000E+03 0.  0.
        -13    1    3    3    0    0  0.65382152582E+01  0.32648947858E+02  0.42834586411E+02  0.54254170458E+02  0.10566000000E+00 0.  1.
         23    2    1    0    0    0  0.74924749253E+01  0.17687851781E+00  0.36985523830E+02  0.87262784423E+02  0.78680976771E+02 0.  0.
         13    1    3    3    0    0  0.95425966715E+00 -0.32472069340E+02 -0.58490625809E+01  0.33008613965E+02  0.10566000000E+00 0. -1.
         22    1    1    0    0    0 -0.74924749253E+01 -0.17687851781E+00 -0.36985523830E+02  0.37737215577E+02  0.00000000000E+00 0.  1.
</event>
<event>
 5    1  0.1766627E-003  0.9118800E+02  0.7818608E-02  0.1130116E+00
         25   -1    0    0    0    0  0.00000000000E+00  0.00000000000E+00  0.99999998245E-14  0.12500000000E+03  0.12500000000E+03 0.  0.
        -13    1    3    3    0    0 -0.45788705631E+02  0.26849933259E+02  0.41730115801E+01  0.53244245408E+02  0.10566000000E+00 0.  1.
         23    2    1    0    0    0 -0.15021731323E+02  0.76834092638E+01  0.24840571748E+02  0.94970994112E+02  0.90098548978E+02 0.  0.
         13    1    3    3    0    0  0.30766974308E+02 -0.19166523995E+02  0.20667560168E+02  0.41726748704E+02  0.10566000000E+00 0. -1.
         22    1    1    0    0    0  0.15021731323E+02 -0.76834092638E+01 -0.24840571748E+02  0.30029005888E+02  0.00000000000E+00 0.  1.
</event>
<event>
 5    1  0.1766627E-003  0.9118800E+02  0.7818608E-02  0.1130116E+00
         25   -1    0    0    0    0  0.00000000000E+00  0.00000000000E+00  0.99999998245E-14  0.12500000000E+03  0.12500000000E+03 0.  0.
        -13    1    3    3    0    0 -0.94229426070E+01  0.36745578002E+02  0.32857468497E+02  0.50186190831E+02  0.10566000000E+00 0. -1.
         23    2    1    0    0    0  0.85991957498E+01 -0.53199802688E+01  0.26808387189E+02  0.96347984690E+02  0.91989108989E+02 0.  0.
         13    1    3    3    0    0  0.18022138357E+02 -0.42065558271E+02 -0.60490813072E+01  0.46161793859E+02  0.10566000000E+00 0.  1.
         22    1    1    0    0    0 -0.85991957498E+01  0.53199802688E+01 -0.26808387189E+02  0.28652015310E+02  0.00000000000E+00 0. -1.
</event>
<event>
 5    1  0.1766627E-003  0.9118800E+02  0.7818608E-02  0.1130116E+00
         25   -1    0    0    0    0  0.00000000000E+00  0.00000000000E+00  0.99999998245E-14  0.12500000000E+03  0.12500000000E+03 0.  0.
        -13    1    3    3    0    0  0.95530896187E+01 -0.56368212561E+01  0.43186242783E+02  0.44588092635E+02  0.10566000000E+00 0.  1.
         23    2    1    0    0    0 -0.16651860272E+02 -0.23058646361E+02  0.19075061666E+01  0.96493435803E+02  0.92186544305E+02 0.  0.
         13    1    3    3    0    0 -0.26204949891E+02 -0.17421825105E+02 -0.41278736616E+02  0.51905343168E+02  0.10566000000E+00 0. -1.
         22    1    1    0    0    0  0.16651860272E+02  0.23058646361E+02 -0.19075061666E+01  0.28506564197E+02  0.00000000000E+00 0. -1.
</event>
<event>
 5    1  0.1766627E-003  0.9118800E+02  0.7818608E-02  0.1130116E+00
         25   -1    0    0    0    0  0.00000000000E+00  0.00000000000E+00  0.99999998245E-14  0.12500000000E+03  0.12500000000E+03 0.  0.
        -13    1    3    3    0    0  0.36955027542E+02 -0.10285783372E+02  0.13439024639E+02  0.40645909358E+02  0.10566000000E+00 0. -1.
         23    2    1    0    0    0 -0.16890531602E+02 -0.20606362838E+02  0.12717166639E+02  0.95476474219E+02  0.90797128561E+02 0.  0.
         13    1    3    3    0    0 -0.53845559144E+02 -0.10320579465E+02 -0.72185799984E+00  0.54830564862E+02  0.10566000000E+00 0.  1.
         22    1    1    0    0    0  0.16890531602E+02  0.20606362838E+02 -0.12717166639E+02  0.29523525781E+02  0.00000000000E+00 0.  1.
</event>
<event>
 5    1  0.1766627E-003  0.9118800E+02  0.7818608E-02  0.1130116E+00
         25   -1    0    0    0    0  0.00000000000E+00  0.00000000000E+00  0.99999998245E-14  0.12500000000E+03  0.12500000000E+03 0.  0.
        -13    1    3    3    0    0  0.11301657145E+02  0.23092580542E+02  0.31626729102E+02  0.40758506941E+02  0.10566000000E+00 0.  1.
         23    2    1    0    0    0 -0.19221995237E+02  0.18693103147E+02 -0.13156769909E+02  0.95133332952E+02  0.90323492171E+02 0.  0.
         13    1    3    3    0    0 -0.30523652382E+02 -0.43994773950E+01 -0.44783499010E+02  0.54374826011E+02  0.10566000000E+00 0. -1.
         22    1    1    0    0    0  0.19221995237E+02 -0.18693103147E+02  0.13156769909E+02  0.29866667048E+02  0.00000000000E+00 0. -1.
</event>
<event>
 5    1  0.1766627E-003  0.9118800E+02  0.7818608E-02  0.1130116E+00
         25   -1    0    0    0    0  0.00000000000E+00  0.00000000000E+00  0.99999998245E-14  0.12500000000E+03  0.12500000000E+03 0.  0.
        -13    1    3    3    0    0 -0.28874767796E+02 -0.21760312031E+02  0.15224689434E+02  0.39230928199E+02  0.10566000000E+00 0.  1.
         23    2    1    0    0    0  0.24855586436E+02 -0.13487057688E+02 -0.29864304810E+01  0.96563761339E+02  0.92281852684E+02 0.  0.
         13    1    3    3    0    0  0.53730354232E+02  0.82732543425E+01 -0.18211119915E+02  0.57332833140E+02  0.10566000000E+00 0. -1.
         22    1    1    0    0    0 -0.24855586436E+02  0.13487057688E+02  0.29864304810E+01  0.28436238661E+02  0.00000000000E+00 0. -1.
</event>
<event>
 5    1  0.1766627E-003  0.9118800E+02  0.7818608E-02  0.1130116E+00
         25   -1    0    0    0    0  0.00000000000E+00  0.00000000000E+00  0.99999998245E-14  0.12500000000E+03  0.12500000000E+03 0.  0.
        -13    1    3    3    0    0 -0.44424011543E+02  0.57817008909E+01  0.37201797435E+02  0.58231484295E+02  0.10566000000E+00 0. -1.
         23    2    1    0    0    0 -0.28096957069E+02  0.63711044778E+01  0.31271508191E+01  0.96020541050E+02  0.91543078726E+02 0.  0.
         13    1    3    3    0    0  0.16327054475E+02  0.58940358691E+00 -0.34074646616E+02  0.37789056755E+02  0.10566000000E+00 0.  1.
         22    1    1    0    0    0  0.28096957069E+02 -0.63711044778E+01 -0.31271508191E+01  0.28979458950E+02  0.00000000000E+00 0. -1.
</event>
<event>
 5    1  0.1766627E-003  0.9118800E+02  0.7818608E-02  0.1130116E+00
         25   -1    0    0    0    0  0.00000000000E+00  0.00000000000E+00  0.99999998245E-14  0.12500000000E+03  0.12500000000E+03 0.  0.
        -13    1    3    3    0    0 -0.31573038315E+02 -0.11174868400E+02  0.12003522993E+02  0.35578507002E+02  0.10566000000E+00 0. -1.
         23    2    1    0    0    0  0.16543425429E+02  0.23598505563E+02  0.80527168947E+01  0.95076420015E+02  0.90244695155E+02 0.  0.
         13    1    3    3    0    0  0.48116463744E+02  0.34773373963E+02 -0.39508060984E+01  0.59497913013E+02  0.10566000000E+00 0.  1.
         22    1    1    0    0    0 -0.16543425429E+02 -0.23598505563E+02 -0.80527168947E+01  0.29923579985E+02  0.00000000000E+00 0.  1.
</event>
<event>
 5    1  0.1766627E-003  0.9118800E+02  0.7818608E-02  0.1130116E+00
         25   -1    0    0    0    0  0.00000000000E+00  0.00000000000E+00  0.99999998245E-14  0.12500000000E+03  0.12500000000E+03 0.  0.
        -13    1    3    3    0    0  0.67662118066E+01  0.16425438094E+02 -0.59874869516E+02  0.62454685993E+02  0.10566000000E+00 0. -1.
         23    2    1    0    0    0  0.40111605001E+01  0.91398548824E+01 -0.27782885982E+02  0.95478565256E+02  0.90800007236E+02 0.  0.
         13    1    3    3    0    0 -0.27550513065E+01 -0.72855832111E+01  0.32091983534E+02  0.33023879264E+02  0.10566000000E+00 0.  1.
         22    1    1    0    0    0 -0.40111605001E+01 -0.91398548824E+01  0.27782885982E+02  0.29521434744E+02  0.00000000000E+00 0. -1.
</event>
<event>
 5    1  0.1766627E-003  0.9118800E+02  0.7818608E-02  0.1130116E+00
         25   -1    0    0    0    0  0.00000000000E+00  0.00000000000E+00  0.99999998245E-14  0.12500000000E+03  0.12500000000E+03 0.  0.
        -13    1    3    3    0    0  0.52668935295E+02 -0.17459887506E+02  0.22489111679E+02  0.59871827473E+02  0.10566000000E+00 0. -1.
         23    2    1    0    0    0  0.22755374992E+02 -0.16029626568E+02  0.26638560522E+00  0.97164285886E+02  0.93091736859E+02 0.  0.
         13    1    3    3    0    0 -0.29913560302E+02  0.14302609385E+01 -0.22222726073E+02  0.37292458413E+02  0.10566000000E+00 0.  1.
         22    1    1    0    0    0 -0.22755374992E+02  0.16029626568E+02 -0.26638560522E+00  0.27835714114E+02  0.00000000000E+00 0. -1.
</event>
<event>
 4    1  0.1766627E-003  0.9118800E+02  0.7818608E-02  0.1130116E+00
         25   -1    0    0    0    0  0.00000000000E+00  0.00000000000E+00  0.99999998245E-14  0.12500000000E+03  0.12500000000E+03 0.  0.
        -13    1    1    0    0    0 -0.11405502033E+02 -0.11836189255E+02 -0.32497228125E+02  0.36417878199E+02  0.10566000000E+00 0.  1.
         13    1    1    0    0    0 -0.31964011889E+02  0.10147529631E+02 -0.13174446327E+01  0.33562139950E+02  0.10566000000E+00 0. -1.
         22    1    1    0    0    0  0.43369513922E+02  0.16886596244E+01  0.33814672758E+02  0.55019981851E+02  0.00000000000E+00 0.  1.
</event>
<event>
 5    1  0.1766627E-003  0.9118800E+02  0.7818608E-02  0.1130116E+00
         25   -1    0    0    0    0  0.00000000000E+00  0.00000000000E+00  0.99999998245E-14  0.12500000000E+03  0.12500000000E+03 0.  0.
        -13    1    3    3    0    0  0.59864133289E+02  0.86678154554E+01  0.12512654575E+02  0.61769111761E+02  0.10566000000E+00 0.  1.
         23    2    1    0    0    0  0.25935101486E+02  0.66663780959E+01  0.11727573650E+02  0.95766353807E+02  0.91195331305E+02 0.  0.
         13    1    3    3    0    0 -0.33929031803E+02 -0.20014373594E+01 -0.78508092502E+00  0.33997242046E+02  0.10566000000E+00 0. -1.
         22    1    1    0    0    0 -0.25935101486E+02 -0.66663780959E+01 -0.11727573650E+02  0.29233646193E+02  0.00000000000E+00 0.  1.
</event>
<event>
 5    1  0.1766627E-003  0.9118800E+02  0.7818608E-02  0.1130116E+00
         25   -1    0    0    0    0  0.00000000000E+00  0.00000000000E+00  0.99999998245E-14  0.12500000000E+03  0.12500000000E+03 0.  0.
        -13    1    3    3    0    0 -0.52044159312E+02 -0.30367811784E+02 -0.15703193273E+02  0.62268771901E+02  0.10566000000E+00 0. -1.
         23    2    1    0    0    0 -0.25959146692E+02 -0.10832319820E+02 -0.79914214245E+01  0.95758261576E+02  0.91184238736E+02 0.  0.
         13    1    3    3    0    0  0.26085012619E+02  0.19535491964E+02  0.77117718489E+01  0.33489489675E+02  0.10566000000E+00 0.  1.
         22    1    1    0    0    0  0.25959146692E+02  0.10832319820E+02  0.79914214245E+01  0.29241738424E+02  0.00000000000E+00 0. -1.
</event>
<event>
 5    1  0.1766627E-003  0.9118800E+02  0.7818608E-02  0.1130116E+00
         25   -1    0    0    0    0  0.00000000000E+00  0.00000000000E+00  0.99999998245E-14  0.12500000000E+03  0.12500000000E+03 0.  0.
        -13    1    3    3    0    0 -0.29490233095E+01 -0.43057436100E+02 -0.27960266888E+02  0.51423994696E+02  0.10566000000E+00 0. -1.
         23    2    1    0    0    0  0.51839279474E+01 -0.23417342158E+02  0.13107773569E+02  0.97667624497E+02  0.93765164769E+02 0.  0.
         13    1    3    3    0    0  0.81329512569E+01  0.19640093942E+02  0.41068040457E+02  0.46243629801E+02  0.10566000000E+00 0.  1.
         22    1    1    0    0    0 -0.51839279474E+01  0.23417342158E+02 -0.13107773569E+02  0.27332375503E+02  0.00000000000E+00 0. -1.
</event>
<event>
 5    1  0.1766627E-003  0.9118800E+02  0.7818608E-02  0.1130116E+00
         25   -1    0    0    0    0  0.00000000000E+00  0.00000000000E+00  0.99999998245E-14  0.12500000000E+03  0.12500000000E+03 0.  0.
        -13    1    3    3    0    0  0.87216738886E+01 -0.28058109787E+02 -0.12079468771E+02  0.31768692924E+02  0.10566000000E+00 0.  1.
         23    2    1    0    0    0 -0.12704278880E+02  0.23129699150E+02  0.16184462410E+02  0.94043280081E+02  0.88802139728E+02 0.  0.
         13    1    3    3    0    0 -0.21425952768E+02  0.51187808937E+02  0.28263931181E+02  0.62274587158E+02  0.10566000000E+00 0. -1.
         22    1    1    0    0    0  0.12704278880E+02 -0.23129699150E+02 -0.16184462410E+02  0.30956719919E+02  0.00000000000E+00 0. -1.
</event>
<event>
 5    1  0.1766627E-003  0.9118800E+02  0.7818608E-02  0.1130116E+00
         25   -1    0    0    0    0  0.00000000000E+00  0.00000000000E+00  0.99999998245E-14  0.12500000000E+03  0.12500000000E+03 0.  0.
        -13    1    3    3    0    0  0.49988840051E+01  0.56023510869E+01  0.24579258697E+02  0.25700706237E+02  0.10566000000E+00 0. -1.
         23    2    1    0    0    0 -0.21331958428E+02 -0.16103415437E+02 -0.26650931020E+02  0.87255535991E+02  0.78669460388E+02 0.  0.
         13    1    3    3    0    0 -0.26330842433E+02 -0.21705766524E+02 -0.51230189716E+02  0.61554829754E+02  0.10566000000E+00 0.  1.
         22    1    1    0    0    0  0.21331958428E+02  0.16103415437E+02  0.26650931020E+02  0.37744464009E+02  0.00000000000E+00 0.  1.
</event>
